Title
19942
    1ASP      N    1   1.414   2.592   2.928  0.8269 -0.6563 -0.5768
    1ASP    HT1    2   1.314   2.602   2.953  1.0205 -1.9669  0.9060
    1ASP    HT2    3   1.417   2.526   2.848  0.0168 -2.3863  0.7711
    1ASP    HT3    4   1.443   2.689   2.905  0.9129 -0.7030 -0.6641
    1ASP     CA    5   1.468   2.533   3.048 -0.2333  0.4165 -0.3677
    1ASP     HA    6   1.575   2.546   3.036 -0.3672  3.2794  0.7218
    1ASP     CB    7   1.433   2.619   3.176 -0.0644  0.2125 -0.5583
    1ASP    HB1    8   1.326   2.643   3.196 -0.3377 -0.6195 -1.0020
    1ASP    HB2    9   1.489   2.715   3.166  3.4734 -1.7705 -1.6506
    1ASP     CG   10   1.489   2.566   3.304 -0.2817 -0.4389  0.3666
    1ASP    OD1   11   1.445   2.604   3.417  0.0053 -0.3989 -0.4775
    1ASP    OD2   12   1.580   2.482   3.298 -0.2060 -0.3051  0.1228
    1ASP      C   13   1.456   2.374   3.061  0.0157 -1.3129 -0.4339
    1ASP      O   14   1.548   2.300   3.015 -0.7511 -0.3022 -0.5573
    2ALA      N   15   1.342   2.324   3.127 -0.4879  0.1471  0.1655
    2ALA     HN   16   1.282   2.387   3.175  0.1806  1.3206 -0.4959
    2ALA     CA   17   1.290   2.194   3.134 -0.2211  0.1233  0.4821
    2ALA     HA   18   1.337   2.144   3.217  0.1590 -2.3285 -1.1111
    2ALA     CB   19   1.140   2.185   3.174  0.2758 -0.5361  0.7802
    2ALA    HB1   20   1.065   2.226   3.103  0.4660 -0.7588  0.4515
    2ALA    HB2   21   1.125   2.240   3.270  2.2681 -0.6597  1.1980
    2ALA    HB3   22   1.111   2.081   3.199 -0.1234 -0.0174  2.6904
    2ALA      C   23   1.312   2.112   3.002  0.3228  0.8667  0.4018
    2ALA      O   24   1.328   2.159   2.891  0.0301 -0.0845 -0.4677
    3ASP      N   25   1.317   1.980   3.013 -0.5783 -0.3850 -0.0319
    3ASP     HN   26   1.316   1.950   3.108  0.3550  1.3486  0.5733
    3ASP     CA   27   1.328   1.881   2.903 -0.3268 -0.0831 -0.1103
    3ASP     HA   28   1.406   1.913   2.835 -0.1349  0.0762  0.1847
    3ASP     CB   29   1.369   1.742   2.952 -0.4566  0.5347  0.1605
    3ASP    HB1   30   1.344   1.681   2.862  0.3470 -1.8751  1.4779
    3ASP    HB2   31   1.302   1.711   3.035  1.5282 -2.4401  0.8319
    3ASP     CG   32   1.514   1.715   3.002  0.4145  0.4832  0.9764
    3ASP    OD1   33   1.549   1.598   3.030  0.5211  0.1366  0.1140
    3ASP    OD2   34   1.590   1.814   3.016  0.3849  0.0849  0.4863
    3ASP      C   35   1.205   1.870   2.815  0.5845  0.0111 -0.2639
    3ASP      O   36   1.089   1.887   2.851  0.6050  0.3765 -0.6538
    4GLY      N   37   1.226   1.853   2.682  0.3729  0.9164  0.5487
    4GLY     HN   38   1.321   1.850   2.652  0.3967 -2.5970  0.5748
    4GLY     CA   39   1.115   1.851   2.584  0.3223  0.0572 -0.2476
    4GLY    HA1   40   1.159   1.845   2.486 -1.0068 -0.5199 -0.8230
    4GLY    HA2   41   1.068   1.948   2.590  1.7626  0.7240  1.1358
    4GLY      C   42   1.015   1.743   2.598  0.3728 -0.5719 -0.2691
    4GLY      O   43   1.037   1.647   2.668  0.5152  0.4131  0.1439
    5PRO      N   44   0.903   1.755   2.531  0.1922 -0.3797  0.1387
    5PRO     CD   45   0.861   1.877   2.466  0.3487 -0.6095  0.1934
    5PRO    HD1   46   0.918   1.903   2.375 -0.8320 -0.6779 -0.5886
    5PRO    HD2   47   0.864   1.958   2.542 -0.8739 -0.2638 -0.0908
    5PRO     CA   48   0.807   1.646   2.508 -0.1662  0.2285 -0.0499
    5PRO     HA   49   0.758   1.623   2.602  1.1556 -2.0278  0.1382
    5PRO     CB   50   0.699   1.709   2.410  0.3027 -0.9034  0.5721
    5PRO    HB1   51   0.601   1.658   2.423 -1.0765  1.1264 -1.2150
    5PRO    HB2   52   0.726   1.695   2.304  2.0884  2.0163  0.5446
    5PRO     CG   53   0.708   1.857   2.436 -0.5873 -0.3171  0.1449
    5PRO    HG1   54   0.686   1.931   2.357  2.0691  2.6262  1.8927
    5PRO    HG2   55   0.648   1.875   2.527 -1.1338 -0.2716 -0.2235
    5PRO      C   56   0.861   1.521   2.452 -0.1293  0.4348  0.1173
    5PRO      O   57   0.950   1.515   2.371  0.3386 -0.4614  0.0209
    6GLY      N   58   0.818   1.408   2.501  0.4355  0.2846  0.1760
    6GLY     HN   59   0.758   1.409   2.580  1.5122  1.2583  1.0234
    6GLY     CA   60   0.866   1.282   2.440  0.2146 -0.3929  0.3532
    6GLY    HA1   61   0.847   1.203   2.512 -1.0447 -0.7816 -0.3756
    6GLY    HA2   62   0.974   1.286   2.430  0.1001  0.2159 -0.8009
    6GLY      C   63   0.793   1.245   2.313  0.6288  0.1241  0.4412
    6GLY      O   64   0.703   1.313   2.262  0.3787 -0.2260 -0.4102
    7ASP      N   65   0.832   1.138   2.251 -0.3561  0.1756  0.4321
    7ASP     HN   66   0.909   1.083   2.283  0.0458 -0.5040 -1.5457
    7ASP     CA   67   0.769   1.096   2.122 -0.2785  0.0959 -0.6989
    7ASP     HA   68   0.778   1.181   2.055 -1.2653 -1.0078 -2.3192
    7ASP     CB   69   0.839   0.968   2.070 -0.1865  0.1945  0.3064
    7ASP    HB1   70   0.768   0.933   1.991 -0.5328  0.6256  0.4210
    7ASP    HB2   71   0.827   0.886   2.144 -1.8489  0.0539 -0.0721
    7ASP     CG   72   0.976   0.977   2.025 -0.1760 -0.1284 -0.3807
    7ASP    OD1   73   1.046   0.873   2.004 -0.1445 -0.2731 -0.2462
    7ASP    OD2   74   1.020   1.096   2.005  0.0518 -0.3692  0.1631
    7ASP      C   75   0.615   1.059   2.142 -0.4096  0.6936  0.4718
    7ASP      O   76   0.575   1.005   2.245  0.6553 -0.4945 -0.5558
    8PRO      N   77   0.525   1.089   2.045  0.2880  0.1778 -0.1846
    8PRO     CD   78   0.563   1.150   1.915  0.1300 -0.2672 -0.1694
    8PRO    HD1   79   0.618   1.077   1.852  1.6073  1.1689 -0.6113
    8PRO    HD2   80   0.619   1.245   1.931  0.2493 -0.6472  1.9591
    8PRO     CA   81   0.384   1.060   2.041  0.1529 -0.2213  0.1430
    8PRO     HA   82   0.349   1.132   2.114  1.0896 -0.9255  1.3320
    8PRO     CB   83   0.343   1.070   1.891  0.2267 -0.0424  0.0153
    8PRO    HB1   84   0.235   1.094   1.875 -0.2697 -2.6284 -1.0955
    8PRO    HB2   85   0.359   0.979   1.829  0.5821  1.3769 -2.0975
    8PRO     CG   86   0.429   1.180   1.847 -0.0744  0.5365 -0.6402
    8PRO    HG1   87   0.440   1.186   1.736 -0.6173 -0.6170 -0.7733
    8PRO    HG2   88   0.389   1.276   1.885 -1.4294 -0.9117  1.8552
    8PRO      C   89   0.327   0.926   2.099 -0.2052 -0.2743  0.0443
    8PRO      O   90   0.232   0.937   2.171 -0.4787  0.3601  0.2937
    9ASP      N   91   0.389   0.807   2.080 -0.0982 -0.2287  0.3123
    9ASP     HN   92   0.474   0.794   2.030 -1.3206 -1.5119 -1.5613
    9ASP     CA   93   0.337   0.674   2.132  0.2868  0.1024 -0.4010
    9ASP     HA   94   0.229   0.668   2.135  0.2619 -0.4127 -1.6519
    9ASP     CB   95   0.403   0.566   2.050  0.2415 -0.4131  0.3072
    9ASP    HB1   96   0.373   0.471   2.099 -0.7268  0.0669  0.6581
    9ASP    HB2   97   0.513   0.585   2.050  0.6267 -2.4247  0.2751
    9ASP     CG   98   0.356   0.571   1.908 -0.0810 -0.5865  0.2250
    9ASP    OD1   99   0.443   0.564   1.819 -0.1934  0.0075 -0.6425
    9ASP    OD2  100   0.232   0.575   1.885 -0.5644 -0.1245  0.0292
    9ASP      C  101   0.381   0.659   2.282 -0.1418  0.5822  0.1757
    9ASP      O  102   0.323   0.574   2.353 -0.2426 -0.7317 -0.5271
   10ALA      N  103   0.490   0.727   2.323  0.9903 -0.2656 -0.4425
   10ALA     HN  104   0.532   0.805   2.278  1.6779  0.2712  1.0671
   10ALA     CA  105   0.546   0.715   2.458  0.2022  0.0184 -0.0764
   10ALA     HA  106   0.562   0.610   2.481  0.0779 -0.0456 -0.2821
   10ALA     CB  107   0.688   0.768   2.460 -0.2118 -0.5941  0.2444
   10ALA    HB1  108   0.739   0.716   2.376 -0.6953  0.5869 -0.8212
   10ALA    HB2  109   0.757   0.744   2.544 -0.6669  0.4138  0.9244
   10ALA    HB3  110   0.698   0.877   2.440 -1.7849 -0.3606  0.6731
   10ALA      C  111   0.469   0.771   2.572 -0.0674 -0.1442 -0.6351
   10ALA      O  112   0.427   0.885   2.569  0.0419 -0.2656 -0.5175
   11GLY      N  113   0.452   0.691   2.681 -0.3438 -0.4158  0.0666
   11GLY     HN  114   0.501   0.606   2.700  1.9711  1.3430  2.8522
   11GLY     CA  115   0.358   0.726   2.787  0.2818  0.2677  0.2173
   11GLY    HA1  116   0.257   0.719   2.750 -1.6836  2.6989  4.4026
   11GLY    HA2  117   0.384   0.825   2.822  1.5440  0.0361 -0.0108
   11GLY      C  118   0.369   0.629   2.907 -0.3425  0.0073 -0.3716
   11GLY    OT1  119   0.333   0.505   2.892 -0.2832 -0.4008 -0.2439
   11GLY    OT2  120   0.410   0.670   3.016  0.1593 -0.0803  0.4664
   12LIT    LIT  121   2.817   1.511   0.801 -0.4004  0.6837  0.7377
   13LIT    LIT  122   2.500   2.066   2.008  0.0705 -0.2463  0.2961
   14LIT    LIT  123   6.023   5.813   4.191  0.1105  0.1354 -0.2762
   15LIT    LIT  124   2.311   2.820   2.425 -0.1224  0.6060 -0.8412
   16LIT    LIT  125   0.474   0.175   2.781  0.1847 -0.0259  0.4574
   17LIT    LIT  126   6.161   4.536   1.384  0.4227  0.0904  0.1590
   18LIT    LIT  127   0.309   5.295   2.629 -0.1736  0.0886 -1.1481
   19LIT    LIT  128   6.259   0.228   0.349 -0.0889 -0.5361 -0.3058
   20LIT    LIT  129   5.222   3.881   0.009  0.3469 -0.8046  0.6309
   21LIT    LIT  130   3.087   5.516   3.207 -0.9697 -0.3052  0.5060
   22LIT    LIT  131   4.459   4.220   1.216  0.0784  0.6711  0.7725
   23LIT    LIT  132   3.718   2.113   3.342 -0.8966 -0.2777 -0.8467
   24LIT    LIT  133   2.403   4.781   4.510 -0.2242 -0.6631  0.4265
   25LIT    LIT  134   4.775   0.986   0.970  0.2185 -0.5050  1.4182
   26LIT    LIT  135   2.043   1.289   4.985 -0.6646  0.4041  0.2113
   27LIT    LIT  136   0.288   0.279   3.788 -0.1294 -0.6609  0.6664
   28LIT    LIT  137   1.642   2.316   3.364  0.0000 -0.6368 -0.1027
   29LIT    LIT  138   2.259   4.540   3.301  0.4693 -0.3214  0.6804
   30LIT    LIT  139   1.328   1.448   2.470 -1.2277  1.7121  0.5368
   31LIT    LIT  140   4.639   1.079   4.586  0.8762  0.0011  0.2469
   32LIT    LIT  141   5.168   4.420   1.922  0.3183  0.7356  0.5904
   33LIT    LIT  142   5.456   2.247   2.191 -0.2310  0.6713  0.4280
   34CLA    CLA  143   4.977   2.555   1.496 -0.0831  0.1580 -0.5598
   35CLA    CLA  144   0.116   1.660   0.443 -0.0902 -0.0924  0.4386
   36CLA    CLA  145   5.597   3.352   0.654  0.3944 -0.2712 -0.1201
   37CLA    CLA  146   1.981   0.789   3.248  0.1207  0.1994 -0.2932
   38CLA    CLA  147   6.306   0.790   0.411  0.3373 -0.3951 -0.4018
   39CLA    CLA  148   0.341   3.121   1.530 -0.1858 -0.1117  0.1322
   40CLA    CLA  149   0.572   1.515   3.472  0.0935 -0.2250 -0.0993
   41CLA    CLA  150   1.968   2.583   2.161 -0.1457 -0.2155 -0.5457
   42CLA    CLA  151   0.498   0.732   4.778 -0.0609  0.7619 -0.3787
   43CLA    CLA  152   1.829   3.813   2.849 -0.3599 -0.1251  0.1215
   44CLA    CLA  153   4.680   3.303   5.050  0.0161 -0.2152  0.0491
   45CLA    CLA  154   0.142   5.732   2.819 -0.0277  0.2248 -0.0272
   46CLA    CLA  155   4.562   5.681   2.088  0.0405  0.2557  0.1790
   47CLA    CLA  156   1.935   1.098   4.894  0.0619 -0.1576 -0.2037
   48CLA    CLA  157   4.890   4.617   2.278  0.1179 -0.3734 -0.3025
   49CLA    CLA  158   2.913   1.592   4.720 -0.2941 -0.3025  0.1544
   50CLA    CLA  159   4.144   2.998   3.034  0.4957 -0.4856  0.0713
   51CLA    CLA  160   1.022   1.394   1.696 -0.4939 -0.2112 -0.0010
   52TIP3   OH2  161   5.610   0.157   1.157 -0.8192 -0.6370  0.5759
   52TIP3    H1  162   5.598   0.217   1.231  2.2125  3.3693 -1.7932
   52TIP3    H2  163   5.555   0.195   1.088  1.5656 -0.1272 -1.1398
   53TIP3   OH2  164   2.401   4.966   4.434  0.0636  0.0302 -0.4069
   53TIP3    H1  165   2.457   5.044   4.435  0.0480  0.0429 -0.5080
   53TIP3    H2  166   2.359   4.968   4.348 -2.2868  1.6129  0.6708
   54TIP3   OH2  167   0.214   2.476   0.325 -0.1503 -0.0228 -0.4695
   54TIP3    H1  168   0.296   2.454   0.370  0.1279  1.2974 -0.2972
   54TIP3    H2  169   0.242   2.527   0.249 -0.8168  0.5394 -0.3398
   55TIP3   OH2  170   6.181   1.690   4.533 -0.3587 -0.4249  0.2162
   55TIP3    H1  171   6.146   1.684   4.622 -0.0486 -0.9456  0.3082
   55TIP3    H2  172   6.244   1.762   4.537 -1.1185  0.2599  0.1441
   56TIP3   OH2  173   2.752   5.335   0.353  0.5206 -0.5326  0.3433
   56TIP3    H1  174   2.727   5.425   0.374 -0.2522 -0.4571 -0.7902
   56TIP3    H2  175   2.768   5.293   0.438 -0.5160  0.2769  0.9588
   57TIP3   OH2  176   1.378   2.681   2.214  0.0232  0.0503  0.4766
   57TIP3    H1  177   1.352   2.729   2.135 -1.0272  1.0127  1.3656
   57TIP3    H2  178   1.414   2.598   2.181  2.0506  1.4700 -1.1182
   58TIP3   OH2  179   1.076   4.400   3.981 -0.1041  0.5280  0.3682
   58TIP3    H1  180   1.075   4.320   4.034  1.1930  0.2334 -0.0050
   58TIP3    H2  181   1.067   4.369   3.891 -0.6032  0.8895  0.2926
   59TIP3   OH2  182   0.552   4.081   0.899  0.5791  0.1635 -0.3587
   59TIP3    H1  183   0.630   4.134   0.918 -0.1655  0.3499  2.6507
   59TIP3    H2  184   0.586   4.002   0.857  2.4718  0.0077  1.3500
   60TIP3   OH2  185   0.717   5.922   2.261 -0.1989 -0.0403 -0.5835
   60TIP3    H1  186   0.679   5.999   2.220  0.1112 -0.6118 -1.9756
   60TIP3    H2  187   0.680   5.921   2.350 -0.1038  1.7635 -0.4953
   61TIP3   OH2  188   4.505   2.278   0.235 -0.0058  0.3256  0.3855
   61TIP3    H1  189   4.468   2.198   0.195 -0.2629  1.0347 -0.8453
   61TIP3    H2  190   4.587   2.292   0.188 -0.6792  1.6009 -0.4596
   62TIP3   OH2  191   4.841   5.325   2.190 -0.8490  0.2099  0.2216
   62TIP3    H1  192   4.782   5.253   2.170 -0.9765  0.3331  0.1466
   62TIP3    H2  193   4.810   5.359   2.274  0.4957 -1.1409  1.3194
   63TIP3   OH2  194   0.174   4.100   0.199 -0.8424  0.2232  0.0704
   63TIP3    H1  195   0.262   4.126   0.224 -2.1669  1.6854  4.1855
   63TIP3    H2  196   0.172   4.005   0.212  0.4580 -0.0766 -1.6311
   64TIP3   OH2  197   0.083   3.466   1.734 -0.0991  0.6200 -0.6280
   64TIP3    H1  198   0.009   3.490   1.678 -2.4599 -0.4520  1.7800
   64TIP3    H2  199   0.083   3.533   1.803  0.3107 -0.1028  0.0992
   65TIP3   OH2  200   0.745   4.593   0.563 -0.3866 -0.0087  0.2507
   65TIP3    H1  201   0.727   4.571   0.471  1.0599 -0.6399  0.1046
   65TIP3    H2  202   0.706   4.680   0.574 -0.6906  0.0267 -0.9221
   66TIP3   OH2  203   3.085   3.213   1.608  0.0384  0.1500 -0.3618
   66TIP3    H1  204   3.050   3.125   1.594 -0.9306  0.5846 -0.8284
   66TIP3    H2  205   3.020   3.271   1.567  0.6848  1.0753 -0.1112
   67TIP3   OH2  206   5.236   1.501   4.900 -0.3040  0.0697 -0.3866
   67TIP3    H1  207   5.251   1.564   4.829  0.6517 -1.1551 -1.3224
   67TIP3    H2  208   5.235   1.555   4.980  0.8578  1.2423 -1.1146
   68TIP3   OH2  209   3.990   4.073   2.816 -1.0316 -0.5527 -0.1070
   68TIP3    H1  210   4.063   4.013   2.800  0.5404  0.7015  1.8833
   68TIP3    H2  211   3.971   4.111   2.730  1.6251  0.0727 -0.4973
   69TIP3   OH2  212   3.008   5.651   4.230 -0.4267  0.7886  0.2905
   69TIP3    H1  213   3.056   5.604   4.162 -0.3328  1.0252  0.1926
   69TIP3    H2  214   3.029   5.743   4.215 -2.6679  1.1301 -1.1520
   70TIP3   OH2  215   3.209   5.670   3.248  0.4926  0.1340  0.3246
   70TIP3    H1  216   3.273   5.688   3.316  1.9070 -0.9962 -0.6306
   70TIP3    H2  217   3.237   5.724   3.174  1.3860 -1.5505 -0.6429
   71TIP3   OH2  218   1.502   0.591   3.735 -0.0336 -0.4741 -0.4884
   71TIP3    H1  219   1.533   0.652   3.802  1.2664 -0.9058 -0.6699
   71TIP3    H2  220   1.503   0.642   3.654 -0.2550 -0.3570 -0.4189
   72TIP3   OH2  221   1.656   5.812   3.054 -0.1840  0.1712 -0.2286
   72TIP3    H1  222   1.572   5.777   3.023 -1.6200  4.0508 -1.3519
   72TIP3    H2  223   1.712   5.811   2.976 -0.6371  1.2942 -0.5979
   73TIP3   OH2  224   0.801   5.261   2.429  0.4507  0.5072 -0.3946
   73TIP3    H1  225   0.754   5.215   2.499 -0.7009  1.2318 -0.6732
   73TIP3    H2  226   0.856   5.193   2.389  0.0075 -0.2486  0.2445
   74TIP3   OH2  227   0.909   4.779   0.384  0.0005  0.0501  0.2868
   74TIP3    H1  228   0.849   4.705   0.369 -0.0160 -0.5074  2.7777
   74TIP3    H2  229   0.866   4.832   0.451  1.1872  0.9762  0.3445
   75TIP3   OH2  230   3.204   2.810   2.776 -0.5070  0.1813  0.1193
   75TIP3    H1  231   3.255   2.740   2.818 -0.8598 -0.2843 -0.2234
   75TIP3    H2  232   3.144   2.764   2.718  1.7032  0.8503 -2.9371
   76TIP3   OH2  233   1.421   0.735   2.763  0.3405 -0.2215  0.7276
   76TIP3    H1  234   1.361   0.681   2.814 -1.6885  0.7835 -0.4453
   76TIP3    H2  235   1.457   0.797   2.827 -1.6777  0.6315  1.1100
   77TIP3   OH2  236   5.854   1.787   2.043 -0.4855  0.7566 -0.5823
   77TIP3    H1  237   5.798   1.865   2.031  0.8076  1.5097 -2.0402
   77TIP3    H2  238   5.932   1.821   2.087 -0.4388  0.0235 -0.0861
   78TIP3   OH2  239   4.706   0.058   0.673 -0.4352 -0.1706  0.6247
   78TIP3    H1  240   4.688   0.147   0.643 -1.2535 -1.1264 -2.0016
   78TIP3    H2  241   4.778   0.028   0.618  0.2524 -0.9572  1.9100
   79TIP3   OH2  242   5.752   0.511   1.384 -0.5061  0.6639  0.1378
   79TIP3    H1  243   5.818   0.496   1.316  1.2499  0.4399  1.7921
   79TIP3    H2  244   5.795   0.569   1.447 -2.4598  1.7735  0.5471
   80TIP3   OH2  245   5.397   3.054   0.244  0.5071 -1.0331 -0.3449
   80TIP3    H1  246   5.363   3.086   0.161  0.6358  0.7367  0.2512
   80TIP3    H2  247   5.355   2.968   0.255  1.9624 -2.2045 -3.0981
   81TIP3   OH2  248   1.325   2.238   4.149  0.0499  0.3677  0.5029
   81TIP3    H1  249   1.350   2.159   4.102 -3.3650 -0.4683 -0.1310
   81TIP3    H2  250   1.344   2.218   4.241 -0.9802 -1.3449  0.3880
   82TIP3   OH2  251   0.049   0.900   4.772  0.1082  0.1796  0.0794
   82TIP3    H1  252   0.033   0.816   4.730  2.5197 -0.0494 -0.5259
   82TIP3    H2  253  -0.030   0.951   4.755 -0.2172 -0.9443 -2.1438
   83TIP3   OH2  254   6.214   2.831   2.673  0.2833  0.2363 -0.6253
   83TIP3    H1  255   6.249   2.815   2.761 -0.6732 -1.3630 -0.4909
   83TIP3    H2  256   6.272   2.781   2.616  0.2629  0.3953 -0.7842
   84TIP3   OH2  257   3.995   1.042   2.924  0.9007 -0.6606 -0.2693
   84TIP3    H1  258   4.008   0.964   2.978  0.9057 -0.8046 -0.4808
   84TIP3    H2  259   3.958   1.009   2.842  2.0008 -0.5636 -0.8155
   85TIP3   OH2  260   1.289   3.293   2.997  0.2862  0.0479 -0.0526
   85TIP3    H1  261   1.242   3.373   3.021  1.0530  0.6870 -0.6221
   85TIP3    H2  262   1.360   3.287   3.061 -0.4310 -0.8260  0.7042
   86TIP3   OH2  263   3.446   2.073   0.698  0.3259  0.1110 -0.3388
   86TIP3    H1  264   3.469   1.998   0.753 -4.2061 -0.1399  1.6545
   86TIP3    H2  265   3.474   2.149   0.749  0.5709 -0.1649 -0.0580
   87TIP3   OH2  266   3.279   3.985   4.890 -0.5348 -0.7386 -0.0429
   87TIP3    H1  267   3.265   3.936   4.809 -2.3305 -0.8741  0.3178
   87TIP3    H2  268   3.200   4.038   4.900  1.3338  2.4094 -0.4963
   88TIP3   OH2  269   2.205   4.467   4.870 -0.0474  0.0769  0.4782
   88TIP3    H1  270   2.193   4.387   4.920 -0.2352 -0.4498 -0.3917
   88TIP3    H2  271   2.120   4.512   4.877 -0.3857 -0.4588 -0.1672
   89TIP3   OH2  272   6.247   5.144   3.942 -0.1794 -0.0754 -0.4611
   89TIP3    H1  273   6.151   5.146   3.939 -0.2197 -0.8004  0.0118
   89TIP3    H2  274   6.273   5.231   3.971 -0.7987 -0.4665  1.3972
   90TIP3   OH2  275   3.578   5.719   1.809 -0.0258 -0.2530 -0.0703
   90TIP3    H1  276   3.484   5.730   1.824 -0.2576  1.1554 -2.1826
   90TIP3    H2  277   3.617   5.801   1.839  0.3095 -0.1524 -0.7698
   91TIP3   OH2  278   6.083   0.610   4.693  0.3566  0.2084  0.5441
   91TIP3    H1  279   5.992   0.599   4.666  0.9327 -1.8909 -0.7746
   91TIP3    H2  280   6.083   0.582   4.785 -0.2447 -0.2227  0.4232
   92TIP3   OH2  281   4.274   2.853   0.926  0.0212 -0.3438  0.1528
   92TIP3    H1  282   4.189   2.830   0.964 -0.3817  0.1025 -0.4591
   92TIP3    H2  283   4.334   2.786   0.959 -0.8558 -1.5369 -0.6032
   93TIP3   OH2  284   4.429   1.542   2.701 -0.4306  0.3654  0.3594
   93TIP3    H1  285   4.487   1.470   2.723 -0.1254  0.4069 -0.2970
   93TIP3    H2  286   4.468   1.618   2.745 -0.5184  0.2113  0.7036
   94TIP3   OH2  287   3.786   5.898   4.331  0.7400  0.1262  0.0720
   94TIP3    H1  288   3.839   5.978   4.324  1.0494 -0.1071 -0.2654
   94TIP3    H2  289   3.697   5.926   4.310  0.8145  0.4185  0.1370
   95TIP3   OH2  290   0.330   3.298   2.183 -0.1954 -0.2766  0.0837
   95TIP3    H1  291   0.309   3.388   2.208  2.7304  0.1921  1.3190
   95TIP3    H2  292   0.272   3.279   2.109 -2.3966  1.8119  1.1324
   96TIP3   OH2  293   5.780   5.963   3.471 -0.0540 -0.5953 -0.0571
   96TIP3    H1  294   5.828   5.881   3.458  0.6753 -0.1249 -0.4138
   96TIP3    H2  295   5.821   6.025   3.410 -1.6294 -0.3700 -0.9486
   97TIP3   OH2  296   0.742   5.938   4.924 -0.1906 -0.0353  0.1300
   97TIP3    H1  297   0.803   5.950   4.996 -1.4535  1.6736  0.9941
   97TIP3    H2  298   0.661   5.908   4.965 -0.8591  0.7381 -0.5652
   98TIP3   OH2  299   2.421   1.074   3.642 -0.1955  0.3594 -0.1934
   98TIP3    H1  300   2.437   0.987   3.679 -0.8769  0.7615  1.0862
   98TIP3    H2  301   2.326   1.084   3.645 -0.1437  1.0180 -0.6654
   99TIP3   OH2  302   1.164   1.126   3.279  0.7049 -0.0355 -0.8643
   99TIP3    H1  303   1.224   1.179   3.332  0.1858 -0.6012  0.3255
   99TIP3    H2  304   1.220   1.061   3.237  0.7984 -1.7223  1.6588
  100TIP3   OH2  305   4.499   2.217   3.214 -0.0822 -0.1124  0.9226
  100TIP3    H1  306   4.507   2.312   3.211 -2.0750  0.0741 -0.0816
  100TIP3    H2  307   4.576   2.188   3.264  1.4636  1.8735 -0.1555
  101TIP3   OH2  308   4.024   2.548   3.269  0.1744 -0.1503  0.0095
  101TIP3    H1  309   3.931   2.537   3.287 -0.0686  1.8061  0.1337
  101TIP3    H2  310   4.068   2.490   3.332 -0.9400 -2.5149 -1.2530
  102TIP3   OH2  311   2.344   3.160   1.852 -0.3010  0.1905 -0.0377
  102TIP3    H1  312   2.374   3.150   1.762 -1.9660 -3.1624 -0.4129
  102TIP3    H2  313   2.412   3.211   1.895  1.1761  0.8148 -2.8664
  103TIP3   OH2  314   3.430   4.008   4.412 -0.1482  0.7269  0.1267
  103TIP3    H1  315   3.346   4.042   4.382 -1.0522  0.2167  1.9309
  103TIP3    H2  316   3.411   3.968   4.496  1.6412 -0.7108 -0.0879
  104TIP3   OH2  317   3.277   0.456   3.659 -0.1130  0.4856 -0.0103
  104TIP3    H1  318   3.344   0.462   3.728  0.6082  1.2998 -0.7558
  104TIP3    H2  319   3.234   0.372   3.676  1.0122 -0.0087  0.5855
  105TIP3   OH2  320   5.775   5.753   2.696  0.3299 -0.1563  0.0481
  105TIP3    H1  321   5.852   5.719   2.650  0.5653  0.6314 -0.1487
  105TIP3    H2  322   5.776   5.709   2.781 -0.5651 -2.2595 -0.9639
  106TIP3   OH2  323   1.475   5.539   1.301 -0.5181  0.4047 -0.2225
  106TIP3    H1  324   1.554   5.501   1.264 -0.0219  1.1640  0.0411
  106TIP3    H2  325   1.429   5.466   1.342 -0.2933 -0.1563 -0.9645
  107TIP3   OH2  326   2.326   0.427   4.164  0.3203 -0.5350 -0.3670
  107TIP3    H1  327   2.328   0.413   4.259  0.2712 -1.1394 -0.4524
  107TIP3    H2  328   2.355   0.517   4.153  0.8076 -0.6143  0.1973
  108TIP3   OH2  329   0.019   3.908   3.896 -0.2723 -0.0991  0.7116
  108TIP3    H1  330   0.081   3.943   3.831 -2.0342  0.5298 -0.7069
  108TIP3    H2  331   0.031   3.813   3.890  1.1616  0.0232  1.1249
  109TIP3   OH2  332   4.039   0.704   4.385 -0.4952 -0.7739 -0.2251
  109TIP3    H1  333   3.974   0.634   4.390 -0.7111 -0.4911  1.9847
  109TIP3    H2  334   4.090   0.694   4.465  0.5714  0.5561 -0.7144
  110TIP3   OH2  335   3.405   0.550   1.918 -0.0347 -0.2597  0.4450
  110TIP3    H1  336   3.478   0.596   1.875 -0.4809  0.7945  0.7733
  110TIP3    H2  337   3.446   0.506   1.992  0.4079 -0.4129  0.1185
  111TIP3   OH2  338   1.712   2.525   2.340  0.3009 -0.1506  0.2951
  111TIP3    H1  339   1.702   2.448   2.396 -2.1968 -0.5747 -0.6214
  111TIP3    H2  340   1.801   2.517   2.304  1.7485 -0.2180  3.5353
  112TIP3   OH2  341   0.950   1.467   2.838 -0.3199  0.2695 -0.1034
  112TIP3    H1  342   0.992   1.528   2.777  0.4809 -0.4334 -0.2787
  112TIP3    H2  343   0.991   1.486   2.922 -0.9418  0.7870  0.0838
  113TIP3   OH2  344   1.249   4.453   5.059  0.5518  0.4216 -0.0635
  113TIP3    H1  345   1.176   4.514   5.068 -0.2496 -0.4554 -0.4826
  113TIP3    H2  346   1.278   4.437   5.149  2.0519  2.8769 -0.0244
  114TIP3   OH2  347   0.829   3.835   0.191  0.3491  0.3319  0.5124
  114TIP3    H1  348   0.854   3.794   0.273  1.2726 -1.4025 -0.5781
  114TIP3    H2  349   0.889   3.909   0.182  0.1136  0.6479  1.4652
  115TIP3   OH2  350   5.575   0.479   1.853  0.0727 -0.0977 -0.4080
  115TIP3    H1  351   5.658   0.520   1.879 -0.3073 -0.5135  1.6070
  115TIP3    H2  352   5.526   0.548   1.810  0.1891  1.1040  1.2920
  116TIP3   OH2  353   1.301   0.045   0.738  0.1184 -0.4023  0.0059
  116TIP3    H1  354   1.394   0.025   0.751  0.1637 -0.8910 -1.0008
  116TIP3    H2  355   1.302   0.120   0.678 -0.1242  0.2087  0.7568
  117TIP3   OH2  356   2.067   4.728   1.472  0.7549 -0.4674 -0.2816
  117TIP3    H1  357   2.024   4.690   1.396 -0.7731  2.1159 -0.8416
  117TIP3    H2  358   1.998   4.732   1.539 -0.1264  3.5542 -1.1247
  118TIP3   OH2  359   2.813   3.580   2.678 -0.2259 -0.4866  0.8396
  118TIP3    H1  360   2.812   3.484   2.681 -1.9492 -0.5723 -0.5566
  118TIP3    H2  361   2.884   3.605   2.736 -1.2832 -2.5237  3.2295
  119TIP3   OH2  362   5.336   0.178   2.991  0.3091  0.3983 -0.1873
  119TIP3    H1  363   5.345   0.189   2.896  0.7089  0.8797 -0.0994
  119TIP3    H2  364   5.327   0.267   3.024  0.3510  0.2429  0.2440
  120TIP3   OH2  365   0.924   1.307   1.374  0.1495  0.4906  0.5871
  120TIP3    H1  366   0.976   1.306   1.454  1.1884 -0.6550 -0.0690
  120TIP3    H2  367   0.970   1.369   1.316  1.5202 -1.3731 -0.4150
  121TIP3   OH2  368   4.336   2.333   4.020 -0.1286 -0.0286  0.8198
  121TIP3    H1  369   4.381   2.256   4.055  0.0596  1.2108  3.6411
  121TIP3    H2  370   4.386   2.407   4.053 -0.0308  1.3678 -2.2163
  122TIP3   OH2  371   1.454   1.781   3.584 -0.4114  0.2305  0.4448
  122TIP3    H1  372   1.466   1.696   3.627 -0.8719  0.5555  1.2493
  122TIP3    H2  373   1.542   1.806   3.555 -0.2219 -0.3755  0.4846
  123TIP3   OH2  374   1.101   5.982   1.989  0.0721 -0.5687 -0.1527
  123TIP3    H1  375   1.153   5.909   2.021 -0.7619 -1.5374 -0.9163
  123TIP3    H2  376   1.032   5.941   1.936 -1.5346  0.6386  0.9006
  124TIP3   OH2  377   2.190   2.886   1.725  0.0610 -0.2802  0.3329
  124TIP3    H1  378   2.267   2.943   1.719  0.4933 -0.8955  0.0532
  124TIP3    H2  379   2.171   2.882   1.819  1.2706 -1.3237  0.5542
  125TIP3   OH2  380   3.490   5.381   1.314  0.2642  0.0402  0.1114
  125TIP3    H1  381   3.460   5.472   1.303  1.1759  0.6467  2.1504
  125TIP3    H2  382   3.430   5.330   1.260 -1.5678  1.6526  0.4837
  126TIP3   OH2  383   4.878   5.833   1.461 -0.1475 -0.7082  0.3066
  126TIP3    H1  384   4.958   5.880   1.438 -1.9629  1.3919 -2.2633
  126TIP3    H2  385   4.833   5.891   1.523 -1.4582  0.1508 -1.3452
  127TIP3   OH2  386   0.912   3.446   3.775  0.0581 -0.0107 -0.7267
  127TIP3    H1  387   0.835   3.391   3.758 -0.9119  1.2032 -0.4418
  127TIP3    H2  388   0.967   3.434   3.698 -0.1670 -1.2972 -0.7098
  128TIP3   OH2  389   2.343   0.116   4.055 -0.1435  0.0763  0.0720
  128TIP3    H1  390   2.422   0.105   4.109  1.3339  3.5384 -1.0877
  128TIP3    H2  391   2.369   0.179   3.988 -3.6859  0.6745 -0.9320
  129TIP3   OH2  392   2.192   1.389   2.158 -0.0163 -0.5250  0.0865
  129TIP3    H1  393   2.146   1.438   2.090 -0.5561 -2.4517 -1.0330
  129TIP3    H2  394   2.131   1.320   2.183  1.3645 -1.7472  0.2427
  130TIP3   OH2  395   0.944   3.693   3.886  0.0259 -0.0558 -0.0074
  130TIP3    H1  396   0.925   3.677   3.978 -2.3910  1.5892 -0.1279
  130TIP3    H2  397   0.943   3.606   3.846  0.5576 -0.7408  1.3808
  131TIP3   OH2  398   1.689   5.251   4.327 -0.0366  0.7491  0.6430
  131TIP3    H1  399   1.725   5.269   4.239 -2.5464  0.3625 -0.5431
  131TIP3    H2  400   1.694   5.156   4.335  0.0713  0.7748  0.8833
  132TIP3   OH2  401   0.561   1.374   5.116  0.3223  0.3073  0.0243
  132TIP3    H1  402   0.608   1.360   5.198  0.8052 -0.6574 -0.4104
  132TIP3    H2  403   0.483   1.318   5.123  0.8037 -0.4504 -0.5231
  133TIP3   OH2  404   1.504   0.841   3.892 -0.0759  0.1287 -0.4364
  133TIP3    H1  405   1.450   0.893   3.952 -1.9120 -1.6757 -0.4000
  133TIP3    H2  406   1.546   0.906   3.835  0.0427  1.7677  1.4237
  134TIP3   OH2  407   4.933   5.420   0.744 -0.5154 -0.8318  0.1593
  134TIP3    H1  408   4.910   5.471   0.821 -0.5736 -1.1165  0.3314
  134TIP3    H2  409   4.890   5.465   0.671 -0.1480 -0.3443  0.2379
  135TIP3   OH2  410   6.047   2.792   3.389  0.6192 -0.2524 -0.8124
  135TIP3    H1  411   5.994   2.849   3.334  0.9541  1.0856  0.2040
  135TIP3    H2  412   6.082   2.726   3.329 -1.0673 -0.3672 -1.7355
  136TIP3   OH2  413   5.852   2.905   2.075  0.2284 -0.5180  0.2867
  136TIP3    H1  414   5.812   2.911   1.989  1.1545  1.1762 -0.0669
  136TIP3    H2  415   5.778   2.913   2.136 -0.2013  0.6182 -0.3503
  137TIP3   OH2  416   3.451   0.498   4.300 -0.1456 -0.1554 -0.1138
  137TIP3    H1  417   3.422   0.540   4.219  1.4230 -1.9142 -1.7010
  137TIP3    H2  418   3.545   0.514   4.303 -0.3778  1.2658  2.3110
  138TIP3   OH2  419   5.560   4.995   2.130 -0.0156  0.4832 -0.1539
  138TIP3    H1  420   5.511   5.077   2.133 -2.0031 -0.5309 -1.8495
  138TIP3    H2  421   5.516   4.938   2.193 -0.8841 -0.3312 -1.4495
  139TIP3   OH2  422   5.212   4.280   2.365 -0.2672 -0.1567 -0.3464
  139TIP3    H1  423   5.182   4.361   2.406  0.6158  0.2147 -0.4099
  139TIP3    H2  424   5.153   4.213   2.400  0.3062  0.1837  1.3838
  140TIP3   OH2  425   6.008   5.744   0.752 -0.2198 -0.0869 -1.0662
  140TIP3    H1  426   5.989   5.795   0.673 -0.3322  1.4693 -0.0853
  140TIP3    H2  427   6.103   5.748   0.761 -0.2801  0.6462 -0.5869
  141TIP3   OH2  428   6.045   2.272   3.446  0.2864  0.1463 -0.5737
  141TIP3    H1  429   6.014   2.351   3.402  0.7207 -0.0377 -1.2378
  141TIP3    H2  430   6.123   2.300   3.493  1.2686 -0.1490 -1.9496
  142TIP3   OH2  431   5.548   5.100   0.819 -0.1273  0.2418 -0.3202
  142TIP3    H1  432   5.473   5.093   0.761 -2.1334 -0.4186  2.1907
  142TIP3    H2  433   5.592   5.015   0.812 -0.7750 -0.0939 -0.2948
  143TIP3   OH2  434   0.183   2.579   1.376  0.0812  0.0189  0.3608
  143TIP3    H1  435   0.146   2.531   1.449 -1.1378 -0.5983 -0.6400
  143TIP3    H2  436   0.235   2.515   1.328  1.5143  0.5924  1.0534
  144TIP3   OH2  437   3.800   4.574   4.687 -0.0002  0.2192 -0.1820
  144TIP3    H1  438   3.809   4.665   4.716  1.2858 -0.2686  1.0767
  144TIP3    H2  439   3.716   4.572   4.641 -0.3877  1.8889  0.3667
  145TIP3   OH2  440   5.448   3.764   3.031 -0.2263  0.0663  0.1196
  145TIP3    H1  441   5.434   3.687   3.087  0.2767 -0.8418 -0.9719
  145TIP3    H2  442   5.509   3.734   2.964 -0.7877  1.1434 -0.9009
  146TIP3   OH2  443   3.198   5.335   3.565 -0.5575  0.1231  0.5279
  146TIP3    H1  444   3.228   5.261   3.617  0.6771  0.3233  0.1325
  146TIP3    H2  445   3.200   5.304   3.474  2.2975  1.2586  0.0641
  147TIP3   OH2  446   2.212   4.265   0.233  0.0704 -0.0112 -0.2198
  147TIP3    H1  447   2.285   4.309   0.276  0.2121 -1.2742  0.8908
  147TIP3    H2  448   2.142   4.331   0.231  0.0667  0.1136  1.9439
  148TIP3   OH2  449   4.282   5.752   2.711  0.0312  0.0228  0.0708
  148TIP3    H1  450   4.248   5.725   2.797 -0.0685 -0.4117 -0.1012
  148TIP3    H2  451   4.259   5.680   2.653 -0.6927  0.7168 -0.5178
  149TIP3   OH2  452   1.211   0.258   3.802  0.6869 -1.0718  0.3348
  149TIP3    H1  453   1.253   0.324   3.858  0.4830 -2.3394  2.0386
  149TIP3    H2  454   1.255   0.176   3.824  0.6635 -1.6213 -1.4668
  150TIP3   OH2  455   1.133   5.088   1.650 -0.2821 -0.5140  0.2891
  150TIP3    H1  456   1.219   5.129   1.661 -1.1594  1.1662  1.3133
  150TIP3    H2  457   1.105   5.068   1.740 -1.6803  0.6062  0.1451
  151TIP3   OH2  458   3.883   2.352   1.130 -0.3308  0.6887 -0.0580
  151TIP3    H1  459   3.888   2.291   1.204  4.1203  1.0312  0.2116
  151TIP3    H2  460   3.880   2.439   1.170 -1.1775  0.8162 -0.3740
  152TIP3   OH2  461   3.133   1.200   2.838  0.3023 -0.8407 -0.1635
  152TIP3    H1  462   3.153   1.119   2.790  1.8189 -0.8729  0.4463
  152TIP3    H2  463   3.219   1.233   2.863 -0.3548  0.4665  0.4200
  153TIP3   OH2  464   1.055   0.698   4.250 -0.5624 -0.3575  0.5662
  153TIP3    H1  465   1.098   0.756   4.312 -0.0969 -1.3881  1.2411
  153TIP3    H2  466   1.054   0.747   4.168  0.3110  0.3749  0.9768
  154TIP3   OH2  467   6.230   2.418   5.133 -0.5992 -0.6198  0.3284
  154TIP3    H1  468   6.277   2.500   5.113 -1.7491 -0.0128  0.0010
  154TIP3    H2  469   6.295   2.364   5.177  0.1472  0.5491  0.7358
  155TIP3   OH2  470   5.534   5.884   2.233  0.2253  0.3370  0.0391
  155TIP3    H1  471   5.575   5.857   2.151  1.1160  1.0499  0.2282
  155TIP3    H2  472   5.443   5.855   2.226 -0.3479  2.3793 -2.1622
  156TIP3   OH2  473   3.127   3.696   0.381 -0.5689  0.0549  0.0236
  156TIP3    H1  474   3.128   3.695   0.286 -0.5683 -1.1840  0.0251
  156TIP3    H2  475   3.208   3.741   0.405  0.1018 -0.7944 -0.5666
  157TIP3   OH2  476   3.907   5.627   2.963  0.2497 -0.3618  0.3982
  157TIP3    H1  477   3.881   5.535   2.954 -1.5793  0.0256  1.2772
  157TIP3    H2  478   3.893   5.647   3.055  3.7818 -0.0294  1.0139
  158TIP3   OH2  479   1.918   4.758   3.210 -0.7803 -0.1860  0.1540
  158TIP3    H1  480   1.987   4.805   3.164  0.3534 -0.9107  1.0569
  158TIP3    H2  481   1.930   4.782   3.302 -0.4944 -1.8073  0.5687
  159TIP3   OH2  482   2.262   3.423   3.307  0.2142 -0.4296 -0.0830
  159TIP3    H1  483   2.236   3.332   3.320 -0.3422 -0.3581 -0.6672
  159TIP3    H2  484   2.182   3.468   3.282  0.6762  0.0235 -0.7910
  160TIP3   OH2  485   1.047   2.651   2.652  0.3852  0.1577  0.0862
  160TIP3    H1  486   1.103   2.580   2.683 -0.9863 -0.6958  0.7163
  160TIP3    H2  487   1.001   2.615   2.577 -1.0326 -0.0042  0.9834
  161TIP3   OH2  488   2.139   3.767   2.014  0.1056 -0.3079  0.1229
  161TIP3    H1  489   2.083   3.739   2.087 -0.2356 -0.6793 -0.2771
  161TIP3    H2  490   2.083   3.824   1.961 -0.1524 -1.2504 -0.6697
  162TIP3   OH2  491   5.781   5.063   1.487  0.6334  0.3487 -0.0320
  162TIP3    H1  492   5.806   5.109   1.568  0.8764 -0.4502  0.3661
  162TIP3    H2  493   5.793   5.128   1.418 -0.1648  1.2402  0.6347
  163TIP3   OH2  494   4.223   3.788   5.116 -0.3881 -0.0815 -0.0481
  163TIP3    H1  495   4.143   3.810   5.163 -0.8888 -0.1624 -0.8477
  163TIP3    H2  496   4.195   3.774   5.025  0.7025  1.1261 -0.6114
  164TIP3   OH2  497   1.376   2.779   0.481 -0.1494 -0.5886 -0.3795
  164TIP3    H1  498   1.304   2.726   0.445 -0.4548 -0.4263 -0.0163
  164TIP3    H2  499   1.396   2.737   0.565 -1.5621  0.8584  0.7490
  165TIP3   OH2  500   1.563   2.923   4.160 -0.0982 -0.4727 -0.2988
  165TIP3    H1  501   1.534   2.838   4.194 -1.7805 -0.0506 -0.5892
  165TIP3    H2  502   1.488   2.955   4.110  0.2324  1.5150  0.4099
  166TIP3   OH2  503   0.394   3.811   2.735  0.2496 -0.3881  0.1422
  166TIP3    H1  504   0.356   3.761   2.808 -0.5575 -0.3302 -0.2282
  166TIP3    H2  505   0.453   3.749   2.692  1.0501 -0.3008  1.0851
  167TIP3   OH2  506   6.082   2.865   0.985 -0.1314 -0.1531  0.3649
  167TIP3    H1  507   6.007   2.923   0.999 -0.6207 -0.9606  1.2161
  167TIP3    H2  508   6.043   2.779   0.970  0.6301 -0.6298  1.0469
  168TIP3   OH2  509   3.119   0.569   4.824 -0.1145  0.2827 -0.1136
  168TIP3    H1  510   3.105   0.663   4.829  0.9364  0.4391  0.1116
  168TIP3    H2  511   3.213   0.559   4.808 -0.3944 -0.7031 -1.3215
  169TIP3   OH2  512   4.938   2.030   1.356  0.4283  0.2554  0.5520
  169TIP3    H1  513   4.941   2.041   1.261 -0.0751  1.0976  0.6250
  169TIP3    H2  514   4.970   2.113   1.391 -2.6380  1.3165  1.1181
  170TIP3   OH2  515   3.755   1.240   3.853 -0.4787 -0.2544 -0.1771
  170TIP3    H1  516   3.720   1.175   3.912 -1.8442 -0.0259 -0.7065
  170TIP3    H2  517   3.751   1.199   3.766 -1.2660  0.4740 -0.5011
  171TIP3   OH2  518   1.945   4.915   0.507 -0.0291  0.0635 -0.0475
  171TIP3    H1  519   1.916   5.002   0.535 -1.0886  0.2626 -1.6312
  171TIP3    H2  520   2.004   4.932   0.434 -0.8491 -0.5706 -0.8662
  172TIP3   OH2  521   3.778   1.236   0.670  0.0402  0.0606  0.2773
  172TIP3    H1  522   3.720   1.167   0.703  0.5953 -0.3153  0.4764
  172TIP3    H2  523   3.819   1.272   0.748 -0.0537  0.4448  0.1504
  173TIP3   OH2  524   3.694   3.737   5.044 -0.6097 -0.3823 -0.4888
  173TIP3    H1  525   3.682   3.825   5.080 -0.2983 -1.0037  1.2285
  173TIP3    H2  526   3.787   3.732   5.025 -0.3771 -0.7717  0.6785
  174TIP3   OH2  527   6.014   5.049   0.247  0.2741 -0.2920  0.2948
  174TIP3    H1  528   5.985   5.072   0.159 -0.2809 -0.3364  0.4616
  174TIP3    H2  529   5.935   5.018   0.291  0.7435 -1.2527  0.4936
  175TIP3   OH2  530   3.252   4.720   2.202  0.3132  0.1014 -0.1096
  175TIP3    H1  531   3.262   4.801   2.152 -0.5408  0.0566 -0.3796
  175TIP3    H2  532   3.321   4.723   2.268 -0.2223  1.4433  0.4113
  176TIP3   OH2  533   2.168   2.895   3.654  0.3564  0.4531 -0.2958
  176TIP3    H1  534   2.200   2.965   3.597  1.4538 -1.2569 -1.8705
  176TIP3    H2  535   2.248   2.855   3.689 -0.2818  1.0922  2.0738
  177TIP3   OH2  536   5.896   3.108   3.537 -0.5211 -0.0232 -0.1548
  177TIP3    H1  537   5.966   3.052   3.570 -0.6470  0.0412  0.2220
  177TIP3    H2  538   5.816   3.058   3.552 -0.5306 -0.2691 -0.9455
  178TIP3   OH2  539   1.391   5.056   4.963 -0.2402 -0.2181  0.2023
  178TIP3    H1  540   1.486   5.051   4.976 -0.1418 -0.1216 -0.4259
  178TIP3    H2  541   1.354   5.033   5.048  0.3588  0.7209  0.7418
  179TIP3   OH2  542   4.194   2.222   3.158 -0.4956 -0.3058  0.3752
  179TIP3    H1  543   4.210   2.298   3.102  1.9005 -1.8399 -1.2706
  179TIP3    H2  544   4.222   2.250   3.245 -0.1792  0.8766 -0.0828
  180TIP3   OH2  545   6.304   5.087   0.670 -0.2900 -0.6758  0.2411
  180TIP3    H1  546   6.354   5.039   0.604 -0.9221 -1.3189  0.2197
  180TIP3    H2  547   6.251   5.020   0.713 -0.1011 -0.2232  1.2071
  181TIP3   OH2  548   3.554   0.583   3.114  0.2144 -0.0050  0.5475
  181TIP3    H1  549   3.603   0.649   3.064  1.3061  0.1612  1.8012
  181TIP3    H2  550   3.482   0.632   3.153 -0.2478 -0.0015 -0.2875
  182TIP3   OH2  551   6.326   5.463   2.483 -0.0917  0.3406 -0.1851
  182TIP3    H1  552   6.374   5.544   2.499 -1.8598  1.3057  0.5328
  182TIP3    H2  553   6.346   5.441   2.392  2.2970  0.2198  0.2878
  183TIP3   OH2  554   3.353   4.492   1.866  0.1246 -0.1323  0.5328
  183TIP3    H1  555   3.424   4.460   1.922  0.9238  1.0589  0.2231
  183TIP3    H2  556   3.370   4.586   1.857 -1.2085  0.0719  0.0360
  184TIP3   OH2  557   3.650   2.577   4.953 -0.0156  0.0017 -0.4644
  184TIP3    H1  558   3.686   2.633   4.885  2.5947 -0.7930  0.1494
  184TIP3    H2  559   3.643   2.491   4.912 -0.3032 -0.0741 -0.2622
  185TIP3   OH2  560   3.784   4.347   2.816  0.4691  0.1295  0.0351
  185TIP3    H1  561   3.819   4.397   2.889  0.9736  0.5602 -0.4932
  185TIP3    H2  562   3.833   4.378   2.739  0.2371 -0.6030 -0.4228
  186TIP3   OH2  563   5.170   4.321   3.216  0.3583  0.1771  0.3026
  186TIP3    H1  564   5.083   4.354   3.196 -0.2739 -0.5421  1.7378
  186TIP3    H2  565   5.156   4.251   3.280  1.8583 -1.0337 -0.5927
  187TIP3   OH2  566   2.092   1.925   4.241  0.9724 -0.0881  0.5274
  187TIP3    H1  567   2.137   1.869   4.178  0.7722 -0.6623  0.8927
  187TIP3    H2  568   2.116   2.014   4.215 -1.7202 -0.0703 -2.3901
  188TIP3   OH2  569   0.304   0.105   2.755 -0.3629 -0.2103  0.3169
  188TIP3    H1  570   0.315   0.033   2.693  0.5263 -1.4930  1.8869
  188TIP3    H2  571   0.210   0.107   2.772 -0.4650 -0.6519 -0.1560
  189TIP3   OH2  572   5.272   2.453   1.436 -0.0460  0.4160  0.0695
  189TIP3    H1  573   5.181   2.465   1.462 -0.2011 -0.2696 -0.1407
  189TIP3    H2  574   5.322   2.471   1.515 -0.2990  1.5758 -0.0056
  190TIP3   OH2  575   5.904   1.727   5.107  0.0341 -0.1345 -0.4654
  190TIP3    H1  576   5.982   1.754   5.058  0.8660 -1.1479  0.2428
  190TIP3    H2  577   5.923   1.751   5.197  0.5978 -2.4893  0.1113
  191TIP3   OH2  578   0.911   5.037   2.337  0.2582 -0.0618 -0.0310
  191TIP3    H1  579   0.858   4.997   2.406  1.1896  1.3599  1.5890
  191TIP3    H2  580   0.985   4.978   2.326  0.1317 -0.2684  0.2251
  192TIP3   OH2  581   2.036   0.583   3.481  0.0526  0.1226  0.3225
  192TIP3    H1  582   2.004   0.616   3.396  1.2874 -1.8742 -1.0122
  192TIP3    H2  583   2.065   0.661   3.527 -0.2967  1.2531 -1.2580
  193TIP3   OH2  584   5.196   3.197   3.828 -0.1778  0.6344  0.5546
  193TIP3    H1  585   5.146   3.228   3.753 -1.4977  1.4240  1.6982
  193TIP3    H2  586   5.236   3.276   3.865  1.0564  0.1556  0.2891
  194TIP3   OH2  587   2.485   4.411   4.347 -0.0489  0.1290  0.0813
  194TIP3    H1  588   2.449   4.330   4.384 -0.6494  0.2468 -0.2291
  194TIP3    H2  589   2.505   4.389   4.256  2.1932 -0.3996  0.6418
  195TIP3   OH2  590   3.204   0.061   3.261  0.2443  0.0444  0.0926
  195TIP3    H1  591   3.166   0.134   3.310  1.0779  0.1583  0.6025
  195TIP3    H2  592   3.277   0.032   3.316 -0.2960 -1.4161  0.0760
  196TIP3   OH2  593   4.158   5.392   0.898  0.2474 -0.3396  0.5640
  196TIP3    H1  594   4.183   5.358   0.984  1.1626  1.1473  0.9192
  196TIP3    H2  595   4.063   5.384   0.897  0.1585  0.1439  1.9628
  197TIP3   OH2  596   4.311   0.302   2.807  0.5744 -0.2749  0.2792
  197TIP3    H1  597   4.218   0.317   2.789  1.0656  0.6473 -1.6889
  197TIP3    H2  598   4.311   0.232   2.872 -1.5035  0.1250  0.7999
  198TIP3   OH2  599   1.305   4.703   4.800  0.4322  0.1252  0.2406
  198TIP3    H1  600   1.250   4.630   4.773  2.5356 -1.4774  0.0527
  198TIP3    H2  601   1.247   4.760   4.851 -0.9960 -2.2521  1.4090
  199TIP3   OH2  602   1.958   0.923   4.267 -0.2256  0.0035 -0.0526
  199TIP3    H1  603   1.930   0.987   4.333  0.4392  0.9667 -0.6898
  199TIP3    H2  604   2.020   0.867   4.313 -0.9333 -0.3103  0.5532
  200TIP3   OH2  605   1.183   3.428   5.094 -0.1280 -0.7141 -0.0485
  200TIP3    H1  606   1.278   3.424   5.097 -0.0718 -3.4140 -1.7516
  200TIP3    H2  607   1.163   3.460   5.006 -0.7930 -0.6747  0.1103
  201TIP3   OH2  608   2.894   4.418   0.233  0.2755 -0.2064  0.3853
  201TIP3    H1  609   2.911   4.373   0.150 -2.5843 -0.1863 -0.3211
  201TIP3    H2  610   2.897   4.511   0.210 -0.6080 -0.2027  0.2636
  202TIP3   OH2  611   2.082   5.540   1.904  0.6792 -0.1416  0.5669
  202TIP3    H1  612   2.152   5.476   1.917  2.1739  1.1627 -0.6652
  202TIP3    H2  613   2.031   5.537   1.985  1.5373 -1.8693  1.0805
  203TIP3   OH2  614   3.549   4.044   0.404  0.1657  0.4288 -0.0865
  203TIP3    H1  615   3.543   4.033   0.309 -0.1686 -1.3576  0.1029
  203TIP3    H2  616   3.643   4.042   0.422  0.2576  1.2895 -0.4086
  204TIP3   OH2  617   5.826   2.940   0.405  0.3180 -0.1161 -0.4765
  204TIP3    H1  618   5.836   2.927   0.311  0.0788 -1.1153 -0.3783
  204TIP3    H2  619   5.754   3.001   0.414 -1.6653 -2.2650 -0.8962
  205TIP3   OH2  620   1.889   1.736   3.934 -0.3171  0.5613  0.1374
  205TIP3    H1  621   1.829   1.712   3.864  1.3744 -2.1980 -0.5067
  205TIP3    H2  622   1.851   1.694   4.012 -0.1142  0.2031  0.0484
  206TIP3   OH2  623   2.077   3.807   3.043 -0.0720  0.5150  0.5577
  206TIP3    H1  624   1.991   3.791   3.005  0.1196  0.4148  0.1652
  206TIP3    H2  625   2.130   3.842   2.971 -0.0279  1.3998  1.0091
  207TIP3   OH2  626   1.759   1.547   1.101  0.4247 -0.0455  0.4381
  207TIP3    H1  627   1.783   1.531   1.010 -0.9141  1.0431 -0.1348
  207TIP3    H2  628   1.783   1.466   1.146  1.1093 -0.6023 -0.8664
  208TIP3   OH2  629   3.754   1.416   0.467 -0.3558 -0.3590  0.2369
  208TIP3    H1  630   3.798   1.383   0.390  0.1030 -0.3796  0.5041
  208TIP3    H2  631   3.761   1.346   0.532 -0.5217 -0.2495  0.3759
  209TIP3   OH2  632   2.070   1.258   1.889  0.2472  0.2927  0.2601
  209TIP3    H1  633   2.060   1.244   1.983 -0.6129  3.4679  0.7387
  209TIP3    H2  634   2.156   1.299   1.880  0.3672 -0.0786 -0.4014
  210TIP3   OH2  635   3.664   5.706   0.182  0.2380  0.0542 -0.1911
  210TIP3    H1  636   3.613   5.752   0.248  1.4425  1.4021 -0.1257
  210TIP3    H2  637   3.615   5.717   0.101 -0.2484  0.1392  0.1162
  211TIP3   OH2  638   4.549   4.965   1.345 -0.6464 -0.3690  0.0002
  211TIP3    H1  639   4.489   4.893   1.323 -1.4525 -0.2072  1.5587
  211TIP3    H2  640   4.492   5.042   1.349 -0.2610 -0.1242  0.9772
  212TIP3   OH2  641   5.547   4.933   3.240  0.2154 -0.3132 -0.0469
  212TIP3    H1  642   5.609   5.006   3.233  0.5748 -0.2916  2.6396
  212TIP3    H2  643   5.601   4.855   3.250 -0.1648 -0.4398  1.1212
  213TIP3   OH2  644   0.729   2.554   3.212 -0.3238  0.3164 -0.5889
  213TIP3    H1  645   0.693   2.523   3.295 -1.5732  0.0558 -1.2061
  213TIP3    H2  646   0.677   2.632   3.191 -0.8322 -0.2999 -1.7050
  214TIP3   OH2  647   5.402   0.253   1.890 -0.4185 -0.5859  0.5071
  214TIP3    H1  648   5.344   0.307   1.943 -1.2523  0.9054 -1.7491
  214TIP3    H2  649   5.466   0.314   1.854  0.7329 -1.7072  0.5739
  215TIP3   OH2  650   1.943   3.809   1.810  0.2868 -0.3909  0.1251
  215TIP3    H1  651   1.907   3.723   1.788 -0.2652 -0.5941  1.6713
  215TIP3    H2  652   1.908   3.868   1.744 -0.9651 -1.0078  0.2127
  216TIP3   OH2  653   6.282   0.323   4.324  0.1023 -0.5584 -0.3204
  216TIP3    H1  654   6.307   0.372   4.245 -0.8198  1.2370  0.4668
  216TIP3    H2  655   6.361   0.325   4.378  1.5042 -3.6558 -1.9621
  217TIP3   OH2  656   5.775   5.080   3.235 -0.1686 -0.2932  0.0440
  217TIP3    H1  657   5.747   5.115   3.151 -2.9035 -0.2987  0.8454
  217TIP3    H2  658   5.829   5.149   3.274  2.0435 -0.7158 -2.0611
  218TIP3   OH2  659   4.532   3.657   5.022  0.0902 -0.5238 -0.9547
  218TIP3    H1  660   4.623   3.665   5.053  0.1834 -0.7947 -1.1603
  218TIP3    H2  661   4.534   3.693   4.934 -0.2875  0.7599 -0.4717
  219TIP3   OH2  662   3.328   0.833   2.466  0.4615 -0.5037 -0.4229
  219TIP3    H1  663   3.353   0.887   2.391  0.8217 -1.1231 -0.7643
  219TIP3    H2  664   3.284   0.757   2.426  0.1708 -0.5744  0.0276
  220TIP3   OH2  665   6.172   2.831   4.189  0.5040 -0.0981 -0.1304
  220TIP3    H1  666   6.145   2.781   4.266 -0.3459  1.0380  0.3390
  220TIP3    H2  667   6.147   2.921   4.208  0.0143  0.1786 -1.8491
  221TIP3   OH2  668   0.847   3.676   5.130 -0.1453 -0.5566 -0.2059
  221TIP3    H1  669   0.829   3.770   5.137 -0.0400 -0.4736 -0.9361
  221TIP3    H2  670   0.915   3.670   5.063 -1.6747 -1.2802 -1.8098
  222TIP3   OH2  671   0.509   3.002   4.509 -0.3856 -0.2990 -0.2907
  222TIP3    H1  672   0.548   2.957   4.435  0.8295 -0.1254  0.2148
  222TIP3    H2  673   0.463   2.934   4.557 -0.6212 -0.5324 -0.8427
  223TIP3   OH2  674   0.604   0.055   2.685  0.4316  0.5077 -0.6984
  223TIP3    H1  675   0.615   0.080   2.593 -0.1719  1.5258 -0.5136
  223TIP3    H2  676   0.671  -0.012   2.700  1.0947  0.9311 -1.6446
  224TIP3   OH2  677   3.906   2.568   1.326 -0.5963 -0.5391  0.3947
  224TIP3    H1  678   3.837   2.626   1.293 -0.6742 -0.3184  0.9377
  224TIP3    H2  679   3.872   2.534   1.409  0.1020 -0.1357  0.8557
  225TIP3   OH2  680   0.340  -0.011   4.290 -0.1567  0.2572  0.6361
  225TIP3    H1  681   0.318   0.056   4.226  0.0870  0.7260  1.0368
  225TIP3    H2  682   0.431   0.007   4.314  0.4883 -1.2714 -0.5269
  226TIP3   OH2  683   3.618   2.116   3.181  0.3507 -0.0677 -0.0925
  226TIP3    H1  684   3.605   2.027   3.148  1.5528 -0.8710  1.4304
  226TIP3    H2  685   3.588   2.173   3.110 -1.7866 -1.6547 -0.5619
  227TIP3   OH2  686   1.510   0.501   1.926 -0.8764 -0.7093  0.6167
  227TIP3    H1  687   1.494   0.569   1.861  1.1202 -0.1666  0.6559
  227TIP3    H2  688   1.422   0.471   1.950 -1.7251  0.3264 -0.9806
  228TIP3   OH2  689   6.093   1.558   2.625  0.3369 -0.3456 -0.3824
  228TIP3    H1  690   6.076   1.586   2.715  0.4789 -0.3836 -0.3432
  228TIP3    H2  691   6.186   1.533   2.625  0.2292 -0.7565 -0.4306
  229TIP3   OH2  692   1.507   0.940   2.918  0.3081  0.1676 -0.0226
  229TIP3    H1  693   1.576   0.916   2.980  0.6961 -1.5053 -1.0242
  229TIP3    H2  694   1.431   0.957   2.973  0.8917 -0.3167  0.9840
  230TIP3   OH2  695   3.277   4.644   3.820  0.5151 -0.3571  0.5048
  230TIP3    H1  696   3.372   4.652   3.829  0.5305  1.5602 -0.7534
  230TIP3    H2  697   3.254   4.566   3.871  2.7908 -1.0729  0.5419
  231TIP3   OH2  698   5.506   4.341   2.617  0.7459  0.5417  0.0125
  231TIP3    H1  699   5.415   4.312   2.621  0.6769  0.7634  0.0476
  231TIP3    H2  700   5.534   4.319   2.528  0.2025  1.8201 -0.4919
  232TIP3   OH2  701   1.284   3.294   2.586  0.0989  0.2856  0.5493
  232TIP3    H1  702   1.263   3.318   2.496  0.7593 -0.5737  0.1528
  232TIP3    H2  703   1.275   3.199   2.589 -0.2684  0.3355  1.4912
  233TIP3   OH2  704   3.736   3.411   2.120  0.5069  0.1541 -0.1270
  233TIP3    H1  705   3.808   3.409   2.057 -1.0933 -0.6536 -2.0208
  233TIP3    H2  706   3.686   3.488   2.097  0.6441  0.6294  1.0862
  234TIP3   OH2  707   2.620   4.749   3.231  0.0376 -0.6828 -0.1299
  234TIP3    H1  708   2.622   4.826   3.289 -0.1463 -0.0687 -0.9301
  234TIP3    H2  709   2.680   4.771   3.160 -1.9227 -0.1708 -1.7257
  235TIP3   OH2  710   4.084   4.320  -0.013  0.1551 -0.6307  0.2393
  235TIP3    H1  711   4.027   4.253   0.025 -1.5003  0.4621 -0.1964
  235TIP3    H2  712   4.109   4.375   0.062 -0.0181 -0.6499  0.3116
  236TIP3   OH2  713   0.614   4.088   4.505  0.6065  0.2428 -0.0501
  236TIP3    H1  714   0.526   4.121   4.489 -0.6340 -2.4968  0.5234
  236TIP3    H2  715   0.651   4.150   4.568 -1.9675  0.0510  1.8390
  237TIP3   OH2  716   1.972   1.170   0.596  0.1211 -0.2137  0.0819
  237TIP3    H1  717   1.922   1.111   0.539 -0.1696 -0.5490  0.6754
  237TIP3    H2  718   1.977   1.252   0.547  1.0574 -0.8970 -1.0292
  238TIP3   OH2  719   0.264   2.499   3.526  0.1410  0.1462  0.4618
  238TIP3    H1  720   0.249   2.414   3.569  1.5598 -0.3430  0.0403
  238TIP3    H2  721   0.296   2.556   3.596  1.0669 -0.2402  0.3660
  239TIP3   OH2  722   0.080   5.715   2.487 -1.0287  0.0302 -0.8666
  239TIP3    H1  723   0.105   5.736   2.577  0.7146 -2.4142 -0.6992
  239TIP3    H2  724   0.154   5.745   2.433 -0.7728 -1.0288 -1.1367
  240TIP3   OH2  725   3.832   0.957   1.180 -1.0361 -0.4462  0.2373
  240TIP3    H1  726   3.880   0.956   1.263 -0.2465  0.1534 -0.1944
  240TIP3    H2  727   3.753   1.008   1.198 -0.1260  1.0129  0.2460
  241TIP3   OH2  728   3.866   1.038   0.904 -0.0279 -0.1512  0.1180
  241TIP3    H1  729   3.805   1.108   0.878 -1.6501 -1.4546  0.2331
  241TIP3    H2  730   3.856   1.032   0.999  0.6976 -0.0273  0.2058
  242TIP3   OH2  731   4.425   5.877   3.268 -0.1956 -0.2118  0.1106
  242TIP3    H1  732   4.516   5.903   3.258 -0.1106  0.1714  1.5659
  242TIP3    H2  733   4.390   5.873   3.179  0.7879  1.3278 -0.3784
  243TIP3   OH2  734   1.307   0.305   4.580  0.4590 -0.4501 -0.0399
  243TIP3    H1  735   1.382   0.363   4.579  0.4172 -0.3713  0.5880
  243TIP3    H2  736   1.281   0.302   4.672  0.6519 -1.6969 -0.0095
  244TIP3   OH2  737   2.459   4.926   1.627  0.3133 -0.4188 -0.3963
  244TIP3    H1  738   2.449   4.885   1.713 -0.4205  0.1498 -0.1916
  244TIP3    H2  739   2.371   4.924   1.589  0.5293 -0.2132 -0.9248
  245TIP3   OH2  740   2.396   2.222   4.415 -0.0371 -0.0108  0.0176
  245TIP3    H1  741   2.377   2.315   4.408  1.3639  0.4266  1.3969
  245TIP3    H2  742   2.345   2.181   4.345  0.4441  1.9341 -1.5410
  246TIP3   OH2  743   5.398   5.699   0.377  0.1346 -0.5246  0.0774
  246TIP3    H1  744   5.331   5.632   0.390 -0.5778  0.2657  0.6549
  246TIP3    H2  745   5.405   5.742   0.462  1.3746 -0.5726  0.0204
  247TIP3   OH2  746   3.324   2.669   5.030  0.1979  0.6209  0.1695
  247TIP3    H1  747   3.378   2.668   5.109 -0.2849  0.8825  0.5118
  247TIP3    H2  748   3.234   2.673   5.063  0.0177  1.3627 -0.3924
  248TIP3   OH2  749   1.570   2.267   4.870 -0.6489 -0.1157  0.2813
  248TIP3    H1  750   1.662   2.249   4.853 -0.5737  1.0017 -0.5583
  248TIP3    H2  751   1.565   2.279   4.965  0.3327  1.2095  0.1784
  249TIP3   OH2  752   0.224   0.471   0.032 -0.1962 -0.9063  0.1242
  249TIP3    H1  753   0.207   0.523   0.110 -0.6306 -2.2375  0.9595
  249TIP3    H2  754   0.267   0.531  -0.029 -1.1256  0.5366  0.8422
  250TIP3   OH2  755   6.351   4.823   1.121 -0.0702 -0.6025 -0.1833
  250TIP3    H1  756   6.257   4.836   1.110  0.3143  1.6282 -1.4143
  250TIP3    H2  757   6.371   4.746   1.070 -1.2657 -1.3370  0.4040
  251TIP3   OH2  758   3.375   3.448   2.287  0.1108 -0.2812  0.1430
  251TIP3    H1  759   3.302   3.505   2.309 -1.0492 -1.9357  0.7330
  251TIP3    H2  760   3.383   3.454   2.192 -0.1894  0.6078  0.1665
  252TIP3   OH2  761   3.062   5.387   2.000 -0.3796 -0.2653  0.2138
  252TIP3    H1  762   3.084   5.295   2.016 -0.2600 -0.0269  1.5313
  252TIP3    H2  763   3.006   5.386   1.922 -3.5981 -1.8669  2.3657
  253TIP3   OH2  764   1.299   1.834   1.214  0.2621  0.6112  0.5045
  253TIP3    H1  765   1.315   1.928   1.216 -1.9352  1.0443  3.0280
  253TIP3    H2  766   1.380   1.795   1.245  0.8534  1.7370  0.4151
  254TIP3   OH2  767   4.722   0.953   2.491  0.0106 -0.0546 -0.2965
  254TIP3    H1  768   4.807   0.983   2.525  0.0234 -0.6757  0.2383
  254TIP3    H2  769   4.712   0.999   2.408  1.3557 -0.7480 -0.8777
  255TIP3   OH2  770   0.311   1.977   4.928  0.5267 -0.1456  0.3372
  255TIP3    H1  771   0.364   1.925   4.868  0.4635  1.1352 -0.8720
  255TIP3    H2  772   0.273   1.913   4.988 -0.9493 -1.7330 -2.1551
  256TIP3   OH2  773   0.503   5.157   2.053  0.1013 -0.1128 -0.2364
  256TIP3    H1  774   0.484   5.070   2.019 -1.3665  0.8838 -2.2235
  256TIP3    H2  775   0.420   5.205   2.045  1.0615  1.7009 -0.0270
  257TIP3   OH2  776   0.853   3.825   4.475 -0.5369 -0.0309 -0.0635
  257TIP3    H1  777   0.822   3.848   4.388  1.2502 -0.4780 -0.8812
  257TIP3    H2  778   0.893   3.905   4.509  1.5476 -0.5762 -1.0081
  258TIP3   OH2  779   2.619   1.550   3.313  0.6778  0.6185  0.4159
  258TIP3    H1  780   2.660   1.604   3.380  1.4100  2.2708 -1.2748
  258TIP3    H2  781   2.654   1.462   3.328  1.8919  1.2384  1.3520
  259TIP3   OH2  782   5.841   4.152   0.751 -0.2038  0.0702 -0.3887
  259TIP3    H1  783   5.895   4.073   0.748  0.3290  0.4170  0.0229
  259TIP3    H2  784   5.784   4.145   0.674 -0.5936 -1.0270 -0.0186
  260TIP3   OH2  785   4.830   0.608   1.686 -0.1855  0.8717 -0.2319
  260TIP3    H1  786   4.793   0.626   1.773 -1.1027 -3.6508  0.5749
  260TIP3    H2  787   4.753   0.594   1.630  0.2902 -0.7675 -0.5344
  261TIP3   OH2  788   4.710   0.344   2.067  0.3142  0.0071 -0.2053
  261TIP3    H1  789   4.734   0.358   2.158 -0.5131  2.5268 -0.3027
  261TIP3    H2  790   4.793   0.347   2.019  0.5321  1.2238  0.2200
  262TIP3   OH2  791   1.497   4.817   0.931 -0.2031  0.7923  0.1014
  262TIP3    H1  792   1.482   4.776   1.016 -1.5334  1.0630  0.0097
  262TIP3    H2  793   1.410   4.825   0.892  0.2650  1.7510 -0.7849
  263TIP3   OH2  794   4.292   3.165   3.309 -0.5407  0.5387  0.0053
  263TIP3    H1  795   4.273   3.127   3.223  1.7024  0.8568 -0.7135
  263TIP3    H2  796   4.215   3.146   3.362 -0.5551 -2.8400 -1.0103
  264TIP3   OH2  797   1.293   1.147   1.879  0.2440 -0.0870  0.7479
  264TIP3    H1  798   1.337   1.069   1.844  0.2315 -0.4247  1.4624
  264TIP3    H2  799   1.222   1.112   1.933  0.0672  0.4282  0.8570
  265TIP3   OH2  800   3.591   0.172   0.733  0.4170 -0.6395 -0.0999
  265TIP3    H1  801   3.593   0.168   0.828 -0.9608  0.0204 -0.0138
  265TIP3    H2  802   3.563   0.084   0.705  1.1386 -0.9286  0.0791
  266TIP3   OH2  803   4.573   1.358   2.288  0.4441 -0.3681 -0.4172
  266TIP3    H1  804   4.494   1.357   2.234 -0.2441 -2.8831  0.5150
  266TIP3    H2  805   4.562   1.435   2.344  0.0169  0.8849 -2.1190
  267TIP3   OH2  806   3.086   2.817   5.066 -0.1748  0.4435  0.2616
  267TIP3    H1  807   3.125   2.895   5.026  0.6731 -0.9534 -1.7988
  267TIP3    H2  808   2.999   2.811   5.028  0.5629 -0.7795 -1.3665
  268TIP3   OH2  809   1.835   5.541   0.141 -0.1551  0.6674  0.1624
  268TIP3    H1  810   1.770   5.588   0.090 -1.1524 -1.0295 -0.2010
  268TIP3    H2  811   1.892   5.500   0.076  1.3350  2.0954  0.4725
  269TIP3   OH2  812   2.132   4.700   3.852 -0.4629  0.2438 -0.0970
  269TIP3    H1  813   2.039   4.678   3.858 -0.5488  0.5066 -0.4283
  269TIP3    H2  814   2.153   4.736   3.939 -0.2080 -1.4887  0.5925
  270TIP3   OH2  815   0.990   1.237   3.080  0.3262 -0.2946 -0.1121
  270TIP3    H1  816   0.905   1.258   3.120  0.9229  0.1157  0.9578
  270TIP3    H2  817   1.041   1.197   3.150  0.5731 -1.8096 -1.1136
  271TIP3   OH2  818   1.335   3.151   1.224 -0.0474  0.1039 -0.3317
  271TIP3    H1  819   1.287   3.082   1.180  1.2513 -1.3226  0.4060
  271TIP3    H2  820   1.349   3.118   1.313  1.0509  1.0846 -0.1092
  272TIP3   OH2  821   4.722   5.132   2.527 -0.4749  0.3990 -0.4036
  272TIP3    H1  822   4.721   5.130   2.623  0.5752  1.0035 -0.3674
  272TIP3    H2  823   4.781   5.060   2.502 -2.0306 -0.8343 -0.6702
  273TIP3   OH2  824   6.181   5.075   3.024 -0.3281 -0.4391  0.5179
  273TIP3    H1  825   6.130   5.084   2.944 -1.3635  0.7703  1.2851
  273TIP3    H2  826   6.197   4.981   3.032  0.2446 -0.5308 -1.3637
  274TIP3   OH2  827   2.820   2.324   5.097  0.1785 -0.8055 -0.4518
  274TIP3    H1  828   2.831   2.373   5.015  1.1743  1.6444  1.0354
  274TIP3    H2  829   2.740   2.358   5.135  0.4349 -0.9456  0.2258
  275TIP3   OH2  830   2.721  -0.035   0.590 -0.0129  0.1485 -0.0384
  275TIP3    H1  831   2.693  -0.010   0.502  0.3566 -0.6408 -0.3862
  275TIP3    H2  832   2.741   0.048   0.633  1.2451  0.4766 -1.1903
  276TIP3   OH2  833   3.302   0.913   2.939 -0.2810 -0.1616  0.0075
  276TIP3    H1  834   3.269   0.925   2.850 -0.2377 -1.4324 -0.1976
  276TIP3    H2  835   3.323   0.820   2.944 -1.6193 -0.4048  1.8148
  277TIP3   OH2  836   5.277   5.711   2.572 -0.1352  0.1685 -0.5375
  277TIP3    H1  837   5.367   5.710   2.541  0.3832 -2.7110  0.7465
  277TIP3    H2  838   5.257   5.620   2.590 -2.6621  0.9432  1.0771
  278TIP3   OH2  839   0.338   5.612   4.763  0.3816 -0.4049  0.0606
  278TIP3    H1  840   0.320   5.636   4.672  2.4045 -0.5280 -0.4128
  278TIP3    H2  841   0.338   5.695   4.810 -0.7974 -0.3507 -0.0037
  279TIP3   OH2  842   2.481   0.899   1.001  0.4994  0.1018  0.7630
  279TIP3    H1  843   2.528   0.818   0.980  0.1393 -0.5568  2.3933
  279TIP3    H2  844   2.406   0.898   0.941 -0.3366 -1.5703  1.7583
  280TIP3   OH2  845   5.558   2.694   3.596  0.1980  0.2206  0.0979
  280TIP3    H1  846   5.525   2.632   3.531  0.4479  1.9910 -1.8450
  280TIP3    H2  847   5.536   2.655   3.680  0.3599 -2.4594 -1.0198
  281TIP3   OH2  848   1.739   5.829   3.342  0.6022 -0.6818  0.7125
  281TIP3    H1  849   1.692   5.908   3.369  1.9807  0.3512  0.2375
  281TIP3    H2  850   1.723   5.823   3.248 -1.0827 -2.1132  1.0403
  282TIP3   OH2  851   2.670   3.845   0.787 -0.4298 -0.6602  0.2067
  282TIP3    H1  852   2.605   3.909   0.818  0.2594  0.3128 -0.3150
  282TIP3    H2  853   2.754   3.877   0.820  0.5275  1.0473 -3.3653
  283TIP3   OH2  854   2.317   4.970   1.250  0.5070 -0.0824  0.2421
  283TIP3    H1  855   2.278   5.041   1.301  1.2907  1.1946 -0.8598
  283TIP3    H2  856   2.256   4.954   1.178  0.8128  0.1956 -0.0842
  284TIP3   OH2  857   3.800   5.010   1.535 -0.4704 -0.0745 -0.6393
  284TIP3    H1  858   3.809   4.916   1.523  0.7920  0.1152 -1.3348
  284TIP3    H2  859   3.779   5.043   1.447 -0.1829  0.3628 -0.5493
  285TIP3   OH2  860   1.907   5.581   5.154 -0.1415 -0.2794  0.0810
  285TIP3    H1  861   1.924   5.492   5.184 -0.2607  0.9269  4.3450
  285TIP3    H2  862   1.993   5.622   5.150 -0.3032  0.3074  1.7244
  286TIP3   OH2  863   5.697   0.611   4.038  0.7186 -0.1480 -0.0597
  286TIP3    H1  864   5.691   0.704   4.059 -0.8225 -0.3683  0.6170
  286TIP3    H2  865   5.783   0.584   4.069  0.1331  0.4597  2.2294
  287TIP3   OH2  866   1.050   3.603   0.748  0.4766  0.2217  0.1307
  287TIP3    H1  867   0.991   3.528   0.762 -0.9310  1.2112 -0.2023
  287TIP3    H2  868   1.025   3.665   0.817  1.6205  0.3954  0.3973
  288TIP3   OH2  869   0.218   4.219   2.524 -0.0967 -0.2114  0.1371
  288TIP3    H1  870   0.206   4.249   2.434  2.3902 -2.1340 -0.9735
  288TIP3    H2  871   0.138   4.171   2.544 -0.2300 -0.7528 -1.5363
  289TIP3   OH2  872   5.984   3.825   2.175  0.3728 -0.2619  0.1860
  289TIP3    H1  873   5.957   3.856   2.088  0.1390 -2.4876 -0.5886
  289TIP3    H2  874   6.055   3.763   2.158  0.9696 -0.0281  1.6800
  290TIP3   OH2  875   4.190   2.532   3.020  0.3440 -0.1409  0.4177
  290TIP3    H1  876   4.138   2.538   3.100 -0.9436  1.2547 -0.4720
  290TIP3    H2  877   4.266   2.588   3.035 -0.6248  1.2748  0.1623
  291TIP3   OH2  878   0.398   2.553   3.213 -0.0139  0.2402  0.1166
  291TIP3    H1  879   0.425   2.500   3.288 -1.0183 -0.6685 -0.1417
  291TIP3    H2  880   0.347   2.624   3.251 -0.4767 -0.1894  0.3212
  292TIP3   OH2  881   5.367   5.067   3.445 -0.1896 -0.3012 -0.5894
  292TIP3    H1  882   5.368   5.009   3.369  0.8817  0.0881 -0.9031
  292TIP3    H2  883   5.368   5.155   3.408 -0.9982 -0.0921 -0.1196
  293TIP3   OH2  884   3.793   0.348   0.938 -0.1537 -0.6478  0.7495
  293TIP3    H1  885   3.723   0.284   0.950  0.2961 -1.6889 -1.5513
  293TIP3    H2  886   3.825   0.331   0.849 -0.1790  2.9412 -0.0897
  294TIP3   OH2  887   0.102   5.281   2.637 -0.5482  0.0736  0.0724
  294TIP3    H1  888   0.066   5.339   2.569 -1.4956 -1.0745 -0.4326
  294TIP3    H2  889   0.041   5.208   2.641 -1.7921  1.1117  3.7188
  295TIP3   OH2  890   4.899   0.057   1.343  0.3940  0.4560 -0.1047
  295TIP3    H1  891   4.986   0.078   1.308  0.3929 -1.5249 -1.5089
  295TIP3    H2  892   4.862  -0.004   1.279 -1.5214  0.2461  1.1208
  296TIP3   OH2  893   4.581   1.559   4.836 -0.5739  0.9835 -1.2485
  296TIP3    H1  894   4.538   1.633   4.877  0.1373  1.2981 -1.0522
  296TIP3    H2  895   4.674   1.571   4.856 -0.4202  0.1944 -1.4542
  297TIP3   OH2  896   3.226   3.182   4.225  0.1401 -0.0285 -0.1239
  297TIP3    H1  897   3.293   3.218   4.283 -2.1852  1.4664  1.8244
  297TIP3    H2  898   3.153   3.244   4.229 -0.8615 -0.7641 -3.3529
  298TIP3   OH2  899   2.933   5.549   3.730 -0.3143  0.9143 -0.6430
  298TIP3    H1  900   2.942   5.643   3.744  2.0945  0.8171 -1.0673
  298TIP3    H2  901   2.929   5.511   3.817 -1.0198  1.3880 -0.4692
  299TIP3   OH2  902   1.579   1.473   1.388  0.0144 -0.0072  0.6049
  299TIP3    H1  903   1.609   1.539   1.450 -1.5642 -0.4078  1.8517
  299TIP3    H2  904   1.511   1.517   1.337  0.9845  0.1797 -0.5846
  300TIP3   OH2  905   5.772   5.515   4.335  0.2512 -0.4961 -0.0878
  300TIP3    H1  906   5.715   5.510   4.412 -0.0314  0.5324 -0.2187
  300TIP3    H2  907   5.831   5.589   4.353 -1.0137  0.9542 -1.6163
  301TIP3   OH2  908   5.283   5.923   4.037 -0.2287  0.4513  0.1585
  301TIP3    H1  909   5.350   5.978   4.079 -0.1870 -0.3177  1.1267
  301TIP3    H2  910   5.245   5.980   3.970  1.4767  0.8716 -0.5166
  302TIP3   OH2  911   1.743   5.023   2.803  0.0354  0.4521 -0.0528
  302TIP3    H1  912   1.767   4.934   2.830 -0.0147 -0.4069 -2.6294
  302TIP3    H2  913   1.719   5.067   2.885  1.8365 -1.3111  1.5439
  303TIP3   OH2  914   1.090   2.882   4.180 -0.1709 -0.1810 -0.8550
  303TIP3    H1  915   1.137   2.807   4.142  1.1057 -0.3608  0.9553
  303TIP3    H2  916   1.153   2.921   4.240 -1.6541  0.9027  0.0509
  304TIP3   OH2  917   0.697   3.053   2.105  0.2698 -0.0601  0.3326
  304TIP3    H1  918   0.678   2.967   2.141  0.4022  0.7467  2.5305
  304TIP3    H2  919   0.668   3.114   2.173  0.4045  1.6197 -1.0499
  305TIP3   OH2  920   1.168   1.190   1.481 -0.5478  0.7140 -0.3778
  305TIP3    H1  921   1.157   1.252   1.553 -2.7430 -0.5207  0.4363
  305TIP3    H2  922   1.222   1.120   1.517  3.5696  2.8172 -1.8490
  306TIP3   OH2  923   5.001   3.079   4.628  0.0967 -0.2676 -0.3177
  306TIP3    H1  924   5.068   3.143   4.604  1.3800 -1.2638  0.4985
  306TIP3    H2  925   4.962   3.052   4.544  0.5644  0.4735 -0.7855
  307TIP3   OH2  926   3.588   5.365   2.470  0.5046  0.4803  0.4148
  307TIP3    H1  927   3.659   5.311   2.436 -0.1951 -0.6336  0.6712
  307TIP3    H2  928   3.509   5.327   2.432 -0.0468  0.9940  1.0262
  308TIP3   OH2  929   1.923   5.413   0.925  0.6815 -0.5886  1.0725
  308TIP3    H1  930   1.960   5.501   0.927  1.1329 -0.7070 -0.3807
  308TIP3    H2  931   1.848   5.416   0.984  1.1818  0.5278  1.6717
  309TIP3   OH2  932   0.440   5.708   2.824  0.5216  0.2388 -0.6488
  309TIP3    H1  933   0.476   5.705   2.913  1.1000 -0.2161 -0.8920
  309TIP3    H2  934   0.348   5.686   2.834  0.1019  2.1491  0.0803
  310TIP3   OH2  935   5.297   3.280   4.242  0.1207 -0.2344  0.2542
  310TIP3    H1  936   5.211   3.281   4.198 -0.1354  0.2528  0.7521
  310TIP3    H2  937   5.304   3.192   4.279  0.0161 -0.4092 -0.1358
  311TIP3   OH2  938   0.887   0.681   3.324  0.2425 -0.0033  0.5484
  311TIP3    H1  939   0.923   0.760   3.364  1.2333  0.9270 -1.9713
  311TIP3    H2  940   0.960   0.618   3.327  0.5575  0.3055 -0.3687
  312TIP3   OH2  941   6.182   5.968   0.067  0.4092 -0.4293  0.2827
  312TIP3    H1  942   6.209   5.904   0.132 -0.7611 -1.2462 -0.0096
  312TIP3    H2  943   6.190   6.053   0.112 -0.8349 -1.0075  1.6512
  313TIP3   OH2  944   1.762   5.409   1.357  0.4276 -0.1741 -0.0084
  313TIP3    H1  945   1.806   5.489   1.384  0.0478  0.4025 -1.0220
  313TIP3    H2  946   1.733   5.368   1.439  0.9530  0.5276  0.5391
  314TIP3   OH2  947   3.196   5.358   0.813 -0.6323 -0.0122 -0.4814
  314TIP3    H1  948   3.101   5.370   0.825 -0.3664  3.0921 -0.7025
  314TIP3    H2  949   3.211   5.380   0.722  0.3773  0.0447 -0.3053
  315TIP3   OH2  950   6.133   4.294   0.201 -0.4762  0.2164 -0.1222
  315TIP3    H1  951   6.162   4.251   0.281 -0.7096 -0.4065 -0.3661
  315TIP3    H2  952   6.127   4.224   0.136  2.9587  1.1083 -1.6622
  316TIP3   OH2  953   6.018   5.234   2.302 -0.7676  0.0958 -0.3101
  316TIP3    H1  954   6.037   5.320   2.264 -0.7073  0.2796  0.1250
  316TIP3    H2  955   6.010   5.176   2.227 -0.1517  0.3541 -0.5845
  317TIP3   OH2  956   1.371   2.721   5.153 -0.2562  0.3628 -0.1601
  317TIP3    H1  957   1.392   2.794   5.094  2.5259  0.1251  0.4004
  317TIP3    H2  958   1.360   2.646   5.094  0.4547  0.5325 -0.5186
  318TIP3   OH2  959   1.186   5.453   1.450  0.0952 -0.1949  0.1951
  318TIP3    H1  960   1.242   5.383   1.483  0.2982  0.1844  0.6767
  318TIP3    H2  961   1.186   5.442   1.355  0.8457 -0.3049  0.2017
  319TIP3   OH2  962   2.198   2.304   0.268  0.1822  0.2478 -0.0656
  319TIP3    H1  963   2.240   2.372   0.216  0.1190  1.4381  1.3996
  319TIP3    H2  964   2.111   2.295   0.230  1.3131 -1.5930 -2.5436
  320TIP3   OH2  965   1.116   3.735   2.859  0.0388  0.6032  0.0612
  320TIP3    H1  966   1.023   3.747   2.844 -0.3774 -0.2608  1.6251
  320TIP3    H2  967   1.142   3.667   2.797 -1.2627 -1.8258  1.9805
  321TIP3   OH2  968   3.110   3.566   2.379 -0.1483  0.3316  0.4158
  321TIP3    H1  969   3.131   3.631   2.445 -1.0459  1.2767 -0.2029
  321TIP3    H2  970   3.114   3.614   2.296  0.4633 -0.7121 -0.1848
  322TIP3   OH2  971   5.639   3.826   0.675  0.2665 -0.3338  0.2116
  322TIP3    H1  972   5.733   3.844   0.664 -0.0419  0.4981 -1.3556
  322TIP3    H2  973   5.632   3.789   0.763  1.7048  2.2744  1.5662
  323TIP3   OH2  974   5.084   4.736   4.481 -0.1623 -0.1380  0.1342
  323TIP3    H1  975   5.034   4.704   4.556  0.2316 -0.9369  0.0672
  323TIP3    H2  976   5.046   4.822   4.462 -1.0755 -0.4484  0.4875
  324TIP3   OH2  977   5.850   2.993   1.798  0.0725 -0.7654  0.0624
  324TIP3    H1  978   5.933   2.964   1.760  0.9876  2.4226 -0.6730
  324TIP3    H2  979   5.829   3.074   1.752 -2.4405 -0.4127  1.6061
  325TIP3   OH2  980   4.746   5.664   1.298  0.1241 -0.4263  0.2707
  325TIP3    H1  981   4.784   5.730   1.357 -2.4317  1.1412  0.3394
  325TIP3    H2  982   4.674   5.710   1.254 -0.9122 -2.8243 -0.7140
  326TIP3   OH2  983   4.610   0.986   2.841  0.0334  0.1479 -0.3552
  326TIP3    H1  984   4.589   1.019   2.753  0.9848 -1.1488 -1.1040
  326TIP3    H2  985   4.581   0.895   2.840 -0.0908  0.1622  0.7449
  327TIP3   OH2  986   4.637   4.751   0.399 -0.1698  0.0205  0.4499
  327TIP3    H1  987   4.572   4.736   0.468  2.3469 -0.6815  2.8484
  327TIP3    H2  988   4.682   4.832   0.426  0.2718  0.2474 -0.8894
  328TIP3   OH2  989   0.638   2.353   3.905  0.1451  0.5666  0.0872
  328TIP3    H1  990   0.609   2.272   3.946 -0.8028  1.4168  1.1425
  328TIP3    H2  991   0.718   2.328   3.857 -0.3870 -1.0687 -0.0047
  329TIP3   OH2  992   4.531   5.362   1.581  0.4246  0.3507 -0.1202
  329TIP3    H1  993   4.520   5.456   1.569  1.7944  0.5483 -0.0507
  329TIP3    H2  994   4.617   5.343   1.544 -0.5976 -1.2254 -1.8570
  330TIP3   OH2  995   2.595   5.212   0.898 -0.0292  0.6543  0.2997
  330TIP3    H1  996   2.682   5.220   0.937  0.0937 -1.0765  0.4863
  330TIP3    H2  997   2.548   5.152   0.957 -0.7320  0.1111 -0.7803
  331TIP3   OH2  998   3.254   0.432   3.153  0.3360  0.3001  0.4478
  331TIP3    H1  999   3.221   0.441   3.242  2.8196  0.6882  1.4131
  331TIP3    H2 1000   3.190   0.377   3.109 -0.7618 -0.2534  2.5940
  332TIP3   OH2 1001   0.354   4.800   1.722  0.1221  0.5070 -0.2034
  332TIP3    H1 1002   0.344   4.830   1.631  0.2982 -0.3896 -0.5298
  332TIP3    H2 1003   0.448   4.781   1.730 -0.0057 -0.0591 -0.0390
  333TIP3   OH2 1004   4.461   0.042   2.731 -0.6929 -0.2347  0.2295
  333TIP3    H1 1005   4.369   0.019   2.720 -0.9229  0.2293  1.0938
  333TIP3    H2 1006   4.460   0.138   2.738 -0.3776 -0.3319  2.1509
  334TIP3   OH2 1007   4.125   2.967   0.741  0.5555  0.1194  0.0056
  334TIP3    H1 1008   4.171   3.049   0.726  0.4272 -0.0255 -1.2677
  334TIP3    H2 1009   4.184   2.916   0.796  0.2758  1.3636  1.5246
  335TIP3   OH2 1010   1.484   0.099   4.507 -0.3808 -0.6814 -0.0647
  335TIP3    H1 1011   1.508   0.112   4.415 -0.4737 -1.6238 -0.2290
  335TIP3    H2 1012   1.408   0.155   4.520  0.3647  0.4122 -0.2196
  336TIP3   OH2 1013   2.999   4.969   0.639  0.3237  0.1095 -0.3049
  336TIP3    H1 1014   3.044   4.902   0.690  0.0767  0.6087  0.5863
  336TIP3    H2 1015   3.053   4.979   0.560  0.3485 -1.1433 -0.4637
  337TIP3   OH2 1016   5.235   3.387   4.812 -0.1852  0.0746 -0.3720
  337TIP3    H1 1017   5.148   3.399   4.774 -0.3150  2.9055  0.5739
  337TIP3    H2 1018   5.289   3.452   4.766  1.3556 -1.2820 -0.5777
  338TIP3   OH2 1019   6.081   0.890   2.332  0.1235  0.5279 -0.1008
  338TIP3    H1 1020   6.074   0.882   2.428  1.0359  1.3648  0.0509
  338TIP3    H2 1021   6.159   0.944   2.318  0.7532 -0.6370 -1.3678
  339TIP3   OH2 1022   3.209   0.245   1.009  0.4499 -0.3183 -0.5717
  339TIP3    H1 1023   3.293   0.284   0.987  1.4503 -1.4026  1.0754
  339TIP3    H2 1024   3.167   0.227   0.925  1.2601  1.4295 -1.4017
  340TIP3   OH2 1025   3.192   0.629   2.286  0.6198 -0.2459  0.0669
  340TIP3    H1 1026   3.146   0.552   2.254 -0.4132  0.4643 -0.1914
  340TIP3    H2 1027   3.285   0.607   2.277  0.3383 -1.2400 -0.5122
  341TIP3   OH2 1028   3.690   3.081   1.853 -0.0324  0.1679  0.4349
  341TIP3    H1 1029   3.607   3.035   1.855 -0.1332  0.2509 -0.9928
  341TIP3    H2 1030   3.742   3.040   1.922 -0.5597 -1.2329  0.0180
  342TIP3   OH2 1031   1.132   0.838   1.763  0.7942  0.0525  0.1157
  342TIP3    H1 1032   1.079   0.915   1.747 -0.7939 -0.9562  0.3253
  342TIP3    H2 1033   1.131   0.827   1.858  1.5159  0.1082  0.1367
  343TIP3   OH2 1034   1.126   1.355   0.261  0.0016 -0.5155  0.0139
  343TIP3    H1 1035   1.179   1.400   0.196  1.0095 -0.4351  0.8592
  343TIP3    H2 1036   1.186   1.339   0.334 -0.8922 -1.2988  0.6083
  344TIP3   OH2 1037   4.987   2.866   0.939 -0.0609  0.0775 -0.2578
  344TIP3    H1 1038   4.945   2.913   0.866  0.9286  2.2341  0.4812
  344TIP3    H2 1039   4.944   2.901   1.017 -1.0746 -2.1772  0.2825
  345TIP3   OH2 1040   5.286   5.795   1.114  0.1917  0.2382 -0.2321
  345TIP3    H1 1041   5.347   5.743   1.062 -1.3825  0.2469 -2.2241
  345TIP3    H2 1042   5.203   5.788   1.067 -1.7312 -0.8240  3.0315
  346TIP3   OH2 1043   2.732   2.503   4.074  0.2655  0.3127 -0.4878
  346TIP3    H1 1044   2.824   2.496   4.049  0.1575 -2.4270 -0.4903
  346TIP3    H2 1045   2.685   2.452   4.007 -1.1198  0.7444  0.1130
  347TIP3   OH2 1046   2.095   3.988   4.373 -0.2619 -0.0183  0.5362
  347TIP3    H1 1047   2.150   4.024   4.303  1.2853  0.2698  1.8253
  347TIP3    H2 1048   2.155   3.978   4.447 -1.7548 -0.6834  1.7066
  348TIP3   OH2 1049   1.192   0.801   2.597 -0.0379 -0.2149 -0.3466
  348TIP3    H1 1050   1.263   0.765   2.650 -0.3078 -1.4538 -0.7721
  348TIP3    H2 1051   1.161   0.726   2.545 -0.7080  0.6346 -1.2129
  349TIP3   OH2 1052   0.473   5.752   3.531  0.3673  0.0139  0.0446
  349TIP3    H1 1053   0.539   5.819   3.552  1.2143  0.1411 -2.6517
  349TIP3    H2 1054   0.410   5.797   3.475 -0.3623 -0.8759  0.1227
  350TIP3   OH2 1055   5.006   1.209   1.239  0.2674  0.1687  0.1742
  350TIP3    H1 1056   4.933   1.147   1.232  0.8879 -0.9801  2.5237
  350TIP3    H2 1057   5.074   1.172   1.182 -0.3559  0.2830 -0.6605
  351TIP3   OH2 1058   2.520   5.495   4.130  0.5406 -0.0045 -0.5417
  351TIP3    H1 1059   2.556   5.541   4.054  1.1976  1.6394  0.6959
  351TIP3    H2 1060   2.588   5.500   4.196 -0.4668 -0.3128  0.5633
  352TIP3   OH2 1061   0.632   3.748   4.625 -0.0054 -0.0205 -0.6292
  352TIP3    H1 1062   0.659   3.787   4.708  0.8718  0.7985 -1.2700
  352TIP3    H2 1063   0.705   3.767   4.566 -0.2593 -1.3048 -1.3735
  353TIP3   OH2 1064   2.808   2.752   1.889 -0.5306  0.0118  0.0164
  353TIP3    H1 1065   2.719   2.770   1.860 -0.0434  1.5170 -0.6285
  353TIP3    H2 1066   2.861   2.753   1.809  0.5980  2.6888  0.6820
  354TIP3   OH2 1067   3.293   5.227   5.083  0.1725 -0.4373 -0.2869
  354TIP3    H1 1068   3.249   5.164   5.025  0.0484  1.1925 -2.0778
  354TIP3    H2 1069   3.299   5.182   5.167 -3.1831 -1.5130 -0.4567
  355TIP3   OH2 1070   4.864   3.750   1.722 -0.0865 -0.3234 -0.0800
  355TIP3    H1 1071   4.905   3.667   1.696  0.4765 -0.4103  1.0164
  355TIP3    H2 1072   4.896   3.765   1.811 -0.6779  0.7635 -0.0401
  356TIP3   OH2 1073   5.305   3.137   4.869  0.4465 -0.6255 -0.1944
  356TIP3    H1 1074   5.228   3.090   4.902 -0.4241 -1.0616 -2.6230
  356TIP3    H2 1075   5.273   3.225   4.850  0.9730 -0.3234  0.3137
  357TIP3   OH2 1076   2.547   4.924   4.953  0.3984 -0.3781 -0.2521
  357TIP3    H1 1077   2.473   4.945   5.011 -0.8229 -1.1020 -1.4736
  357TIP3    H2 1078   2.585   4.845   4.991  0.1629 -0.3430  0.0628
  358TIP3   OH2 1079   0.358   2.573   0.064  0.0378 -0.1870  0.2659
  358TIP3    H1 1080   0.385   2.627   0.138 -0.6260  1.5027 -0.6535
  358TIP3    H2 1081   0.427   2.507   0.056  0.9346  0.5670  1.4133
  359TIP3   OH2 1082   2.501   0.350   3.397  0.1576  0.2266  0.0259
  359TIP3    H1 1083   2.405   0.351   3.403  0.0591 -1.3719 -0.8046
  359TIP3    H2 1084   2.523   0.261   3.370  1.9293  0.4231  0.6751
  360TIP3   OH2 1085   1.078   2.162   3.982 -0.0617  0.1702 -0.3573
  360TIP3    H1 1086   1.105   2.174   3.891  0.1409 -3.2552 -0.8929
  360TIP3    H2 1087   1.150   2.200   4.033  0.6564  0.6299 -1.6455
  361TIP3   OH2 1088   3.316   3.049   3.684  0.0607 -0.3716 -0.1991
  361TIP3    H1 1089   3.322   3.074   3.776 -1.5083 -0.0608 -0.1653
  361TIP3    H2 1090   3.288   2.957   3.686 -2.2856  0.2979 -0.3424
  362TIP3   OH2 1091   5.943   5.469   0.614  0.0657 -0.2459 -0.1170
  362TIP3    H1 1092   6.011   5.535   0.615  0.5501 -0.7322  0.8857
  362TIP3    H2 1093   5.987   5.389   0.643 -0.8248 -0.6658  0.1184
  363TIP3   OH2 1094   4.459   4.594   2.827  0.5966 -0.1914  0.1231
  363TIP3    H1 1095   4.378   4.561   2.867  0.4288  0.3163  0.2024
  363TIP3    H2 1096   4.512   4.515   2.814  0.1500 -0.5134  0.1992
  364TIP3   OH2 1097   5.678   3.854   1.702 -0.4644 -0.2759  0.2307
  364TIP3    H1 1098   5.597   3.816   1.735 -1.3429  0.8151 -0.5628
  364TIP3    H2 1099   5.701   3.921   1.767 -0.5748 -0.1348  0.1265
  365TIP3   OH2 1100   2.432   3.979   1.118 -0.4221 -0.2326 -0.0937
  365TIP3    H1 1101   2.384   4.053   1.155 -1.2322 -1.2895  1.0276
  365TIP3    H2 1102   2.377   3.903   1.134  0.6126 -1.1702 -0.7968
  366TIP3   OH2 1103   3.575   3.554   0.587 -0.3487  0.1585  0.4614
  366TIP3    H1 1104   3.568   3.511   0.672  0.6622  0.0168  0.4919
  366TIP3    H2 1105   3.643   3.621   0.600  0.5466 -0.5495 -0.4931
  367TIP3   OH2 1106   3.436   5.566   4.082  0.4578 -0.5684 -0.5226
  367TIP3    H1 1107   3.429   5.634   4.149 -0.2989 -1.0164 -0.1455
  367TIP3    H2 1108   3.437   5.615   3.999 -0.6838 -0.1270 -0.2858
  368TIP3   OH2 1109   3.461   4.448   2.349  0.2368 -0.8418  0.1341
  368TIP3    H1 1110   3.368   4.427   2.364  0.4953 -0.7047  2.3378
  368TIP3    H2 1111   3.460   4.541   2.326 -0.1166 -0.4818  1.4936
  369TIP3   OH2 1112   5.680   1.838   4.208  0.1712  0.2112  0.3828
  369TIP3    H1 1113   5.759   1.802   4.168 -0.5473 -0.9074 -0.0815
  369TIP3    H2 1114   5.660   1.778   4.280 -0.7788 -0.0766 -0.1062
  370TIP3   OH2 1115   3.397   3.911   0.938 -0.6778 -0.1471  0.2220
  370TIP3    H1 1116   3.335   3.984   0.938 -1.4748 -0.7922 -0.4647
  370TIP3    H2 1117   3.471   3.941   0.885 -0.1722  0.8050  1.4372
  371TIP3   OH2 1118   2.202   4.796   4.109 -0.0860 -0.3173 -0.4275
  371TIP3    H1 1119   2.217   4.889   4.124 -1.2571 -0.0815 -0.6731
  371TIP3    H2 1120   2.139   4.770   4.176  0.3459 -0.9747 -0.2603
  372TIP3   OH2 1121   5.064   2.250   1.467 -0.0680 -0.4711 -0.3518
  372TIP3    H1 1122   5.037   2.341   1.475  1.5718  0.1522 -1.5109
  372TIP3    H2 1123   5.110   2.231   1.549 -2.8322 -1.2081  1.1579
  373TIP3   OH2 1124   0.093   5.811   3.143  0.3881 -0.1760  0.1592
  373TIP3    H1 1125   0.127   5.746   3.081  0.2083  0.8047 -1.0181
  373TIP3    H2 1126   0.042   5.871   3.088 -3.1317 -1.4388  1.7714
  374TIP3   OH2 1127   2.317   1.402   4.513 -0.0422  0.4548  0.5371
  374TIP3    H1 1128   2.389   1.449   4.555  0.8701  1.9856 -2.4327
  374TIP3    H2 1129   2.252   1.470   4.494 -1.3576 -0.5468  1.2964
  375TIP3   OH2 1130   3.958   3.340   3.786 -0.2297  0.1780 -0.3703
  375TIP3    H1 1131   3.871   3.306   3.805 -0.3566  0.6984 -0.0164
  375TIP3    H2 1132   3.943   3.424   3.744  0.1079  1.0489  1.1853
  376TIP3   OH2 1133   5.839   1.660   2.398  0.8577  0.3754 -0.2552
  376TIP3    H1 1134   5.837   1.631   2.307  0.8848 -1.1272  0.2015
  376TIP3    H2 1135   5.749   1.687   2.417  0.2673 -1.6183 -0.0353
  377TIP3   OH2 1136   5.395   3.554   4.670 -0.5259 -0.5339 -0.3011
  377TIP3    H1 1137   5.369   3.643   4.646  0.7045 -0.0675  0.0484
  377TIP3    H2 1138   5.398   3.507   4.587 -1.4269 -0.3371 -0.4629
  378TIP3   OH2 1139   1.249   5.043   0.929  0.6895 -0.6428 -0.7685
  378TIP3    H1 1140   1.292   5.014   1.010 -0.2866 -0.6423 -0.2410
  378TIP3    H2 1141   1.267   4.973   0.866  0.3756 -1.2592 -0.1834
  379TIP3   OH2 1142   2.029   1.990   5.126  0.2250  0.1452  0.0482
  379TIP3    H1 1143   1.962   1.953   5.069 -0.0893 -0.3504  0.7215
  379TIP3    H2 1144   2.084   1.915   5.151  0.9824  0.5272 -0.4238
  380TIP3   OH2 1145   4.878   3.968   3.291 -0.3912 -0.1455 -0.6708
  380TIP3    H1 1146   4.954   4.020   3.317  0.4365 -0.8557 -1.5831
  380TIP3    H2 1147   4.805   4.030   3.291  0.2987  0.6880 -0.3808
  381TIP3   OH2 1148   4.711   3.352   1.593 -0.0760 -0.7093 -0.1085
  381TIP3    H1 1149   4.734   3.270   1.548 -1.0849 -0.0164 -2.0391
  381TIP3    H2 1150   4.627   3.333   1.636 -0.1136 -0.8046 -0.2230
  382TIP3   OH2 1151   3.626   2.859   5.040  0.1979 -0.4020  0.1703
  382TIP3    H1 1152   3.565   2.876   5.113  1.0775  0.0819  0.8161
  382TIP3    H2 1153   3.618   2.765   5.024 -1.1235 -0.2658 -0.1348
  383TIP3   OH2 1154   0.008   5.585   1.958 -0.3733 -0.2328  0.3228
  383TIP3    H1 1155  -0.020   5.570   1.867  0.0542  0.3752  0.0873
  383TIP3    H2 1156   0.095   5.546   1.962 -0.0913  0.3815  0.2656
  384TIP3   OH2 1157   3.454   2.643   2.948 -0.3619 -0.6029 -0.5666
  384TIP3    H1 1158   3.492   2.600   2.871  1.5771 -0.5344  0.2814
  384TIP3    H2 1159   3.509   2.721   2.961 -1.2598 -0.0914  0.3209
  385TIP3   OH2 1160   0.477   1.180   3.232  0.2838  0.0678 -0.4879
  385TIP3    H1 1161   0.477   1.111   3.166  1.4929 -0.9945  0.5778
  385TIP3    H2 1162   0.510   1.257   3.186  2.0076 -0.8857 -0.9167
  386TIP3   OH2 1163   5.173   4.099   0.721  0.1014  0.2775 -0.3513
  386TIP3    H1 1164   5.257   4.051   0.722 -0.6372 -1.1239  1.6195
  386TIP3    H2 1165   5.189   4.175   0.778  0.2507  0.4458 -0.6149
  387TIP3   OH2 1166   6.312   2.397   0.361  0.2433 -0.3489  0.0573
  387TIP3    H1 1167   6.310   2.402   0.457  0.4449  0.3347  0.0354
  387TIP3    H2 1168   6.391   2.445   0.337 -2.0329  3.4475 -0.6465
  388TIP3   OH2 1169   0.336   5.219   2.463  0.6254  0.2670  0.5542
  388TIP3    H1 1170   0.416   5.194   2.416 -0.1674 -2.4985  0.4849
  388TIP3    H2 1171   0.270   5.156   2.432 -1.4840  2.1476  0.9769
  389TIP3   OH2 1172   5.265   0.549   1.027 -0.0099  0.4296  0.1289
  389TIP3    H1 1173   5.354   0.546   0.993  0.3651  0.1531  1.1007
  389TIP3    H2 1174   5.265   0.622   1.089  0.4105 -1.3474  2.3789
  390TIP3   OH2 1175   5.080   5.548   1.760 -0.3839  0.0527  0.1683
  390TIP3    H1 1176   5.060   5.510   1.846 -0.0800 -0.3774  0.0475
  390TIP3    H2 1177   4.994   5.567   1.722 -0.5247  0.0511  0.4799
  391TIP3   OH2 1178   6.185   3.478   2.029 -0.1058  0.4284  0.7880
  391TIP3    H1 1179   6.223   3.390   2.022  0.2105  0.4758  1.6978
  391TIP3    H2 1180   6.155   3.499   1.941 -1.0082 -0.9575  0.7370
  392TIP3   OH2 1181   0.467   2.246   0.998 -0.3357  0.2495  0.1416
  392TIP3    H1 1182   0.489   2.327   1.043 -1.7220 -0.5105  2.3469
  392TIP3    H2 1183   0.547   2.193   1.004 -0.1939  0.5345  0.8683
  393TIP3   OH2 1184   2.751   1.249   2.660 -0.1773  0.0019 -0.7313
  393TIP3    H1 1185   2.709   1.317   2.607  0.5828  0.1628 -1.1412
  393TIP3    H2 1186   2.825   1.293   2.701  0.2490 -0.5433 -0.9071
  394TIP3   OH2 1187   4.598   2.799   5.065 -0.0356  0.9978  0.4329
  394TIP3    H1 1188   4.684   2.839   5.079  0.2740  0.2452  0.7635
  394TIP3    H2 1189   4.596   2.777   4.972  0.1091  1.0797  0.4105
  395TIP3   OH2 1190   6.257   1.915   0.116  0.2438  0.3261  0.6007
  395TIP3    H1 1191   6.350   1.915   0.138  0.4568  0.2257 -0.3005
  395TIP3    H2 1192   6.220   1.987   0.168  0.8130  0.3493  0.9778
  396TIP3   OH2 1193   5.486   2.699   3.890  0.7250 -0.1079  0.1694
  396TIP3    H1 1194   5.394   2.721   3.909  0.9407  0.4031  0.6514
  396TIP3    H2 1195   5.509   2.635   3.958  1.1682  0.8978  0.9907
  397TIP3   OH2 1196   3.307   2.029   1.242 -0.7516  0.1355  0.3684
  397TIP3    H1 1197   3.214   2.035   1.264 -0.7270 -0.9680  0.8260
  397TIP3    H2 1198   3.333   1.942   1.270  0.2531  0.1535 -0.4363
  398TIP3   OH2 1199   2.647   3.715   3.147  0.2866  0.0799  0.4704
  398TIP3    H1 1200   2.628   3.702   3.054  0.2509  0.8315  0.3589
  398TIP3    H2 1201   2.596   3.649   3.192 -0.2714  0.1767 -0.0078
  399TIP3   OH2 1202   4.900   4.248   5.091 -0.1962  0.3752 -0.2457
  399TIP3    H1 1203   4.857   4.308   5.153 -1.9959  0.2240 -1.2923
  399TIP3    H2 1204   4.942   4.306   5.028  2.1918  0.5488  1.3509
  400TIP3   OH2 1205   5.787   0.475   1.106 -0.3866  0.0117 -0.0111
  400TIP3    H1 1206   5.847   0.405   1.079 -0.2286  0.4040 -0.7012
  400TIP3    H2 1207   5.843   0.540   1.149 -0.3255  0.3438 -0.5890
  401TIP3   OH2 1208   4.049   2.238   3.695  0.2812 -0.5823 -0.4362
  401TIP3    H1 1209   4.072   2.259   3.786 -0.2101  0.6539 -0.5794
  401TIP3    H2 1210   3.994   2.159   3.703 -0.4183 -0.0416  0.4289
  402TIP3   OH2 1211   5.584   1.939   4.900 -0.3748 -0.1661  0.0129
  402TIP3    H1 1212   5.562   1.892   4.980 -1.4916  1.6383  0.8285
  402TIP3    H2 1213   5.592   2.030   4.927  2.0934  0.1429 -1.4313
  403TIP3   OH2 1214   4.103   3.262   4.710  0.0166 -0.2025 -0.0455
  403TIP3    H1 1215   4.080   3.215   4.790 -0.2264  0.1541  0.0992
  403TIP3    H2 1216   4.036   3.330   4.701  0.6874  0.5001  0.0780
  404TIP3   OH2 1217   2.230   2.579   5.067 -0.0803 -0.6792 -0.1878
  404TIP3    H1 1218   2.135   2.568   5.069 -0.0416 -1.1114  2.5627
  404TIP3    H2 1219   2.245   2.671   5.090  0.1637 -1.2641  2.2400
  405TIP3   OH2 1220   0.614   3.364   3.726 -0.3918  0.6249 -0.1359
  405TIP3    H1 1221   0.631   3.280   3.685  0.5430  0.6074  0.2736
  405TIP3    H2 1222   0.559   3.411   3.663  1.9528  1.0778 -1.9764
  406TIP3   OH2 1223   5.927   2.642   2.512  0.2390  0.7323 -0.0930
  406TIP3    H1 1224   6.014   2.617   2.481 -1.0472 -1.3668 -2.3981
  406TIP3    H2 1225   5.925   2.612   2.603  1.3963 -0.7217 -0.5040
  407TIP3   OH2 1226   5.128   5.441   4.534  0.3718  0.3783 -0.4605
  407TIP3    H1 1227   5.215   5.431   4.573  1.3435  0.6300 -2.4431
  407TIP3    H2 1228   5.138   5.512   4.470 -0.7170 -0.9342 -2.1995
  408TIP3   OH2 1229   0.555   5.356   4.058  0.0687 -0.0785 -0.3323
  408TIP3    H1 1230   0.541   5.296   3.984  1.5821  0.0027 -0.7250
  408TIP3    H2 1231   0.618   5.310   4.113  0.3531  0.6550 -0.0415
  409TIP3   OH2 1232   1.906   3.545   1.649 -0.7847 -0.6398  0.1986
  409TIP3    H1 1233   1.995   3.530   1.683 -0.0650  0.9503 -0.8697
  409TIP3    H2 1234   1.852   3.551   1.727  0.0217 -1.7384  0.8738
  410TIP3   OH2 1235   1.976   4.342   2.154 -0.2121 -0.4235  0.0400
  410TIP3    H1 1236   1.960   4.406   2.223 -2.6539 -1.2761  0.3812
  410TIP3    H2 1237   2.058   4.370   2.113 -1.7141  3.6203 -0.6623
  411TIP3   OH2 1238   2.432   0.247   5.152  0.0412 -0.2500 -0.3326
  411TIP3    H1 1239   2.430   0.305   5.228  2.4113  0.3581 -0.6451
  411TIP3    H2 1240   2.423   0.159   5.188  1.6089 -0.0108  0.7815
  412TIP3   OH2 1241   1.748   1.302   3.882  0.2109 -0.2669 -0.2541
  412TIP3    H1 1242   1.788   1.372   3.933 -0.0811  0.4727 -1.0343
  412TIP3    H2 1243   1.781   1.222   3.923  0.6199  0.3154  0.5864
  413TIP3   OH2 1244   0.880   4.960   3.178 -0.0493 -0.1379 -0.5482
  413TIP3    H1 1245   0.832   5.033   3.137  0.2808  0.6305  0.3990
  413TIP3    H2 1246   0.961   5.000   3.210  1.8267 -1.6069 -3.0780
  414TIP3   OH2 1247   3.310   1.232   1.473 -0.2745  0.0455  0.2027
  414TIP3    H1 1248   3.376   1.267   1.533  0.4608 -0.6123 -0.2104
  414TIP3    H2 1249   3.305   1.139   1.494 -0.3438 -0.1005 -0.4407
  415TIP3   OH2 1250   2.160   4.903   1.046 -0.0873  0.3528  0.8352
  415TIP3    H1 1251   2.119   4.976   0.999 -0.9365  1.0202  2.5321
  415TIP3    H2 1252   2.096   4.831   1.039  0.7888 -0.3044 -0.9128
  416TIP3   OH2 1253   2.348   1.796   5.013 -0.4379  0.5561 -0.4831
  416TIP3    H1 1254   2.380   1.870   4.961 -0.3072  0.8290 -0.0161
  416TIP3    H2 1255   2.419   1.775   5.073 -1.0149  0.9874  0.3727
  417TIP3   OH2 1256   2.142   0.192   4.589  0.4258 -0.6966  0.0729
  417TIP3    H1 1257   2.130   0.097   4.576  0.7429 -0.7365  0.0677
  417TIP3    H2 1258   2.057   0.230   4.565 -0.6334 -1.2039  2.6434
  418TIP3   OH2 1259   2.065   0.331   4.950 -0.1559 -0.2705  0.1124
  418TIP3    H1 1260   2.033   0.308   5.037 -0.3362 -0.8353 -0.1030
  418TIP3    H2 1261   2.044   0.256   4.896  4.2522 -2.1340  0.5913
  419TIP3   OH2 1262   1.818   4.047   1.961 -0.1925 -0.1169 -0.4696
  419TIP3    H1 1263   1.863   4.048   1.876 -0.0778 -0.7255 -0.4185
  419TIP3    H2 1264   1.889   4.040   2.025 -0.3808 -1.6985 -0.4120
  420TIP3   OH2 1265   5.043   1.441   3.831 -0.6267 -0.2193 -0.3935
  420TIP3    H1 1266   5.004   1.518   3.871  0.8200  0.8555 -0.9472
  420TIP3    H2 1267   4.991   1.425   3.753 -1.0922  0.0409 -0.1411
  421TIP3   OH2 1268   5.505   5.751   1.987  0.4735 -0.5357  0.8450
  421TIP3    H1 1269   5.529   5.745   1.894 -2.5353 -0.6082 -0.0213
  421TIP3    H2 1270   5.410   5.744   1.988  0.4468 -1.3082  4.0481
  422TIP3   OH2 1271   4.790   3.884   4.342  0.0232 -0.1777  0.4187
  422TIP3    H1 1272   4.776   3.971   4.380 -0.3593 -0.0579  0.0155
  422TIP3    H2 1273   4.850   3.899   4.270 -0.3563 -0.1799  0.0970
  423TIP3   OH2 1274   2.743   4.659   2.042 -0.2041  0.2391 -0.3483
  423TIP3    H1 1275   2.680   4.693   2.105 -3.3479 -1.0252 -2.4973
  423TIP3    H2 1276   2.826   4.655   2.089 -1.9855  0.8251  3.1413
  424TIP3   OH2 1277   0.071   2.953   3.756  0.1592 -0.0958  0.3452
  424TIP3    H1 1278   0.027   2.908   3.829  0.5876  0.5407  1.0144
  424TIP3    H2 1279   0.164   2.941   3.773  0.2677  0.4140  0.1298
  425TIP3   OH2 1280   5.187   3.013   2.233 -0.6085  0.2785 -0.2937
  425TIP3    H1 1281   5.181   2.966   2.316 -1.2455  0.3945 -0.2705
  425TIP3    H2 1282   5.186   2.944   2.167  0.2966  0.1621 -0.2002
  426TIP3   OH2 1283   5.433   0.304   0.947  0.6259 -0.9963  0.3872
  426TIP3    H1 1284   5.442   0.309   0.852 -2.9930 -1.4027 -0.1163
  426TIP3    H2 1285   5.494   0.369   0.981  1.7044 -0.5401 -2.2083
  427TIP3   OH2 1286   0.213   5.368   3.086 -0.0469  0.0721 -0.2525
  427TIP3    H1 1287   0.161   5.298   3.127 -0.2423  1.9045  2.9427
  427TIP3    H2 1288   0.148   5.424   3.044 -0.0014 -0.9388 -1.7267
  428TIP3   OH2 1289   3.682   5.510   1.929  0.0222  0.8916 -0.4349
  428TIP3    H1 1290   3.655   5.467   1.848  1.6176  1.6121 -1.3827
  428TIP3    H2 1291   3.656   5.602   1.918  0.2480  0.9944 -0.1162
  429TIP3   OH2 1292   3.944   0.640   2.051  0.0930  0.0944 -0.3304
  429TIP3    H1 1293   3.955   0.558   2.099 -2.3759  0.6738  1.4311
  429TIP3    H2 1294   4.031   0.680   2.054  0.5440 -0.8359  1.9942
  430TIP3   OH2 1295   1.718   4.757   3.694  0.3808  0.6483 -0.0195
  430TIP3    H1 1296   1.660   4.694   3.653  1.2627  0.5587 -1.1699
  430TIP3    H2 1297   1.682   4.842   3.670 -0.0231  0.5937  0.3833
  431TIP3   OH2 1298   5.077   3.523   4.990 -0.3087 -0.2831 -0.6749
  431TIP3    H1 1299   4.987   3.510   4.958 -0.2467 -0.3070 -0.8405
  431TIP3    H2 1300   5.109   3.434   5.006 -1.0825 -0.2398  1.5607
  432TIP3   OH2 1301   1.236   4.315   1.567 -0.0204 -0.0028  0.0948
  432TIP3    H1 1302   1.173   4.247   1.593  0.1140 -0.3817 -0.5474
  432TIP3    H2 1303   1.314   4.295   1.618  0.3918 -1.0118 -0.8998
  433TIP3   OH2 1304   5.160   4.767   0.675 -0.1793 -0.3793 -0.0225
  433TIP3    H1 1305   5.151   4.846   0.621 -1.4534 -0.5173 -0.0513
  433TIP3    H2 1306   5.249   4.771   0.710  0.4847  0.0263 -1.6487
  434TIP3   OH2 1307   2.796   1.514   0.594  0.5046 -0.1979  0.2300
  434TIP3    H1 1308   2.824   1.444   0.535  1.2116  0.8828 -0.7687
  434TIP3    H2 1309   2.776   1.588   0.536 -1.0487  0.1862  1.1905
  435TIP3   OH2 1310   5.932   2.115   0.664  0.5150 -0.2650  0.1983
  435TIP3    H1 1311   5.913   2.208   0.679  0.8938 -0.1255 -0.1555
  435TIP3    H2 1312   6.027   2.113   0.650  0.3285 -0.5245 -1.1048
  436TIP3   OH2 1313   1.662   1.705   4.138 -0.4659  0.4347  0.4393
  436TIP3    H1 1314   1.635   1.632   4.082  0.4301  0.6036 -0.2327
  436TIP3    H2 1315   1.738   1.671   4.186 -0.4162  0.7299  0.5721
  437TIP3   OH2 1316   0.345   4.010   3.724  0.5328 -0.6933 -0.4595
  437TIP3    H1 1317   0.283   3.941   3.701 -0.1503  0.0439 -0.8849
  437TIP3    H2 1318   0.393   3.976   3.799  0.0683 -1.5443 -0.5440
  438TIP3   OH2 1319   3.264   0.832   2.004 -0.8991  0.6584  0.7867
  438TIP3    H1 1320   3.190   0.772   2.011  1.1697 -2.0792  0.8242
  438TIP3    H2 1321   3.317   0.798   1.932  0.0377  2.8827  0.3384
  439TIP3   OH2 1322   2.239   5.032   4.734  0.1140 -0.7997  0.7526
  439TIP3    H1 1323   2.162   5.010   4.682  0.2023 -0.6948  0.5793
  439TIP3    H2 1324   2.313   4.996   4.685  0.4979  1.6749 -0.6523
  440TIP3   OH2 1325   0.559   3.406   3.353 -0.0455  0.0620  0.0998
  440TIP3    H1 1326   0.500   3.423   3.427 -0.1607 -1.6110  0.4184
  440TIP3    H2 1327   0.647   3.413   3.390  0.0434  2.6216 -0.3883
  441TIP3   OH2 1328   4.105   4.184   1.201  0.3581  0.2949  0.3239
  441TIP3    H1 1329   4.058   4.117   1.250  1.6031 -0.6330  0.3058
  441TIP3    H2 1330   4.101   4.154   1.110 -0.1464  0.9136  0.1350
  442TIP3   OH2 1331   2.285   4.229   1.765 -0.2620 -0.1157  0.2763
  442TIP3    H1 1332   2.230   4.171   1.712  1.1834 -2.4296  1.1572
  442TIP3    H2 1333   2.372   4.189   1.761  1.0356  2.5309  0.2484
  443TIP3   OH2 1334   2.039   4.741   4.730 -0.4695  0.5573  0.1336
  443TIP3    H1 1335   2.019   4.649   4.715  0.9399  0.1123  0.8445
  443TIP3    H2 1336   1.985   4.766   4.806 -1.2002  0.4645 -0.3462
  444TIP3   OH2 1337   1.657   3.529   3.416  0.1677 -0.1140  0.4866
  444TIP3    H1 1338   1.583   3.470   3.430  1.1628 -0.9604  2.5529
  444TIP3    H2 1339   1.721   3.476   3.369  0.4144 -0.1600  0.8738
  445TIP3   OH2 1340   1.566   2.799   3.720 -0.1593 -0.2098  0.2348
  445TIP3    H1 1341   1.526   2.883   3.742 -0.2097 -0.5943  1.7628
  445TIP3    H2 1342   1.502   2.756   3.664 -0.5522  0.4027  0.2058
  446TIP3   OH2 1343   0.436   0.619   0.894  0.6898  0.1221  0.0019
  446TIP3    H1 1344   0.344   0.595   0.879  0.9154 -0.7683 -0.0275
  446TIP3    H2 1345   0.484   0.539   0.876  1.3195  0.0633  1.7210
  447TIP3   OH2 1346   4.337   0.055   4.032 -0.1833  0.0805 -0.2490
  447TIP3    H1 1347   4.278  -0.016   4.057 -0.2980  1.1711  3.0846
  447TIP3    H2 1348   4.422   0.013   4.021 -0.3987 -0.7093  0.9116
  448TIP3   OH2 1349   2.716   1.236   4.685  0.0303  0.3470 -0.4982
  448TIP3    H1 1350   2.756   1.308   4.636 -0.2747  1.3666  0.6949
  448TIP3    H2 1351   2.630   1.225   4.644  0.6350 -0.3561 -1.6324
  449TIP3   OH2 1352   4.966   2.785   1.955 -0.1924 -0.1359  0.0452
  449TIP3    H1 1353   4.941   2.854   1.894 -0.7996 -0.1097  0.3244
  449TIP3    H2 1354   4.976   2.707   1.899 -0.3409 -0.0190 -0.1457
  450TIP3   OH2 1355   1.296   4.270   4.544  0.4800  0.2000 -0.1798
  450TIP3    H1 1356   1.278   4.326   4.619  1.4174 -1.1382  1.0857
  450TIP3    H2 1357   1.383   4.234   4.560 -0.1237 -1.7281 -0.8699
  451TIP3   OH2 1358   0.185   0.186   4.826  0.2110  0.4764 -0.1681
  451TIP3    H1 1359   0.250   0.133   4.780 -0.8735 -1.0926  0.0396
  451TIP3    H2 1360   0.230   0.217   4.905  0.7510 -0.4698 -0.1024
  452TIP3   OH2 1361   4.746   2.895   4.106 -0.6326  0.9081  0.1832
  452TIP3    H1 1362   4.803   2.956   4.060 -1.3037  0.6384 -1.0758
  452TIP3    H2 1363   4.759   2.811   4.061  0.3699  0.0644  1.9596
  453TIP3   OH2 1364   4.459   0.637   1.868 -0.4366 -0.7070 -0.1484
  453TIP3    H1 1365   4.426   0.646   1.779 -0.0620 -0.3024 -0.2514
  453TIP3    H2 1366   4.436   0.547   1.893 -0.2600 -0.9320 -0.7674
  454TIP3   OH2 1367   5.182   2.897   5.054 -0.0498 -0.0084 -0.0734
  454TIP3    H1 1368   5.092   2.914   5.083  0.0556  0.6962 -0.1435
  454TIP3    H2 1369   5.172   2.839   4.979 -0.4893  0.6647 -0.5433
  455TIP3   OH2 1370   5.196   4.331   0.530 -0.1953 -0.1614 -0.0619
  455TIP3    H1 1371   5.160   4.262   0.586  0.7757  0.6123  1.5972
  455TIP3    H2 1372   5.146   4.410   0.553  1.1093  0.4594  0.7564
  456TIP3   OH2 1373   2.288   3.951   4.573 -0.1908  0.0873  0.3118
  456TIP3    H1 1374   2.325   3.900   4.645 -0.7826  0.3273  0.7962
  456TIP3    H2 1375   2.263   4.034   4.613  1.5722  1.1421 -0.6464
  457TIP3   OH2 1376   2.144   3.017   2.785 -0.1746  0.1342 -0.4579
  457TIP3    H1 1377   2.129   2.947   2.849  1.6247  0.6177  0.5798
  457TIP3    H2 1378   2.146   3.097   2.838 -0.2339  0.7294 -1.3482
  458TIP3   OH2 1379   1.282   5.819   2.527  0.3269 -0.1220 -0.0597
  458TIP3    H1 1380   1.278   5.782   2.439  0.5673 -2.2009  0.7307
  458TIP3    H2 1381   1.229   5.898   2.523  0.4670 -0.0847 -2.1005
  459TIP3   OH2 1382   5.076   5.822   4.484  0.1354  0.2614 -0.7560
  459TIP3    H1 1383   4.994   5.794   4.525 -0.4776  0.4048 -1.8574
  459TIP3    H2 1384   5.077   5.917   4.496  0.4113  0.1956 -0.2566
  460TIP3   OH2 1385   0.324   2.722   5.063 -0.1631 -0.0668 -0.1447
  460TIP3    H1 1386   0.312   2.802   5.011  0.7266  0.4579  0.4223
  460TIP3    H2 1387   0.237   2.683   5.067 -0.9028  1.5383  0.6069
  461TIP3   OH2 1388   1.755   4.621   4.282  0.0979  0.6035 -0.1028
  461TIP3    H1 1389   1.727   4.575   4.361  0.0835  1.1456  0.2172
  461TIP3    H2 1390   1.681   4.615   4.222  0.5541 -0.8770 -0.5619
  462TIP3   OH2 1391   4.476   3.727   2.503 -0.6955 -0.6644 -0.6924
  462TIP3    H1 1392   4.424   3.807   2.496 -1.5004 -1.2539 -1.6920
  462TIP3    H2 1393   4.534   3.730   2.426 -0.9893 -1.2177 -0.9378
  463TIP3   OH2 1394   2.636   1.454   0.055  0.3461 -0.6502 -0.1164
  463TIP3    H1 1395   2.613   1.419   0.141  0.1222 -1.1738 -0.3861
  463TIP3    H2 1396   2.660   1.546   0.072 -1.1363 -0.3130  0.2866
  464TIP3   OH2 1397   5.981   2.855   3.656 -0.2661  0.1354 -0.0618
  464TIP3    H1 1398   6.028   2.838   3.574 -1.0611 -2.2484 -0.1102
  464TIP3    H2 1399   6.026   2.802   3.721  0.5178  2.2087  1.1939
  465TIP3   OH2 1400   1.252   5.296   0.483 -0.1442 -0.2498  0.3293
  465TIP3    H1 1401   1.206   5.216   0.509  1.1115 -0.8393  0.8542
  465TIP3    H2 1402   1.257   5.292   0.388 -0.0496 -0.8315  0.3553
  466TIP3   OH2 1403   1.189   5.911   3.615 -0.0145  0.6577  0.2100
  466TIP3    H1 1404   1.216   5.887   3.704  1.0244 -1.4381 -0.5939
  466TIP3    H2 1405   1.235   5.992   3.597  1.5741 -0.0804  0.7945
  467TIP3   OH2 1406   3.622   2.240   1.755 -0.0484 -0.0235  0.0457
  467TIP3    H1 1407   3.710   2.269   1.780 -0.1589  1.8808 -1.5072
  467TIP3    H2 1408   3.594   2.183   1.826  1.1964  1.8482  2.1676
  468TIP3   OH2 1409   0.547   2.786   2.285  0.3679 -0.4630 -0.2052
  468TIP3    H1 1410   0.509   2.870   2.312 -1.3466 -1.4201  0.5460
  468TIP3    H2 1411   0.615   2.809   2.222  0.5123  1.5325  0.6057
  469TIP3   OH2 1412   4.588   5.422   1.049  0.6040 -0.2566 -0.0878
  469TIP3    H1 1413   4.673   5.423   1.004  0.0667 -1.0405 -1.1472
  469TIP3    H2 1414   4.533   5.481   0.998  0.1628 -0.6665 -0.0855
  470TIP3   OH2 1415   4.818   2.145   1.117  0.6070  0.0620 -0.1203
  470TIP3    H1 1416   4.814   2.240   1.108  1.3307  0.1180  0.0857
  470TIP3    H2 1417   4.860   2.116   1.036 -0.0200 -0.1271 -0.3837
  471TIP3   OH2 1418   1.107   0.629   2.084  0.6557  0.4660  0.0108
  471TIP3    H1 1419   1.069   0.703   2.037  1.0104  0.6251 -0.0239
  471TIP3    H2 1420   1.168   0.669   2.147 -0.4772  0.3336  1.2529
  472TIP3   OH2 1421   4.675   4.625   4.898 -0.4065 -0.6544 -0.6707
  472TIP3    H1 1422   4.739   4.688   4.864 -1.6160 -0.3870 -2.6767
  472TIP3    H2 1423   4.628   4.673   4.966  0.1644 -0.1528 -0.6228
  473TIP3   OH2 1424   0.868   4.793   1.212  0.0099  0.0457  0.5469
  473TIP3    H1 1425   0.882   4.747   1.129 -1.1512  0.4838  0.0952
  473TIP3    H2 1426   0.929   4.867   1.209  2.0446 -1.5166  1.3698
  474TIP3   OH2 1427   6.039   1.775   3.784  0.0812  0.4494 -0.9173
  474TIP3    H1 1428   6.034   1.680   3.778  0.6338  0.3777 -0.4049
  474TIP3    H2 1429   5.985   1.807   3.712  0.8227 -0.2507 -1.8140
  475TIP3   OH2 1430   4.594   5.693   0.114  0.2515 -0.1166 -0.2308
  475TIP3    H1 1431   4.590   5.781   0.152 -0.3760  0.1669 -0.9263
  475TIP3    H2 1432   4.609   5.708   0.020 -0.5100 -0.7244 -0.4633
  476TIP3   OH2 1433   3.390   4.335   3.289 -0.1444 -0.2536  0.4637
  476TIP3    H1 1434   3.381   4.245   3.260 -0.4902 -0.1448  0.2346
  476TIP3    H2 1435   3.477   4.362   3.259 -0.0243 -0.5211  0.5696
  477TIP3   OH2 1436   2.486   0.986   4.842  0.5638  0.3138  0.3108
  477TIP3    H1 1437   2.457   1.050   4.777  1.3746  1.2436  0.8349
  477TIP3    H2 1438   2.427   0.999   4.916  0.8121  0.5672  0.4690
  478TIP3   OH2 1439   5.905   4.288   4.255  0.4913  0.2626 -0.1112
  478TIP3    H1 1440   5.991   4.251   4.236  0.1297 -0.7591  0.1977
  478TIP3    H2 1441   5.857   4.282   4.172  0.8373  1.2140 -0.3956
  479TIP3   OH2 1442   5.847   2.461   1.524 -0.3672  0.1461  0.2933
  479TIP3    H1 1443   5.940   2.452   1.504 -0.3581 -3.0759  1.2016
  479TIP3    H2 1444   5.843   2.473   1.619 -0.8786  2.1207  0.0691
  480TIP3   OH2 1445   4.903   5.614  -0.019  0.5669  0.3355  0.2607
  480TIP3    H1 1446   4.829   5.556  -0.037  0.6818  0.4068 -0.4698
  480TIP3    H2 1447   4.900   5.628   0.076 -0.5313  0.5714  0.2032
  481TIP3   OH2 1448   5.700   0.804   0.051  0.2390 -0.1197 -0.0083
  481TIP3    H1 1449   5.723   0.837  -0.036  0.0436 -0.5617 -0.2317
  481TIP3    H2 1450   5.712   0.709   0.044 -0.4788 -0.2290  0.2286
  482TIP3   OH2 1451   0.272   0.304   1.320  0.3164 -0.0726  0.4036
  482TIP3    H1 1452   0.284   0.399   1.318  1.2430 -0.1838 -1.2778
  482TIP3    H2 1453   0.258   0.284   1.412 -2.5900  1.9858  0.5627
  483TIP3   OH2 1454   5.333   4.508   1.847 -0.0242 -0.4699  0.2414
  483TIP3    H1 1455   5.414   4.458   1.846 -0.3217 -0.9852 -1.2348
  483TIP3    H2 1456   5.361   4.599   1.840  0.4989 -0.4131  2.4379
  484TIP3   OH2 1457   0.141   1.623   3.575  0.0227 -0.0500 -0.0335
  484TIP3    H1 1458   0.132   1.696   3.514  1.6347  1.5300  1.5173
  484TIP3    H2 1459   0.055   1.617   3.617 -0.5798 -0.0470 -1.2320
  485TIP3   OH2 1460   2.745   0.855   0.749  0.4926 -0.0788 -0.2561
  485TIP3    H1 1461   2.764   0.798   0.824  0.2020 -0.4261 -0.4475
  485TIP3    H2 1462   2.683   0.806   0.696  0.9812  0.0097 -0.9219
  486TIP3   OH2 1463   3.600   1.240   4.408  0.8721 -0.0749  0.4821
  486TIP3    H1 1464   3.571   1.153   4.380  1.2744 -0.2505  0.6086
  486TIP3    H2 1465   3.519   1.287   4.428  0.5691 -0.0135 -0.7771
  487TIP3   OH2 1466   4.595   5.177   3.463 -0.6290 -0.0857 -0.1349
  487TIP3    H1 1467   4.651   5.199   3.389 -0.2301  0.3471  0.2935
  487TIP3    H2 1468   4.554   5.259   3.488 -0.8627 -0.2544  0.0410
  488TIP3   OH2 1469   0.321   5.807   0.927 -0.0153  0.5394  0.1747
  488TIP3    H1 1470   0.258   5.736   0.913 -0.1697  0.5077  1.0008
  488TIP3    H2 1471   0.398   5.781   0.877 -1.6213  1.9936 -3.4610
  489TIP3   OH2 1472   4.906   0.356   3.976  0.3925  0.1456 -0.0152
  489TIP3    H1 1473   4.920   0.283   4.036  2.6326 -0.4543 -1.1499
  489TIP3    H2 1474   4.944   0.431   4.020  2.5735 -0.4108 -0.8429
  490TIP3   OH2 1475   2.960   1.596   1.505 -0.4043  0.2198  0.3953
  490TIP3    H1 1476   3.031   1.640   1.552 -0.6156 -0.0776  1.0062
  490TIP3    H2 1477   2.997   1.511   1.479  0.2627  1.0304 -1.4755
  491TIP3   OH2 1478   0.802   5.529   1.048 -0.2667 -0.3020  0.0055
  491TIP3    H1 1479   0.715   5.501   1.020 -1.0568 -0.1678  2.1442
  491TIP3    H2 1480   0.791   5.621   1.071  0.0584 -0.6689  1.6961
  492TIP3   OH2 1481   4.967   5.147   3.716 -0.0179  0.9343 -0.6493
  492TIP3    H1 1482   5.046   5.132   3.769 -0.4826 -0.4580 -0.3218
  492TIP3    H2 1483   4.939   5.236   3.740  0.9772  1.1325 -0.1565
  493TIP3   OH2 1484   3.967   1.906   0.361  0.0298  0.0310  0.2199
  493TIP3    H1 1485   3.986   1.904   0.268 -1.0768  1.8585 -0.1154
  493TIP3    H2 1486   3.922   1.824   0.379  0.5222 -0.4664 -0.7898
  494TIP3   OH2 1487   0.425   4.235   1.626 -0.3809  0.3763  0.0932
  494TIP3    H1 1488   0.437   4.317   1.673  1.0699  0.1786  0.0973
  494TIP3    H2 1489   0.473   4.170   1.678  0.2229 -0.0737 -0.9931
  495TIP3   OH2 1490   3.446   5.009   3.137 -0.3311  0.5960 -0.2005
  495TIP3    H1 1491   3.477   5.049   3.055 -1.2595  0.0756 -0.8242
  495TIP3    H2 1492   3.445   5.081   3.200  0.5062  0.9806 -0.6116
  496TIP3   OH2 1493   1.809   3.521   2.401 -0.0658 -0.1068 -0.3788
  496TIP3    H1 1494   1.836   3.583   2.468  0.3406 -1.2916  0.6068
  496TIP3    H2 1495   1.725   3.488   2.432 -0.4965  0.2771 -1.1243
  497TIP3   OH2 1496   5.831   3.136   3.917 -0.4231 -0.2018 -0.0776
  497TIP3    H1 1497   5.769   3.208   3.921  0.3617  0.5271 -0.7097
  497TIP3    H2 1498   5.778   3.057   3.930 -1.2018  0.5131  1.2131
  498TIP3   OH2 1499   2.471   1.347   0.558 -0.4128 -0.2732  0.3037
  498TIP3    H1 1500   2.441   1.384   0.641 -0.6380 -2.7139  1.3825
  498TIP3    H2 1501   2.518   1.267   0.583  1.1457 -0.0935 -1.8154
  499TIP3   OH2 1502   3.179   1.412   1.135  0.1779 -0.3670 -0.5156
  499TIP3    H1 1503   3.110   1.398   1.200 -0.2272 -0.0867 -0.8765
  499TIP3    H2 1504   3.157   1.496   1.095 -0.4423 -1.2195 -2.0552
  500TIP3   OH2 1505   4.193   3.477   0.341  0.6573  0.0004 -0.4153
  500TIP3    H1 1506   4.240   3.528   0.407 -0.1384 -0.2908  0.4096
  500TIP3    H2 1507   4.151   3.543   0.286 -1.5505  0.3438  1.5058
  501TIP3   OH2 1508   1.872   1.376   3.030 -0.2261  0.4563 -0.0080
  501TIP3    H1 1509   1.906   1.375   2.940 -0.9814  0.9492 -0.3076
  501TIP3    H2 1510   1.846   1.467   3.044  0.0034  0.4027  0.7542
  502TIP3   OH2 1511   4.722   0.566   3.677  0.4258 -0.3405  0.0897
  502TIP3    H1 1512   4.705   0.471   3.677  0.5864 -0.3710 -0.1233
  502TIP3    H2 1513   4.668   0.600   3.748 -2.4822 -0.0912 -2.0173
  503TIP3   OH2 1514   1.850   2.395   1.383 -0.2064  0.1887  0.0596
  503TIP3    H1 1515   1.842   2.487   1.407  0.0172  0.5844 -1.3233
  503TIP3    H2 1516   1.768   2.355   1.414 -1.5997  1.4369 -1.7627
  504TIP3   OH2 1517   0.027   5.322   0.300 -0.1489 -0.0451 -0.0691
  504TIP3    H1 1518   0.056   5.232   0.290  0.6235  0.2202 -0.2772
  504TIP3    H2 1519  -0.059   5.315   0.342  1.1202 -0.7949  2.6300
  505TIP3   OH2 1520   1.571   3.016   3.147  0.4037  0.1487  0.0493
  505TIP3    H1 1521   1.502   2.970   3.098  0.0844  1.8685 -1.1853
  505TIP3    H2 1522   1.646   2.957   3.143 -0.5881 -1.1937  0.3123
  506TIP3   OH2 1523   4.783   0.010   3.911  0.0013 -0.0356  0.2471
  506TIP3    H1 1524   4.821   0.093   3.940  1.5556 -0.6335  0.0257
  506TIP3    H2 1525   4.701   0.003   3.959 -0.1371  1.5979  0.3135
  507TIP3   OH2 1526   2.294   1.628   0.460  0.1323  0.2924  0.2887
  507TIP3    H1 1527   2.304   1.570   0.536  1.0720  1.3290  0.9814
  507TIP3    H2 1528   2.254   1.707   0.496 -0.3027  0.4369 -0.4834
  508TIP3   OH2 1529   5.395   0.434   3.861  0.3188  0.3362  0.3189
  508TIP3    H1 1530   5.478   0.474   3.888  0.7786 -0.3288 -0.0693
  508TIP3    H2 1531   5.379   0.366   3.926  1.1532 -0.9094 -0.7440
  509TIP3   OH2 1532   1.413   3.381   1.882 -0.1864  0.0171  0.1629
  509TIP3    H1 1533   1.429   3.475   1.886 -0.3072  0.0138  1.1099
  509TIP3    H2 1534   1.340   3.367   1.942  0.2932 -0.7719  0.5857
  510TIP3   OH2 1535   2.485   1.905   1.897  0.6676  0.1147 -0.9977
  510TIP3    H1 1536   2.564   1.879   1.849  0.0602  1.3486 -2.8078
  510TIP3    H2 1537   2.415   1.854   1.856  0.6123 -1.9426  1.4566
  511TIP3   OH2 1538   3.049   1.849   3.920 -0.4880 -0.1895 -0.1772
  511TIP3    H1 1539   3.089   1.764   3.937  0.4476  0.0991 -0.8786
  511TIP3    H2 1540   3.069   1.901   3.997  0.1155 -0.1808 -0.3389
  512TIP3   OH2 1541   1.136   3.347   2.338 -0.7087 -0.1941 -0.0647
  512TIP3    H1 1542   1.067   3.299   2.293  1.4518 -1.6296 -2.0734
  512TIP3    H2 1543   1.163   3.415   2.276  0.6070 -0.5705  0.0539
  513TIP3   OH2 1544   0.883   2.171   0.049 -0.4057  0.1017  0.2103
  513TIP3    H1 1545   0.882   2.172  -0.047  1.3350 -0.1455  0.1576
  513TIP3    H2 1546   0.889   2.078   0.072 -0.7147  0.1664  0.5495
  514TIP3   OH2 1547   3.704   2.333   4.131 -0.3372 -0.1090 -0.1328
  514TIP3    H1 1548   3.612   2.332   4.106  0.1428 -0.0562 -2.0233
  514TIP3    H2 1549   3.704   2.370   4.219 -2.0616  0.4203 -0.3129
  515TIP3   OH2 1550   1.248   1.596   2.370  0.2175  0.8063 -0.1201
  515TIP3    H1 1551   1.163   1.607   2.328 -0.1673  0.3701  0.5328
  515TIP3    H2 1552   1.297   1.675   2.347 -1.2302  2.2663  1.5643
  516TIP3   OH2 1553   2.256   1.450   2.806 -0.1063 -0.1333  0.5110
  516TIP3    H1 1554   2.352   1.441   2.808 -0.1428 -0.4433  1.6015
  516TIP3    H2 1555   2.241   1.541   2.782  0.4786  0.0691  0.8990
  517TIP3   OH2 1556   3.215   2.374   2.499  0.4954  0.2684 -0.7761
  517TIP3    H1 1557   3.278   2.350   2.566  1.3522  0.4397 -1.5050
  517TIP3    H2 1558   3.130   2.350   2.536  0.9453  0.4175  0.3827
  518TIP3   OH2 1559   0.040   4.714   2.231  0.1899 -0.4339 -0.4493
  518TIP3    H1 1560  -0.039   4.750   2.271  1.8325  2.2175  0.6503
  518TIP3    H2 1561   0.053   4.766   2.152  0.5648 -1.2352 -0.9322
  519TIP3   OH2 1562   0.653   2.467   1.370 -0.4207 -0.2421 -0.0391
  519TIP3    H1 1563   0.636   2.544   1.316  1.4755 -0.5882 -1.2372
  519TIP3    H2 1564   0.703   2.500   1.444 -0.6257 -0.1672  0.0678
  520TIP3   OH2 1565   6.294   3.327   2.767 -0.3833  0.3940  0.2703
  520TIP3    H1 1566   6.342   3.244   2.764 -0.7524  0.1727  0.3947
  520TIP3    H2 1567   6.361   3.394   2.754 -0.1118  0.0654 -0.0467
  521TIP3   OH2 1568   5.211   2.848   4.559 -0.0733  0.1365  0.2110
  521TIP3    H1 1569   5.286   2.855   4.618 -1.1145 -0.5562  1.6840
  521TIP3    H2 1570   5.247   2.863   4.471  1.7743 -0.2272  0.8757
  522TIP3   OH2 1571   1.915   1.257   0.990 -0.0384 -0.3869 -0.2359
  522TIP3    H1 1572   1.919   1.221   1.079 -0.4132 -2.0859 -0.8841
  522TIP3    H2 1573   1.827   1.294   0.983  0.6773  1.6801  0.7689
  523TIP3   OH2 1574   6.261   0.302   0.565 -0.9618  0.6339 -0.2450
  523TIP3    H1 1575   6.217   0.341   0.640 -1.2047 -0.4523  0.2063
  523TIP3    H2 1576   6.307   0.226   0.602  0.4944  1.1752 -0.8643
  524TIP3   OH2 1577   3.450   4.556   4.721  0.1994 -0.4435  0.1485
  524TIP3    H1 1578   3.518   4.594   4.775 -0.3451  1.6110 -0.5260
  524TIP3    H2 1579   3.454   4.462   4.740  1.8713 -0.1329  1.5874
  525TIP3   OH2 1580   6.018   0.497   3.350 -0.4478  0.5702  0.4153
  525TIP3    H1 1581   6.073   0.510   3.273 -0.3701  0.8703  0.5207
  525TIP3    H2 1582   6.041   0.409   3.382 -1.3312 -0.0570 -0.5875
  526TIP3   OH2 1583   0.981   0.479   4.088 -0.0731  0.1514  0.5935
  526TIP3    H1 1584   1.063   0.463   4.042  0.6728  1.4531  1.4134
  526TIP3    H2 1585   1.008   0.519   4.171 -1.5310  0.3943  0.9691
  527TIP3   OH2 1586   5.387   5.829   0.640 -0.5878 -0.4523  0.2660
  527TIP3    H1 1587   5.447   5.894   0.678  0.2565 -1.4763  0.7224
  527TIP3    H2 1588   5.304   5.844   0.686 -1.0001  1.5786 -1.0013
  528TIP3   OH2 1589   6.313   3.109   1.104  0.3314  0.2692  0.5990
  528TIP3    H1 1590   6.284   3.087   1.016  0.5716 -0.8583  0.7920
  528TIP3    H2 1591   6.388   3.051   1.121 -1.0636 -1.1405  2.3734
  529TIP3   OH2 1592   3.555   4.172   4.008  0.2089  0.6404  0.2728
  529TIP3    H1 1593   3.544   4.255   4.054  0.3638  1.7708 -1.6454
  529TIP3    H2 1594   3.467   4.135   4.003  0.2624  0.2152  1.9159
  530TIP3   OH2 1595   4.440   0.545   3.853  0.5012  0.2816 -0.3695
  530TIP3    H1 1596   4.450   0.537   3.948  1.5345 -0.4751 -0.5294
  530TIP3    H2 1597   4.420   0.456   3.824  1.3314  0.2888 -0.9845
  531TIP3   OH2 1598   0.569   0.104   0.986 -0.1767  0.4190 -0.5420
  531TIP3    H1 1599   0.621   0.167   1.036  1.4403 -1.4786  0.2935
  531TIP3    H2 1600   0.478   0.132   0.999  0.4857  2.8053 -0.5929
  532TIP3   OH2 1601   2.344   3.543   2.114  0.0717 -0.2837 -0.1337
  532TIP3    H1 1602   2.306   3.630   2.104  0.1889 -0.3882 -1.7091
  532TIP3    H2 1603   2.309   3.492   2.041  0.7825 -1.2738  0.1845
  533TIP3   OH2 1604   2.741   0.350   0.905 -0.3074 -0.2880  0.0575
  533TIP3    H1 1605   2.769   0.266   0.940 -1.4786 -0.3663  0.8823
  533TIP3    H2 1606   2.695   0.392   0.978 -0.4759  0.6986 -0.5956
  534TIP3   OH2 1607   6.300   5.569   1.060 -0.6375 -0.4561 -0.0575
  534TIP3    H1 1608   6.275   5.490   1.011 -1.8995 -0.4121  0.4732
  534TIP3    H2 1609   6.310   5.539   1.150  0.7085 -0.3455 -0.1524
  535TIP3   OH2 1610   2.123   4.920   3.072 -0.0005  0.8044 -0.1438
  535TIP3    H1 1611   2.130   4.880   2.986  2.2512 -0.7311  0.6613
  535TIP3    H2 1612   2.131   5.014   3.056 -1.5591  0.7110 -1.7324
  536TIP3   OH2 1613   5.787   4.097   1.046 -0.1228 -0.4111 -0.2179
  536TIP3    H1 1614   5.866   4.044   1.049  1.8312  2.2970  0.3603
  536TIP3    H2 1615   5.786   4.133   0.958 -0.5312 -0.1688 -0.1159
  537TIP3   OH2 1616   1.879   1.954   1.692  0.3577  0.1831 -0.6280
  537TIP3    H1 1617   1.917   2.009   1.623  1.6945  1.5791  1.1259
  537TIP3    H2 1618   1.906   1.865   1.669 -1.5425  0.1691 -3.3397
  538TIP3   OH2 1619   4.691   1.393   1.413  0.1362 -0.0272  0.6881
  538TIP3    H1 1620   4.677   1.487   1.399  0.8947  0.1691  1.1282
  538TIP3    H2 1621   4.757   1.369   1.347 -1.5871 -0.7565 -0.8612
  539TIP3   OH2 1622   3.667   4.332   1.245  0.6090  0.0096  0.4089
  539TIP3    H1 1623   3.739   4.308   1.187  0.3149  0.5835 -0.2075
  539TIP3    H2 1624   3.590   4.335   1.188  0.6255  2.4826  0.3849
  540TIP3   OH2 1625   5.683   3.832   5.135  0.2803  0.5236 -0.1032
  540TIP3    H1 1626   5.674   3.887   5.057  0.2831  2.6619  1.3258
  540TIP3    H2 1627   5.776   3.834   5.155  0.3222 -0.2712 -0.1992
  541TIP3   OH2 1628   3.889   1.811   1.565  0.1763 -0.0258  0.1650
  541TIP3    H1 1629   3.966   1.856   1.531  1.4610 -1.7400  0.6537
  541TIP3    H2 1630   3.882   1.839   1.656  0.9453 -0.7313  0.4543
  542TIP3   OH2 1631   3.987   0.391   0.479 -0.3701 -0.2932 -0.2590
  542TIP3    H1 1632   3.987   0.484   0.457 -1.0767 -0.2467 -0.0861
  542TIP3    H2 1633   4.069   0.377   0.525 -1.4753  0.8456  2.2366
  543TIP3   OH2 1634   0.207   4.055   4.163  0.0176  0.3526  1.2865
  543TIP3    H1 1635   0.270   3.990   4.131 -1.1042 -0.4052  0.5222
  543TIP3    H2 1636   0.209   4.124   4.097 -2.7643 -1.5050 -1.0128
  544TIP3   OH2 1637   0.605   3.080   0.407  0.3668  0.3989  0.1103
  544TIP3    H1 1638   0.564   3.148   0.460  1.1680  1.3946 -0.5202
  544TIP3    H2 1639   0.617   3.007   0.468 -1.8940  0.2213  0.4196
  545TIP3   OH2 1640   4.777   3.742   3.177 -0.2104  1.1021  0.3797
  545TIP3    H1 1641   4.808   3.812   3.235  0.6358  1.5759 -0.6203
  545TIP3    H2 1642   4.837   3.744   3.103 -1.2352  0.4601 -0.4900
  546TIP3   OH2 1643   5.810   3.945   4.811 -0.3019  0.1726 -0.0160
  546TIP3    H1 1644   5.786   3.865   4.764 -1.5391  0.2636  0.4298
  546TIP3    H2 1645   5.847   4.002   4.743 -0.5301 -0.3279 -0.5703
  547TIP3   OH2 1646   3.635   4.229   3.407 -0.0722  0.1481 -0.3379
  547TIP3    H1 1647   3.576   4.231   3.483  1.3918  0.7657  0.8294
  547TIP3    H2 1648   3.646   4.136   3.388 -0.5294 -0.0100  0.1455
  548TIP3   OH2 1649   0.855   3.201   3.934  0.4006  0.1222  0.1610
  548TIP3    H1 1650   0.943   3.163   3.927  0.3383 -0.0461  0.2613
  548TIP3    H2 1651   0.815   3.153   4.007  0.1399  0.0301 -0.0434
  549TIP3   OH2 1652   0.009   3.294   4.644  0.3652  0.4887 -0.6350
  549TIP3    H1 1653   0.040   3.375   4.602  1.2949  0.0344 -0.8571
  549TIP3    H2 1654   0.067   3.226   4.609 -0.5865 -0.3224 -0.6725
  550TIP3   OH2 1655   3.554   0.120   2.126 -0.2554 -0.6924  0.0728
  550TIP3    H1 1656   3.466   0.088   2.102 -1.2041  0.9318  1.1728
  550TIP3    H2 1657   3.597   0.046   2.167 -1.5811 -1.1840  0.6180
  551TIP3   OH2 1658   2.834   1.676   1.980 -0.3007  0.0307 -0.5718
  551TIP3    H1 1659   2.780   1.609   2.020 -1.7700  1.6598  0.3458
  551TIP3    H2 1660   2.785   1.704   1.902 -0.5990  1.2027  0.0060
  552TIP3   OH2 1661   1.872   2.839   4.646  0.3125  0.1212 -0.0341
  552TIP3    H1 1662   1.811   2.893   4.596 -0.1343  0.8809  1.2647
  552TIP3    H2 1663   1.816   2.796   4.711  0.9933 -0.1196  0.3939
  553TIP3   OH2 1664   0.092   3.755   5.020  0.1789  0.2224  0.2650
  553TIP3    H1 1665   0.004   3.774   5.052  0.2414 -0.5690  0.9430
  553TIP3    H2 1666   0.107   3.663   5.043  0.9188  0.1472 -0.4546
  554TIP3   OH2 1667   6.045   3.942   2.566  0.8739  0.0517 -0.3164
  554TIP3    H1 1668   6.030   3.848   2.554 -1.3409  0.2589  0.3572
  554TIP3    H2 1669   6.097   3.948   2.646  2.1519 -0.6184 -1.0629
  555TIP3   OH2 1670   0.298   0.268   5.069  0.1517 -0.5899 -0.2934
  555TIP3    H1 1671   0.271   0.303   5.154  0.7019 -1.6722  0.3498
  555TIP3    H2 1672   0.348   0.339   5.029 -0.6416  0.1585  0.0025
  556TIP3   OH2 1673   5.604   5.835   3.271  0.0042  0.3195 -0.2296
  556TIP3    H1 1674   5.579   5.912   3.321  1.0326  1.5043 -1.4504
  556TIP3    H2 1675   5.664   5.787   3.329 -2.2767 -0.7548  1.3687
  557TIP3   OH2 1676   4.346   2.033   1.253 -0.2337  0.2026  0.6007
  557TIP3    H1 1677   4.259   2.054   1.286 -0.7300 -0.0094 -0.5112
  557TIP3    H2 1678   4.335   1.949   1.208  1.2355 -1.5018  3.1291
  558TIP3   OH2 1679   0.244   4.429   1.246  0.5526  0.2421  0.2897
  558TIP3    H1 1680   0.283   4.344   1.223  1.7222  0.8683 -0.1112
  558TIP3    H2 1681   0.188   4.450   1.172 -0.5303 -0.6322  0.8359
  559TIP3   OH2 1682   1.518   0.373   2.836 -0.4895 -1.1853 -0.2803
  559TIP3    H1 1683   1.471   0.297   2.872 -0.7491 -1.2971 -0.8295
  559TIP3    H2 1684   1.609   0.345   2.832 -0.2019 -0.6686  1.5852
  560TIP3   OH2 1685   1.687   0.595   2.952 -0.2236 -0.0113  0.1552
  560TIP3    H1 1686   1.613   0.543   2.922  0.7176 -2.0496  1.1564
  560TIP3    H2 1687   1.703   0.564   3.041 -0.7547  3.3552  1.5730
  561TIP3   OH2 1688   0.568   5.684   1.108 -0.0832 -0.1922 -0.1964
  561TIP3    H1 1689   0.476   5.659   1.100 -0.2154  0.4241 -0.7498
  561TIP3    H2 1690   0.588   5.728   1.025  1.2082 -1.8548 -0.8374
  562TIP3   OH2 1691   2.003   2.971   3.039  0.2109 -0.4352 -0.0891
  562TIP3    H1 1692   1.995   3.066   3.033  1.1282 -0.2567  1.1559
  562TIP3    H2 1693   1.927   2.944   3.090 -1.1156 -0.6280 -2.0580
  563TIP3   OH2 1694   0.546   4.859   0.829  0.1514 -0.2287 -0.2392
  563TIP3    H1 1695   0.638   4.831   0.829 -0.5059 -2.6946 -2.1251
  563TIP3    H2 1696   0.502   4.799   0.770 -2.9864  0.0495  1.5860
  564TIP3   OH2 1697   2.242   1.943   2.913  0.3731  0.8096  0.5641
  564TIP3    H1 1698   2.290   1.861   2.923 -1.3064 -0.1273  1.3884
  564TIP3    H2 1699   2.305   2.004   2.874  1.2499 -1.2592 -1.4450
  565TIP3   OH2 1700   0.526   1.133   2.529  0.1196 -0.0685  0.5892
  565TIP3    H1 1701   0.547   1.080   2.452 -2.8371  0.1118 -0.4656
  565TIP3    H2 1702   0.543   1.074   2.603  0.5295 -1.1632 -0.3398
  566TIP3   OH2 1703   0.763   5.247   0.535  0.3095 -0.6716 -0.0772
  566TIP3    H1 1704   0.779   5.239   0.441 -1.2518 -0.3220 -0.3879
  566TIP3    H2 1705   0.678   5.206   0.549  0.7781 -1.2479  1.2952
  567TIP3   OH2 1706   0.023   0.280   1.178 -0.4502  0.6454 -0.3897
  567TIP3    H1 1707   0.085   0.270   1.250  0.8600  1.9681 -1.2551
  567TIP3    H2 1708   0.032   0.372   1.153 -0.3393  0.0677 -2.6783
  568TIP3   OH2 1709   6.365   3.637   3.849  0.0206  0.3246 -0.1672
  568TIP3    H1 1710   6.307   3.579   3.899  0.0727  0.9661  0.6501
  568TIP3    H2 1711   6.390   3.585   3.773 -0.8097 -0.3361 -0.0114
  569TIP3   OH2 1712   2.471   3.509   2.647 -0.6483  0.0110  0.5091
  569TIP3    H1 1713   2.485   3.597   2.611  1.0250 -0.1563  0.6699
  569TIP3    H2 1714   2.431   3.460   2.575  3.5230 -0.6143 -1.7207
  570TIP3   OH2 1715   3.027   2.611   1.376 -0.2293 -0.4576  0.1417
  570TIP3    H1 1716   2.937   2.604   1.343  0.1788 -1.3858 -0.8456
  570TIP3    H2 1717   3.061   2.692   1.337 -0.7936  0.1999  0.9705
  571TIP3   OH2 1718   3.653   4.639   4.442 -0.0540  0.1170  0.0257
  571TIP3    H1 1719   3.659   4.734   4.429  0.5216 -0.0543 -1.1289
  571TIP3    H2 1720   3.733   4.605   4.401  0.4019 -0.7694  1.5806
  572TIP3   OH2 1721   2.124   1.208   3.939 -0.0575  0.0517 -0.4407
  572TIP3    H1 1722   2.139   1.178   3.849  0.3097 -0.3756 -0.2388
  572TIP3    H2 1723   2.205   1.253   3.963 -0.7080  1.5224 -0.8501
  573TIP3   OH2 1724   5.833   5.411   4.702  0.6722 -0.6129 -0.3582
  573TIP3    H1 1725   5.884   5.492   4.702  0.5384 -0.4779  1.6488
  573TIP3    H2 1726   5.743   5.438   4.720  0.2434 -1.0527 -1.7036
  574TIP3   OH2 1727   5.453   2.414   0.198 -0.6799 -0.4604 -0.5684
  574TIP3    H1 1728   5.460   2.448   0.287  0.4503 -2.6198  0.2623
  574TIP3    H2 1729   5.424   2.488   0.146 -4.8638  0.1783  2.1077
  575TIP3   OH2 1730   1.208   5.192   3.844 -0.1590  0.3194 -0.7932
  575TIP3    H1 1731   1.194   5.208   3.937 -0.6340  0.0148 -0.8109
  575TIP3    H2 1732   1.233   5.100   3.839 -0.6925  0.1843 -1.0203
  576TIP3   OH2 1733   4.239   5.893   3.062 -0.3113 -0.2420 -0.1048
  576TIP3    H1 1734   4.150   5.871   3.089 -0.1145  0.5388  1.2563
  576TIP3    H2 1735   4.228   5.948   2.984 -1.0101 -0.2515 -0.0177
  577TIP3   OH2 1736   1.510   2.260   0.815 -0.0482  0.3824  0.2586
  577TIP3    H1 1737   1.435   2.318   0.806 -0.0682  0.8830  2.9184
  577TIP3    H2 1738   1.576   2.296   0.755 -2.0085 -0.4361 -2.6371
  578TIP3   OH2 1739   4.844   1.121   2.848  0.2937 -0.2874  0.1077
  578TIP3    H1 1740   4.761   1.074   2.837 -0.5848  0.8224  1.6526
  578TIP3    H2 1741   4.883   1.082   2.927  0.9932 -0.4302 -0.3030
  579TIP3   OH2 1742   0.818   0.308   3.211  0.2708 -0.8203  0.4468
  579TIP3    H1 1743   0.868   0.369   3.156  0.3537 -0.4889  0.8838
  579TIP3    H2 1744   0.862   0.224   3.201 -0.2278 -0.9636 -0.6697
  580TIP3   OH2 1745   2.668   5.263   4.430  0.1191 -0.2693  0.1738
  580TIP3    H1 1746   2.716   5.181   4.433 -0.9730 -1.1686 -3.0157
  580TIP3    H2 1747   2.734   5.329   4.411  0.9244 -0.4319  2.2071
  581TIP3   OH2 1748   6.004   4.807   3.717  0.2248 -0.1808 -0.2132
  581TIP3    H1 1749   6.044   4.724   3.741  0.9614 -0.0729 -1.0315
  581TIP3    H2 1750   6.069   4.873   3.741 -0.3275  0.1726  0.3687
  582TIP3   OH2 1751   1.885   1.340   2.481  0.3463 -0.1500  0.1540
  582TIP3    H1 1752   1.973   1.378   2.489  0.1664  0.8445 -2.0177
  582TIP3    H2 1753   1.901   1.249   2.456  0.7509 -0.2115  0.6129
  583TIP3   OH2 1754   1.415   3.480   0.180  0.3613  0.6306  0.6977
  583TIP3    H1 1755   1.363   3.405   0.150 -0.1475  0.8013  1.1469
  583TIP3    H2 1756   1.405   3.544   0.110  3.0514 -0.6826 -1.0718
  584TIP3   OH2 1757   5.746   1.145   4.108  0.0445 -0.1748  0.3594
  584TIP3    H1 1758   5.719   1.230   4.142  2.0561  0.6677 -0.0146
  584TIP3    H2 1759   5.784   1.100   4.183  2.1445  0.6757 -0.1278
  585TIP3   OH2 1760   4.163   4.906   0.743 -0.0265  0.0091  0.1909
  585TIP3    H1 1761   4.131   4.816   0.734  0.3827 -0.1321  0.1132
  585TIP3    H2 1762   4.121   4.938   0.823 -1.4858  0.3257 -0.6614
  586TIP3   OH2 1763   5.008   1.951   3.237 -0.1315 -0.1110 -0.1438
  586TIP3    H1 1764   5.012   2.044   3.218 -0.2565  0.0805  0.7094
  586TIP3    H2 1765   4.955   1.914   3.166 -1.1090  0.6658  0.1553
  587TIP3   OH2 1766   3.534   4.693   3.843  0.0522 -0.6610  0.3998
  587TIP3    H1 1767   3.625   4.666   3.835  0.2850  0.4025 -0.7717
  587TIP3    H2 1768   3.530   4.779   3.800 -1.6406 -0.9864 -0.1561
  588TIP3   OH2 1769   4.171   1.606   2.298 -0.0064 -0.0593 -0.2592
  588TIP3    H1 1770   4.206   1.682   2.252 -0.8014  1.3521  1.3617
  588TIP3    H2 1771   4.076   1.619   2.297 -0.2632 -1.7227 -1.0543
  589TIP3   OH2 1772   4.584   2.130   3.869  0.5187  0.8391  0.0174
  589TIP3    H1 1773   4.645   2.100   3.937  0.6941  2.6033  0.7076
  589TIP3    H2 1774   4.527   2.055   3.853  1.8334 -0.3171  0.5446
  590TIP3   OH2 1775   3.309   2.723   0.440  0.2152  0.6891  0.1671
  590TIP3    H1 1776   3.266   2.669   0.506 -0.6719 -0.5542 -1.3533
  590TIP3    H2 1777   3.240   2.781   0.408 -0.0771 -0.4000 -1.3380
  591TIP3   OH2 1778   2.513   4.562   3.637  0.2287  0.4467  0.1358
  591TIP3    H1 1779   2.534   4.626   3.705 -1.1997  2.0072 -0.7817
  591TIP3    H2 1780   2.418   4.549   3.646  0.3077 -0.6038 -0.4891
  592TIP3   OH2 1781   0.399   0.668   1.565 -0.0822  0.2482  0.2113
  592TIP3    H1 1782   0.420   0.647   1.656  0.3647 -1.5143 -0.2456
  592TIP3    H2 1783   0.481   0.701   1.528  0.3759 -1.1573 -0.0917
  593TIP3   OH2 1784   6.145   2.106   4.146 -0.6461  0.0945  0.0331
  593TIP3    H1 1785   6.157   2.016   4.117 -0.6149 -0.3204  1.2744
  593TIP3    H2 1786   6.093   2.147   4.076 -0.7908 -0.9203 -0.4713
  594TIP3   OH2 1787   2.404   3.750   0.320 -0.5642  0.3987 -0.0821
  594TIP3    H1 1788   2.408   3.787   0.408  0.8645 -0.6697  0.3535
  594TIP3    H2 1789   2.416   3.656   0.334  0.4392  0.2972 -1.4561
  595TIP3   OH2 1790   3.969   4.193   3.293  0.2214 -0.3270 -0.2519
  595TIP3    H1 1791   3.911   4.131   3.249 -0.8293  0.9751 -0.7737
  595TIP3    H2 1792   3.912   4.267   3.316  1.6768  1.0549 -0.8667
  596TIP3   OH2 1793   1.287   0.772   1.210  0.3413 -0.2405 -0.3344
  596TIP3    H1 1794   1.283   0.865   1.187  0.6317 -0.4853 -1.4771
  596TIP3    H2 1795   1.208   0.757   1.262 -0.9178  0.1810 -2.0213
  597TIP3   OH2 1796   3.783   3.241   3.274 -0.7039 -0.5465  0.3078
  597TIP3    H1 1797   3.796   3.157   3.230  1.3246  0.8438 -2.0110
  597TIP3    H2 1798   3.734   3.294   3.211 -0.6230  0.5007  1.0927
  598TIP3   OH2 1799   6.282   3.182   3.825 -0.0936 -0.0880  0.2812
  598TIP3    H1 1800   6.370   3.168   3.860 -0.5296 -0.6401  1.1794
  598TIP3    H2 1801   6.279   3.127   3.746  0.5026  0.2635  0.0053
  599TIP3   OH2 1802   2.711   4.349   3.089 -0.1135 -0.0338  0.0127
  599TIP3    H1 1803   2.624   4.320   3.060  0.0710  0.0540 -0.6401
  599TIP3    H2 1804   2.753   4.269   3.121 -0.4737 -0.0560  0.4548
  600TIP3   OH2 1805   5.928   2.497   3.624  0.0680 -0.0869  0.0585
  600TIP3    H1 1806   5.849   2.507   3.572 -0.2567  0.9439  0.7261
  600TIP3    H2 1807   5.973   2.581   3.617  0.3303 -0.1445  0.9306
  601TIP3   OH2 1808   5.357   2.537   0.886  0.9160 -0.0443  0.2033
  601TIP3    H1 1809   5.306   2.500   0.957  0.8693 -1.5908 -0.5986
  601TIP3    H2 1810   5.404   2.462   0.849  1.5651  0.8686 -0.8693
  602TIP3   OH2 1811   5.377   1.905   5.106 -0.2742  0.4296 -0.2020
  602TIP3    H1 1812   5.413   1.971   5.165 -1.6446  0.9731  0.0662
  602TIP3    H2 1813   5.290   1.887   5.141 -0.5830 -0.2527 -1.2790
  603TIP3   OH2 1814   4.027   4.895   5.014  0.1814 -0.1054 -0.0264
  603TIP3    H1 1815   4.087   4.821   5.023 -0.6052 -0.6002  1.6486
  603TIP3    H2 1816   3.996   4.912   5.103 -2.0403  0.2192 -0.7870
  604TIP3   OH2 1817   2.699   2.994   4.222  0.1571 -0.7227 -0.1554
  604TIP3    H1 1818   2.719   3.018   4.131 -0.0952 -2.9621 -0.8773
  604TIP3    H2 1819   2.782   3.003   4.268  0.4325 -0.1343 -0.7525
  605TIP3   OH2 1820   0.496   5.258   4.896 -0.1648 -0.0230 -0.4108
  605TIP3    H1 1821   0.588   5.284   4.890 -0.6985  1.7001 -2.0730
  605TIP3    H2 1822   0.482   5.204   4.818 -0.6964  0.1796 -0.4559
  606TIP3   OH2 1823   3.782   4.188   4.865 -0.4112  0.2022 -0.6556
  606TIP3    H1 1824   3.790   4.255   4.934 -1.2752  1.3413 -1.6212
  606TIP3    H2 1825   3.839   4.219   4.795  1.6675 -1.7307  0.0701
  607TIP3   OH2 1826   3.669   1.846   4.537  0.0181  0.4760 -0.2018
  607TIP3    H1 1827   3.587   1.851   4.586 -0.7675 -0.0685 -1.4019
  607TIP3    H2 1828   3.656   1.905   4.463  1.6178  2.1712  0.7811
  608TIP3   OH2 1829   1.998   1.534   0.667 -0.4114 -0.1794  0.6339
  608TIP3    H1 1830   2.027   1.501   0.583 -0.7893  0.5813  0.1929
  608TIP3    H2 1831   2.074   1.522   0.725  0.4490  0.8239 -0.2315
  609TIP3   OH2 1832   4.550   3.031   4.253 -0.4252  0.4763 -0.4211
  609TIP3    H1 1833   4.621   2.995   4.200  0.2024  2.2032 -0.8087
  609TIP3    H2 1834   4.481   2.965   4.248  0.5068 -0.4622 -1.4480
  610TIP3   OH2 1835   0.573  -0.013   0.728  0.0537 -0.7106  0.0672
  610TIP3    H1 1836   0.655   0.030   0.704  0.1842 -1.1952 -0.3674
  610TIP3    H2 1837   0.552   0.022   0.815 -0.4290  1.0584 -0.7212
  611TIP3   OH2 1838   1.805   4.790   1.235  0.2999 -0.1371  0.1875
  611TIP3    H1 1839   1.889   4.749   1.219 -0.3527 -1.9771  1.1593
  611TIP3    H2 1840   1.742   4.733   1.191 -0.5051  0.8168  0.0669
  612TIP3   OH2 1841   2.633   5.079   2.385  1.0591  0.0056  0.1132
  612TIP3    H1 1842   2.567   5.086   2.454 -1.1725 -1.6064 -1.6675
  612TIP3    H2 1843   2.715   5.062   2.431 -0.4530 -1.7361  2.3918
  613TIP3   OH2 1844   5.408   1.814   0.830  0.3016 -0.3983  0.0243
  613TIP3    H1 1845   5.492   1.794   0.872 -0.5233 -1.6645  1.1960
  613TIP3    H2 1846   5.417   1.779   0.741  0.8566 -0.9957  0.3001
  614TIP3   OH2 1847   0.366   5.479   4.996  0.1932 -0.2116  0.0612
  614TIP3    H1 1848   0.362   5.539   4.921  2.1251  0.9103  0.7560
  614TIP3    H2 1849   0.422   5.407   4.967 -1.3143 -1.2167 -0.4428
  615TIP3   OH2 1850   2.351   2.410   3.641  0.0011 -0.2149 -0.1552
  615TIP3    H1 1851   2.269   2.397   3.594  0.6299 -1.5189 -0.9354
  615TIP3    H2 1852   2.358   2.335   3.700 -0.2318  0.8249  1.2584
  616TIP3   OH2 1853   5.992   5.816   2.334 -0.0277  0.2452 -0.0989
  616TIP3    H1 1854   5.973   5.726   2.359  1.1463 -0.6472 -2.1937
  616TIP3    H2 1855   6.074   5.811   2.286 -0.5836  2.2461 -1.3913
  617TIP3   OH2 1856   5.858   2.021   0.121 -0.7576 -0.0109  0.1871
  617TIP3    H1 1857   5.805   2.100   0.131 -0.9410  0.0854 -1.3175
  617TIP3    H2 1858   5.885   1.998   0.210 -0.0978  2.1707  0.6115
  618TIP3   OH2 1859   4.225   5.170   0.124 -0.1418  0.5555 -0.1480
  618TIP3    H1 1860   4.267   5.126   0.198  1.1164 -0.6010 -1.4963
  618TIP3    H2 1861   4.195   5.099   0.068  0.0765  1.4138 -1.3871
  619TIP3   OH2 1862   1.652   3.486   0.333  0.3075  0.1779 -0.1975
  619TIP3    H1 1863   1.644   3.402   0.289 -0.7855  1.1156 -1.8957
  619TIP3    H2 1864   1.562   3.509   0.359  0.1750  1.8800 -1.9148
  620TIP3   OH2 1865   2.181   0.708   2.989 -0.1235 -0.9183 -0.2278
  620TIP3    H1 1866   2.133   0.725   3.070  0.2147 -0.5709 -0.0980
  620TIP3    H2 1867   2.133   0.759   2.923  0.9167  0.6499  0.1708
  621TIP3   OH2 1868   4.115   5.078   4.327  0.0620  0.1565 -0.0288
  621TIP3    H1 1869   4.041   5.138   4.315  0.5327  0.7498  0.0175
  621TIP3    H2 1870   4.113   5.056   4.420 -0.7068 -0.6920 -0.2280
  622TIP3   OH2 1871   6.016   1.275   0.420 -0.1177 -0.2603  0.0119
  622TIP3    H1 1872   6.016   1.364   0.454  0.1034 -0.4608  0.5520
  622TIP3    H2 1873   6.093   1.234   0.460  0.2189 -0.4689 -0.8364
  623TIP3   OH2 1874   4.456   2.187   4.420  0.2518  0.4284  0.1992
  623TIP3    H1 1875   4.410   2.142   4.491 -0.1458 -0.0472 -0.3439
  623TIP3    H2 1876   4.406   2.268   4.407 -1.6541 -0.9147 -1.6250
  624TIP3   OH2 1877   2.395   3.487   1.038 -0.1828  0.0769  0.1080
  624TIP3    H1 1878   2.305   3.498   1.071 -0.2375  0.3193 -0.1128
  624TIP3    H2 1879   2.385   3.436   0.957  0.1698 -2.7269  1.7017
  625TIP3   OH2 1880   2.962   3.090   0.569  0.3497 -0.0025  0.5422
  625TIP3    H1 1881   2.985   3.139   0.648  0.8438 -0.4359  0.6666
  625TIP3    H2 1882   3.038   3.035   0.551  0.0900 -0.1842 -0.0205
  626TIP3   OH2 1883   1.718   4.083   1.414  0.6801  0.2148  0.3637
  626TIP3    H1 1884   1.710   4.174   1.386 -0.2213 -0.2317 -0.9174
  626TIP3    H2 1885   1.805   4.056   1.385  0.2445  0.1413 -0.9214
  627TIP3   OH2 1886   4.349   3.655   0.489 -0.0515 -0.1902  0.0168
  627TIP3    H1 1887   4.422   3.598   0.512 -0.4827 -0.9953 -0.5711
  627TIP3    H2 1888   4.304   3.671   0.572  0.2850 -0.4054  0.2428
  628TIP3   OH2 1889   5.447   0.865   0.118 -0.2570 -0.4843 -0.1086
  628TIP3    H1 1890   5.417   0.898   0.034 -2.1686 -2.7717 -0.4403
  628TIP3    H2 1891   5.539   0.843   0.104  0.2179  1.6740 -0.7193
  629TIP3   OH2 1892   2.595   3.370   3.848  0.5337 -0.1744 -0.5208
  629TIP3    H1 1893   2.523   3.314   3.820 -0.5492  1.5724 -1.4314
  629TIP3    H2 1894   2.674   3.327   3.814 -0.2674 -1.1334 -1.2100
  630TIP3   OH2 1895   2.900   5.146   1.845  0.1892  0.3093 -0.0147
  630TIP3    H1 1896   2.871   5.078   1.784  0.3548 -0.5637  0.8641
  630TIP3    H2 1897   2.958   5.202   1.792  0.6305 -0.6450 -0.5784
  631TIP3   OH2 1898   0.650   4.627   3.206 -0.0389 -0.0351  0.3442
  631TIP3    H1 1899   0.722   4.591   3.154 -0.2991 -0.7814  0.4862
  631TIP3    H2 1900   0.594   4.551   3.225 -1.5674  0.7401 -0.8676
  632TIP3   OH2 1901   5.919   0.143   3.135  0.0353  0.0418 -0.3651
  632TIP3    H1 1902   5.988   0.208   3.121 -1.1326  1.1149 -1.4920
  632TIP3    H2 1903   5.934   0.111   3.224  1.4755  0.8440 -0.2836
  633TIP3   OH2 1904   3.382   4.992   4.222  0.0042  0.0113  0.0653
  633TIP3    H1 1905   3.435   5.054   4.273  0.5979 -1.6184  1.5364
  633TIP3    H2 1906   3.427   4.987   4.137  0.4245  0.9406  0.2109
  634TIP3   OH2 1907   5.924   1.588   3.602 -0.7235  0.3561  0.1837
  634TIP3    H1 1908   5.879   1.647   3.541 -1.9636 -0.5634  0.1727
  634TIP3    H2 1909   5.859   1.570   3.670 -0.8147 -1.8650 -0.3964
  635TIP3   OH2 1910   4.356   3.119   0.955  0.6531  0.2401  0.5629
  635TIP3    H1 1911   4.374   3.033   0.918 -0.6142 -0.0930  0.6554
  635TIP3    H2 1912   4.300   3.101   1.030 -1.4907  1.2317 -0.6957
  636TIP3   OH2 1913   3.907   3.213   4.389  0.3931  0.1433  0.1315
  636TIP3    H1 1914   3.984   3.261   4.418  0.1978  0.8786 -0.5082
  636TIP3    H2 1915   3.868   3.178   4.470  0.2537  1.5216  0.6905
  637TIP3   OH2 1916   4.181   1.378   3.181  0.1664  0.5574 -0.0307
  637TIP3    H1 1917   4.224   1.366   3.097 -2.3816  0.1529 -1.3943
  637TIP3    H2 1918   4.161   1.472   3.184  0.3680  0.5927  0.1642
  638TIP3   OH2 1919   0.177   5.248   1.710  0.2097 -0.2935  0.4332
  638TIP3    H1 1920   0.247   5.313   1.704  0.8672 -1.0815 -0.9027
  638TIP3    H2 1921   0.098   5.294   1.683  0.3033  0.4405  1.3610
  639TIP3   OH2 1922   4.172   3.488   2.415  0.0035 -0.4519  0.0303
  639TIP3    H1 1923   4.102   3.442   2.367  1.1322 -3.5257  1.1192
  639TIP3    H2 1924   4.157   3.466   2.507  0.1693  2.1483  0.7752
  640TIP3   OH2 1925   4.343   2.841   5.136 -0.1155  0.1043 -0.2408
  640TIP3    H1 1926   4.438   2.835   5.133 -0.0708 -0.2703  1.1151
  640TIP3    H2 1927   4.324   2.877   5.223 -1.2476 -1.2921  0.1309
  641TIP3   OH2 1928   3.901   3.061   2.306 -0.1917 -0.9248 -0.6487
  641TIP3    H1 1929   3.868   3.126   2.367 -2.6176 -1.0123 -1.7530
  641TIP3    H2 1930   3.889   2.977   2.351 -0.2746 -0.8674 -0.5657
  642TIP3   OH2 1931   1.225   5.311   2.240  0.3519 -0.0416 -0.4401
  642TIP3    H1 1932   1.299   5.352   2.285 -0.0890  0.8815 -0.5423
  642TIP3    H2 1933   1.231   5.219   2.264  1.9937 -0.1383 -1.0690
  643TIP3   OH2 1934   3.408   0.149   0.119  0.8345  0.1616  0.5741
  643TIP3    H1 1935   3.478   0.127   0.181 -0.4807 -3.0489  1.1215
  643TIP3    H2 1936   3.390   0.067   0.073 -1.8355  1.1206 -0.2920
  644TIP3   OH2 1937   3.975   5.505   3.772 -0.2858  0.1495 -0.0479
  644TIP3    H1 1938   4.008   5.467   3.690 -0.9681 -1.5844  0.4489
  644TIP3    H2 1939   4.024   5.587   3.781  1.5632 -0.7966 -0.9457
  645TIP3   OH2 1940   2.262   3.082   2.136  0.0615  0.1360 -0.0871
  645TIP3    H1 1941   2.269   3.116   2.046 -1.1020 -0.3266 -0.3641
  645TIP3    H2 1942   2.238   3.159   2.188  1.4997  0.5710 -0.0237
  646TIP3   OH2 1943   5.867   2.773   0.011  0.1415  0.2629 -0.2529
  646TIP3    H1 1944   5.953   2.809  -0.010  0.9556 -1.7216 -0.4797
  646TIP3    H2 1945   5.823   2.844   0.058  1.3466  1.8322 -1.3758
  647TIP3   OH2 1946   5.527   4.095   0.997 -0.0008 -0.5285  0.0560
  647TIP3    H1 1947   5.493   4.142   1.073 -1.2666 -1.1399 -0.1073
  647TIP3    H2 1948   5.621   4.088   1.013  0.0846  1.2316  0.5210
  648TIP3   OH2 1949   4.891   4.582   4.649 -0.3396 -0.6344  0.4161
  648TIP3    H1 1950   4.880   4.663   4.699 -0.5785  0.5003 -1.3867
  648TIP3    H2 1951   4.838   4.518   4.697  0.2109  0.1305  2.1422
  649TIP3   OH2 1952   6.184   2.077   2.919  0.7404  0.3585  0.4207
  649TIP3    H1 1953   6.142   1.995   2.944  2.5161 -1.3316 -1.7253
  649TIP3    H2 1954   6.260   2.084   2.976  0.3439  0.7630  0.9047
  650TIP3   OH2 1955   4.726   4.165   2.907  0.2877 -0.0863  0.0340
  650TIP3    H1 1956   4.748   4.144   2.998  1.4722  0.3069 -0.1379
  650TIP3    H2 1957   4.703   4.081   2.868  1.7144 -0.5910  0.2096
  651TIP3   OH2 1958   6.069   5.141   5.126 -0.0137  0.3165  0.3087
  651TIP3    H1 1959   5.984   5.161   5.089 -0.8450 -1.4539  1.1396
  651TIP3    H2 1960   6.126   5.211   5.095 -1.1122  0.0719 -2.5103
  652TIP3   OH2 1961   0.443   4.797   3.128  0.1102 -0.1008 -0.2726
  652TIP3    H1 1962   0.518   4.738   3.125 -0.4338 -0.8422  0.2651
  652TIP3    H2 1963   0.370   4.744   3.094 -0.4535  0.1383  0.5449
  653TIP3   OH2 1964   2.284   0.203   0.989 -0.0600 -0.3325  0.0738
  653TIP3    H1 1965   2.211   0.186   0.929 -1.5199  0.2407  1.6170
  653TIP3    H2 1966   2.252   0.271   1.047  1.6760 -0.1671  0.8949
  654TIP3   OH2 1967   6.099   4.199   3.650 -0.4685  0.1503  0.2872
  654TIP3    H1 1968   6.082   4.105   3.638 -3.2718  0.5490  0.5298
  654TIP3    H2 1969   6.193   4.204   3.664 -0.1233 -2.5509 -0.4160
  655TIP3   OH2 1970   3.185   0.388   1.951  0.5586  0.0369  0.1725
  655TIP3    H1 1971   3.270   0.429   1.932  1.0584 -1.6407 -1.5801
  655TIP3    H2 1972   3.190   0.303   1.907 -2.5794  0.4725 -1.2669
  656TIP3   OH2 1973   4.517   0.065   1.961 -0.6557  0.3087 -1.2157
  656TIP3    H1 1974   4.468  -0.016   1.947 -1.9706  0.8229  0.1419
  656TIP3    H2 1975   4.492   0.093   2.049 -1.8464  3.2353 -2.3497
  657TIP3   OH2 1976   1.972   5.087   0.851 -0.0441 -0.1192 -0.2660
  657TIP3    H1 1977   1.904   5.039   0.898 -0.1490  1.0381  0.7963
  657TIP3    H2 1978   1.937   5.097   0.763 -0.8999 -0.2229  0.0533
  658TIP3   OH2 1979   3.252   5.290   2.660 -0.0867  0.4283  0.1945
  658TIP3    H1 1980   3.328   5.332   2.702 -1.5619  2.2784  1.1792
  658TIP3    H2 1981   3.201   5.255   2.734 -2.3374  3.0530  0.0566
  659TIP3   OH2 1982   1.855   1.091   2.354  0.1248  0.4559 -0.1237
  659TIP3    H1 1983   1.759   1.093   2.360  0.1833  2.1930  1.0591
  659TIP3    H2 1984   1.880   1.009   2.396 -0.8387  0.0742 -0.2675
  660TIP3   OH2 1985   0.156   5.292   0.584 -0.4422 -0.1402  0.0579
  660TIP3    H1 1986   0.132   5.208   0.622 -1.4843  0.5986  1.0952
  660TIP3    H2 1987   0.075   5.323   0.542 -0.2012  0.5438  0.0803
  661TIP3   OH2 1988   3.452   4.109   2.367  1.0287  0.0430 -0.3898
  661TIP3    H1 1989   3.520   4.115   2.300 -0.3021  0.0438 -1.7770
  661TIP3    H2 1990   3.378   4.158   2.332 -0.0064 -0.6691  0.7074
  662TIP3   OH2 1991   6.209   0.224   3.838  0.2074 -0.3847  0.1667
  662TIP3    H1 1992   6.202   0.135   3.872  0.4637 -1.1176 -1.6036
  662TIP3    H2 1993   6.144   0.229   3.768 -0.3712  1.1048  0.7485
  663TIP3   OH2 1994   1.830   4.311   5.164  0.7332  0.0935 -0.4109
  663TIP3    H1 1995   1.907   4.256   5.173  0.0913 -0.7597 -0.0796
  663TIP3    H2 1996   1.774   4.264   5.102  0.1939  0.3982 -0.1588
  664TIP3   OH2 1997   2.788   4.911   2.703 -0.1138 -0.4163  0.0134
  664TIP3    H1 1998   2.790   4.916   2.798 -3.8426 -0.9113  0.2703
  664TIP3    H2 1999   2.796   5.002   2.674 -0.7067 -0.0566  0.9283
  665TIP3   OH2 2000   4.676   2.932   1.227  0.2070  0.4532 -0.1422
  665TIP3    H1 2001   4.704   2.974   1.146 -0.1425 -0.4141 -0.7223
  665TIP3    H2 2002   4.630   3.001   1.275 -0.5463  0.6886 -1.1709
  666TIP3   OH2 2003   0.286   4.521   2.859 -0.5124  0.0689  0.3625
  666TIP3    H1 2004   0.271   4.432   2.829  1.9317  0.2842 -1.8615
  666TIP3    H2 2005   0.203   4.548   2.898 -1.9642 -2.4450 -0.7771
  667TIP3   OH2 2006   3.233   5.903   5.109 -0.0206  0.0644  0.1520
  667TIP3    H1 2007   3.181   5.919   5.031 -0.9359  0.5889  0.8473
  667TIP3    H2 2008   3.250   5.809   5.108  0.0608  0.0800 -0.7174
  668TIP3   OH2 2009   2.166   3.761   3.301 -0.2747 -0.2937  0.0824
  668TIP3    H1 2010   2.119   3.811   3.234 -0.0534 -1.4689 -0.9870
  668TIP3    H2 2011   2.216   3.827   3.349 -3.0956  1.0517  1.4071
  669TIP3   OH2 2012   1.332   1.280   2.361  0.2867  0.0491  0.3260
  669TIP3    H1 2013   1.344   1.191   2.396  0.5490  0.5871  1.6811
  669TIP3    H2 2014   1.261   1.271   2.298 -0.3167 -0.9688  1.1021
  670TIP3   OH2 2015   3.346   0.714   3.228  0.2528 -0.2552 -0.2181
  670TIP3    H1 2016   3.261   0.704   3.271 -0.8962  1.4586 -1.9361
  670TIP3    H2 2017   3.325   0.714   3.135  1.7712  2.6258 -0.6672
  671TIP3   OH2 2018   2.544   4.985   1.069  0.3251 -0.1592  0.7579
  671TIP3    H1 2019   2.471   4.985   1.132  0.9145 -2.1590  1.5324
  671TIP3    H2 2020   2.621   5.003   1.122  0.4931  1.3401  0.0391
  672TIP3   OH2 2021   1.647   5.244   2.967  0.1381  0.3984 -0.5819
  672TIP3    H1 2022   1.570   5.263   3.021 -0.0126 -0.2255 -0.5708
  672TIP3    H2 2023   1.677   5.330   2.938  1.9073  1.0582  2.7119
  673TIP3   OH2 2024   1.870   0.868   0.049 -0.2884  0.1105 -0.1551
  673TIP3    H1 2025   1.826   0.924  -0.015  0.4745 -0.6598 -1.4008
  673TIP3    H2 2026   1.799   0.821   0.093 -0.8883  1.4477  0.3726
  674TIP3   OH2 2027   3.995   2.304   2.374  0.2231  0.2162 -0.0948
  674TIP3    H1 2028   4.035   2.253   2.304 -0.2359 -0.4064  0.0895
  674TIP3    H2 2029   4.021   2.261   2.455  1.3787  1.3737  0.1907
  675TIP3   OH2 2030   0.221   3.999   1.254 -0.9659 -0.1934  0.0013
  675TIP3    H1 2031   0.143   3.943   1.260  0.0177 -1.5296  0.7276
  675TIP3    H2 2032   0.241   4.022   1.345 -1.0820  0.9722 -0.2579
  676TIP3   OH2 2033   3.392   2.204   0.466  0.3999  0.0913  0.0003
  676TIP3    H1 2034   3.412   2.184   0.557 -0.8006  1.5037  0.6344
  676TIP3    H2 2035   3.296   2.209   0.463  0.4781  2.1450 -0.8205
  677TIP3   OH2 2036   0.351   2.386   1.254 -0.5228  0.1079 -0.4009
  677TIP3    H1 2037   0.445   2.379   1.240 -0.6604 -0.8248 -0.8873
  677TIP3    H2 2038   0.325   2.463   1.203  0.3343  1.9072  1.6896
  678TIP3   OH2 2039   5.477   0.011   4.065  0.3804  0.1526  0.5186
  678TIP3    H1 2040   5.405   0.037   4.123 -0.3102 -1.3961  0.3982
  678TIP3    H2 2041   5.528   0.092   4.053 -0.1924  0.8259  2.2114
  679TIP3   OH2 2042   1.689   2.954   2.063  0.3359 -0.1926  0.1752
  679TIP3    H1 2043   1.727   3.027   2.014  0.1302  0.8655  1.5074
  679TIP3    H2 2044   1.698   2.878   2.006  0.0482  0.9862 -1.5016
  680TIP3   OH2 2045   0.465   1.188   0.126  0.1835  0.1616  0.4932
  680TIP3    H1 2046   0.372   1.186   0.146 -0.0213  1.9076 -0.1075
  680TIP3    H2 2047   0.506   1.222   0.205  0.3946 -1.0936  0.9433
  681TIP3   OH2 2048   5.360   2.286   3.935 -0.6190  0.1874 -0.1465
  681TIP3    H1 2049   5.351   2.296   4.029  2.3478  3.8580  0.0066
  681TIP3    H2 2050   5.287   2.336   3.898 -0.7929  0.2049  0.2235
  682TIP3   OH2 2051   4.715   5.222   3.219  0.2369  0.1077  0.5803
  682TIP3    H1 2052   4.794   5.174   3.245  1.4006  0.2656 -2.2605
  682TIP3    H2 2053   4.749   5.303   3.180 -1.5335  1.6613  2.0393
  683TIP3   OH2 2054   0.109   0.160   2.228  0.1531 -0.2678  0.0372
  683TIP3    H1 2055   0.140   0.128   2.143  0.7204  1.2033 -0.3364
  683TIP3    H2 2056   0.189   0.191   2.272 -0.2475 -0.2960  0.7978
  684TIP3   OH2 2057   5.564   5.669   3.549 -0.1634 -0.0026 -0.3560
  684TIP3    H1 2058   5.574   5.750   3.599 -0.5176  0.1036 -0.4556
  684TIP3    H2 2059   5.609   5.603   3.601  0.0181  0.2319 -0.2105
  685TIP3   OH2 2060   3.840   0.951   4.995  0.0810  0.2414 -0.0607
  685TIP3    H1 2061   3.900   0.932   4.923  1.6460  0.4141  1.1317
  685TIP3    H2 2062   3.804   1.037   4.974  2.5296  1.5116  0.5704
  686TIP3   OH2 2063   4.556   1.688   4.389 -0.6377 -0.2917 -0.2340
  686TIP3    H1 2064   4.570   1.604   4.433 -1.1586 -0.0330  0.4273
  686TIP3    H2 2065   4.628   1.743   4.420 -0.2682 -0.4930 -0.7039
  687TIP3   OH2 2066   6.304   5.301   0.875 -0.3806  0.2860  0.0154
  687TIP3    H1 2067   6.211   5.292   0.856 -0.9701  1.8934  1.8132
  687TIP3    H2 2068   6.347   5.299   0.790 -2.0042 -0.9173 -0.8066
  688TIP3   OH2 2069   5.766   4.701   4.543  0.5269 -0.2213 -0.2202
  688TIP3    H1 2070   5.765   4.784   4.494 -0.0778 -0.1812 -0.1470
  688TIP3    H2 2071   5.775   4.634   4.476 -0.6070 -0.1832 -0.4261
  689TIP3   OH2 2072   0.239   0.376   0.881 -0.0250  0.0518  0.0947
  689TIP3    H1 2073   0.319   0.368   0.933  0.0225 -0.2277 -0.0190
  689TIP3    H2 2074   0.215   0.468   0.889 -0.2461 -0.0645  0.9466
  690TIP3   OH2 2075   3.451   1.245   0.550  0.0230  0.1079 -0.3655
  690TIP3    H1 2076   3.466   1.178   0.617  1.0239  0.4068 -0.2664
  690TIP3    H2 2077   3.500   1.213   0.474  1.1418  1.0700 -0.0752
  691TIP3   OH2 2078   3.078   2.028   1.402 -0.2768 -0.2237  0.1186
  691TIP3    H1 2079   3.048   2.105   1.450  0.7793  0.1095  0.2658
  691TIP3    H2 2080   2.999   1.975   1.390 -0.7425  0.1353  1.3837
  692TIP3   OH2 2081   4.873   1.258   0.242 -0.6480 -0.4869  0.3594
  692TIP3    H1 2082   4.807   1.325   0.224  0.4646  0.5804  0.1127
  692TIP3    H2 2083   4.869   1.245   0.337 -0.8502 -0.0394  0.4148
  693TIP3   OH2 2084   3.135   2.892   1.894 -0.2714 -1.2737  0.1865
  693TIP3    H1 2085   3.098   2.895   1.982 -2.5367  4.1154 -0.5882
  693TIP3    H2 2086   3.064   2.857   1.840 -1.5056  1.6166 -0.2192
  694TIP3   OH2 2087   3.807   1.314   0.212 -0.1418  0.8698 -0.2683
  694TIP3    H1 2088   3.811   1.353   0.125 -0.3841 -0.3514 -0.8467
  694TIP3    H2 2089   3.874   1.245   0.211 -1.0269 -0.0226  0.0524
  695TIP3   OH2 2090   4.522   2.065   2.987  0.5447 -0.2593 -0.0223
  695TIP3    H1 2091   4.503   2.127   2.917 -1.5585 -1.9969 -1.0807
  695TIP3    H2 2092   4.505   2.114   3.068 -1.7493  0.3981 -0.8413
  696TIP3   OH2 2093   4.835   1.888   2.115  0.0822  0.1916 -0.3092
  696TIP3    H1 2094   4.743   1.908   2.132  0.0417  0.7213 -1.0881
  696TIP3    H2 2095   4.835   1.798   2.082  0.0504 -0.4518  1.3465
  697TIP3   OH2 2096   0.759   0.352   0.616  0.2881 -0.7266 -0.5323
  697TIP3    H1 2097   0.818   0.365   0.542  1.6348 -0.9808  0.4447
  697TIP3    H2 2098   0.788   0.270   0.656  0.5337  0.0963  1.0913
  698TIP3   OH2 2099   4.094   4.991   2.875 -0.2871  0.3106  0.3952
  698TIP3    H1 2100   4.177   4.965   2.913 -0.0540 -0.8945 -0.8423
  698TIP3    H2 2101   4.117   5.042   2.797 -0.6641 -0.5425 -0.3000
  699TIP3   OH2 2102   5.424   3.429   4.448  0.2316 -0.7595 -0.7704
  699TIP3    H1 2103   5.493   3.367   4.425 -0.7618 -1.8164 -1.0090
  699TIP3    H2 2104   5.373   3.440   4.368 -1.0877 -1.6258 -0.0969
  700TIP3   OH2 2105   4.579   3.746   4.105  0.4115  0.4887  0.8918
  700TIP3    H1 2106   4.581   3.677   4.039  0.9006  1.2744  0.0522
  700TIP3    H2 2107   4.612   3.823   4.059 -0.3409  1.3379  1.7411
  701TIP3   OH2 2108   2.661   0.855   1.336  0.1908 -0.2491 -0.4868
  701TIP3    H1 2109   2.709   0.775   1.358 -0.1762 -0.0563  1.1810
  701TIP3    H2 2110   2.703   0.888   1.257 -0.0970 -2.4483 -1.6462
  702TIP3   OH2 2111   0.549   3.892   1.250  0.2126 -0.4777  0.5202
  702TIP3    H1 2112   0.465   3.848   1.243 -1.0617  1.8929 -0.2163
  702TIP3    H2 2113   0.543   3.945   1.329  0.3760  0.8439 -0.3106
  703TIP3   OH2 2114   4.435   3.429   2.543 -0.0395  0.1520 -0.6642
  703TIP3    H1 2115   4.385   3.423   2.461  0.2562  1.9137 -1.0112
  703TIP3    H2 2116   4.390   3.496   2.594  1.3357  1.0548 -0.5630
  704TIP3   OH2 2117   5.363   2.327   2.722  0.5596  0.2277 -0.6020
  704TIP3    H1 2118   5.328   2.400   2.671  2.5746  0.8191 -1.1956
  704TIP3    H2 2119   5.300   2.317   2.795 -0.5528  1.5404 -1.3368
  705TIP3   OH2 2120   5.290   5.604   1.587  0.5596  0.2465 -0.3305
  705TIP3    H1 2121   5.232   5.652   1.646  1.3686  1.1783 -0.2631
  705TIP3    H2 2122   5.248   5.518   1.576  0.3808  0.0343  1.6121
  706TIP3   OH2 2123   6.034   1.094   4.925  0.4389  0.6254 -0.2469
  706TIP3    H1 2124   5.993   1.170   4.886 -1.7019 -0.7037 -0.7540
  706TIP3    H2 2125   5.962   1.044   4.964  1.8681 -0.6815  0.9059
  707TIP3   OH2 2126   4.274   0.599   0.338 -0.0109 -0.6925 -0.1727
  707TIP3    H1 2127   4.300   0.533   0.402  2.7331  0.1100 -0.3380
  707TIP3    H2 2128   4.267   0.680   0.388 -0.1558 -0.4947 -0.5087
  708TIP3   OH2 2129   1.586   2.099   2.723 -0.2916 -0.2726 -0.0994
  708TIP3    H1 2130   1.553   2.140   2.804  1.4296 -0.2101  0.6164
  708TIP3    H2 2131   1.625   2.017   2.752  4.0821  1.5374 -0.0489
  709TIP3   OH2 2132   1.333   5.456   4.287  0.3213  0.1103 -0.3334
  709TIP3    H1 2133   1.386   5.434   4.211  0.1093  1.0115 -0.7565
  709TIP3    H2 2134   1.305   5.546   4.272 -2.1631 -0.6434 -0.6037
  710TIP3   OH2 2135   3.822   1.710   3.055 -0.3179 -0.1035 -0.3629
  710TIP3    H1 2136   3.760   1.646   3.089 -0.1108 -0.6339 -0.9639
  710TIP3    H2 2137   3.878   1.660   2.996 -0.2935  0.6745 -1.0172
  711TIP3   OH2 2138   1.577   3.758   4.395 -0.2770  0.0455  0.3466
  711TIP3    H1 2139   1.607   3.736   4.307  1.5612  0.8748  0.7070
  711TIP3    H2 2140   1.482   3.762   4.388 -0.6308 -4.4375 -0.5341
  712TIP3   OH2 2141   1.015   0.370   0.099 -0.0636  0.1094 -0.4887
  712TIP3    H1 2142   1.040   0.427   0.028 -0.6310 -0.1124 -0.8734
  712TIP3    H2 2143   1.019   0.425   0.177 -0.5551  0.6644 -0.8458
  713TIP3   OH2 2144   3.640   1.118   0.393  0.2549 -0.6700 -0.7323
  713TIP3    H1 2145   3.696   1.065   0.448 -0.0283  0.6387  0.8946
  713TIP3    H2 2146   3.700   1.163   0.333  0.7719 -0.6242 -0.1872
  714TIP3   OH2 2147   5.748   3.501   3.490 -0.1041  0.5390 -0.3320
  714TIP3    H1 2148   5.735   3.594   3.505  0.0299  0.4148  0.6568
  714TIP3    H2 2149   5.826   3.479   3.542 -1.5063 -0.5787  1.4402
  715TIP3   OH2 2150   5.334   1.693   3.677 -0.3092 -0.4780 -0.6676
  715TIP3    H1 2151   5.404   1.659   3.621 -0.5446 -2.4135  0.1143
  715TIP3    H2 2152   5.253   1.672   3.629 -0.4224  0.1690 -0.7666
  716TIP3   OH2 2153   3.180   5.578   4.419  0.2455 -0.2476  0.0365
  716TIP3    H1 2154   3.196   5.494   4.377  1.1911  0.4854 -1.1308
  716TIP3    H2 2155   3.102   5.612   4.375 -1.3324 -1.3061  1.8311
  717TIP3   OH2 2156   1.325   1.697   4.555  0.5659 -0.0525  0.2232
  717TIP3    H1 2157   1.276   1.701   4.473  2.9308 -0.2978 -1.2984
  717TIP3    H2 2158   1.383   1.773   4.552  1.7113 -0.8720  0.9800
  718TIP3   OH2 2159   3.891   3.045   0.593 -0.3103 -0.1020  0.2062
  718TIP3    H1 2160   3.954   3.004   0.652 -0.3604  0.2209  0.4837
  718TIP3    H2 2161   3.880   2.981   0.522  0.5377 -0.0487  0.0085
  719TIP3   OH2 2162   4.713   3.481   2.943 -0.1307  0.1543 -0.4644
  719TIP3    H1 2163   4.800   3.467   2.980  0.1306  2.5777 -0.0213
  719TIP3    H2 2164   4.725   3.549   2.877 -1.6084  0.2502 -0.6795
  720TIP3   OH2 2165   4.970   5.162   0.668  0.0062  0.2629  0.7532
  720TIP3    H1 2166   4.967   5.121   0.754 -1.0594  0.0690  0.6421
  720TIP3    H2 2167   4.953   5.255   0.685  2.1073  0.6497  0.9722
  721TIP3   OH2 2168   0.129   2.019   1.850 -0.4305  0.0033 -0.0918
  721TIP3    H1 2169   0.151   2.018   1.757 -0.3039 -0.0200 -0.0609
  721TIP3    H2 2170   0.163   1.936   1.884  2.8883  1.5383  0.7747
  722TIP3   OH2 2171   3.921   5.778   2.742  0.0113 -0.3129  0.4079
  722TIP3    H1 2172   3.923   5.707   2.806  0.3449 -1.3944 -0.7641
  722TIP3    H2 2173   3.865   5.845   2.783 -0.7334 -1.4497  1.3274
  723TIP3   OH2 2174   4.790   2.370   0.187  0.5117  0.4830 -0.0510
  723TIP3    H1 2175   4.867   2.426   0.180  1.0104 -0.3555 -1.8329
  723TIP3    H2 2176   4.816   2.300   0.248  0.9454  0.5555 -0.1501
  724TIP3   OH2 2177   1.814   5.283   0.265 -0.5787  0.0725 -0.6262
  724TIP3    H1 2178   1.722   5.260   0.253 -0.1440 -1.2072 -1.7002
  724TIP3    H2 2179   1.817   5.377   0.247 -1.8138  0.3140  0.3295
  725TIP3   OH2 2180   4.104   2.508   4.199 -0.0411  0.4487  0.0744
  725TIP3    H1 2181   4.169   2.529   4.132  0.3072 -1.0099 -0.0714
  725TIP3    H2 2182   4.036   2.575   4.188  0.4163  0.7366 -1.1655
  726TIP3   OH2 2183   0.850   3.902   4.207  0.1270 -0.4829  0.5331
  726TIP3    H1 2184   0.914   3.867   4.146  0.7540 -0.5161  1.2018
  726TIP3    H2 2185   0.859   3.997   4.200 -0.1139 -0.4806  0.2488
  727TIP3   OH2 2186   4.822   1.625   3.229 -0.3596 -0.1578 -0.0915
  727TIP3    H1 2187   4.789   1.599   3.143 -0.7404  2.0789 -0.6877
  727TIP3    H2 2188   4.899   1.678   3.210 -0.0961 -0.1327  0.9877
  728TIP3   OH2 2189   4.422   5.695   2.985 -0.4623 -0.0697  0.6921
  728TIP3    H1 2190   4.374   5.620   2.950  0.0088  0.3450 -0.9133
  728TIP3    H2 2191   4.355   5.747   3.029 -1.7394  0.8857 -2.1561
  729TIP3   OH2 2192   4.477   2.230   2.714  0.3740  0.0926 -0.7311
  729TIP3    H1 2193   4.398   2.267   2.754  0.4674  0.2395 -0.6821
  729TIP3    H2 2194   4.520   2.304   2.673  0.5616  0.0367 -0.6340
  730TIP3   OH2 2195   2.732   0.812   3.797 -0.1328  0.0018  0.1900
  730TIP3    H1 2196   2.790   0.867   3.849 -0.4019 -0.3029  0.8216
  730TIP3    H2 2197   2.709   0.866   3.722  0.1722  0.4900  0.4422
  731TIP3   OH2 2198   0.856   4.269   0.223 -0.3454  0.2790  0.0238
  731TIP3    H1 2199   0.853   4.202   0.154  0.5543 -0.7093  0.8986
  731TIP3    H2 2200   0.944   4.306   0.216 -0.9906  1.7198 -0.7455
  732TIP3   OH2 2201   4.221   4.168   0.469 -0.1552  0.4249  0.3181
  732TIP3    H1 2202   4.220   4.117   0.388  0.4882  0.0896  0.5169
  732TIP3    H2 2203   4.149   4.132   0.520  1.4090 -1.5858  1.2348
  733TIP3   OH2 2204   1.090   2.917   3.029  0.4418 -0.3066  0.2215
  733TIP3    H1 2205   1.114   2.997   2.982  1.7219 -0.7582  0.0692
  733TIP3    H2 2206   1.017   2.881   2.979  0.3480  0.3745 -0.1428
  734TIP3   OH2 2207   3.670   2.248   0.486 -0.3852 -0.0160 -0.2383
  734TIP3    H1 2208   3.575   2.251   0.495 -0.4275 -1.4155 -0.0448
  734TIP3    H2 2209   3.699   2.185   0.552  0.8146  1.2830  0.5528
  735TIP3   OH2 2210   0.013   0.800   3.093 -0.7053 -0.3254  0.2095
  735TIP3    H1 2211  -0.011   0.722   3.043  0.5287  0.3959 -1.6168
  735TIP3    H2 2212   0.095   0.777   3.136 -0.3735 -0.0541 -0.2786
  736TIP3   OH2 2213   4.075   0.037   4.284  0.0861  0.4773  0.0574
  736TIP3    H1 2214   4.067   0.109   4.223 -1.6640 -0.5895 -1.0465
  736TIP3    H2 2215   4.127  -0.029   4.237 -1.4543 -0.4363 -0.4364
  737TIP3   OH2 2216   3.654   1.573   2.755 -0.0556 -0.3931  0.0549
  737TIP3    H1 2217   3.722   1.564   2.822 -1.0352 -1.4981  0.9528
  737TIP3    H2 2218   3.588   1.629   2.795 -0.5548 -0.8893 -0.0632
  738TIP3   OH2 2219   5.022   3.365   4.358 -0.3102 -0.3481  0.4447
  738TIP3    H1 2220   4.996   3.392   4.446 -0.3164  0.3587  0.2327
  738TIP3    H2 2221   5.036   3.447   4.311 -1.3876 -0.7030 -0.5352
  739TIP3   OH2 2222   0.174   1.849   2.709 -0.1033 -0.4659 -0.3922
  739TIP3    H1 2223   0.122   1.784   2.756 -1.2278  0.7568  0.1001
  739TIP3    H2 2224   0.142   1.933   2.740  0.8659  0.3489 -1.5043
  740TIP3   OH2 2225   2.894   4.727   0.648  0.4187  0.7047  0.3130
  740TIP3    H1 2226   2.931   4.726   0.736 -1.9686  2.7034  1.4964
  740TIP3    H2 2227   2.864   4.818   0.637 -2.1081 -0.2223 -1.2814
  741TIP3   OH2 2228   2.328   1.170   1.328 -0.0514 -0.5041 -0.0646
  741TIP3    H1 2229   2.414   1.148   1.291 -0.1244 -1.1130  0.1205
  741TIP3    H2 2230   2.311   1.102   1.392 -1.1997 -1.0859 -0.9399
  742TIP3   OH2 2231   0.431   3.398   3.084 -0.3938 -0.5182 -0.0295
  742TIP3    H1 2232   0.493   3.330   3.058 -0.1597 -0.0584 -0.7006
  742TIP3    H2 2233   0.466   3.433   3.167  1.2346  0.9209 -1.2476
  743TIP3   OH2 2234   5.711   3.778   3.280 -0.0768  0.1503 -0.1804
  743TIP3    H1 2235   5.782   3.716   3.262 -0.7006 -0.7925  0.4782
  743TIP3    H2 2236   5.640   3.749   3.223 -0.5682 -0.1157  0.5538
  744TIP3   OH2 2237   5.409   1.500   2.875  0.5932 -0.2310 -0.3016
  744TIP3    H1 2238   5.382   1.523   2.786  0.7559 -0.3442 -0.3810
  744TIP3    H2 2239   5.328   1.495   2.924  0.5686  0.6648 -0.2469
  745TIP3   OH2 2240   5.954   4.337   0.462 -0.4594 -0.3564 -0.3431
  745TIP3    H1 2241   6.036   4.325   0.413 -0.6080  0.1276 -0.7183
  745TIP3    H2 2242   5.931   4.249   0.491 -0.2632 -0.6225 -0.9779
  746TIP3   OH2 2243   4.680   4.828   2.253 -0.8122 -0.2387  0.0061
  746TIP3    H1 2244   4.720   4.914   2.258 -1.4872  0.1827 -1.4244
  746TIP3    H2 2245   4.754   4.767   2.264 -0.3517  0.4982  1.1485
  747TIP3   OH2 2246   2.277   0.916   2.248 -0.0514  0.2594  0.3902
  747TIP3    H1 2247   2.190   0.877   2.237  0.5447 -1.1303  0.5187
  747TIP3    H2 2248   2.321   0.898   2.165  0.4567  0.0749  0.7008
  748TIP3   OH2 2249   4.046   3.447   4.181 -0.1258  0.0435  0.5637
  748TIP3    H1 2250   4.099   3.383   4.134 -2.1569 -1.0920 -0.3121
  748TIP3    H2 2251   4.054   3.423   4.273  1.8843  0.7440  0.6283
  749TIP3   OH2 2252   3.330   0.898   0.382  0.1704 -0.1167  0.3608
  749TIP3    H1 2253   3.340   0.840   0.306  1.3471 -1.1996  1.2841
  749TIP3    H2 2254   3.419   0.928   0.400 -0.3394  1.5090  0.3005
  750TIP3   OH2 2255   5.138   3.817   2.484 -0.3809  0.2187 -0.1907
  750TIP3    H1 2256   5.181   3.732   2.482 -0.0844  0.3445  0.4820
  750TIP3    H2 2257   5.210   3.879   2.498 -1.0012  0.1715  4.6733
  751TIP3   OH2 2258   4.422   0.089   5.216  0.0657  0.1619  0.1439
  751TIP3    H1 2259   4.505   0.065   5.175 -0.2510  0.3902 -0.6409
  751TIP3    H2 2260   4.355   0.064   5.152 -0.4555  0.2712  0.6335
  752TIP3   OH2 2261   4.534   2.532   4.099 -0.4171  0.0413 -0.7321
  752TIP3    H1 2262   4.491   2.614   4.125 -0.3963  0.2860 -1.4423
  752TIP3    H2 2263   4.613   2.528   4.154 -0.7961  0.1200 -0.1685
  753TIP3   OH2 2264   5.060   4.367   1.779  0.6194 -0.3003  0.0368
  753TIP3    H1 2265   4.972   4.395   1.755  0.9012  0.6497  0.0697
  753TIP3    H2 2266   5.095   4.327   1.700  0.6924  0.6667 -0.4234
  754TIP3   OH2 2267   2.812   3.060   4.914 -0.0858  0.4867 -0.2200
  754TIP3    H1 2268   2.791   2.983   4.861 -1.3182  0.4433  0.2994
  754TIP3    H2 2269   2.809   3.030   5.004 -0.9999  1.2171  0.0120
  755TIP3   OH2 2270   6.144   1.171   2.335 -0.3603 -0.5915 -0.2275
  755TIP3    H1 2271   6.183   1.211   2.257 -0.7419 -2.2300 -1.3162
  755TIP3    H2 2272   6.082   1.237   2.367  0.0677  0.2598 -1.0919
  756TIP3   OH2 2273   2.349   4.861   2.503  0.4685  0.3170 -0.2906
  756TIP3    H1 2274   2.348   4.957   2.507 -1.1588  0.3009  0.6879
  756TIP3    H2 2275   2.381   4.834   2.589 -2.8977  0.0460  1.0538
  757TIP3   OH2 2276   0.642   2.620   2.908  0.5325  0.3042  0.2918
  757TIP3    H1 2277   0.621   2.560   2.837 -1.2328 -0.9982  1.8159
  757TIP3    H2 2278   0.558   2.644   2.946  1.3532  1.8601  1.2643
  758TIP3   OH2 2279   0.485   5.180   5.159  0.0525 -0.0999  0.4707
  758TIP3    H1 2280   0.470   5.194   5.065 -1.1760  1.2982  0.8343
  758TIP3    H2 2281   0.484   5.268   5.196  0.2205 -0.6599  1.8431
  759TIP3   OH2 2282   4.347   0.185   0.570  0.0370  0.1215  0.1231
  759TIP3    H1 2283   4.418   0.218   0.624  0.9953 -1.4433 -0.1153
  759TIP3    H2 2284   4.357   0.229   0.486  0.1741  0.5577  0.3656
  760TIP3   OH2 2285   1.714   1.862   2.784  0.1195  0.5114  0.3527
  760TIP3    H1 2286   1.802   1.898   2.799  0.8600 -1.3985  0.9502
  760TIP3    H2 2287   1.685   1.834   2.871 -0.5958  0.1000 -0.0111
  761TIP3   OH2 2288   3.454   1.193   2.575 -0.3801  0.1676  0.2672
  761TIP3    H1 2289   3.514   1.158   2.509 -1.6637  0.0191 -0.8772
  761TIP3    H2 2290   3.506   1.198   2.654  1.1603  0.1356 -0.6983
  762TIP3   OH2 2291   4.066   4.339   1.568 -0.4542  0.2798 -0.7364
  762TIP3    H1 2292   4.050   4.367   1.478 -0.7186 -1.9535 -1.4602
  762TIP3    H2 2293   3.981   4.351   1.612 -0.1425  2.0488 -0.5322
  763TIP3   OH2 2294   3.914   0.401   1.177  0.6919  0.0568 -0.3193
  763TIP3    H1 2295   3.874   0.376   1.093 -0.8171  1.8260 -0.1791
  763TIP3    H2 2296   3.896   0.495   1.185  3.2375  0.5371  0.6999
  764TIP3   OH2 2297   1.146   1.203   3.675 -0.0866 -0.5432  0.2935
  764TIP3    H1 2298   1.061   1.247   3.674  0.5013  0.6350 -0.8919
  764TIP3    H2 2299   1.170   1.200   3.768 -1.4229 -0.9240  0.6421
  765TIP3   OH2 2300   1.279   3.010   0.718  0.7671  0.1627  0.0405
  765TIP3    H1 2301   1.285   2.968   0.632  0.8341  1.2597 -0.5024
  765TIP3    H2 2302   1.265   3.103   0.699  0.5994  0.3943  1.2177
  766TIP3   OH2 2303   4.139   2.613   5.152 -0.0507  0.0693 -0.1787
  766TIP3    H1 2304   4.126   2.574   5.239  0.7167  0.3240  0.0673
  766TIP3    H2 2305   4.217   2.668   5.163 -0.0566  0.2460 -0.9863
  767TIP3   OH2 2306   5.823   2.897   2.555 -0.1625  0.4244 -0.3675
  767TIP3    H1 2307   5.866   2.815   2.530  1.1769  1.0956 -0.3664
  767TIP3    H2 2308   5.749   2.870   2.609  2.2677 -0.7546  2.6568
  768TIP3   OH2 2309   2.491   4.883   3.966 -0.3207 -0.2009 -0.0964
  768TIP3    H1 2310   2.583   4.876   3.943 -0.3685 -1.0452 -0.0592
  768TIP3    H2 2311   2.488   4.949   4.035  0.0632  0.9294 -1.1363
  769TIP3   OH2 2312   3.791   3.239   1.640  0.4052 -0.0953  0.1091
  769TIP3    H1 2313   3.755   3.212   1.555  1.1271 -3.3537  0.7105
  769TIP3    H2 2314   3.737   3.192   1.704  2.0605 -0.4755  1.2694
  770TIP3   OH2 2315   2.068   5.756   1.633 -0.0044  0.2098  0.1511
  770TIP3    H1 2316   2.128   5.828   1.652 -0.2583  0.6341 -0.6388
  770TIP3    H2 2317   2.124   5.679   1.628  0.2317  0.2799  1.3409
  771TIP3   OH2 2318   1.128   0.572   5.033 -0.4208  0.4411  0.3450
  771TIP3    H1 2319   1.189   0.643   5.052 -0.5938  0.3419  1.3196
  771TIP3    H2 2320   1.085   0.554   5.117 -1.0044 -0.2252 -0.0853
  772TIP3   OH2 2321   2.092   1.483   1.593 -1.0306 -0.5923 -0.1653
  772TIP3    H1 2322   2.150   1.508   1.521 -3.5049 -2.0307 -2.8782
  772TIP3    H2 2323   2.084   1.388   1.584 -2.6426 -0.5973  1.0165
  773TIP3   OH2 2324   4.104   4.653   2.296 -0.9647 -0.1435 -0.6011
  773TIP3    H1 2325   4.140   4.614   2.376 -0.0583 -0.6265 -1.2194
  773TIP3    H2 2326   4.082   4.743   2.321  0.0710 -0.0305 -0.0179
  774TIP3   OH2 2327   1.504   1.302   4.932 -0.0053  0.2629 -0.1620
  774TIP3    H1 2328   1.503   1.317   4.838 -2.3053  0.7375 -0.1242
  774TIP3    H2 2329   1.509   1.389   4.971 -1.1680  0.2210  0.1193
  775TIP3   OH2 2330   3.165   5.031   1.776 -0.4670 -0.4504  0.0397
  775TIP3    H1 2331   3.238   5.087   1.804 -0.9326  0.1769  0.0130
  775TIP3    H2 2332   3.144   4.979   1.853 -2.0513  1.5887  1.0703
  776TIP3   OH2 2333   1.483   0.808   2.485  0.5208  0.4095  0.9765
  776TIP3    H1 2334   1.562   0.781   2.437 -0.3414 -1.4539  0.5176
  776TIP3    H2 2335   1.506   0.793   2.577  1.5483  2.2787  1.0673
  777TIP3   OH2 2336   1.664   4.492   4.782 -0.1104 -0.0932  0.3380
  777TIP3    H1 2337   1.613   4.452   4.853  0.4230  1.6143  1.7659
  777TIP3    H2 2338   1.681   4.581   4.813  2.6065 -0.1821 -0.6738
  778TIP3   OH2 2339   5.651   2.435   4.712  0.1945  0.4653  0.2006
  778TIP3    H1 2340   5.664   2.496   4.785  0.0125  0.2729  0.3920
  778TIP3    H2 2341   5.701   2.474   4.640 -0.1247  0.9701  0.2498
  779TIP3   OH2 2342   6.280   4.359   3.330 -0.3456  0.0808  0.1315
  779TIP3    H1 2343   6.307   4.431   3.386 -0.1389  1.5460 -1.7278
  779TIP3    H2 2344   6.187   4.346   3.350 -0.1938  0.3458  1.0156
  780TIP3   OH2 2345   3.636   4.681   0.132  0.2159  0.8066 -0.3444
  780TIP3    H1 2346   3.619   4.611   0.195 -1.8109  1.7755  0.2742
  780TIP3    H2 2347   3.550   4.702   0.096  0.8459  2.6403 -0.8720
  781TIP3   OH2 2348   0.606   0.772   1.883  0.1152  0.4580  0.1437
  781TIP3    H1 2349   0.558   0.692   1.865 -0.9844  1.1255  0.0423
  781TIP3    H2 2350   0.688   0.763   1.834 -0.2291 -0.3670 -0.2802
  782TIP3   OH2 2351   4.890   1.684   0.985 -0.1172  0.4130 -0.1011
  782TIP3    H1 2352   4.928   1.704   0.899  0.3498 -0.9340 -0.2318
  782TIP3    H2 2353   4.852   1.766   1.014  2.3297  1.6918 -0.2606
  783TIP3   OH2 2354   3.294   4.633   3.232  0.3955 -0.1116  0.0771
  783TIP3    H1 2355   3.279   4.621   3.139  0.9457  0.9383 -0.1608
  783TIP3    H2 2356   3.338   4.553   3.260  2.0953  0.3796 -1.0185
  784TIP3   OH2 2357   6.081   1.485   3.955 -0.2322 -0.1846 -0.0465
  784TIP3    H1 2358   6.142   1.497   4.028 -1.1861 -1.0594  0.9250
  784TIP3    H2 2359   6.050   1.395   3.964 -0.8144 -0.1163 -1.1895
  785TIP3   OH2 2360   0.190   0.654   3.910  0.7338 -0.3628  0.0373
  785TIP3    H1 2361   0.115   0.710   3.928  0.3154 -0.7130 -0.5680
  785TIP3    H2 2362   0.228   0.634   3.996  0.8937  0.8435  0.2581
  786TIP3   OH2 2363   2.514   2.334   0.504 -0.1039  0.4285 -0.1520
  786TIP3    H1 2364   2.430   2.290   0.490  0.0495  0.6064 -1.7929
  786TIP3    H2 2365   2.578   2.264   0.506 -0.4097  0.0784  3.0918
  787TIP3   OH2 2366   4.227   0.745   4.874  0.3933 -0.2155  0.1580
  787TIP3    H1 2367   4.290   0.749   4.946  1.1325 -1.6489 -0.3498
  787TIP3    H2 2368   4.157   0.689   4.907 -0.1052  0.5205  0.3532
  788TIP3   OH2 2369   5.162   1.318   2.936  0.1202  0.0712  0.5725
  788TIP3    H1 2370   5.211   1.259   2.879 -0.6829  0.0610 -0.1257
  788TIP3    H2 2371   5.203   1.308   3.022  0.0310 -1.4611  0.4620
  789TIP3   OH2 2372   3.532   5.343   5.036  0.6667  0.3127 -0.1560
  789TIP3    H1 2373   3.579   5.318   4.956  2.9984 -1.0294  1.5008
  789TIP3    H2 2374   3.450   5.294   5.032  0.5768  0.5296 -1.8305
  790TIP3   OH2 2375   6.034   0.285   0.817 -0.1327 -0.0227 -0.0019
  790TIP3    H1 2376   6.029   0.252   0.907 -0.4244  0.0744  0.0176
  790TIP3    H2 2377   6.100   0.354   0.820  0.5662 -0.6768 -0.0635
  791TIP3   OH2 2378   0.005   1.060   3.034 -0.0572  0.5177 -0.2382
  791TIP3    H1 2379   0.007   0.965   3.043 -1.0015  0.1955 -2.6701
  791TIP3    H2 2380   0.057   1.078   2.956 -0.7663  1.8773 -0.4337
  792TIP3   OH2 2381   1.112   3.739   0.503  0.5095 -0.2537  0.5346
  792TIP3    H1 2382   1.064   3.676   0.449 -0.1512 -0.8684  1.7756
  792TIP3    H2 2383   1.098   3.708   0.593  1.4610  0.8004  1.0705
  793TIP3   OH2 2384   3.251   3.766   2.552  0.0079 -0.0268 -0.2339
  793TIP3    H1 2385   3.343   3.742   2.550 -0.1234 -0.5850  0.0860
  793TIP3    H2 2386   3.218   3.730   2.634 -0.6634 -0.4720 -0.6816
  794TIP3   OH2 2387   4.584   2.783   1.880  0.3261  0.4516 -0.5594
  794TIP3    H1 2388   4.571   2.781   1.786 -1.5295 -0.7398 -0.3383
  794TIP3    H2 2389   4.496   2.790   1.916  1.0512  1.7935  1.0932
  795TIP3   OH2 2390   5.330   2.261   5.183  0.1213  0.5426 -0.1933
  795TIP3    H1 2391   5.258   2.279   5.243 -1.0804 -1.8200 -0.7884
  795TIP3    H2 2392   5.340   2.341   5.132 -0.4156  1.7641  1.5171
  796TIP3   OH2 2393   1.243   5.846   4.395 -0.3915 -0.4874 -0.5443
  796TIP3    H1 2394   1.312   5.810   4.339 -0.1726  0.4691 -0.9203
  796TIP3    H2 2395   1.164   5.842   4.341 -0.8582 -2.4267  0.2101
  797TIP3   OH2 2396   0.731   1.783   1.986  0.1211  0.2975  0.0528
  797TIP3    H1 2397   0.793   1.798   1.914 -0.2747  0.6770 -0.2161
  797TIP3    H2 2398   0.734   1.689   2.001  1.2552  0.3882  0.4864
  798TIP3   OH2 2399   5.069   3.008  -0.010 -0.1719  0.2255 -0.1308
  798TIP3    H1 2400   5.005   2.972   0.051  0.3239 -0.0673  0.2192
  798TIP3    H2 2401   5.036   3.096  -0.031 -1.2501 -0.3194 -0.7872
  799TIP3   OH2 2402   4.264   5.372   3.830  0.0636 -0.2808 -0.1312
  799TIP3    H1 2403   4.175   5.349   3.858  0.3122 -0.9731  0.0982
  799TIP3    H2 2404   4.309   5.396   3.911  0.1256 -0.0401 -0.2339
  800TIP3   OH2 2405   2.778   5.865   4.295 -0.2084  0.3919 -0.1210
  800TIP3    H1 2406   2.817   5.780   4.277  2.1869  1.3223  0.2684
  800TIP3    H2 2407   2.822   5.895   4.375 -1.0840  1.9536 -0.1784
  801TIP3   OH2 2408   1.018   0.481   4.590  0.2111  0.4126  0.0631
  801TIP3    H1 2409   1.099   0.517   4.553  0.7436 -1.4090 -0.6378
  801TIP3    H2 2410   0.950   0.508   4.529  0.5250  0.6276 -0.1940
  802TIP3   OH2 2411   5.841   2.594   0.417 -0.5248 -0.0924 -0.1792
  802TIP3    H1 2412   5.886   2.584   0.333  0.8685  0.1786  0.5078
  802TIP3    H2 2413   5.766   2.650   0.398 -1.3876 -1.6327 -1.6200
  803TIP3   OH2 2414   3.867   3.005   2.036  0.1956 -0.1704 -0.3050
  803TIP3    H1 2415   3.933   3.027   1.971  1.7321 -0.8293  0.9600
  803TIP3    H2 2416   3.902   3.038   2.119 -1.0879 -0.4927  0.4086
  804TIP3   OH2 2417   1.095   3.270   4.093  0.2382  0.2855  0.2544
  804TIP3    H1 2418   1.039   3.232   4.161  0.6414  0.9712  0.9864
  804TIP3    H2 2419   1.082   3.213   4.017 -0.6676 -0.1597  0.7200
  805TIP3   OH2 2420   1.177   4.792   0.538  0.0332  0.1195 -0.1907
  805TIP3    H1 2421   1.256   4.816   0.489  0.1342 -1.0081 -0.6017
  805TIP3    H2 2422   1.105   4.816   0.479  0.1164 -0.1277 -0.3953
  806TIP3   OH2 2423   2.906   4.371   2.123 -0.3168  0.4077 -0.1037
  806TIP3    H1 2424   2.978   4.379   2.061 -0.0728 -1.5559 -0.1609
  806TIP3    H2 2425   2.909   4.451   2.175  1.5061  0.6475 -0.5322
  807TIP3   OH2 2426   3.608   5.456   3.223  0.2415 -0.0523  0.0880
  807TIP3    H1 2427   3.548   5.405   3.170 -0.4492 -1.6304  2.2359
  807TIP3    H2 2428   3.695   5.432   3.191 -0.1399 -1.3605 -0.0194
  808TIP3   OH2 2429   2.782   5.589   0.159  0.1762  0.3092 -0.1605
  808TIP3    H1 2430   2.776   5.667   0.104  1.6111  0.2889 -0.3771
  808TIP3    H2 2431   2.746   5.519   0.104  0.0620  0.5797 -0.4363
  809TIP3   OH2 2432   5.349   5.934   4.743  0.2898 -0.2359  0.0939
  809TIP3    H1 2433   5.318   6.019   4.712  1.8741  1.1826  2.0477
  809TIP3    H2 2434   5.272   5.892   4.781 -0.7472 -0.2067 -1.8853
  810TIP3   OH2 2435   0.371   1.792   1.358 -0.0218 -0.3985  0.0707
  810TIP3    H1 2436   0.433   1.733   1.315 -0.7639 -2.7656  1.9852
  810TIP3    H2 2437   0.421   1.831   1.430  0.3606  1.1041 -0.9650
  811TIP3   OH2 2438   2.188   3.317   0.561  0.5016  0.1247 -0.4092
  811TIP3    H1 2439   2.162   3.231   0.528 -0.8020  0.2670  0.2235
  811TIP3    H2 2440   2.109   3.370   0.556  0.9173  0.8703  0.5987
  812TIP3   OH2 2441   3.115   5.416   5.149 -0.6037  0.2982 -0.4883
  812TIP3    H1 2442   3.040   5.385   5.198  1.2035 -0.8692  1.7040
  812TIP3    H2 2443   3.171   5.339   5.138  0.5442  1.2274 -1.5575
  813TIP3   OH2 2444   3.497   0.552   2.238 -0.3691  0.0525  0.4538
  813TIP3    H1 2445   3.548   0.628   2.265 -0.3840  0.3515 -0.3623
  813TIP3    H2 2446   3.558   0.479   2.245  0.8285  0.6495 -2.3608
  814TIP3   OH2 2447   4.081   4.806   3.356 -0.3728  0.4168  0.2617
  814TIP3    H1 2448   4.108   4.896   3.337 -2.3118  1.4835  2.1576
  814TIP3    H2 2449   4.116   4.788   3.443  1.8857 -1.5614 -0.9599
  815TIP3   OH2 2450   2.075   1.675   0.213  0.6610  0.0052 -0.5021
  815TIP3    H1 2451   2.092   1.592   0.168  0.5905 -0.3589  0.1291
  815TIP3    H2 2452   2.075   1.740   0.143  1.8468 -0.3615 -0.8780
  816TIP3   OH2 2453   2.571   3.765   1.973 -0.3653 -0.4895 -0.3767
  816TIP3    H1 2454   2.640   3.799   1.915 -0.1381  0.2317  0.3007
  816TIP3    H2 2455   2.605   3.682   2.005  1.0718  0.7327  1.4473
  817TIP3   OH2 2456   1.181   1.728   1.828 -0.6122  0.2307  0.0887
  817TIP3    H1 2457   1.266   1.727   1.784  0.7823  0.9608  2.5801
  817TIP3    H2 2458   1.184   1.654   1.888 -1.7925  0.2409  0.1880
  818TIP3   OH2 2459   0.798   4.513   2.986  0.0361  0.5777 -0.1092
  818TIP3    H1 2460   0.796   4.467   2.902  0.3390  1.8709 -0.8412
  818TIP3    H2 2461   0.796   4.605   2.964  2.0679  1.0125  1.2165
  819TIP3   OH2 2462   1.013   4.596   0.637  0.2032 -0.3305  0.2355
  819TIP3    H1 2463   0.920   4.590   0.613  0.1345  1.1862 -0.0288
  819TIP3    H2 2464   1.038   4.685   0.612  1.1930 -0.0104  2.1397
  820TIP3   OH2 2465   3.760   3.379   0.815  0.0492  0.0578  0.1080
  820TIP3    H1 2466   3.831   3.364   0.877  0.2766  0.5510 -0.0262
  820TIP3    H2 2467   3.706   3.300   0.820  1.8249 -1.3802 -1.4386
  821TIP3   OH2 2468   1.200   0.359   4.317  0.5425 -0.4744  0.0341
  821TIP3    H1 2469   1.214   0.336   4.409  2.4367  1.7762  0.3947
  821TIP3    H2 2470   1.272   0.418   4.296 -1.0082  0.7308 -2.3109
  822TIP3   OH2 2471   3.200   5.041   1.151  0.5067 -0.1413 -0.1848
  822TIP3    H1 2472   3.237   5.078   1.231 -1.8349 -0.4039  1.1157
  822TIP3    H2 2473   3.136   4.976   1.182 -1.3069  0.5460 -2.2008
  823TIP3   OH2 2474   0.678   3.053   4.757 -0.0338  0.1603  0.3620
  823TIP3    H1 2475   0.765   3.049   4.718  0.2681  2.2497  0.7042
  823TIP3    H2 2476   0.618   3.047   4.683  0.3994 -0.4592  0.0471
  824TIP3   OH2 2477   1.358   3.219   0.124 -0.2573  0.0854  0.5546
  824TIP3    H1 2478   1.274   3.230   0.079 -0.1719  0.1617  0.4134
  824TIP3    H2 2479   1.348   3.138   0.174 -1.2845  1.3473  2.5061
  825TIP3   OH2 2480   3.400   4.644   3.563  0.0948 -0.7671  0.5709
  825TIP3    H1 2481   3.338   4.647   3.635 -1.0287 -1.3716 -0.3438
  825TIP3    H2 2482   3.418   4.551   3.550  1.2696 -0.5960  0.8735
  826TIP3   OH2 2483   1.392   3.038   3.792  0.6647 -0.7326  0.3068
  826TIP3    H1 2484   1.397   3.087   3.874 -0.6838  1.0399 -0.6065
  826TIP3    H2 2485   1.439   3.093   3.729 -0.4950 -0.8090 -0.6470
  827TIP3   OH2 2486   1.891   5.691   0.383 -0.1385 -0.6501 -0.7923
  827TIP3    H1 2487   1.971   5.655   0.421 -0.7903 -0.7292  0.5902
  827TIP3    H2 2488   1.909   5.697   0.289  2.1721  1.1504 -0.3106
  828TIP3   OH2 2489   4.026   4.080   0.645  0.2702  0.0168  0.0573
  828TIP3    H1 2490   4.047   4.067   0.738  1.5464  1.1668 -0.0323
  828TIP3    H2 2491   3.963   4.152   0.645 -1.5709 -1.5104  0.1343
  829TIP3   OH2 2492   2.951   5.200   4.960  0.1037 -0.0251  0.1138
  829TIP3    H1 2493   2.859   5.174   4.953 -0.0734  0.1740  1.5463
  829TIP3    H2 2494   2.966   5.253   4.882 -0.5488 -1.3502 -0.9589
  830TIP3   OH2 2495   4.874   4.852   3.257 -0.5301 -0.0530 -0.4095
  830TIP3    H1 2496   4.780   4.867   3.262 -0.5259 -0.4109  1.2888
  830TIP3    H2 2497   4.908   4.883   3.341  0.8710  0.0495 -0.9791
  831TIP3   OH2 2498   1.313   0.323   4.867  0.4412  0.1471  0.2879
  831TIP3    H1 2499   1.237   0.310   4.924 -0.4238  2.5100 -0.1964
  831TIP3    H2 2500   1.386   0.281   4.913 -0.8772 -0.9607  1.4426
  832TIP3   OH2 2501   5.933   5.673   4.104 -0.1194 -0.2293  0.6782
  832TIP3    H1 2502   5.930   5.669   4.008  1.1260  0.5144  0.5898
  832TIP3    H2 2503   5.865   5.612   4.132 -2.4314  1.5386 -0.6831
  833TIP3   OH2 2504   5.467   1.818   2.179 -0.0880 -0.1087  0.4314
  833TIP3    H1 2505   5.464   1.735   2.131  1.0675  0.2659 -0.3255
  833TIP3    H2 2506   5.495   1.793   2.267  0.8732 -0.4787  0.0355
  834TIP3   OH2 2507   5.385   2.923   1.792  0.1589  0.0428 -0.1512
  834TIP3    H1 2508   5.388   2.944   1.699 -1.4876  0.3297 -0.1694
  834TIP3    H2 2509   5.315   2.859   1.800 -0.9731  1.3497  1.0965
  835TIP3   OH2 2510   5.826   3.395   2.014 -0.2395  0.6367 -0.1439
  835TIP3    H1 2511   5.733   3.373   2.010 -0.3430  0.7912  1.1230
  835TIP3    H2 2512   5.865   3.327   2.069  0.5127  0.2295 -1.1579
  836TIP3   OH2 2513   4.160   5.647   4.874  0.1972 -0.2797  0.0802
  836TIP3    H1 2514   4.199   5.697   4.802 -1.7054  2.1480  0.5701
  836TIP3    H2 2515   4.076   5.616   4.838  0.1986 -0.8899  0.5997
  837TIP3   OH2 2516   3.077   4.135   4.706 -0.1673  0.4759  0.2769
  837TIP3    H1 2517   3.157   4.164   4.662 -1.7157  3.1618 -0.9991
  837TIP3    H2 2518   3.048   4.211   4.756 -1.6561 -0.6126  1.1375
  838TIP3   OH2 2519   3.762   0.612   1.634  0.0415 -0.4733 -0.2920
  838TIP3    H1 2520   3.778   0.706   1.624 -0.7834 -0.4753 -1.9440
  838TIP3    H2 2521   3.728   0.603   1.724  3.6391  0.2366  1.3192
  839TIP3   OH2 2522   6.093   5.654   3.087 -0.0249  0.6688  0.3926
  839TIP3    H1 2523   6.133   5.648   3.000  0.0992 -0.6563  0.5302
  839TIP3    H2 2524   6.115   5.743   3.117  0.6457  0.8471 -0.5744
  840TIP3   OH2 2525   4.397   0.280   4.279  0.3034  0.1543  0.4417
  840TIP3    H1 2526   4.467   0.215   4.271  1.5960  1.6784 -1.9905
  840TIP3    H2 2527   4.358   0.264   4.365  2.1740 -2.1914  0.9430
  841TIP3   OH2 2528   2.092   5.958   2.708 -0.1963 -0.3667 -0.2189
  841TIP3    H1 2529   2.104   5.895   2.780  3.3791  0.1917 -0.1749
  841TIP3    H2 2530   2.006   5.996   2.724  0.3301 -0.4439  3.6660
  842TIP3   OH2 2531   1.240   3.578   2.232  0.5676  0.2896  0.3160
  842TIP3    H1 2532   1.231   3.636   2.157  1.2647  0.5293  0.4099
  842TIP3    H2 2533   1.233   3.636   2.308  1.1711  0.2512  0.4116
  843TIP3   OH2 2534   3.350   5.822   0.794  0.1054  0.1718 -0.0147
  843TIP3    H1 2535   3.403   5.901   0.801 -0.5113  0.8843 -2.4621
  843TIP3    H2 2536   3.260   5.852   0.806 -0.2080  0.0294 -1.7889
  844TIP3   OH2 2537   1.643   5.773   0.894 -0.0757 -0.2865  0.4636
  844TIP3    H1 2538   1.598   5.829   0.957 -0.1628 -1.0443  1.0909
  844TIP3    H2 2539   1.692   5.834   0.837 -2.1649  0.5854 -0.4880
  845TIP3   OH2 2540   4.728   4.178   0.736 -0.2527 -0.1822  0.4322
  845TIP3    H1 2541   4.817   4.146   0.720  0.1114  1.9134 -2.5879
  845TIP3    H2 2542   4.675   4.134   0.669 -0.8296  0.9506  0.1221
  846TIP3   OH2 2543   2.199   3.951   0.448 -0.4870 -0.1941 -0.2175
  846TIP3    H1 2544   2.252   4.008   0.504  0.9757 -1.5242 -0.1838
  846TIP3    H2 2545   2.185   4.003   0.368  0.7174  0.2769 -0.1459
  847TIP3   OH2 2546   2.270   2.340   0.858 -0.3827  0.3720  0.3151
  847TIP3    H1 2547   2.203   2.319   0.793 -0.0227  1.8933 -0.5945
  847TIP3    H2 2548   2.283   2.259   0.906 -3.0020  0.0559  0.6480
  848TIP3   OH2 2549   2.892   3.538   2.077  0.0884  0.5877 -0.1135
  848TIP3    H1 2550   2.948   3.612   2.101 -0.0321  0.4620  0.5974
  848TIP3    H2 2551   2.815   3.549   2.133  0.0035  0.0108 -0.1190
  849TIP3   OH2 2552   2.469   4.013   3.839 -0.0720 -0.0150  0.7576
  849TIP3    H1 2553   2.430   3.946   3.895 -0.5045  0.9111  1.6090
  849TIP3    H2 2554   2.395   4.064   3.807  0.0555 -1.2864 -1.7558
  850TIP3   OH2 2555   4.291   0.653   0.898 -0.1928  0.2600 -0.1917
  850TIP3    H1 2556   4.310   0.727   0.956 -1.4325 -1.5127  2.7419
  850TIP3    H2 2557   4.211   0.680   0.852  0.3297  1.4018 -0.4590
  851TIP3   OH2 2558   1.761   5.805   4.163 -0.6736  0.8020 -0.6681
  851TIP3    H1 2559   1.785   5.714   4.183  0.5731  0.9772 -1.3321
  851TIP3    H2 2560   1.747   5.806   4.069  2.9764  2.0469 -1.3419
  852TIP3   OH2 2561   0.749   2.096   0.444  0.2141 -0.1243  0.0740
  852TIP3    H1 2562   0.732   2.104   0.538  2.6116  3.3389  0.4182
  852TIP3    H2 2563   0.785   2.008   0.434  0.9465 -0.2016  2.6354
  853TIP3   OH2 2564   0.917   2.225   4.571  0.5188 -0.1035  0.0027
  853TIP3    H1 2565   0.861   2.154   4.538 -1.5754  0.9960  0.9356
  853TIP3    H2 2566   0.899   2.226   4.665  0.9786  1.2585  0.0884
  854TIP3   OH2 2567   3.202   3.170   3.155 -0.0548  0.2413  0.1524
  854TIP3    H1 2568   3.187   3.220   3.234  0.5072  0.1790  0.3053
  854TIP3    H2 2569   3.216   3.236   3.087  0.1626  0.2987  0.2500
  855TIP3   OH2 2570   4.331   2.436   4.424  0.4919 -0.3481 -0.5790
  855TIP3    H1 2571   4.318   2.444   4.519  1.8709 -1.5066 -0.2699
  855TIP3    H2 2572   4.270   2.501   4.387  1.1084  1.3329  1.1563
  856TIP3   OH2 2573   1.308   0.504   3.944  0.2773 -0.0640 -0.0753
  856TIP3    H1 2574   1.385   0.532   3.895 -1.4167 -2.1374 -4.4722
  856TIP3    H2 2575   1.238   0.560   3.912 -0.9623 -1.6775 -0.3230
  857TIP3   OH2 2576   5.472   2.282   4.891 -0.0651 -0.2824  0.5543
  857TIP3    H1 2577   5.514   2.315   4.811 -0.7718 -1.8663 -0.5223
  857TIP3    H2 2578   5.538   2.294   4.959  0.6799  0.8255 -0.3062
  858TIP3   OH2 2579   2.035   2.341   0.708  0.1927 -0.3240  0.1290
  858TIP3    H1 2580   2.094   2.374   0.640 -0.9028  1.3873 -0.0449
  858TIP3    H2 2581   2.010   2.254   0.678  1.3989 -0.4564 -0.5619
  859TIP3   OH2 2582   2.208   3.619   4.348  0.7165 -0.2431 -0.2497
  859TIP3    H1 2583   2.286   3.563   4.343  1.0978  0.3418 -1.2396
  859TIP3    H2 2584   2.244   3.708   4.348  0.0421  0.0344 -0.9013
  860TIP3   OH2 2585   0.200   3.354   0.728 -0.0617 -0.0971  0.1086
  860TIP3    H1 2586   0.147   3.406   0.789 -0.2334  0.4488 -0.4988
  860TIP3    H2 2587   0.140   3.329   0.659  0.7603  1.8752 -1.4261
  861TIP3   OH2 2588   5.316   1.348   0.630  0.0249 -0.6489 -0.1978
  861TIP3    H1 2589   5.246   1.285   0.645 -1.1478  0.6963  0.1925
  861TIP3    H2 2590   5.280   1.410   0.567  0.6036  0.4242  0.4772
  862TIP3   OH2 2591   6.000   0.212   0.057  0.0301 -0.0260 -0.6757
  862TIP3    H1 2592   6.082   0.239   0.014 -0.2558 -0.5603 -1.5975
  862TIP3    H2 2593   5.944   0.182  -0.015 -1.8434  2.4084 -0.3751
  863TIP3   OH2 2594   5.333   0.496   1.482 -0.4215 -0.1612 -0.0753
  863TIP3    H1 2595   5.358   0.567   1.541 -1.1639  0.9812 -1.1062
  863TIP3    H2 2596   5.272   0.443   1.534 -1.1901  0.9167  0.1523
  864TIP3   OH2 2597   2.129   3.432   5.019 -0.7170  0.4391 -0.1037
  864TIP3    H1 2598   2.126   3.521   4.984  2.0725  0.2968 -0.8869
  864TIP3    H2 2599   2.199   3.433   5.083  1.3445 -1.7660 -2.1231
  865TIP3   OH2 2600   4.288   2.238   1.440 -0.1849  0.5643 -0.3638
  865TIP3    H1 2601   4.287   2.323   1.395  1.9382  0.8932  0.0777
  865TIP3    H2 2602   4.374   2.235   1.482 -0.5409 -1.4691  0.3110
  866TIP3   OH2 2603   0.816   4.979   0.880  0.4210 -0.0731 -0.1774
  866TIP3    H1 2604   0.874   4.964   0.955  0.3294  0.2497 -0.0429
  866TIP3    H2 2605   0.820   5.073   0.865 -0.3300  0.0001  0.0416
  867TIP3   OH2 2606   1.756   5.532   4.233 -0.2817 -0.8513 -0.5819
  867TIP3    H1 2607   1.796   5.445   4.244 -0.9665 -0.9811  1.1341
  867TIP3    H2 2608   1.712   5.549   4.316 -0.6748  0.8955 -1.1101
  868TIP3   OH2 2609   2.032   4.051   2.860 -0.5908  0.1842  0.0684
  868TIP3    H1 2610   1.983   4.117   2.909 -1.7723  0.1585 -1.0345
  868TIP3    H2 2611   1.979   3.972   2.865 -0.6969  0.1594 -1.1666
  869TIP3   OH2 2612   3.970   4.018   3.527 -0.1056  0.0834 -0.2715
  869TIP3    H1 2613   4.020   4.041   3.606 -1.6306  0.7437  0.5326
  869TIP3    H2 2614   3.985   4.091   3.467  0.0119  0.1988 -0.1033
  870TIP3   OH2 2615   4.474   2.719   4.624  0.2217 -0.2867 -0.3340
  870TIP3    H1 2616   4.420   2.644   4.651 -0.5647  0.2515 -0.3893
  870TIP3    H2 2617   4.534   2.683   4.558 -0.0453 -0.8980 -0.2522
  871TIP3   OH2 2618   3.009   2.076   4.916  0.1740 -0.5278  0.3504
  871TIP3    H1 2619   3.020   2.064   5.010  1.6476  0.7642  0.3827
  871TIP3    H2 2620   2.917   2.099   4.905  0.2373  0.4294  1.6345
  872TIP3   OH2 2621   3.448   3.396   0.383  0.2016  0.5424 -0.1544
  872TIP3    H1 2622   3.471   3.308   0.413  0.0059  0.3929 -0.4337
  872TIP3    H2 2623   3.505   3.454   0.433  0.3035  0.2598  0.0630
  873TIP3   OH2 2624   2.874   3.969   0.939  0.2084  0.6008  0.3771
  873TIP3    H1 2625   2.958   4.013   0.955 -0.9085  3.1058 -0.0516
  873TIP3    H2 2626   2.820   3.991   1.016 -0.0633 -1.0235  0.6802
  874TIP3   OH2 2627   3.954   5.368   4.952  0.4493  0.0136  0.4302
  874TIP3    H1 2628   3.903   5.449   4.944  0.8007  0.1987  0.0490
  874TIP3    H2 2629   4.009   5.366   4.874  0.8399 -0.3167  0.7109
  875TIP3   OH2 2630   3.078   0.835   4.813  0.5468 -0.0139  0.2830
  875TIP3    H1 2631   2.985   0.829   4.793  0.0448  1.9720  1.6948
  875TIP3    H2 2632   3.117   0.872   4.734 -0.4125  2.0887  0.7323
  876TIP3   OH2 2633   4.974   3.308   1.287  0.5939  0.1486 -0.3254
  876TIP3    H1 2634   4.919   3.306   1.208  0.9538 -0.1394 -0.5693
  876TIP3    H2 2635   5.041   3.242   1.271 -0.5740 -1.4922  1.1275
  877TIP3   OH2 2636   0.575   3.481   2.229  0.1634  0.3650 -0.0284
  877TIP3    H1 2637   0.620   3.565   2.241  2.3198 -0.8660  1.2030
  877TIP3    H2 2638   0.493   3.490   2.278  0.0114  1.9772 -0.5299
  878TIP3   OH2 2639   2.131   1.615   4.385  0.3146  0.2000  0.0907
  878TIP3    H1 2640   2.054   1.631   4.330  0.7982 -0.2061 -0.7067
  878TIP3    H2 2641   2.204   1.608   4.324  1.2917  2.1813  0.9279
  879TIP3   OH2 2642   0.384   5.741   1.939 -0.2252  0.5097 -0.7867
  879TIP3    H1 2643   0.374   5.828   1.978  0.1423  0.4555 -0.5705
  879TIP3    H2 2644   0.468   5.709   1.972 -1.2924 -0.7816  0.8322
  880TIP3   OH2 2645   4.158   5.905   3.686 -0.0527 -0.3431 -0.2751
  880TIP3    H1 2646   4.176   5.861   3.769  1.2540 -0.0108 -0.3686
  880TIP3    H2 2647   4.237   5.892   3.633  1.2647  3.6036  0.3655
  881TIP3   OH2 2648   4.317   1.596   4.283 -0.3928  0.1229  0.2193
  881TIP3    H1 2649   4.374   1.524   4.256 -0.7079 -1.0310  2.3940
  881TIP3    H2 2650   4.371   1.650   4.341 -1.0851 -0.2379  1.2336
  882TIP3   OH2 2651   1.893   1.688   1.622  0.1257  0.1438 -0.0711
  882TIP3    H1 2652   1.964   1.629   1.649  0.2110  0.9379  1.5763
  882TIP3    H2 2653   1.890   1.681   1.527  1.6185 -0.8149 -0.0728
  883TIP3   OH2 2654   0.047   1.309   3.558 -0.0588  0.1977 -0.0467
  883TIP3    H1 2655   0.131   1.354   3.549 -0.4762  0.9691 -0.0981
  883TIP3    H2 2656  -0.006   1.366   3.613 -1.2886  0.7644 -1.7524
  884TIP3   OH2 2657   0.057   1.804   3.988 -0.2242 -0.2368 -0.1366
  884TIP3    H1 2658   0.085   1.713   3.977  1.9806  0.5737 -2.1645
  884TIP3    H2 2659   0.009   1.824   3.907  1.5216  1.0676 -0.9176
  885TIP3   OH2 2660   2.348   0.800   2.693 -0.1761  0.4184 -0.3275
  885TIP3    H1 2661   2.358   0.887   2.654 -0.4973  0.7074  0.2235
  885TIP3    H2 2662   2.278   0.810   2.757  2.2540  0.7045  2.5017
  886TIP3   OH2 2663   5.716   2.537   1.798  0.2186 -0.2700  0.5200
  886TIP3    H1 2664   5.690   2.614   1.747 -0.3444 -0.0558  1.1130
  886TIP3    H2 2665   5.797   2.564   1.842  0.0677 -0.0425  0.6604
  887TIP3   OH2 2666   5.824   4.926   4.852 -0.3159  0.0455 -0.1447
  887TIP3    H1 2667   5.738   4.941   4.814 -0.4392  1.1567  0.5128
  887TIP3    H2 2668   5.827   4.985   4.928  0.2227 -1.4877  1.0740
  888TIP3   OH2 2669   2.896   4.110   3.285  1.1845  0.5863  0.2085
  888TIP3    H1 2670   2.884   4.033   3.230  1.1975  0.6798  0.0734
  888TIP3    H2 2671   2.812   4.122   3.328  1.2894  0.2901  0.4974
  889TIP3   OH2 2672   2.589   4.991   3.421 -0.7353 -0.1315 -0.4092
  889TIP3    H1 2673   2.629   4.973   3.506  1.5702  0.4477 -1.2641
  889TIP3    H2 2674   2.547   5.076   3.432  0.8869  0.6984 -0.1839
  890TIP3   OH2 2675   5.715   1.659   4.411 -0.4776 -0.1548  0.3183
  890TIP3    H1 2676   5.750   1.730   4.464 -2.2792  0.0781  1.2609
  890TIP3    H2 2677   5.706   1.586   4.472 -0.6295 -0.5343 -0.1515
  891TIP3   OH2 2678   0.658   3.006   4.160 -0.2685  0.5506  0.4252
  891TIP3    H1 2679   0.592   3.076   4.166 -1.5877 -0.6233  0.2037
  891TIP3    H2 2680   0.623   2.936   4.216  1.3063  0.2711  1.0957
  892TIP3   OH2 2681   3.606   2.941   2.158 -0.2584 -0.1774 -0.2970
  892TIP3    H1 2682   3.684   2.913   2.111 -0.2768  1.2864 -1.2656
  892TIP3    H2 2683   3.548   2.975   2.090  0.2544  3.2814  0.7626
  893TIP3   OH2 2684   4.435   4.464   0.133 -0.2649 -0.5537 -0.6037
  893TIP3    H1 2685   4.350   4.509   0.137  1.9452  4.1320  0.1888
  893TIP3    H2 2686   4.466   4.464   0.223  0.8232 -1.7698 -0.9549
  894TIP3   OH2 2687   5.008   3.566   2.623 -0.6374 -0.0121 -0.6921
  894TIP3    H1 2688   4.946   3.495   2.606  1.2197 -1.1516 -3.4160
  894TIP3    H2 2689   5.076   3.525   2.677 -0.2762  0.1010 -1.0640
  895TIP3   OH2 2690   6.171   4.623   1.786 -0.2209 -0.0093 -0.0324
  895TIP3    H1 2691   6.266   4.610   1.787 -0.5398 -2.7949 -0.2094
  895TIP3    H2 2692   6.161   4.718   1.795  2.5118  0.2227  2.1634
  896TIP3   OH2 2693   2.483   0.931   1.628 -0.0461 -0.4526  0.0116
  896TIP3    H1 2694   2.411   0.891   1.677 -0.0219 -1.7458 -0.9592
  896TIP3    H2 2695   2.477   0.892   1.541  1.5830 -0.2680 -0.2100
  897TIP3   OH2 2696   0.147   5.070   4.674  0.2622  0.2236 -0.3808
  897TIP3    H1 2697   0.206   4.998   4.649  1.1990  0.6481  0.5500
  897TIP3    H2 2698   0.060   5.038   4.651  0.7385 -0.8796 -0.7391
  898TIP3   OH2 2699   2.351   2.631   2.480  0.6188  0.6124  0.0144
  898TIP3    H1 2700   2.325   2.569   2.412  1.7713  1.4653 -1.2534
  898TIP3    H2 2701   2.387   2.576   2.550 -1.6157 -0.3541  0.4748
  899TIP3   OH2 2702   0.213   3.158   4.558  0.3922 -0.4691  0.1381
  899TIP3    H1 2703   0.280   3.215   4.596  0.8199 -1.3826  0.7871
  899TIP3    H2 2704   0.242   3.144   4.468  0.8312 -0.4784  0.2776
  900TIP3   OH2 2705   1.732   2.109   1.390  0.0335 -0.2038 -0.0264
  900TIP3    H1 2706   1.793   2.094   1.318  2.0113 -0.8532  1.6951
  900TIP3    H2 2707   1.788   2.133   1.464 -2.0455  2.5797  0.8106
  901TIP3   OH2 2708   1.190   0.212   2.813 -0.1933  0.5281 -0.3723
  901TIP3    H1 2709   1.266   0.153   2.819 -1.2082 -0.7130  0.8564
  901TIP3    H2 2710   1.208   0.280   2.878 -0.0717  0.3081 -0.1726
  902TIP3   OH2 2711   6.142   4.228   5.110  0.3846 -0.1618  0.3174
  902TIP3    H1 2712   6.084   4.193   5.043  2.5704 -0.8195 -1.3455
  902TIP3    H2 2713   6.207   4.279   5.062  1.8351 -0.3580  1.9523
  903TIP3   OH2 2714   4.255   4.956   1.370 -0.3775  0.1583 -0.3322
  903TIP3    H1 2715   4.255   5.052   1.377 -3.6496  0.2085  0.9549
  903TIP3    H2 2716   4.246   4.926   1.460 -0.7371 -1.3067 -0.8312
  904TIP3   OH2 2717   3.593   2.864   1.620  0.2043 -0.7145  0.3416
  904TIP3    H1 2718   3.531   2.835   1.688  0.7174  0.5423  1.3916
  904TIP3    H2 2719   3.679   2.842   1.655  0.5346  0.8826  0.6138
  905TIP3   OH2 2720   4.853   5.725   4.678  0.6164  0.3510  0.1767
  905TIP3    H1 2721   4.767   5.763   4.662  0.5665  0.3722  0.4915
  905TIP3    H2 2722   4.843   5.632   4.660 -0.5029 -0.4056  3.9360
  906TIP3   OH2 2723   5.456   1.796   3.913 -0.5596  0.5064  0.5364
  906TIP3    H1 2724   5.427   1.778   3.824 -1.9209 -0.5985  1.1605
  906TIP3    H2 2725   5.475   1.890   3.914 -2.0663  0.8556 -0.5262
  907TIP3   OH2 2726   6.330   0.688   4.626 -0.6912 -0.3272  0.0664
  907TIP3    H1 2727   6.368   0.606   4.656  0.7324  0.5437  0.7861
  907TIP3    H2 2728   6.236   0.674   4.629 -0.4683 -1.9232  0.1614
  908TIP3   OH2 2729   2.343   3.497   0.369 -0.4382 -0.2125 -0.5902
  908TIP3    H1 2730   2.412   3.434   0.348 -0.4306 -0.4654  0.1628
  908TIP3    H2 2731   2.286   3.451   0.430 -0.9844  0.1766 -0.7978
  909TIP3   OH2 2732   4.014   3.289   3.085  0.0982 -0.3720  0.1276
  909TIP3    H1 2733   3.959   3.285   3.163 -0.7667  1.2706 -0.3632
  909TIP3    H2 2734   4.050   3.200   3.077 -2.1072 -1.3947  0.7152
  910TIP3   OH2 2735   6.042   5.287   0.776 -0.1245 -0.0152 -0.3425
  910TIP3    H1 2736   6.042   5.214   0.714 -1.4412  0.3720 -0.8160
  910TIP3    H2 2737   5.952   5.292   0.809 -0.1190  1.5424 -0.4953
  911TIP3   OH2 2738   0.771   1.328   4.227 -0.0859 -0.0545  0.4146
  911TIP3    H1 2739   0.790   1.273   4.152  1.6759  1.4334 -0.3263
  911TIP3    H2 2740   0.755   1.415   4.190  0.0158  0.5394  1.6817
  912TIP3   OH2 2741   0.790   1.901   3.775  0.1984 -0.2033  0.4255
  912TIP3    H1 2742   0.729   1.830   3.793 -0.5005 -0.3326 -2.1098
  912TIP3    H2 2743   0.849   1.901   3.851 -0.7815 -2.3738  1.2803
  913TIP3   OH2 2744   0.212   5.131   4.951  0.3620  0.4065 -0.1153
  913TIP3    H1 2745   0.202   5.224   4.931 -0.2758  0.1758 -0.9048
  913TIP3    H2 2746   0.224   5.089   4.865 -0.2031 -0.3384  0.1619
  914TIP3   OH2 2747   0.633   0.247   5.145 -0.0057 -0.4217  0.1965
  914TIP3    H1 2748   0.627   0.155   5.119  1.1394  0.0204 -1.8859
  914TIP3    H2 2749   0.562   0.290   5.097 -1.8271 -0.4406  2.6993
  915TIP3   OH2 2750   4.208   4.691   5.084 -0.1268  0.1582 -0.3266
  915TIP3    H1 2751   4.243   4.705   4.996  1.9430  0.9213  0.5249
  915TIP3    H2 2752   4.236   4.602   5.107  0.0941  0.2712 -0.1474
  916TIP3   OH2 2753   4.336   5.362   4.519  0.6875  0.1928  0.6085
  916TIP3    H1 2754   4.249   5.393   4.491 -0.3395 -1.2716  1.9940
  916TIP3    H2 2755   4.322   5.270   4.540  3.1647 -0.7517 -1.4606
  917TIP3   OH2 2756   2.385   4.804   0.909 -0.7587 -0.4740 -0.4299
  917TIP3    H1 2757   2.307   4.823   0.961 -0.3456  1.2155 -0.3592
  917TIP3    H2 2758   2.458   4.829   0.966 -0.3175  2.5718 -2.1383
  918TIP3   OH2 2759   2.654   1.929   2.868 -0.1201  0.2333  0.5798
  918TIP3    H1 2760   2.727   1.983   2.837  0.0294 -0.2505  0.0652
  918TIP3    H2 2761   2.672   1.916   2.961  0.8717 -0.5103  0.3012
  919TIP3   OH2 2762   1.955   3.234   4.725 -0.1569 -0.5172 -0.0049
  919TIP3    H1 2763   1.906   3.204   4.649 -0.5632  1.2140 -0.4679
  919TIP3    H2 2764   2.024   3.290   4.689  0.0472 -0.1966  0.8501
  920TIP3   OH2 2765   3.828   3.550   0.233 -0.1622  0.2596  1.6842
  920TIP3    H1 2766   3.892   3.482   0.212 -0.2393 -0.4108  3.4426
  920TIP3    H2 2767   3.765   3.546   0.161 -1.2141 -2.9098  2.6159
  921TIP3   OH2 2768   3.396   5.353   4.508  0.1273  0.6543 -0.3057
  921TIP3    H1 2769   3.309   5.330   4.475  0.1327 -0.5735  0.4554
  921TIP3    H2 2770   3.399   5.315   4.595  1.5800  0.3000 -0.4820
  922TIP3   OH2 2771   4.914   5.367   4.234 -0.5729 -0.0833  0.3221
  922TIP3    H1 2772   4.916   5.312   4.313 -2.0533  0.0339  0.4651
  922TIP3    H2 2773   4.895   5.306   4.163  0.2860 -0.1128  0.1014
  923TIP3   OH2 2774   1.279   3.560   4.445 -0.3531  0.1273  0.0775
  923TIP3    H1 2775   1.292   3.649   4.478 -2.1207  1.1120 -1.6087
  923TIP3    H2 2776   1.186   3.542   4.459  0.0122 -1.5542  0.5646
  924TIP3   OH2 2777   5.283   1.597   2.644  0.0364 -0.1653 -0.2912
  924TIP3    H1 2778   5.344   1.669   2.631  0.2770 -0.0748  1.1734
  924TIP3    H2 2779   5.303   1.535   2.574 -1.7182  2.1463 -3.0337
  925TIP3   OH2 2780   5.750   2.165   1.084 -0.0570  0.6985  0.1290
  925TIP3    H1 2781   5.659   2.193   1.090 -0.5572 -1.1001  1.6917
  925TIP3    H2 2782   5.756   2.121   1.000 -0.9256 -0.1093  0.4737
  926TIP3   OH2 2783   2.203   1.757   2.202 -0.3929  0.2022 -0.3249
  926TIP3    H1 2784   2.211   1.844   2.241  0.7691  0.8684 -1.9355
  926TIP3    H2 2785   2.259   1.701   2.255  1.4568  1.1695 -1.1527
  927TIP3   OH2 2786   3.501   0.291   2.771 -0.2121  0.7079 -0.8872
  927TIP3    H1 2787   3.437   0.342   2.821 -0.0952 -0.1625  0.1847
  927TIP3    H2 2788   3.453   0.260   2.694 -0.9509  0.4399 -0.3229
  928TIP3   OH2 2789   4.920   2.471   2.257  0.3970 -0.5407 -0.5007
  928TIP3    H1 2790   4.886   2.560   2.266 -0.9370 -1.2306  2.5669
  928TIP3    H2 2791   5.015   2.481   2.262  0.2251  0.6371  0.9000
  929TIP3   OH2 2792   4.578   3.799   4.763 -0.2389  0.4502  0.1074
  929TIP3    H1 2793   4.535   3.860   4.704  0.9255  0.9758 -0.2283
  929TIP3    H2 2794   4.588   3.718   4.712 -1.0458  0.2396  0.2762
  930TIP3   OH2 2795   2.923   4.216   0.050 -0.0866  0.0630  0.1743
  930TIP3    H1 2796   2.860   4.146   0.068 -1.1127  1.1665  1.0347
  930TIP3    H2 2797   2.954   4.197  -0.039 -2.0362 -0.2239 -0.4989
  931TIP3   OH2 2798   2.792   0.234   0.655  0.6519 -0.0676  0.0949
  931TIP3    H1 2799   2.788   0.286   0.735  0.1804 -0.2128  0.1714
  931TIP3    H2 2800   2.829   0.293   0.589  0.9132  0.0950  0.3882
  932TIP3   OH2 2801   3.522   0.624   0.640 -0.8522  0.1129  0.6241
  932TIP3    H1 2802   3.577   0.551   0.669 -1.6585 -0.3603  1.0088
  932TIP3    H2 2803   3.579   0.677   0.585 -0.8461 -2.0109 -1.5719
  933TIP3   OH2 2804   5.085   5.706   3.213  0.3403  0.5477  0.0239
  933TIP3    H1 2805   5.094   5.725   3.120 -1.2863  2.3941  0.1675
  933TIP3    H2 2806   5.174   5.712   3.248  0.7897  1.2586 -1.1787
  934TIP3   OH2 2807   1.261   1.693   0.815 -0.2195  0.2328 -0.2284
  934TIP3    H1 2808   1.202   1.673   0.887  0.7559 -0.5147  0.3821
  934TIP3    H2 2809   1.335   1.633   0.827 -0.2445 -0.2379 -2.1105
  935TIP3   OH2 2810   1.351   4.568   0.150 -0.1359  0.2243 -0.1949
  935TIP3    H1 2811   1.428   4.594   0.201 -0.0863 -1.6849  0.8011
  935TIP3    H2 2812   1.278   4.615   0.192  0.4058  1.7722 -0.9268
  936TIP3   OH2 2813   3.152   3.791   1.365  0.1153 -0.1601 -0.2197
  936TIP3    H1 2814   3.083   3.752   1.419  0.0689  0.4789  0.1981
  936TIP3    H2 2815   3.137   3.886   1.373  2.8766  0.2370  2.4314
  937TIP3   OH2 2816   1.529   4.308   4.267  0.3920 -0.0593 -0.2684
  937TIP3    H1 2817   1.552   4.222   4.301  0.2208  0.5798  1.5534
  937TIP3    H2 2818   1.609   4.340   4.226  0.8752 -0.4914  0.3297
  938TIP3   OH2 2819   4.087   1.099   4.478  0.5528 -0.3265 -0.4235
  938TIP3    H1 2820   4.073   1.067   4.567 -0.8593 -0.6784 -0.7434
  938TIP3    H2 2821   4.016   1.163   4.465  1.0729  0.1246 -1.1107
  939TIP3   OH2 2822   0.249   0.598   4.928  0.1620 -0.0272 -0.6100
  939TIP3    H1 2823   0.276   0.566   5.014 -1.6971  0.2943  0.1222
  939TIP3    H2 2824   0.332   0.621   4.885  1.1046  0.4931  1.3449
  940TIP3   OH2 2825   4.831   1.187   3.154 -0.0597 -0.3105  0.4681
  940TIP3    H1 2826   4.856   1.251   3.088 -0.8659 -1.5183 -1.0544
  940TIP3    H2 2827   4.735   1.190   3.157 -0.0668 -0.7860  1.0582
  941TIP3   OH2 2828   5.647   0.812   3.156 -0.1390  0.7087 -0.5516
  941TIP3    H1 2829   5.682   0.876   3.218  0.8583 -0.4635  0.1455
  941TIP3    H2 2830   5.717   0.748   3.146 -1.9467 -1.6009  0.6683
  942TIP3   OH2 2831   2.478   1.305   4.285  0.5680  0.1560  0.4919
  942TIP3    H1 2832   2.450   1.379   4.337 -1.6644  0.5148 -1.0852
  942TIP3    H2 2833   2.419   1.234   4.309 -0.3053  0.2395 -1.2167
  943TIP3   OH2 2834   3.077   1.653   3.388 -0.2386  0.2857 -0.0430
  943TIP3    H1 2835   3.118   1.567   3.394  1.3169  1.0101  0.0351
  943TIP3    H2 2836   3.003   1.640   3.328 -0.9542 -1.4147  1.1184
  944TIP3   OH2 2837   2.873   1.696   0.838 -0.2086  0.0345 -0.4952
  944TIP3    H1 2838   2.869   1.763   0.770  1.0730  1.3074  0.6134
  944TIP3    H2 2839   2.863   1.744   0.920  1.9246 -0.9117  0.4088
  945TIP3   OH2 2840   5.102   1.845   0.252  0.1548  0.4649 -0.0070
  945TIP3    H1 2841   5.026   1.801   0.212 -0.5608 -0.0170  1.7677
  945TIP3    H2 2842   5.170   1.778   0.253 -0.2737  0.0206  0.8077
  946TIP3   OH2 2843   0.519   4.197   5.079  0.5889  0.8448 -0.3706
  946TIP3    H1 2844   0.435   4.172   5.040  0.3888  1.4302 -0.3235
  946TIP3    H2 2845   0.508   4.183   5.173  0.8162  0.1530 -0.4469
  947TIP3   OH2 2846   1.978   0.363   3.841 -0.0331 -0.6187 -0.0332
  947TIP3    H1 2847   2.054   0.368   3.898  0.0988 -1.2435 -0.1485
  947TIP3    H2 2848   1.903   0.373   3.900  0.1132 -0.8829  0.1983
  948TIP3   OH2 2849   4.469   3.476   0.139 -0.1441  0.1506  0.4431
  948TIP3    H1 2850   4.510   3.534   0.204 -1.6164  0.4521  1.1509
  948TIP3    H2 2851   4.397   3.528   0.102  2.0355  0.8805 -3.2449
  949TIP3   OH2 2852   3.576   2.895   0.444  0.1763 -0.6870  0.1716
  949TIP3    H1 2853   3.497   2.843   0.430 -0.2004 -0.3083  0.9036
  949TIP3    H2 2854   3.614   2.860   0.524  0.0900 -0.0540  0.4962
  950TIP3   OH2 2855   0.420   4.695   5.124 -0.6066  0.2002 -0.4917
  950TIP3    H1 2856   0.379   4.781   5.133 -1.1289 -0.0456 -0.5361
  950TIP3    H2 2857   0.405   4.652   5.208 -1.7472 -0.4580 -1.0233
  951TIP3   OH2 2858   1.780   2.974   1.571 -0.2113  0.4503  0.0427
  951TIP3    H1 2859   1.767   2.953   1.479  1.1214 -2.7990  0.4474
  951TIP3    H2 2860   1.737   2.902   1.618  1.2970  0.6365  1.8275
  952TIP3   OH2 2861   2.411   5.246   4.326  0.0005  0.4315  0.3636
  952TIP3    H1 2862   2.500   5.253   4.359 -0.5277  0.6624  1.8219
  952TIP3    H2 2863   2.421   5.235   4.231  1.5988 -0.6306  0.6113
  953TIP3   OH2 2864   0.773   0.701   0.869  0.2886 -0.7529  0.1647
  953TIP3    H1 2865   0.724   0.625   0.900 -3.2164  1.0537 -0.4298
  953TIP3    H2 2866   0.832   0.723   0.941  0.5364 -3.2577  0.8145
  954TIP3   OH2 2867   0.230   3.155   4.284  0.4678  0.0195 -0.2637
  954TIP3    H1 2868   0.193   3.075   4.245 -0.3021 -0.0087  0.4874
  954TIP3    H2 2869   0.176   3.226   4.250  0.8618  0.1797 -0.5669
  955TIP3   OH2 2870   3.600   2.061   4.368  0.3196 -0.2239 -0.0305
  955TIP3    H1 2871   3.584   2.118   4.444 -1.1879  0.5030 -0.8515
  955TIP3    H2 2872   3.542   2.094   4.300  3.3085  0.6528 -2.3652
  956TIP3   OH2 2873   2.665   3.138   0.603  0.0937  0.2535  0.4631
  956TIP3    H1 2874   2.631   3.065   0.655  0.1397  1.2797  2.0064
  956TIP3    H2 2875   2.760   3.123   0.599  0.1753  0.4981  1.2618
  957TIP3   OH2 2876   0.965   5.456   2.570  0.0398  0.0015  0.4500
  957TIP3    H1 2877   1.035   5.392   2.583  1.1084  1.2610  1.0839
  957TIP3    H2 2878   0.885   5.403   2.567  0.9980 -1.4762 -0.3358
  958TIP3   OH2 2879   5.158   2.700   4.842 -0.1428  0.1120 -0.0373
  958TIP3    H1 2880   5.233   2.671   4.789 -0.8439 -0.1670 -0.9006
  958TIP3    H2 2881   5.087   2.710   4.779 -0.1299  3.2224  0.2862
  959TIP3   OH2 2882   1.708   2.071   0.742  0.2057  0.0803 -0.2250
  959TIP3    H1 2883   1.664   2.003   0.690  0.9493 -0.0775 -0.6594
  959TIP3    H2 2884   1.638   2.109   0.795 -0.3298 -0.6253 -0.4095
  960TIP3   OH2 2885   4.639   3.515   1.359  0.1370  0.3626 -0.5808
  960TIP3    H1 2886   4.595   3.432   1.338  1.4678 -0.5850  0.2724
  960TIP3    H2 2887   4.718   3.489   1.405  0.7191  2.1187 -0.5426
  961TIP3   OH2 2888   2.809   4.597   2.584 -0.2275 -0.7218 -0.6419
  961TIP3    H1 2889   2.840   4.517   2.625 -1.7254 -0.1844  1.7017
  961TIP3    H2 2890   2.761   4.643   2.653 -1.1765  1.2198 -2.4710
  962TIP3   OH2 2891   6.013   0.822   0.040  0.0596 -0.0361  0.2852
  962TIP3    H1 2892   5.974   0.803  -0.046  2.0132  0.5029 -0.7768
  962TIP3    H2 2893   5.987   0.749   0.095 -0.8054 -0.6611 -0.9151
  963TIP3   OH2 2894   3.600   1.538   0.939 -0.2070 -0.1605 -0.2768
  963TIP3    H1 2895   3.527   1.595   0.965 -1.9447 -1.3153 -2.2902
  963TIP3    H2 2896   3.559   1.472   0.883  1.7167 -3.2448  1.6773
  964TIP3   OH2 2897   4.908   1.880   5.044  0.0952 -0.2035 -0.2321
  964TIP3    H1 2898   4.939   1.969   5.062  1.1600 -0.1056 -2.2160
  964TIP3    H2 2899   4.861   1.887   4.961  0.1361 -1.4814 -0.3888
  965TIP3   OH2 2900   0.012   0.940   4.289  0.2234 -0.6649 -0.0957
  965TIP3    H1 2901  -0.041   0.974   4.362  3.5975  0.5097  2.0537
  965TIP3    H2 2902   0.061   0.867   4.327  1.5176 -0.5133 -1.4055
  966TIP3   OH2 2903   3.886   2.696   4.197 -0.2252  0.1323  0.5492
  966TIP3    H1 2904   3.875   2.675   4.290  1.2740  0.9720  0.9486
  966TIP3    H2 2905   3.887   2.792   4.194  0.2068  0.1085 -0.2751
  967TIP3   OH2 2906   4.858   0.206   4.772 -0.4378  0.3913  0.5584
  967TIP3    H1 2907   4.810   0.124   4.768  0.8224 -0.4249  1.6291
  967TIP3    H2 2908   4.841   0.240   4.860  1.5701 -0.3502  1.2946
  968TIP3   OH2 2909   5.171   0.275   5.078  0.0072 -0.1033 -0.3091
  968TIP3    H1 2910   5.120   0.348   5.042 -0.6918 -0.5770 -0.3074
  968TIP3    H2 2911   5.154   0.203   5.018  0.7191 -0.2618 -0.3243
  969TIP3   OH2 2912   5.213   2.702   3.977 -0.1573 -0.2084 -0.3176
  969TIP3    H1 2913   5.211   2.618   3.930 -0.4093  0.5588 -1.7400
  969TIP3    H2 2914   5.183   2.681   4.066  0.7602 -1.7935 -0.3485
  970TIP3   OH2 2915   5.382   1.467   3.933 -0.1327 -0.3437 -0.9042
  970TIP3    H1 2916   5.450   1.526   3.964 -0.2541 -1.6803  2.2408
  970TIP3    H2 2917   5.324   1.522   3.880  1.7907  1.4337 -1.2921
  971TIP3   OH2 2918   4.034   1.010   4.744  0.2541 -0.1782 -0.3337
  971TIP3    H1 2919   3.967   1.065   4.784  2.6367  0.7959  2.7161
  971TIP3    H2 2920   4.002   0.920   4.756  0.7894  0.0210  4.1759
  972TIP3   OH2 2921   5.668   0.064   4.332 -0.1861 -0.2414  1.1359
  972TIP3    H1 2922   5.736   0.125   4.358  0.8058 -0.7092 -0.2481
  972TIP3    H2 2923   5.593   0.086   4.388  0.8400  0.7772  2.1638
  973TIP3   OH2 2924   3.874   2.749   5.216 -0.4925 -0.1194  0.1072
  973TIP3    H1 2925   3.850   2.672   5.165 -1.3018  1.9282 -2.8589
  973TIP3    H2 2926   3.958   2.777   5.180 -1.4704  1.8473 -0.8110
  974TIP3   OH2 2927   1.805   5.674   2.213 -0.1540  0.2380  0.4358
  974TIP3    H1 2928   1.717   5.641   2.231 -0.0742  0.2894  0.9419
  974TIP3    H2 2929   1.849   5.603   2.168 -0.0645 -0.2703  1.2976
  975TIP3   OH2 2930   3.376   4.368   1.350 -0.1146  0.0237 -0.4122
  975TIP3    H1 2931   3.362   4.386   1.257  0.6190  1.9068 -0.2157
  975TIP3    H2 2932   3.466   4.334   1.354 -0.6600 -1.4932 -0.5207
  976TIP3   OH2 2933   2.572   3.427   2.200 -0.3735  0.1984  0.6264
  976TIP3    H1 2934   2.493   3.468   2.165 -0.5928 -0.3173  0.5021
  976TIP3    H2 2935   2.623   3.499   2.236 -0.4085  0.6675 -0.2510
  977TIP3   OH2 2936   1.056   2.852   4.776 -0.0052 -0.1367  0.1678
  977TIP3    H1 2937   1.095   2.768   4.801 -0.9714 -0.4212  0.7657
  977TIP3    H2 2938   0.971   2.853   4.819 -0.2169  0.9412 -0.2402
  978TIP3   OH2 2939   1.265   0.432   1.974  0.2102  0.3978 -0.0961
  978TIP3    H1 2940   1.232   0.415   1.886  0.7943 -1.2195 -0.0263
  978TIP3    H2 2941   1.199   0.488   2.014 -0.8608 -0.1694 -1.0234
  979TIP3   OH2 2942   3.757   4.833   0.522  0.1928  0.5084 -0.0912
  979TIP3    H1 2943   3.788   4.879   0.600  1.1634  0.2447 -0.3007
  979TIP3    H2 2944   3.792   4.884   0.449  1.5170 -0.6666 -0.3305
  980TIP3   OH2 2945   5.211   4.474   4.653 -0.6095  0.2812  0.4411
  980TIP3    H1 2946   5.131   4.431   4.684 -1.1088  0.2421 -0.8321
  980TIP3    H2 2947   5.280   4.410   4.667 -0.7579  0.3687  1.6977
  981TIP3   OH2 2948   5.015   1.081   4.847  0.1510  0.1706  0.4795
  981TIP3    H1 2949   5.004   1.088   4.942 -1.4148 -0.0553  0.3456
  981TIP3    H2 2950   5.108   1.061   4.835  0.3589  0.1100  1.9692
  982TIP3   OH2 2951   5.648   1.099   4.635  0.3507  0.2672 -0.1111
  982TIP3    H1 2952   5.650   1.153   4.714 -0.9980 -0.3298  0.3604
  982TIP3    H2 2953   5.662   1.010   4.668 -1.0828 -0.0913 -0.4193
  983TIP3   OH2 2954   0.959   5.191   3.705  0.4335 -0.0515 -0.1408
  983TIP3    H1 2955   0.925   5.184   3.794 -3.0534  2.1781 -1.1292
  983TIP3    H2 2956   1.029   5.256   3.711  1.1354 -0.8852  1.1248
  984TIP3   OH2 2957   1.538   2.072   1.698  0.1579  0.1020 -0.5325
  984TIP3    H1 2958   1.509   2.052   1.609 -1.0298 -1.3021  0.1302
  984TIP3    H2 2959   1.580   1.992   1.729 -0.3636  0.2195  0.5213
  985TIP3   OH2 2960   2.447   4.440   0.328  0.3406  0.0828  0.7029
  985TIP3    H1 2961   2.473   4.463   0.417 -0.0368 -0.1051  0.8658
  985TIP3    H2 2962   2.516   4.380   0.297  0.9760  0.8956  0.5157
  986TIP3   OH2 2963   0.718   0.194   1.693  0.0159 -0.1671  0.1330
  986TIP3    H1 2964   0.797   0.169   1.644  0.5451 -0.4018  1.0701
  986TIP3    H2 2965   0.725   0.289   1.704 -0.0393 -0.1321 -0.1328
  987TIP3   OH2 2966   3.427   2.397   4.101  0.0456  0.3547 -0.0413
  987TIP3    H1 2967   3.408   2.450   4.179  1.7640  2.5038 -0.9783
  987TIP3    H2 2968   3.405   2.453   4.027  0.0778 -1.0047 -1.1286
  988TIP3   OH2 2969   1.220   4.595   3.354  0.3174 -0.3837 -0.1985
  988TIP3    H1 2970   1.209   4.675   3.406  0.2742  0.4466 -1.4417
  988TIP3    H2 2971   1.136   4.583   3.310  0.9174 -0.0255 -1.4873
  989TIP3   OH2 2972   3.461   5.683   2.676  0.2126 -0.1338 -0.1820
  989TIP3    H1 2973   3.477   5.774   2.698 -1.4217  0.5583 -1.6122
  989TIP3    H2 2974   3.456   5.682   2.580 -0.7644 -1.5443 -0.1477
  990TIP3   OH2 2975   0.345   2.411   4.779 -0.4538 -0.1384  0.1574
  990TIP3    H1 2976   0.318   2.409   4.688 -0.3345  0.7409  0.0927
  990TIP3    H2 2977   0.270   2.447   4.827 -0.0479  0.6545  0.2146
  991TIP3   OH2 2978   2.952   0.573   1.637 -0.2155 -0.4643  0.1926
  991TIP3    H1 2979   2.890   0.574   1.709 -1.6545  3.8156 -0.8543
  991TIP3    H2 2980   2.898   0.563   1.558  0.9901 -1.5841 -0.5411
  992TIP3   OH2 2981   3.213   3.425   2.633  0.2111  0.5154 -0.3898
  992TIP3    H1 2982   3.180   3.435   2.544 -2.4734  0.5989  0.5021
  992TIP3    H2 2983   3.264   3.344   2.632 -1.5762 -0.6657 -1.5750
  993TIP3   OH2 2984   5.692   4.248   3.347 -0.1652 -0.1755 -0.3925
  993TIP3    H1 2985   5.648   4.226   3.264 -0.2223  0.5472 -0.5682
  993TIP3    H2 2986   5.664   4.180   3.408 -0.5044 -0.4499 -0.8436
  994TIP3   OH2 2987   2.174  -0.001   2.031  0.6024 -0.1878  0.3276
  994TIP3    H1 2988   2.194   0.080   2.078  1.2892 -0.0040 -0.2567
  994TIP3    H2 2989   2.236  -0.065   2.067 -0.6008 -0.7419  1.5054
  995TIP3   OH2 2990   3.427   0.365   3.340 -0.5178 -0.2416 -0.2172
  995TIP3    H1 2991   3.432   0.272   3.316 -0.1595 -0.0087 -1.0548
  995TIP3    H2 2992   3.399   0.410   3.261 -1.2308  0.3155  0.3305
  996TIP3   OH2 2993   2.118   3.881   5.067  0.0342  0.5211  0.2654
  996TIP3    H1 2994   2.197   3.928   5.039  0.7827 -0.5426  0.5118
  996TIP3    H2 2995   2.110   3.903   5.160  1.8742 -1.7671  1.0616
  997TIP3   OH2 2996   0.859   4.982   0.616  0.4422  0.0941 -0.1235
  997TIP3    H1 2997   0.845   5.076   0.616 -0.5868 -0.0552 -0.5492
  997TIP3    H2 2998   0.852   4.957   0.709 -0.7646  0.2299 -0.1644
  998TIP3   OH2 2999   2.506   1.024   4.065 -0.1900 -0.4064  0.1135
  998TIP3    H1 3000   2.427   1.007   4.117  1.3496  0.6296  3.0380
  998TIP3    H2 3001   2.575   0.975   4.111  1.3191  0.7802 -0.8158
  999TIP3   OH2 3002   5.836   1.736   0.991  0.5811  0.0975 -0.0315
  999TIP3    H1 3003   5.801   1.682   1.062  0.8807  0.8675  0.7096
  999TIP3    H2 3004   5.929   1.714   0.988  0.6095  0.2188 -0.0432
 1000TIP3   OH2 3005   3.210   2.780   2.417  0.4134 -0.6852 -0.0549
 1000TIP3    H1 3006   3.147   2.737   2.474  0.5775 -1.2795 -0.3178
 1000TIP3    H2 3007   3.171   2.775   2.330 -0.9449  2.2387  0.2551
 1001TIP3   OH2 3008   3.215   2.949   0.274  0.0274 -0.2294 -0.0531
 1001TIP3    H1 3009   3.177   3.030   0.240 -0.3090 -0.1713  0.4577
 1001TIP3    H2 3010   3.248   2.973   0.361 -0.1464 -0.6606  0.1318
 1002TIP3   OH2 3011   1.940   0.008   1.681  0.3152 -0.1183 -0.0607
 1002TIP3    H1 3012   2.004   0.075   1.706  2.2643 -1.5579 -0.9929
 1002TIP3    H2 3013   1.894   0.046   1.606  1.7306  0.0285 -0.8852
 1003TIP3   OH2 3014   4.503   5.528   4.657  0.0921  0.0701  0.1849
 1003TIP3    H1 3015   4.430   5.491   4.607  0.2871  1.7549 -1.4860
 1003TIP3    H2 3016   4.580   5.508   4.604  0.5831  0.1345  0.8619
 1004TIP3   OH2 3017   5.913   1.142   3.608  0.0978 -0.1540  0.0525
 1004TIP3    H1 3018   5.878   1.073   3.552  0.0556 -1.0627  1.1699
 1004TIP3    H2 3019   6.005   1.117   3.622 -0.5480 -1.4038  2.5082
 1005TIP3   OH2 3020   4.248   1.342   2.193  0.4180 -0.0081  0.0359
 1005TIP3    H1 3021   4.223   1.420   2.242 -1.1781 -0.7437  0.4497
 1005TIP3    H2 3022   4.249   1.370   2.102 -2.5527 -0.0147 -0.0859
 1006TIP3   OH2 3023   3.518   0.807   1.707 -0.0912  0.0408  0.6701
 1006TIP3    H1 3024   3.546   0.868   1.639 -1.0310 -0.4454 -0.1809
 1006TIP3    H2 3025   3.543   0.849   1.789 -0.9837  1.7326  0.1169
 1007TIP3   OH2 3026   4.314   4.798   0.066 -0.0519  0.1464  0.1235
 1007TIP3    H1 3027   4.393   4.784   0.117 -0.0069  0.5650  0.1721
 1007TIP3    H2 3028   4.334   4.762  -0.021  0.5045  1.0249 -0.1262
 1008TIP3   OH2 3029   3.833   5.138   1.777  0.2182  0.4507  0.6584
 1008TIP3    H1 3030   3.929   5.139   1.785  0.5300  1.9431 -1.9228
 1008TIP3    H2 3031   3.817   5.093   1.694 -1.3553  0.0442  1.1573
 1009TIP3   OH2 3032   0.386   0.493   4.595  0.4297 -0.5940  0.8238
 1009TIP3    H1 3033   0.464   0.460   4.551  0.1761  1.4993 -1.3788
 1009TIP3    H2 3034   0.419   0.562   4.653  0.2960 -0.0523  0.2661
 1010TIP3   OH2 3035   2.057   0.928   2.509  0.0621  0.0742  0.2341
 1010TIP3    H1 3036   2.121   0.983   2.463 -0.9204  1.5738  0.5937
 1010TIP3    H2 3037   2.091   0.839   2.499  2.4474  0.8505  0.8051
 1011TIP3   OH2 3038   3.246   3.542   4.627  0.1153  0.0138  0.0688
 1011TIP3    H1 3039   3.232   3.614   4.688  0.9277  0.0273  0.2456
 1011TIP3    H2 3040   3.280   3.471   4.680 -0.9071 -0.5973 -0.0651
 1012TIP3   OH2 3041   0.249   2.265   3.006  0.2727 -0.1825 -0.5069
 1012TIP3    H1 3042   0.343   2.265   3.022  0.3292 -0.6119 -0.8073
 1012TIP3    H2 3043   0.240   2.253   2.911 -0.0778  0.3565 -0.5460
 1013TIP3   OH2 3044   3.180   3.763   1.085 -0.0174  0.4897  0.5173
 1013TIP3    H1 3045   3.174   3.774   1.180  0.4298 -0.2067  0.6364
 1013TIP3    H2 3046   3.240   3.831   1.057 -0.0261  0.5971  0.7555
 1014TIP3   OH2 3047   2.548   1.211   0.840  0.5107 -0.3003 -0.5037
 1014TIP3    H1 3048   2.622   1.150   0.844  0.4215 -0.4997 -1.4722
 1014TIP3    H2 3049   2.471   1.154   0.832  0.6027 -0.1488 -4.0445
 1015TIP3   OH2 3050  -0.010   5.263   4.448  0.4190  0.3993  0.2799
 1015TIP3    H1 3051   0.078   5.302   4.452  0.1684  1.0667 -0.3587
 1015TIP3    H2 3052  -0.002   5.181   4.496  1.1038  0.9803  1.1961
 1016TIP3   OH2 3053   4.848   5.455   4.632 -0.1528 -0.3085  0.3935
 1016TIP3    H1 3054   4.785   5.447   4.560  0.2634 -1.0408  0.1008
 1016TIP3    H2 3055   4.933   5.436   4.593  0.0964 -0.5836  1.0451
 1017TIP3   OH2 3056   3.408   2.121   0.206 -0.5022  0.0388 -0.9674
 1017TIP3    H1 3057   3.499   2.111   0.180  0.2713 -1.2287  1.7869
 1017TIP3    H2 3058   3.413   2.150   0.297 -2.8732  0.9652 -1.0706
 1018TIP3   OH2 3059   0.596   0.822   3.591 -0.1319 -0.4688 -0.1196
 1018TIP3    H1 3060   0.597   0.914   3.566  1.3983 -0.9194 -1.9589
 1018TIP3    H2 3061   0.547   0.820   3.674 -1.7973  1.7134 -0.9495
 1019TIP3   OH2 3062   3.929   4.276   4.127 -0.0039 -0.2110 -0.1555
 1019TIP3    H1 3063   3.901   4.292   4.037  1.7331 -0.9449 -0.8755
 1019TIP3    H2 3064   3.863   4.216   4.162 -1.5912  1.3313 -0.3704
 1020TIP3   OH2 3065   5.257   5.649   4.377  0.1849 -0.6705  0.3585
 1020TIP3    H1 3066   5.324   5.675   4.440  0.2954 -0.1650  0.0458
 1020TIP3    H2 3067   5.194   5.721   4.378 -1.2159 -1.8558  1.8096
 1021TIP3   OH2 3068   4.074   5.544   4.253 -0.6872  0.1938 -0.6703
 1021TIP3    H1 3069   3.983   5.570   4.266 -0.5063  0.9606 -0.8786
 1021TIP3    H2 3070   4.069   5.452   4.226 -1.3135 -0.1688  0.6131
 1022TIP3   OH2 3071   1.646   2.311   1.697 -0.0967  0.0479 -0.5305
 1022TIP3    H1 3072   1.578   2.379   1.698 -0.9510 -0.7992  0.7498
 1022TIP3    H2 3073   1.598   2.229   1.694  0.7290 -0.6684  2.6370
 1023TIP3   OH2 3074   2.730   3.780   2.521  0.3898 -0.3820 -1.2018
 1023TIP3    H1 3075   2.637   3.763   2.531  0.3980 -0.4861 -1.3054
 1023TIP3    H2 3076   2.773   3.717   2.579  0.4116 -0.5872 -1.4412
 1024TIP3   OH2 3077   4.735   0.815   2.175  0.0079  0.4745 -0.5554
 1024TIP3    H1 3078   4.775   0.775   2.252  0.3541  0.2215 -0.8568
 1024TIP3    H2 3079   4.706   0.901   2.204 -2.4205 -0.6437  0.6161
 1025TIP3   OH2 3080   5.949   4.624   0.949 -0.5675  0.3239 -0.0062
 1025TIP3    H1 3081   5.872   4.568   0.954 -0.7860  0.7441  1.7762
 1025TIP3    H2 3082   5.914   4.711   0.926 -0.3148 -0.0264 -1.8958
 1026TIP3   OH2 3083   5.103   3.524   3.647 -0.1287  0.0828  0.0361
 1026TIP3    H1 3084   5.044   3.495   3.578 -0.3543  0.7606 -0.0656
 1026TIP3    H2 3085   5.190   3.500   3.616 -0.3901 -1.6320  0.5408
 1027TIP3   OH2 3086   1.139   3.540   1.877  0.0587  0.1197  0.0120
 1027TIP3    H1 3087   1.115   3.524   1.786 -1.3719  1.2134  0.1585
 1027TIP3    H2 3088   1.231   3.567   1.873 -0.3434  1.4587 -1.3109
 1028TIP3   OH2 3089   5.244   3.244   2.049  0.3465  0.0457  0.3633
 1028TIP3    H1 3090   5.306   3.196   1.994  0.7205  2.2019 -1.2282
 1028TIP3    H2 3091   5.238   3.192   2.130  0.4603 -2.7800 -1.3150
 1029TIP3   OH2 3092   3.061   0.223   3.438 -0.0268 -0.3523 -0.2886
 1029TIP3    H1 3093   3.080   0.194   3.527 -0.3184  0.2984 -0.0144
 1029TIP3    H2 3094   2.966   0.220   3.431 -0.4304  3.7277  0.8970
 1030TIP3   OH2 3095   5.112   0.632   2.197  0.1987 -0.3708 -0.4876
 1030TIP3    H1 3096   5.171   0.631   2.272  2.6985  2.7068 -2.1295
 1030TIP3    H2 3097   5.033   0.677   2.228  1.1161  0.6912  0.3647
 1031TIP3   OH2 3098   6.201   3.763   0.704  0.1201  0.0512 -0.2523
 1031TIP3    H1 3099   6.211   3.670   0.724 -1.1545 -0.0522  0.0035
 1031TIP3    H2 3100   6.215   3.768   0.609  0.1089 -0.4149 -0.2828
 1032TIP3   OH2 3101   5.832   2.770   1.412 -0.4484  0.4239  0.3911
 1032TIP3    H1 3102   5.771   2.844   1.422  0.0748  0.8710  0.3090
 1032TIP3    H2 3103   5.817   2.717   1.490  0.5133  1.6151  1.4261
 1033TIP3   OH2 3104   4.480   2.183   4.702 -0.5677  0.2764 -0.5097
 1033TIP3    H1 3105   4.474   2.259   4.760 -1.1935 -0.4002  0.3545
 1033TIP3    H2 3106   4.567   2.189   4.663 -0.2300  0.9093  0.3081
 1034TIP3   OH2 3107   5.124   0.850   2.041  0.2220  0.0866  0.0384
 1034TIP3    H1 3108   5.109   0.776   2.101 -0.2370  0.6927  0.6837
 1034TIP3    H2 3109   5.176   0.912   2.092  0.5442  0.2459 -0.4769
 1035TIP3   OH2 3110   6.094   3.893   4.921  0.3997  0.8030  0.2591
 1035TIP3    H1 3111   6.036   3.847   4.860  1.3142 -0.8412  0.5805
 1035TIP3    H2 3112   6.178   3.898   4.875  1.0663 -0.3383  1.2906
 1036TIP3   OH2 3113   4.545   1.924   1.792  0.0083  0.6920 -0.0290
 1036TIP3    H1 3114   4.527   1.830   1.796 -0.9614  0.8350 -0.6626
 1036TIP3    H2 3115   4.583   1.945   1.877 -0.9224 -0.0431  0.5814
 1037TIP3   OH2 3116   0.472   0.907   3.096  0.8089 -0.0268  0.0016
 1037TIP3    H1 3117   0.522   0.869   3.168  2.1300 -0.5210 -1.1248
 1037TIP3    H2 3118   0.433   0.832   3.051 -1.1938  0.3546  0.9635
 1038TIP3   OH2 3119   3.329   4.252   2.153  0.2931  0.2713 -0.0069
 1038TIP3    H1 3120   3.269   4.319   2.186  0.4911 -0.2105  1.3695
 1038TIP3    H2 3121   3.406   4.302   2.124  0.1513  0.6916  0.3353
 1039TIP3   OH2 3122   4.237   4.118   3.642  0.3779  0.0027  0.4850
 1039TIP3    H1 3123   4.191   4.187   3.593 -1.9029 -2.4826 -1.1562
 1039TIP3    H2 3124   4.236   4.149   3.733 -2.8678  1.0456  0.2201
 1040TIP3   OH2 3125   3.470   4.658   0.922  0.2599 -0.0255  0.0242
 1040TIP3    H1 3126   3.524   4.640   0.846 -0.7235  0.8595 -0.9164
 1040TIP3    H2 3127   3.420   4.736   0.899  1.1755  1.3241  2.2395
 1041TIP3   OH2 3128   3.226   3.987   4.200  0.1908  0.0375 -0.4424
 1041TIP3    H1 3129   3.276   3.910   4.225  0.2701 -0.3745 -1.7821
 1041TIP3    H2 3130   3.242   3.997   4.106 -1.4539  0.4730 -0.7138
 1042TIP3   OH2 3131   4.636   0.431   1.542  0.1811 -0.4243  0.0663
 1042TIP3    H1 3132   4.554   0.393   1.510  0.1987 -2.6937  2.3611
 1042TIP3    H2 3133   4.688   0.356   1.568  2.1302  1.0666  0.6929
 1043TIP3   OH2 3134   2.694   2.356   2.167  0.3404  0.0489 -0.2009
 1043TIP3    H1 3135   2.762   2.305   2.122  0.7290 -0.5248  0.9928
 1043TIP3    H2 3136   2.720   2.354   2.259 -1.3251 -0.2234  0.2882
 1044TIP3   OH2 3137   0.700   0.312   4.227 -0.2510  0.0402  0.3940
 1044TIP3    H1 3138   0.756   0.235   4.225 -0.1504 -0.1014  3.5950
 1044TIP3    H2 3139   0.757   0.383   4.255 -1.3972  0.0325  3.0382
 1045TIP3   OH2 3140   2.190   5.698   0.194  0.0302  0.1233  0.0205
 1045TIP3    H1 3141   2.213   5.673   0.284  0.7175  0.7682  0.0401
 1045TIP3    H2 3142   2.232   5.783   0.182  0.2176 -0.0968 -1.0175
 1046TIP3   OH2 3143   4.164   2.539   0.028 -0.3262  0.2114  0.7949
 1046TIP3    H1 3144   4.088   2.505   0.076 -1.1910  0.2576 -0.4749
 1046TIP3    H2 3145   4.192   2.616   0.078 -1.4801  0.5241  1.0020
 1047TIP3   OH2 3146   4.543   2.421   1.264 -0.5232  0.6480 -0.1741
 1047TIP3    H1 3147   4.603   2.494   1.246  0.8315 -0.1886  0.7783
 1047TIP3    H2 3148   4.467   2.462   1.305 -0.5596  1.7117 -1.2269
 1048TIP3   OH2 3149   0.337   5.568   0.047  0.3517 -0.1544 -0.0658
 1048TIP3    H1 3150   0.252   5.581   0.089  1.0049 -1.0767  1.6501
 1048TIP3    H2 3151   0.353   5.649  -0.002 -1.0629  0.4175  0.3833
 1049TIP3   OH2 3152   3.406   0.695   0.188 -0.0962 -0.1178  0.3015
 1049TIP3    H1 3153   3.333   0.633   0.190  0.4994 -0.8202  1.4589
 1049TIP3    H2 3154   3.424   0.707   0.095 -1.0763 -0.6666  0.0272
 1050TIP3   OH2 3155   4.246   0.263   2.473 -0.9019 -0.4972 -0.1586
 1050TIP3    H1 3156   4.204   0.276   2.558  0.9425  3.2606  0.4185
 1050TIP3    H2 3157   4.340   0.269   2.491 -0.4008 -0.6202 -2.3450
 1051TIP3   OH2 3158   4.708   0.639   4.648 -0.1381 -0.7742 -0.2696
 1051TIP3    H1 3159   4.700   0.577   4.576  0.3892  0.1485 -1.1466
 1051TIP3    H2 3160   4.649   0.605   4.716  1.4419 -3.2291  0.0160
 1052TIP3   OH2 3161   3.741   0.957   3.484  0.3206 -0.1473  0.1831
 1052TIP3    H1 3162   3.784   0.875   3.458 -1.4832 -2.3873  3.5855
 1052TIP3    H2 3163   3.661   0.960   3.433  1.0195  0.3145 -0.9437
 1053TIP3   OH2 3164   3.120   4.197   3.768  0.1323 -0.5217  0.1699
 1053TIP3    H1 3165   3.040   4.249   3.766  0.7071  0.5173  2.0948
 1053TIP3    H2 3166   3.141   4.183   3.676 -0.8889  1.3369 -0.4047
 1054TIP3   OH2 3167   2.582   0.059   0.379  0.1245 -0.0937 -0.4232
 1054TIP3    H1 3168   2.610   0.114   0.306  2.8892 -1.8652 -0.8394
 1054TIP3    H2 3169   2.569  -0.027   0.341  0.2050 -0.7327  0.9317
 1055TIP3   OH2 3170   2.297   3.733   1.792 -0.8407  0.1749  0.6844
 1055TIP3    H1 3171   2.236   3.743   1.865 -0.4633 -2.1871  1.4228
 1055TIP3    H2 3172   2.382   3.759   1.828 -0.6661 -0.9268  1.0989
 1056TIP3   OH2 3173   0.782   2.061   4.211 -0.3511  0.2302 -0.1948
 1056TIP3    H1 3174   0.862   2.009   4.219 -0.6737 -0.4608 -1.3170
 1056TIP3    H2 3175   0.810   2.151   4.229  0.5510 -0.0855  0.0338
 1057TIP3   OH2 3176   1.308   4.912   3.957 -0.1018 -0.0181  0.3680
 1057TIP3    H1 3177   1.369   4.958   4.014 -0.2595 -0.3940  0.8451
 1057TIP3    H2 3178   1.334   4.820   3.962 -0.5582 -0.1502  0.3873
 1058TIP3   OH2 3179   2.069   5.193   0.173  0.1832  0.6862 -0.6722
 1058TIP3    H1 3180   2.089   5.282   0.202 -0.0354  0.7132 -0.5990
 1058TIP3    H2 3181   1.973   5.188   0.178  0.2790 -0.2050  1.3059
 1059TIP3   OH2 3182   5.873   3.538   4.030 -0.5545 -0.4955 -0.7004
 1059TIP3    H1 3183   5.930   3.476   4.075 -1.9596 -0.6921  0.8515
 1059TIP3    H2 3184   5.893   3.623   4.070  0.0330 -0.2171 -1.5383
 1060TIP3   OH2 3185   3.379   2.498   3.494  0.1941 -0.0432 -0.2703
 1060TIP3    H1 3186   3.422   2.564   3.548  0.9635 -0.5280 -0.2820
 1060TIP3    H2 3187   3.436   2.486   3.419 -0.2817 -0.2285 -0.6083
 1061TIP3   OH2 3188   1.919   2.122   1.195 -0.4350 -0.0358  0.0355
 1061TIP3    H1 3189   1.888   2.153   1.110  1.4288  0.2382 -0.6045
 1061TIP3    H2 3190   1.973   2.194   1.228 -1.2094 -0.1009  1.5219
 1062TIP3   OH2 3191   0.325   3.691   2.962  0.0260  0.3019  0.1208
 1062TIP3    H1 3192   0.333   3.751   3.036  1.1942  0.7243 -0.3236
 1062TIP3    H2 3193   0.381   3.617   2.986  0.3880  0.4305 -0.3343
 1063TIP3   OH2 3194   5.035   3.609   4.209  0.6098  0.4302 -0.2470
 1063TIP3    H1 3195   4.983   3.689   4.208 -2.5794 -1.3301  2.0628
 1063TIP3    H2 3196   5.051   3.589   4.117 -0.5367  2.5129 -0.9567
 1064TIP3   OH2 3197   0.273   3.952   2.081  0.0697  0.4134  0.3932
 1064TIP3    H1 3198   0.346   4.014   2.071  0.0663  0.5210  0.9697
 1064TIP3    H2 3199   0.211   3.998   2.137 -0.5229  0.3879 -0.2383
 1065TIP3   OH2 3200   0.935   0.890   1.069  0.2967  0.8219  0.0369
 1065TIP3    H1 3201   0.971   0.953   1.007  0.0752  0.8673 -0.0455
 1065TIP3    H2 3202   0.946   0.933   1.154  1.5453  0.3302  0.1493
 1066TIP3   OH2 3203   4.531   2.992   4.661 -0.0052  0.1843  0.3388
 1066TIP3    H1 3204   4.525   2.903   4.627  1.0721 -0.0171  0.6374
 1066TIP3    H2 3205   4.446   3.032   4.640 -1.4868 -1.6461  2.3922
 1067TIP3   OH2 3206   2.537   5.270   0.178  0.0626  0.3050  0.0918
 1067TIP3    H1 3207   2.552   5.326   0.102  0.3307  0.5405  0.3203
 1067TIP3    H2 3208   2.606   5.292   0.239 -0.2336  0.2115  0.4642
 1068TIP3   OH2 3209   5.389   3.942   4.418 -0.5161 -0.2435  0.8193
 1068TIP3    H1 3210   5.295   3.934   4.430 -0.5964 -0.0039  0.3619
 1068TIP3    H2 3211   5.406   4.036   4.419 -0.5701 -0.1808 -1.1910
 1069TIP3   OH2 3212   3.628   2.522   5.211  0.5135 -0.2094 -0.6618
 1069TIP3    H1 3213   3.555   2.581   5.233  0.5663 -0.5433  0.4951
 1069TIP3    H2 3214   3.645   2.538   5.119 -0.1360  0.8629 -0.6113
 1070TIP3   OH2 3215   6.225   4.825   0.751  0.3165 -0.4746  0.3440
 1070TIP3    H1 3216   6.224   4.763   0.678 -1.6152 -0.4254  0.2737
 1070TIP3    H2 3217   6.204   4.772   0.828  0.2694 -0.1817  0.5371
 1071TIP3   OH2 3218   6.088   1.437   2.368 -0.2535  0.1094  0.2274
 1071TIP3    H1 3219   6.056   1.478   2.449  1.7135 -2.1627  2.3402
 1071TIP3    H2 3220   6.183   1.448   2.372  0.0860 -2.0077 -0.5608
 1072TIP3   OH2 3221   0.637   2.006   2.102  0.0221 -0.0173  0.4138
 1072TIP3    H1 3222   0.649   1.913   2.080  1.5418  0.5309 -1.3284
 1072TIP3    H2 3223   0.719   2.031   2.144  0.6286  1.0811 -1.3256
 1073TIP3   OH2 3224   0.981   3.108   4.672 -0.0189 -0.4306  0.2210
 1073TIP3    H1 3225   1.032   3.040   4.717  2.1111  0.1975 -1.0789
 1073TIP3    H2 3226   0.960   3.171   4.741  0.6457 -0.9048  0.8885
 1074TIP3   OH2 3227   4.450   4.598   3.775 -0.2957 -0.5575 -0.2975
 1074TIP3    H1 3228   4.424   4.617   3.685 -1.4349 -1.2362 -0.1291
 1074TIP3    H2 3229   4.397   4.658   3.828  1.2723  0.7367 -0.1035
 1075TIP3   OH2 3230   4.238   0.109   3.021  0.1076 -0.1514  0.1790
 1075TIP3    H1 3231   4.144   0.115   3.000  0.2411  0.6968 -0.2305
 1075TIP3    H2 3232   4.241   0.115   3.117 -0.1855  1.2205  0.1216
 1076TIP3   OH2 3233   3.351   5.140   1.355 -0.5282 -0.1688  0.8566
 1076TIP3    H1 3234   3.311   5.136   1.442 -0.8787  0.8100  0.7599
 1076TIP3    H2 3235   3.422   5.203   1.365 -0.0522 -0.6635  0.6244
 1077TIP3   OH2 3236   2.454   1.913   0.301 -0.0041 -0.3155 -0.2218
 1077TIP3    H1 3237   2.445   1.818   0.312  1.1438 -0.3599  0.3961
 1077TIP3    H2 3238   2.481   1.924   0.210 -0.0327 -0.5879 -0.2654
 1078TIP3   OH2 3239   1.840   5.433   2.838 -0.0577  0.1663 -0.1676
 1078TIP3    H1 3240   1.904   5.488   2.882  0.3997 -0.7227  0.3085
 1078TIP3    H2 3241   1.892   5.375   2.782 -0.3516 -1.0899  0.8062
 1079TIP3   OH2 3242   0.818   3.802   0.521  0.1732 -0.2497 -0.0146
 1079TIP3    H1 3243   0.764   3.798   0.600 -0.8829 -1.9134 -0.7517
 1079TIP3    H2 3244   0.881   3.731   0.532  0.8979  0.3727 -0.0871
 1080TIP3   OH2 3245   5.897   1.683   0.338 -0.2218  0.2496 -0.6430
 1080TIP3    H1 3246   5.977   1.689   0.286  1.2329 -0.5360  1.3570
 1080TIP3    H2 3247   5.888   1.769   0.379 -0.7074  0.4966 -1.2533
 1081TIP3   OH2 3248   4.823   2.395   2.788  1.1729  0.1912  0.0904
 1081TIP3    H1 3249   4.739   2.441   2.785  1.4209  0.6158 -2.3951
 1081TIP3    H2 3250   4.888   2.463   2.767  2.0210 -0.3946  0.7562
 1082TIP3   OH2 3251   0.829   3.523   2.485  0.0115  0.4034 -0.3131
 1082TIP3    H1 3252   0.893   3.590   2.508 -0.4952  1.1170 -0.9059
 1082TIP3    H2 3253   0.785   3.558   2.407  0.9155 -1.3873 -1.7200
 1083TIP3   OH2 3254   3.853   3.877   4.755  0.0561 -0.2886  0.0137
 1083TIP3    H1 3255   3.866   3.788   4.722  1.9179 -0.2068  0.3843
 1083TIP3    H2 3256   3.913   3.931   4.703 -1.0488  0.7634 -0.2143
 1084TIP3   OH2 3257   3.764   0.318   2.433 -0.0765  0.3375  0.1360
 1084TIP3    H1 3258   3.754   0.334   2.339  0.3564  0.7145  0.1519
 1084TIP3    H2 3259   3.718   0.235   2.448 -1.2024  0.8908 -0.1842
 1085TIP3   OH2 3260   0.788   3.039   2.895  0.6909  0.4339  0.6470
 1085TIP3    H1 3261   0.779   3.061   2.802 -0.0388 -0.2878  0.5316
 1085TIP3    H2 3262   0.830   2.953   2.895 -2.3597 -1.1897  0.8165
 1086TIP3   OH2 3263   0.486   0.403   3.097 -0.0529 -0.0972  0.4387
 1086TIP3    H1 3264   0.417   0.454   3.054  0.4167 -0.9665 -1.4384
 1086TIP3    H2 3265   0.514   0.458   3.170 -0.2044  1.9322 -0.9421
 1087TIP3   OH2 3266   0.766   3.719   1.620 -0.4982  0.2514 -0.0554
 1087TIP3    H1 3267   0.772   3.644   1.679  0.3944 -0.0391 -0.4875
 1087TIP3    H2 3268   0.672   3.735   1.610 -0.6777  0.7680  1.9928
 1088TIP3   OH2 3269   0.230   1.395   0.451 -0.0253 -0.0630 -0.0952
 1088TIP3    H1 3270   0.175   1.357   0.518 -1.8561  0.6281 -1.1230
 1088TIP3    H2 3271   0.188   1.479   0.430  1.2585  0.3628 -1.1364
 1089TIP3   OH2 3272   4.280   2.019   0.366 -0.3157  0.4279 -0.4398
 1089TIP3    H1 3273   4.361   2.022   0.314  0.4980 -0.2929  0.7174
 1089TIP3    H2 3274   4.212   2.049   0.307  0.8985  1.6776 -1.2737
 1090TIP3   OH2 3275   4.941   5.473   3.732  0.0644 -0.1254  0.6367
 1090TIP3    H1 3276   5.027   5.501   3.763  0.1538 -0.0966  0.3648
 1090TIP3    H2 3277   4.952   5.460   3.637 -0.5174  0.9607  0.4059
 1091TIP3   OH2 3278   2.447   5.138   2.191 -0.0854 -0.7875  0.4151
 1091TIP3    H1 3279   2.497   5.120   2.112  1.1944 -1.0108  1.2399
 1091TIP3    H2 3280   2.507   5.119   2.263 -1.9419 -2.9436  1.5367
 1092TIP3   OH2 3281   5.079   1.037   3.033 -0.6856 -0.0802  0.4717
 1092TIP3    H1 3282   5.095   0.944   3.049  2.0390  0.1005 -0.6130
 1092TIP3    H2 3283   5.102   1.079   3.116  3.8111  0.0115 -0.5893
 1093TIP3   OH2 3284   5.776   0.887   4.761 -0.1030 -0.2795  0.2164
 1093TIP3    H1 3285   5.830   0.857   4.835  0.7503 -0.0091 -0.2769
 1093TIP3    H2 3286   5.790   0.821   4.693  0.8347  0.5683 -0.4501
 1094TIP3   OH2 3287   3.377   0.240   4.019 -0.4682  0.7424 -0.0245
 1094TIP3    H1 3288   3.293   0.205   4.050 -0.5761  0.9541 -0.0760
 1094TIP3    H2 3289   3.397   0.190   3.940 -0.5538  0.7003 -0.0194
 1095TIP3   OH2 3290   5.104   0.062   2.362  0.1131 -0.0852 -0.1196
 1095TIP3    H1 3291   5.080   0.046   2.453 -0.6715  1.3956 -0.0388
 1095TIP3    H2 3292   5.059   0.143   2.339  0.4023 -0.3589 -1.7938
 1096TIP3   OH2 3293   5.665   1.888   3.058 -0.4723  0.1867  0.1833
 1096TIP3    H1 3294   5.720   1.907   2.982  0.8073 -0.1649  0.9868
 1096TIP3    H2 3295   5.680   1.962   3.117  0.0217 -0.4427  0.8700
 1097TIP3   OH2 3296   5.647   1.205   0.018 -0.2977 -0.2701 -0.5660
 1097TIP3    H1 3297   5.589   1.275   0.048 -1.1621 -1.4049  0.4930
 1097TIP3    H2 3298   5.735   1.236   0.040 -0.4796  1.3234 -1.8883
 1098TIP3   OH2 3299   4.004   5.013   4.025 -0.1369 -0.1943 -0.4142
 1098TIP3    H1 3300   3.981   5.063   3.947 -0.5731  0.0376 -0.1383
 1098TIP3    H2 3301   4.073   5.065   4.067 -1.7626  1.0929  0.7870
 1099TIP3   OH2 3302   3.210   2.377   0.815  0.4883 -0.1528 -0.3290
 1099TIP3    H1 3303   3.156   2.322   0.758 -1.6106  0.1565  1.2576
 1099TIP3    H2 3304   3.252   2.315   0.875 -0.0333 -0.2088 -0.0201
 1100TIP3   OH2 3305   6.321   1.804   3.728 -0.4495  0.0874  0.6850
 1100TIP3    H1 3306   6.226   1.794   3.734 -0.7491  1.0299 -1.5880
 1100TIP3    H2 3307   6.337   1.833   3.638  1.9573  0.4774  1.1625
 1101TIP3   OH2 3308   4.919   5.156   1.396  0.0197 -0.1215  0.1219
 1101TIP3    H1 3309   5.011   5.144   1.374  0.1201  0.4651  0.2065
 1101TIP3    H2 3310   4.889   5.226   1.339 -0.0296  0.5959  1.0058
 1102TIP3   OH2 3311   5.132   4.633   0.124  0.3664  0.1827  0.2469
 1102TIP3    H1 3312   5.046   4.631   0.082  1.4611 -0.1649 -2.1079
 1102TIP3    H2 3313   5.194   4.613   0.054  2.3014 -0.8058  2.1195
 1103TIP3   OH2 3314   3.874   1.071   1.831 -0.7548  0.8161 -0.0256
 1103TIP3    H1 3315   3.800   1.018   1.859 -0.7017  1.8446  2.2808
 1103TIP3    H2 3316   3.941   1.056   1.898  1.4185 -0.5121 -2.3183
 1104TIP3   OH2 3317   0.738   2.388   4.855 -0.4526 -0.7842 -0.0943
 1104TIP3    H1 3318   0.807   2.326   4.832  0.0115 -0.1935 -0.3189
 1104TIP3    H2 3319   0.726   2.378   4.949  1.2054  0.3593  0.2816
 1105TIP3   OH2 3320   5.698   1.763   4.685 -0.3039  0.3979  0.4793
 1105TIP3    H1 3321   5.619   1.803   4.649  0.4142  1.5596  0.1375
 1105TIP3    H2 3322   5.678   1.752   4.778 -0.8656  0.7065  0.4052
 1106TIP3   OH2 3323   1.104   2.522   4.673 -0.1773 -0.0452  0.4599
 1106TIP3    H1 3324   1.092   2.432   4.703 -2.1859 -0.3655 -1.0633
 1106TIP3    H2 3325   1.022   2.566   4.696  0.2326  1.0207 -0.0504
 1107TIP3   OH2 3326   4.719   3.013   1.983  0.5725 -0.0802  0.0132
 1107TIP3    H1 3327   4.698   2.926   1.949 -0.2481  0.0374  0.2019
 1107TIP3    H2 3328   4.794   3.042   1.930 -0.4975 -0.0083 -1.5187
 1108TIP3   OH2 3329   2.525   4.799   2.727 -0.0912 -0.5721 -0.3904
 1108TIP3    H1 3330   2.511   4.851   2.806  0.2574 -1.5245  0.3140
 1108TIP3    H2 3331   2.602   4.839   2.686 -2.1282  2.0069 -2.0551
 1109TIP3   OH2 3332   2.355   5.908   1.496 -0.0179  0.0633  0.1974
 1109TIP3    H1 3333   2.285   5.888   1.435 -0.4414  0.3560  0.5866
 1109TIP3    H2 3334   2.312   5.947   1.572  0.8225  3.4756 -0.9124
 1110TIP3   OH2 3335   3.146   1.698   1.659  0.1560  0.1322 -0.2662
 1110TIP3    H1 3336   3.227   1.747   1.645  0.7977 -1.1208 -1.1534
 1110TIP3    H2 3337   3.168   1.635   1.727 -0.5887  0.8773  0.6875
 1111TIP3   OH2 3338   0.701   3.842   0.805  0.3582  0.6985  0.5312
 1111TIP3    H1 3339   0.646   3.776   0.763  0.4262  1.7840 -1.3878
 1111TIP3    H2 3340   0.686   3.830   0.898 -0.3977 -1.3515  0.1992
 1112TIP3   OH2 3341   0.932   0.480   4.866  0.7139  0.2424  0.1275
 1112TIP3    H1 3342   1.004   0.492   4.928 -0.0159  2.0077  0.6969
 1112TIP3    H2 3343   0.976   0.475   4.780  1.6358 -0.8258  0.6350
 1113TIP3   OH2 3344   4.332   5.126   2.740 -0.6278  0.2861  0.2148
 1113TIP3    H1 3345   4.395   5.176   2.793 -0.2361  0.2178 -0.1873
 1113TIP3    H2 3346   4.348   5.035   2.764  0.8892  0.0710 -1.4216
 1114TIP3   OH2 3347   0.351   5.552   2.210  0.5453  0.2095  0.0470
 1114TIP3    H1 3348   0.432   5.586   2.171 -0.2118  0.6997 -1.1744
 1114TIP3    H2 3349   0.377   5.522   2.297  1.9055  0.9419 -0.0729
 1115TIP3   OH2 3350   4.181   4.341   0.763 -0.0972 -0.2732 -0.4572
 1115TIP3    H1 3351   4.127   4.332   0.684  1.2476 -1.0025 -1.3369
 1115TIP3    H2 3352   4.163   4.262   0.813  1.3302 -1.3431 -1.5449
 1116TIP3   OH2 3353   4.460   2.191   2.315  0.1972 -0.2901 -0.2850
 1116TIP3    H1 3354   4.373   2.191   2.354  0.2553  0.2002 -0.1457
 1116TIP3    H2 3355   4.490   2.282   2.322  0.9596 -0.5643  0.2160
 1117TIP3   OH2 3356   2.891   3.739   4.535 -0.5440  0.4469 -0.2781
 1117TIP3    H1 3357   2.908   3.696   4.620  1.1353  0.8628 -0.3779
 1117TIP3    H2 3358   2.887   3.832   4.556  1.1451  0.6583 -0.8194
 1118TIP3   OH2 3359   5.420   2.512   2.943  0.4605  0.0063  0.0633
 1118TIP3    H1 3360   5.372   2.429   2.948  0.3355  0.1026  0.5437
 1118TIP3    H2 3361   5.491   2.495   2.881 -1.3585  0.4727 -2.2525
 1119TIP3   OH2 3362   3.555   4.639   2.623 -1.0865  0.4468 -0.4707
 1119TIP3    H1 3363   3.592   4.602   2.704 -1.9964  0.2965 -0.1158
 1119TIP3    H2 3364   3.467   4.601   2.618 -0.7144 -0.2795 -2.0182
 1120TIP3   OH2 3365   0.804   5.372   1.272  0.0666  0.7921 -0.7787
 1120TIP3    H1 3366   0.806   5.445   1.210  0.6471 -0.1227 -1.8770
 1120TIP3    H2 3367   0.726   5.323   1.248  1.4378 -0.7850 -2.3021
 1121TIP3   OH2 3368   3.632   3.555   0.061 -0.1765  0.0618  0.0485
 1121TIP3    H1 3369   3.631   3.591  -0.028  1.3035  0.6033  0.2268
 1121TIP3    H2 3370   3.540   3.534   0.079 -0.6415  0.8700 -1.2209
 1122TIP3   OH2 3371   0.669   0.501   1.679  0.7678  0.1870 -0.1159
 1122TIP3    H1 3372   0.683   0.590   1.648  0.0364  0.9238  1.5381
 1122TIP3    H2 3373   0.582   0.503   1.719  0.5259 -1.4015 -0.4878
 1123TIP3   OH2 3374   6.098   4.505   4.388 -0.3315 -0.4184  0.2955
 1123TIP3    H1 3375   6.082   4.558   4.310  1.1685 -1.1135 -0.5204
 1123TIP3    H2 3376   6.118   4.418   4.354  2.3565 -0.2808  1.2808
 1124TIP3   OH2 3377   2.895   2.088   2.860  0.1375 -0.4293 -0.3643
 1124TIP3    H1 3378   2.884   2.180   2.884 -0.7897 -0.3247 -1.1386
 1124TIP3    H2 3379   2.980   2.064   2.896  0.5788  0.8500 -0.5106
 1125TIP3   OH2 3380   5.301   4.845   1.196 -0.0539  0.2694 -0.0088
 1125TIP3    H1 3381   5.362   4.877   1.261 -0.7886 -0.8884  1.3119
 1125TIP3    H2 3382   5.229   4.909   1.197  0.0149  0.3444  0.1961
 1126TIP3   OH2 3383   3.542   4.349   2.041 -0.0407  0.8290 -0.0048
 1126TIP3    H1 3384   3.577   4.290   1.974  0.2021  1.4215 -0.4137
 1126TIP3    H2 3385   3.618   4.400   2.069  0.3115 -0.7705  2.2052
 1127TIP3   OH2 3386   4.997   1.852   0.539  0.4068  0.0458 -0.1662
 1127TIP3    H1 3387   5.007   1.822   0.448  0.5353 -0.6563  0.0762
 1127TIP3    H2 3388   4.918   1.808   0.570  1.2107 -0.9328  0.5462
 1128TIP3   OH2 3389   3.706   5.909   4.978  0.2646  0.2586  0.0917
 1128TIP3    H1 3390   3.696   5.972   5.049  0.1173  1.1043 -0.6586
 1128TIP3    H2 3391   3.735   5.829   5.021 -1.4376  0.2308  1.3255
 1129TIP3   OH2 3392   1.043   1.711   2.200 -0.1831 -0.0738  0.0572
 1129TIP3    H1 3393   1.108   1.667   2.145 -0.7481 -1.0593  0.1661
 1129TIP3    H2 3394   0.996   1.641   2.244  1.4287  0.6793  3.2390
 1130TIP3   OH2 3395   2.315   1.691   3.798 -0.0832  0.3891  0.1341
 1130TIP3    H1 3396   2.409   1.709   3.808  0.1973 -0.9441  0.1272
 1130TIP3    H2 3397   2.303   1.680   3.704 -0.6475  2.4067 -0.0829
 1131TIP3   OH2 3398   1.891   1.087   4.020  0.0052 -0.5186  0.2153
 1131TIP3    H1 3399   1.966   1.141   3.995  0.1052 -0.9422 -0.4208
 1131TIP3    H2 3400   1.919   1.044   4.101  0.4084 -0.5882  0.0423
 1132TIP3   OH2 3401   0.426   0.514   3.506 -1.2417  0.6108  0.1743
 1132TIP3    H1 3402   0.511   0.506   3.463  0.3512 -0.9548  3.3078
 1132TIP3    H2 3403   0.369   0.455   3.457  0.6917 -1.7431  0.5686
 1133TIP3   OH2 3404   5.464   1.571   1.721 -0.2733 -0.0873  0.1762
 1133TIP3    H1 3405   5.381   1.577   1.674  0.0647 -0.5565 -0.4990
 1133TIP3    H2 3406   5.502   1.488   1.692  2.1448  1.7454 -2.4304
 1134TIP3   OH2 3407   2.791   4.958   1.231  0.8359 -0.1069  0.0971
 1134TIP3    H1 3408   2.858   4.921   1.289  0.7836  1.1339  1.0011
 1134TIP3    H2 3409   2.724   4.991   1.290 -0.4951 -1.1374 -0.7949
 1135TIP3   OH2 3410   1.265   2.383   0.779  0.3513  0.0725 -0.5879
 1135TIP3    H1 3411   1.184   2.422   0.747  1.2006  0.6049 -2.2217
 1135TIP3    H2 3412   1.249   2.367   0.872 -2.1144 -1.1720 -1.1424
 1136TIP3   OH2 3413   3.512   1.939   0.969 -0.0042 -0.7303  0.0197
 1136TIP3    H1 3414   3.584   1.915   0.912 -1.7191 -0.6872 -2.3021
 1136TIP3    H2 3415   3.533   2.028   0.998  1.1253 -0.9276 -0.1476
 1137TIP3   OH2 3416   1.858   5.060   1.660  0.7901 -0.7778  0.1523
 1137TIP3    H1 3417   1.951   5.038   1.659  0.7432 -0.9786 -0.1314
 1137TIP3    H2 3418   1.831   5.053   1.568  0.5922 -0.2913  0.1693
 1138TIP3   OH2 3419   2.142   5.552   0.722 -0.0221 -0.5827  0.0547
 1138TIP3    H1 3420   2.225   5.515   0.752  2.4720  2.3982 -2.4030
 1138TIP3    H2 3421   2.111   5.603   0.797  1.1278 -0.6165  0.5871
 1139TIP3   OH2 3422   0.506   1.879   3.844 -0.0247  0.9691 -0.7898
 1139TIP3    H1 3423   0.433   1.868   3.905  2.1633 -1.6145  1.6293
 1139TIP3    H2 3424   0.482   1.827   3.768 -1.6104  1.9709 -1.0112
 1140TIP3   OH2 3425   5.291   2.806   0.235  0.0830 -0.0756 -0.2800
 1140TIP3    H1 3426   5.210   2.851   0.258  0.2188 -0.0158  0.0927
 1140TIP3    H2 3427   5.289   2.725   0.286  0.2472 -0.0853 -0.2873
 1141TIP3   OH2 3428   3.148   0.466   0.787  0.1673  0.2172 -0.1311
 1141TIP3    H1 3429   3.231   0.418   0.793  0.8080  1.2807 -0.2538
 1141TIP3    H2 3430   3.154   0.533   0.855 -0.7328  0.1112  0.0637
 1142TIP3   OH2 3431   5.678   0.837   1.730  0.2228 -0.3344 -0.4589
 1142TIP3    H1 3432   5.583   0.843   1.741  0.0234 -2.0631 -0.9374
 1142TIP3    H2 3433   5.691   0.827   1.636  0.8813 -0.0076 -0.4083
 1143TIP3   OH2 3434   6.189   1.163   0.601 -0.5139  0.0571  0.2700
 1143TIP3    H1 3435   6.131   1.090   0.579 -1.0323  0.1420  1.2682
 1143TIP3    H2 3436   6.170   1.181   0.693  0.4916  0.6543  0.3741
 1144TIP3   OH2 3437   3.646   3.199   2.272 -0.1376  0.4779  0.0398
 1144TIP3    H1 3438   3.668   3.283   2.233 -0.3279  0.1190 -0.8781
 1144TIP3    H2 3439   3.673   3.134   2.207  0.8616 -0.2300  1.1199
 1145TIP3   OH2 3440   2.520   2.260   3.000 -0.4097  0.1292  0.1342
 1145TIP3    H1 3441   2.450   2.276   3.063  1.4335  0.3007  2.2806
 1145TIP3    H2 3442   2.593   2.312   3.032  1.4371 -1.8282 -0.6550
 1146TIP3   OH2 3443   2.012   4.358   1.688  0.4066  0.7986 -0.3640
 1146TIP3    H1 3444   2.045   4.446   1.707 -0.9700  1.1029  0.7341
 1146TIP3    H2 3445   2.054   4.335   1.605  1.7911  1.9523 -0.0393
 1147TIP3   OH2 3446   3.172   4.262   0.167 -0.7612 -0.4837 -0.2021
 1147TIP3    H1 3447   3.089   4.295   0.202 -0.1715  0.6108  0.2256
 1147TIP3    H2 3448   3.190   4.319   0.091 -0.3900 -0.6944 -0.2727
 1148TIP3   OH2 3449   5.735   1.350   4.536 -0.8656 -0.1743  0.3059
 1148TIP3    H1 3450   5.759   1.263   4.503  0.7631 -0.1652  1.3485
 1148TIP3    H2 3451   5.690   1.332   4.619 -2.0416 -0.0697 -0.2945
 1149TIP3   OH2 3452   4.031   0.994   3.471 -0.0880 -0.1549  0.1769
 1149TIP3    H1 3453   3.938   1.012   3.484 -0.4525  0.6597 -2.7457
 1149TIP3    H2 3454   4.034   0.902   3.444 -0.2284  0.1070 -0.7876
 1150TIP3   OH2 3455   2.442   2.937   1.588  0.2328  0.2423 -0.0773
 1150TIP3    H1 3456   2.376   2.952   1.520  0.8119  0.3922 -0.6136
 1150TIP3    H2 3457   2.507   3.007   1.575 -0.5993  1.4514  1.8419
 1151TIP3   OH2 3458   4.823   3.346   4.030  0.0702 -0.3686  0.0239
 1151TIP3    H1 3459   4.752   3.357   4.093 -0.1858  1.3730 -0.5163
 1151TIP3    H2 3460   4.879   3.278   4.068 -0.4015  0.2041  1.8201
 1152TIP3   OH2 3461   2.514   5.795   0.949  0.0910  0.5009 -0.2831
 1152TIP3    H1 3462   2.575   5.748   0.892  3.1492  1.5380  1.8576
 1152TIP3    H2 3463   2.559   5.877   0.970 -0.6433  0.0878  3.7246
 1153TIP3   OH2 3464   5.071   0.957   0.993 -0.7337 -0.3990  0.1369
 1153TIP3    H1 3465   5.106   0.880   0.950 -2.7717 -0.8985 -0.7504
 1153TIP3    H2 3466   5.049   1.017   0.922 -0.1245  0.5942  0.7565
 1154TIP3   OH2 3467   1.791   5.408   0.681 -0.0880 -0.0952 -0.3167
 1154TIP3    H1 3468   1.816   5.415   0.773 -1.6202  0.7654  0.0791
 1154TIP3    H2 3469   1.866   5.442   0.633  0.0814  1.1173  0.7347
 1155TIP3   OH2 3470   4.880   4.694   1.293  0.4354 -0.2602 -0.3572
 1155TIP3    H1 3471   4.904   4.679   1.202  2.5739  0.0426  0.0917
 1155TIP3    H2 3472   4.884   4.789   1.303  1.7715 -0.3688  0.3911
 1156TIP3   OH2 3473   2.155   5.685   0.475 -0.0807 -0.6917 -0.0943
 1156TIP3    H1 3474   2.133   5.651   0.561 -0.5639 -0.0670  0.0378
 1156TIP3    H2 3475   2.250   5.683   0.471  0.1086  1.4772  1.4043
 1157TIP3   OH2 3476   0.666   2.121   3.240  0.2923 -0.2702 -0.0408
 1157TIP3    H1 3477   0.730   2.125   3.311 -0.4476 -1.4899  0.7375
 1157TIP3    H2 3478   0.679   2.034   3.201 -1.9564 -1.2730  1.2349
 1158TIP3   OH2 3479   5.277   3.579   2.463 -0.1004 -0.0725 -0.4282
 1158TIP3    H1 3480   5.353   3.566   2.406 -0.3665 -1.2214 -0.5441
 1158TIP3    H2 3481   5.215   3.512   2.435  0.0591 -1.1820  1.7068
 1159TIP3   OH2 3482   5.050   1.704   2.945  0.2090 -0.5520  0.3728
 1159TIP3    H1 3483   5.142   1.692   2.923  0.8548  2.1209  1.2263
 1159TIP3    H2 3484   5.022   1.780   2.894 -0.6795  0.4067  2.1524
 1160TIP3   OH2 3485   1.505   2.412   1.392 -0.6525  0.2273 -0.2053
 1160TIP3    H1 3486   1.414   2.384   1.382 -1.1021  1.7588 -0.6134
 1160TIP3    H2 3487   1.535   2.429   1.303  0.0983 -0.4071 -0.0863
 1161TIP3   OH2 3488   4.006   0.552   3.134 -0.2617  0.1529  0.2632
 1161TIP3    H1 3489   4.090   0.512   3.159  0.3662  0.8299 -0.7164
 1161TIP3    H2 3490   3.966   0.489   3.075 -0.6826 -0.3887  1.1009
 1162TIP3   OH2 3491   2.208   2.469   2.890  0.3098 -0.1782 -0.5267
 1162TIP3    H1 3492   2.126   2.439   2.931  0.0548  0.3002 -0.6805
 1162TIP3    H2 3493   2.192   2.463   2.796 -0.0681  1.2643 -0.5772
 1163TIP3   OH2 3494   5.123   5.187   0.060  0.1931  0.3285 -0.1918
 1163TIP3    H1 3495   5.080   5.228  -0.014 -0.0637  1.1099  0.3707
 1163TIP3    H2 3496   5.052   5.148   0.111  0.3745 -0.2714 -0.3889
 1164TIP3   OH2 3497   2.336   2.116   2.097  0.2974 -0.1056  0.5249
 1164TIP3    H1 3498   2.249   2.107   2.058  0.3030  0.2712  0.4224
 1164TIP3    H2 3499   2.320   2.112   2.192  0.1550  0.0719  0.5087
 1165TIP3   OH2 3500   2.308   0.455   4.485 -0.1793  0.3258  0.0570
 1165TIP3    H1 3501   2.274   0.512   4.555 -0.4452 -0.3283  0.4695
 1165TIP3    H2 3502   2.264   0.371   4.500 -1.0638  0.4757 -1.5492
 1166TIP3   OH2 3503   5.313   0.328   0.386  0.3325 -0.3812 -0.5101
 1166TIP3    H1 3504   5.404   0.322   0.357  0.2097 -0.6001 -0.8539
 1166TIP3    H2 3505   5.262   0.299   0.310 -0.1668  2.2546 -1.2976
 1167TIP3   OH2 3506   3.028   2.040   4.139  0.3807 -0.0865 -0.2593
 1167TIP3    H1 3507   3.055   1.954   4.170  0.8546  0.3675  0.6290
 1167TIP3    H2 3508   2.935   2.045   4.161  0.4478 -0.2135  0.0628
 1168TIP3   OH2 3509   3.817   4.516   0.838 -0.3537 -0.0047 -0.5598
 1168TIP3    H1 3510   3.740   4.484   0.791 -1.1142 -0.7423  1.0983
 1168TIP3    H2 3511   3.803   4.611   0.843 -0.3656  0.0627 -1.5918
 1169TIP3   OH2 3512   3.331   2.685   4.552 -0.0336 -0.5011 -0.1256
 1169TIP3    H1 3513   3.259   2.657   4.607 -0.6439 -0.7479 -1.0412
 1169TIP3    H2 3514   3.355   2.772   4.587 -1.2781 -0.0700 -0.3036
 1170TIP3   OH2 3515   4.466   3.560   2.276  0.0070 -0.2135 -0.0678
 1170TIP3    H1 3516   4.440   3.582   2.366  0.5206 -0.7757  0.2265
 1170TIP3    H2 3517   4.384   3.560   2.227 -0.3421 -0.3361  0.4997
 1171TIP3   OH2 3518   2.863   3.636   1.045  0.0997 -0.7594  0.0310
 1171TIP3    H1 3519   2.895   3.670   0.961  0.5617 -0.4592  0.3210
 1171TIP3    H2 3520   2.768   3.632   1.035  0.2525 -2.1749 -1.0388
 1172TIP3   OH2 3521   1.943   4.521   2.640  0.4783 -0.0640 -0.1566
 1172TIP3    H1 3522   1.964   4.430   2.657 -0.4264 -0.0649  1.0660
 1172TIP3    H2 3523   2.027   4.562   2.621  1.3596 -0.4895  2.4928
 1173TIP3   OH2 3524   5.791   0.265   0.471  0.0251  0.4803 -0.0245
 1173TIP3    H1 3525   5.793   0.193   0.534 -0.8650 -0.6207 -1.2029
 1173TIP3    H2 3526   5.782   0.344   0.525  0.7857 -0.2870  1.2812
 1174TIP3   OH2 3527   1.421   4.269   1.757 -0.3822 -0.3182  0.8658
 1174TIP3    H1 3528   1.431   4.275   1.852  1.5901 -0.6317  0.7261
 1174TIP3    H2 3529   1.504   4.233   1.726 -0.8093  0.1860 -1.0352
 1175TIP3   OH2 3530   1.579   1.434   4.090 -0.5324 -0.2910 -0.3899
 1175TIP3    H1 3531   1.576   1.372   4.163 -1.3015 -0.8149 -0.8544
 1175TIP3    H2 3532   1.592   1.380   4.012  1.2167  0.3359 -0.5699
 1176TIP3   OH2 3533   2.997   2.286   0.161 -0.5674 -0.3524  0.1827
 1176TIP3    H1 3534   3.031   2.200   0.138 -0.9504 -0.0276 -1.8096
 1176TIP3    H2 3535   2.915   2.268   0.207 -0.5893 -1.0637 -0.1188
 1177TIP3   OH2 3536   0.064   0.805   1.981  0.0334  0.3530 -0.2505
 1177TIP3    H1 3537   0.119   0.735   1.947  0.1988  0.7525 -0.8165
 1177TIP3    H2 3538   0.104   0.828   2.065 -1.3070 -1.7328  1.0427
 1178TIP3   OH2 3539   2.925   1.783   5.028 -0.0178 -0.0953 -0.0177
 1178TIP3    H1 3540   2.885   1.869   5.016  0.2367 -0.0567 -0.6089
 1178TIP3    H2 3541   2.914   1.739   4.944  1.4538  0.0274 -0.3017
 1179TIP3   OH2 3542   0.183   3.265   3.877 -0.8693  0.1800 -0.1702
 1179TIP3    H1 3543   0.264   3.215   3.877 -0.6143  0.5700 -1.3279
 1179TIP3    H2 3544   0.176   3.300   3.966  0.4578  0.4908 -0.1757
 1180TIP3   OH2 3545   2.973   2.877   2.148 -0.2877  0.3578  0.4062
 1180TIP3    H1 3546   3.012   2.898   2.233 -0.3441 -3.4864  1.5431
 1180TIP3    H2 3547   2.885   2.845   2.169 -1.0462  1.1430 -1.3445
 1181TIP3   OH2 3548   4.798   3.661   5.099  0.1320  0.7689  0.5982
 1181TIP3    H1 3549   4.812   3.734   5.159 -0.7708 -0.8573  2.9711
 1181TIP3    H2 3550   4.866   3.598   5.122  0.0051  0.2585 -0.3871
 1182TIP3   OH2 3551   4.195   1.742   1.964 -0.2457  0.5050 -0.0548
 1182TIP3    H1 3552   4.101   1.757   1.976 -0.1826  0.3447  0.7034
 1182TIP3    H2 3553   4.203   1.647   1.955 -0.1315  0.4902  0.1811
 1183TIP3   OH2 3554   2.222   1.645   2.544  0.5389 -0.2111 -0.1645
 1183TIP3    H1 3555   2.139   1.690   2.560  1.4351  0.6318  2.8139
 1183TIP3    H2 3556   2.198   1.567   2.494 -1.5370  1.7243 -2.4200
 1184TIP3   OH2 3557   5.950   1.810   3.425 -0.1938 -0.3948 -0.0451
 1184TIP3    H1 3558   5.929   1.760   3.347 -0.1499 -0.7135  0.1457
 1184TIP3    H2 3559   6.009   1.879   3.394 -2.9121  1.6819 -0.9307
 1185TIP3   OH2 3560   1.402   2.944   5.018  0.3264 -0.5510 -0.3213
 1185TIP3    H1 3561   1.468   2.978   5.078  0.2077 -0.4133 -0.2684
 1185TIP3    H2 3562   1.340   3.016   5.007 -0.0278 -0.8070 -0.0637
 1186TIP3   OH2 3563   0.507   4.152   3.931 -0.2839 -0.2784 -0.3684
 1186TIP3    H1 3564   0.477   4.182   3.845 -0.4878 -0.2836 -0.3011
 1186TIP3    H2 3565   0.494   4.228   3.988  0.2474 -0.1406 -0.4305
 1187TIP3   OH2 3566   6.133   4.478   1.565  0.8717 -0.0938 -0.6967
 1187TIP3    H1 3567   6.118   4.525   1.646  0.5295  0.4007 -1.0389
 1187TIP3    H2 3568   6.147   4.387   1.592 -0.9677 -0.2714 -0.1947
 1188TIP3   OH2 3569   2.169   5.039   1.712  0.0933 -0.3802  0.6101
 1188TIP3    H1 3570   2.152   5.132   1.697  1.0414 -0.4714 -1.3013
 1188TIP3    H2 3571   2.208   5.035   1.799  0.7401  1.1087  0.4112
 1189TIP3   OH2 3572   2.615   4.574   2.418 -0.1940  0.0177 -0.2483
 1189TIP3    H1 3573   2.553   4.531   2.476  0.0458 -1.0964 -0.7950
 1189TIP3    H2 3574   2.696   4.581   2.469 -0.0948 -0.6213 -0.3166
 1190TIP3   OH2 3575   1.002   0.981   4.412 -0.2615 -0.0665  0.4277
 1190TIP3    H1 3576   0.951   1.059   4.434 -0.2152  0.0942 -0.0273
 1190TIP3    H2 3577   1.090   1.001   4.444  0.1385  0.7314 -1.0747
 1191TIP3   OH2 3578   1.795   0.403   0.618 -0.0744 -0.3209 -0.4823
 1191TIP3    H1 3579   1.802   0.325   0.562  0.7838 -1.5545  1.2553
 1191TIP3    H2 3580   1.875   0.453   0.601 -0.7193  0.3352 -1.7500
 1192TIP3   OH2 3581   5.061   0.349   3.739 -0.6494 -0.0476  0.3284
 1192TIP3    H1 3582   4.998   0.351   3.811  0.1522 -0.8872  1.0860
 1192TIP3    H2 3583   5.145   0.330   3.781 -0.2445 -1.0616 -0.8691
 1193TIP3   OH2 3584   4.762   3.982   5.063 -0.0371 -0.3881  0.3084
 1193TIP3    H1 3585   4.780   4.074   5.083 -2.4819  0.1345  0.3555
 1193TIP3    H2 3586   4.782   3.936   5.145 -0.9630  0.4289  1.0163
 1194TIP3   OH2 3587   4.746   4.004   2.367  0.4744  0.3479 -0.0935
 1194TIP3    H1 3588   4.770   3.956   2.447  0.9048  0.3265 -0.2331
 1194TIP3    H2 3589   4.682   3.948   2.324 -0.3709  0.7350  0.6442
 1195TIP3   OH2 3590   0.255   4.543   2.062  0.2264 -0.3144 -0.6792
 1195TIP3    H1 3591   0.255   4.575   2.152  1.1173  0.9847 -1.1153
 1195TIP3    H2 3592   0.333   4.581   2.023  0.5755 -1.9525 -1.6435
 1196TIP3   OH2 3593   0.513   3.215   4.210 -0.3429 -0.4098 -0.6175
 1196TIP3    H1 3594   0.433   3.215   4.262 -2.2197 -1.4180 -3.2404
 1196TIP3    H2 3595   0.507   3.293   4.155  1.9081  1.0026  0.9584
 1197TIP3   OH2 3596   4.980   3.351   2.073 -0.8995 -0.5153 -0.1167
 1197TIP3    H1 3597   5.067   3.314   2.056 -0.4079  0.1852  0.7571
 1197TIP3    H2 3598   4.961   3.404   1.996  0.3996  0.9974  0.5219
 1198TIP3   OH2 3599   4.363   5.649   0.549  0.1850  0.4444 -0.4298
 1198TIP3    H1 3600   4.307   5.726   0.558 -0.5568  0.1158 -1.9260
 1198TIP3    H2 3601   4.311   5.578   0.586  0.2432  0.3938 -0.4459
 1199TIP3   OH2 3602   3.738   5.265   2.719  0.0921  0.3036  0.0136
 1199TIP3    H1 3603   3.650   5.300   2.725  1.0594  2.7453  1.0179
 1199TIP3    H2 3604   3.759   5.267   2.626 -0.8692 -0.3064 -0.2319
 1200TIP3   OH2 3605   3.239   5.450   2.454 -0.0798 -0.0618  0.2707
 1200TIP3    H1 3606   3.227   5.373   2.510 -1.1203 -1.0489 -1.2064
 1200TIP3    H2 3607   3.327   5.440   2.417 -0.3495 -0.7917 -0.2117
 1201TIP3   OH2 3608   1.607   4.007   2.947 -0.1988 -0.2574  0.3922
 1201TIP3    H1 3609   1.646   3.976   3.028  0.6496  0.0086  0.0908
 1201TIP3    H2 3610   1.652   3.959   2.878  0.7659  1.2288 -0.0469
 1202TIP3   OH2 3611   1.428   0.572   1.110  0.2499  0.1066 -0.6685
 1202TIP3    H1 3612   1.376   0.644   1.147  1.7717  1.0769 -0.3003
 1202TIP3    H2 3613   1.425   0.504   1.177  0.1034  0.4713 -0.2922
 1203TIP3   OH2 3614   1.150   3.880   1.439 -0.3180  0.2527  0.1802
 1203TIP3    H1 3615   1.181   3.794   1.410 -2.8292 -0.3342 -1.0566
 1203TIP3    H2 3616   1.122   3.866   1.530  0.7376  0.1859  0.5048
 1204TIP3   OH2 3617   1.067   3.591   1.206 -0.5674 -0.0215 -0.4360
 1204TIP3    H1 3618   1.032   3.513   1.249 -0.3991 -0.6718 -1.4316
 1204TIP3    H2 3619   1.135   3.622   1.265 -1.5917  0.2048  0.6481
 1205TIP3   OH2 3620   0.417   5.557   3.189 -0.2253 -0.2182  0.1534
 1205TIP3    H1 3621   0.332   5.560   3.146 -1.1413  1.4287  1.9309
 1205TIP3    H2 3622   0.399   5.520   3.276  1.0897 -0.9232  0.1613
 1206TIP3   OH2 3623   3.709   2.726   1.202  0.0795 -0.5029 -0.0708
 1206TIP3    H1 3624   3.620   2.757   1.187 -0.7216 -1.8053  1.6091
 1206TIP3    H2 3625   3.765   2.798   1.174 -1.3775 -0.3572 -2.9145
 1207TIP3   OH2 3626   0.782   2.802   4.854  0.0675 -0.2886  0.0028
 1207TIP3    H1 3627   0.759   2.891   4.879  0.0142 -0.6518  1.2878
 1207TIP3    H2 3628   0.699   2.755   4.853  0.3074 -0.7495  1.1198
 1208TIP3   OH2 3629   2.831   0.387   2.653 -0.2814 -1.0866  0.3604
 1208TIP3    H1 3630   2.909   0.331   2.652  0.0379 -0.6466 -0.3033
 1208TIP3    H2 3631   2.825   0.418   2.743  1.2559  0.1394  0.0973
 1209TIP3   OH2 3632   4.520   1.987   0.233  0.0085 -0.1361  0.1469
 1209TIP3    H1 3633   4.515   1.940   0.150  2.5546 -2.0418  0.9371
 1209TIP3    H2 3634   4.595   1.947   0.278 -0.7320  1.4378  2.9798
 1210TIP3   OH2 3635   0.934   2.905   4.465 -0.1345  0.5947 -0.0184
 1210TIP3    H1 3636   0.964   2.898   4.555 -2.2056  0.4114  0.7162
 1210TIP3    H2 3637   1.004   2.951   4.419 -0.1226  3.0769  2.2709
 1211TIP3   OH2 3638   5.949   3.611   4.416 -0.8093  0.0791 -0.3163
 1211TIP3    H1 3639   5.930   3.702   4.440  1.5081  0.8522 -1.1553
 1211TIP3    H2 3640   5.918   3.560   4.491 -2.0008  1.5479  0.2526
 1212TIP3   OH2 3641   3.100   4.867   4.098 -0.2193 -0.3962 -0.5259
 1212TIP3    H1 3642   3.024   4.809   4.091 -0.4127 -0.2484  0.2321
 1212TIP3    H2 3643   3.161   4.819   4.156 -0.0972 -0.1393 -0.4407
 1213TIP3   OH2 3644   5.918   5.275   3.367 -0.0060 -0.3809  0.1631
 1213TIP3    H1 3645   5.968   5.225   3.432  0.0342  0.3034  0.6749
 1213TIP3    H2 3646   5.967   5.357   3.357  0.3091 -0.7135 -1.1881
 1214TIP3   OH2 3647   1.518   1.883   4.526  0.0507 -0.1595  0.0869
 1214TIP3    H1 3648   1.564   1.828   4.462 -0.1437  1.1726 -1.2441
 1214TIP3    H2 3649   1.532   1.972   4.495 -1.2789  0.4264  1.0996
 1215TIP3   OH2 3650   3.362   4.189   0.925  0.1537 -0.4897  0.2527
 1215TIP3    H1 3651   3.414   4.225   0.998  0.1219  0.7434 -0.3057
 1215TIP3    H2 3652   3.421   4.193   0.850 -0.1265 -0.8826  0.0134
 1216TIP3   OH2 3653   0.031   3.088   1.518 -0.1559  0.5799 -0.3849
 1216TIP3    H1 3654   0.017   3.051   1.605 -1.2221  3.3701  0.7310
 1216TIP3    H2 3655   0.125   3.108   1.515 -0.2089  0.9827  0.3843
 1217TIP3   OH2 3656   2.037   5.317   2.640  0.3296  0.6950 -0.0929
 1217TIP3    H1 3657   1.971   5.316   2.570 -0.1639  3.0477  0.2334
 1217TIP3    H2 3658   2.097   5.387   2.613  1.2502  0.2872  0.8744
 1218TIP3   OH2 3659   6.352   0.809   4.036  0.4531 -0.0522 -0.1698
 1218TIP3    H1 3660   6.268   0.837   4.000  0.0295  1.0635  1.5816
 1218TIP3    H2 3661   6.367   0.867   4.111  2.9354 -0.0163 -0.5902
 1219TIP3   OH2 3662   1.008   4.999   1.081 -0.7369  0.3337  0.4513
 1219TIP3    H1 3663   1.076   5.022   1.017 -1.6090  0.0153 -0.6271
 1219TIP3    H2 3664   0.985   5.083   1.122 -0.6514  0.6621 -0.1534
 1220TIP3   OH2 3665   0.626   2.727   1.329  0.3420 -0.0624 -0.1140
 1220TIP3    H1 3666   0.691   2.797   1.338  2.2667 -1.1944 -3.5954
 1220TIP3    H2 3667   0.543   2.768   1.356  1.7993  2.7225  0.5057
 1221TIP3   OH2 3668   2.184   5.988   1.002  0.2575  0.0566  0.3111
 1221TIP3    H1 3669   2.220   5.937   0.929 -0.5325 -0.6951  0.4328
 1221TIP3    H2 3670   2.125   6.051   0.960  0.0383 -0.1693  0.2821
 1222TIP3   OH2 3671   2.138   4.262   5.026 -0.3690  0.4933 -0.2369
 1222TIP3    H1 3672   2.216   4.208   5.015 -0.7349  0.1038 -0.9783
 1222TIP3    H2 3673   2.123   4.263   5.120  0.2488  0.1762 -0.1265
 1223TIP3   OH2 3674   4.292   1.822   2.204  0.2604  0.4109  0.1637
 1223TIP3    H1 3675   4.288   1.916   2.221  0.4246  0.5656 -0.6233
 1223TIP3    H2 3676   4.263   1.812   2.113 -1.1574 -0.4445  0.6706
 1224TIP3   OH2 3677   3.988   1.557   4.918 -0.4308 -0.1736 -0.8436
 1224TIP3    H1 3678   3.918   1.606   4.875 -1.5006 -1.9866 -1.2482
 1224TIP3    H2 3679   4.035   1.514   4.847  1.3677  1.2644 -0.6054
 1225TIP3   OH2 3680   1.556   4.969   4.219 -0.7434  0.3594 -0.2196
 1225TIP3    H1 3681   1.501   4.970   4.297 -0.0520  2.8915  0.3298
 1225TIP3    H2 3682   1.520   5.037   4.163  1.5434  1.8995  0.0388
 1226TIP3   OH2 3683   2.345   2.467   0.095 -0.4054 -0.1436 -0.6454
 1226TIP3    H1 3684   2.410   2.525   0.135  0.1772 -0.9666 -0.3695
 1226TIP3    H2 3685   2.296   2.523   0.035 -2.4004  1.5812  2.2894
 1227TIP3   OH2 3686   5.710   2.377   0.838  0.0838  0.0477  0.4315
 1227TIP3    H1 3687   5.716   2.472   0.852  2.3517  0.2466 -1.2366
 1227TIP3    H2 3688   5.617   2.358   0.843 -0.4875  2.4682  0.3362
 1228TIP3   OH2 3689   5.582   3.051   0.487 -0.5834  0.3442  0.3855
 1228TIP3    H1 3690   5.494   3.050   0.448  0.0841  1.9588 -1.2738
 1228TIP3    H2 3691   5.591   3.138   0.525 -0.0509 -0.1621  1.4715
 1229TIP3   OH2 3692   2.698   3.354   4.124 -0.0577  0.4804 -0.2461
 1229TIP3    H1 3693   2.619   3.310   4.091 -0.0104  0.3454 -0.1800
 1229TIP3    H2 3694   2.664   3.418   4.187 -0.0139 -0.8607  1.2085
 1230TIP3   OH2 3695   2.607   0.661   2.719  0.0829  0.2099 -0.2387
 1230TIP3    H1 3696   2.544   0.727   2.749  1.9045  1.9253 -0.0338
 1230TIP3    H2 3697   2.647   0.700   2.641  0.8889 -0.8593 -0.3838
 1231TIP3   OH2 3698   0.252   5.875   3.367 -0.4213  0.1214 -0.6358
 1231TIP3    H1 3699   0.184   5.922   3.415 -1.0655 -1.4322  0.0661
 1231TIP3    H2 3700   0.223   5.876   3.276 -0.9124  0.2927 -0.4820
 1232TIP3   OH2 3701   3.682   4.145   3.769 -0.1338 -0.2039 -0.5910
 1232TIP3    H1 3702   3.660   4.053   3.754  1.4763 -0.6211 -0.5795
 1232TIP3    H2 3703   3.658   4.160   3.861  0.4053 -0.8913 -0.3191
 1233TIP3   OH2 3704   0.645   0.421   4.519 -0.1197  0.1352  0.6734
 1233TIP3    H1 3705   0.621   0.373   4.439 -1.5408  1.5730  0.1805
 1233TIP3    H2 3706   0.691   0.499   4.487 -0.9531  0.8653  1.2037
 1234TIP3   OH2 3707   6.248   5.751   2.240  0.1457  0.0505  0.6700
 1234TIP3    H1 3708   6.298   5.745   2.321  0.0484 -0.3943  0.6956
 1234TIP3    H2 3709   6.313   5.742   2.170 -0.0365 -1.7367  0.7007
 1235TIP3   OH2 3710   1.383   1.740   0.387 -0.4632  0.0763  0.1014
 1235TIP3    H1 3711   1.298   1.776   0.412 -1.3382 -2.3389  0.8623
 1235TIP3    H2 3712   1.422   1.711   0.470  0.4142 -0.2805 -0.4195
 1236TIP3   OH2 3713   5.232   4.990   0.211  0.1782  0.3590  0.0604
 1236TIP3    H1 3714   5.301   5.014   0.273  0.7969 -0.3799 -0.3298
 1236TIP3    H2 3715   5.235   5.059   0.144  2.0664 -0.8294 -1.1515
 1237TIP3   OH2 3716   3.396   0.619   4.892  0.6378  0.0693 -0.1169
 1237TIP3    H1 3717   3.465   0.670   4.851 -0.4496  0.6020 -1.3488
 1237TIP3    H2 3718   3.427   0.603   4.982  0.9423  3.0410  0.3895
 1238TIP3   OH2 3719   6.091   2.497   2.137 -0.0494  0.3916 -0.3942
 1238TIP3    H1 3720   6.103   2.592   2.126  1.4742  0.2022 -0.5110
 1238TIP3    H2 3721   6.164   2.458   2.089  0.7737 -0.7569  1.6869
 1239TIP3   OH2 3722   0.719   2.166   0.707 -0.1226 -0.1583  0.0506
 1239TIP3    H1 3723   0.753   2.126   0.787  2.2627 -0.0784 -0.8417
 1239TIP3    H2 3724   0.715   2.260   0.727  0.4093 -0.1455  0.1043
 1240TIP3   OH2 3725   1.992   0.674   1.019 -0.5325  0.1534  0.1058
 1240TIP3    H1 3726   1.915   0.716   0.981 -0.1214  0.4232 -0.4512
 1240TIP3    H2 3727   1.958   0.623   1.092 -1.2526  0.1961 -0.1871
 1241TIP3   OH2 3728   3.147   5.933   4.755 -0.4271 -0.7910 -0.1438
 1241TIP3    H1 3729   3.203   6.010   4.764 -0.0792 -1.0910  0.2813
 1241TIP3    H2 3730   3.182   5.887   4.679  0.7180 -1.6375  0.8575
 1242TIP3   OH2 3731   6.306   1.610   3.244  0.2529 -0.1612  0.4996
 1242TIP3    H1 3732   6.277   1.580   3.330 -2.2139 -0.1305 -0.2650
 1242TIP3    H2 3733   6.274   1.544   3.183 -2.7865  2.3732 -0.9109
 1243TIP3   OH2 3734   1.850   0.368   3.387  0.0519 -0.4096  0.8058
 1243TIP3    H1 3735   1.899   0.358   3.306 -0.9448 -0.9441  0.2486
 1243TIP3    H2 3736   1.906   0.423   3.442  0.8007 -0.1389 -0.1890
 1244TIP3   OH2 3737   1.315   5.872   3.864  0.9710  0.8116  0.0787
 1244TIP3    H1 3738   1.386   5.936   3.869 -0.4633  2.4971 -0.0960
 1244TIP3    H2 3739   1.246   5.908   3.919 -0.6233  0.4293 -1.5831
 1245TIP3   OH2 3740   1.192   2.104   0.850 -0.4511  0.5053  0.4703
 1245TIP3    H1 3741   1.213   2.145   0.766 -1.3498 -1.1977 -0.6514
 1245TIP3    H2 3742   1.275   2.068   0.881  0.4962  3.5338  1.7931
 1246TIP3   OH2 3743   0.069   0.361   1.938 -0.2305 -0.3738 -0.2422
 1246TIP3    H1 3744   0.070   0.392   2.028 -1.3296  1.5554 -0.8382
 1246TIP3    H2 3745   0.118   0.427   1.889  2.0376 -2.3414 -0.8625
 1247TIP3   OH2 3746   4.831   3.138   0.503  0.3323 -0.6529 -0.3074
 1247TIP3    H1 3747   4.739   3.155   0.519 -0.1526 -0.0172 -3.2985
 1247TIP3    H2 3748   4.845   3.160   0.411  3.3632 -1.2166 -0.1029
 1248TIP3   OH2 3749   0.483   4.335   2.288  0.0974  0.1855 -0.1168
 1248TIP3    H1 3750   0.521   4.300   2.368  1.0965 -0.8967 -1.0255
 1248TIP3    H2 3751   0.497   4.429   2.294  2.1384 -0.0884  0.0127
 1249TIP3   OH2 3752   5.834   3.970   3.016  0.1881 -0.6116 -0.0523
 1249TIP3    H1 3753   5.750   3.952   3.059  0.9536 -1.2854  1.2243
 1249TIP3    H2 3754   5.878   3.885   3.013  0.9537 -0.2121 -0.4256
 1250TIP3   OH2 3755   1.949   1.938   0.378 -0.0008 -0.2442  0.2362
 1250TIP3    H1 3756   1.865   1.947   0.423  0.0176  0.7442  0.0880
 1250TIP3    H2 3757   1.993   1.866   0.424 -0.8567 -0.6591  0.4164
 1251TIP3   OH2 3758   0.040   1.107   1.162  0.3286  0.0249  0.0235
 1251TIP3    H1 3759   0.056   1.177   1.098  0.8216 -0.4519 -0.3786
 1251TIP3    H2 3760   0.040   1.152   1.247  0.5859  0.5235 -0.2364
 1252TIP3   OH2 3761   0.967   0.604   1.335 -0.0571  0.3078 -0.0740
 1252TIP3    H1 3762   1.018   0.558   1.268  2.2243  1.2123  0.9595
 1252TIP3    H2 3763   0.901   0.652   1.285  0.0741 -0.8819 -1.4635
 1253TIP3   OH2 3764   5.424   3.596   2.209 -0.2313 -0.4651  0.0854
 1253TIP3    H1 3765   5.334   3.611   2.182  0.1143  0.1105 -0.8273
 1253TIP3    H2 3766   5.456   3.527   2.151  0.2094  0.0472 -0.2974
 1254TIP3   OH2 3767   5.908   4.536   1.808 -0.0546  0.2926  0.2327
 1254TIP3    H1 3768   5.900   4.551   1.714 -0.5393 -0.1105  0.2077
 1254TIP3    H2 3769   6.002   4.543   1.825  0.2631 -1.4142 -0.5846
 1255TIP3   OH2 3770   6.111   2.093   1.471  0.6905 -0.1541  0.0760
 1255TIP3    H1 3771   6.158   2.162   1.519  0.1893  0.7061 -0.6369
 1255TIP3    H2 3772   6.138   2.106   1.380  0.9869 -1.2369  0.0029
 1256TIP3   OH2 3773   3.787   1.922   3.975  0.1733  0.3350 -0.1338
 1256TIP3    H1 3774   3.874   1.881   3.970 -0.3907 -1.0331  0.6436
 1256TIP3    H2 3775   3.803   2.015   3.963  1.5343 -0.0741 -2.1082
 1257TIP3   OH2 3776   2.844   4.149   1.290  0.2851  0.4582  0.3339
 1257TIP3    H1 3777   2.819   4.074   1.236 -0.2901  2.7629 -2.9398
 1257TIP3    H2 3778   2.762   4.194   1.309  0.6850  0.7256  1.5374
 1258TIP3   OH2 3779   1.087   0.100   0.039  0.1948 -0.2559  0.1337
 1258TIP3    H1 3780   1.037   0.086  -0.041  2.6730 -1.3946 -1.3720
 1258TIP3    H2 3781   1.085   0.194   0.054  1.0462  0.1958 -2.2852
 1259TIP3   OH2 3782   5.792   4.942   1.065  0.3197  0.0794  0.6296
 1259TIP3    H1 3783   5.819   4.940   0.973  0.6796  0.0954  0.7352
 1259TIP3    H2 3784   5.707   4.898   1.065 -0.8559  2.2121 -0.0861
 1260TIP3   OH2 3785   5.384   4.246   3.783 -0.5442 -0.6157  0.4732
 1260TIP3    H1 3786   5.311   4.290   3.740 -0.5465  0.7137  1.7535
 1260TIP3    H2 3787   5.351   4.225   3.870  0.1631 -1.2454  0.5982
 1261TIP3   OH2 3788   0.901   5.061   2.814  0.2385 -0.4145 -0.5609
 1261TIP3    H1 3789   0.985   5.066   2.768  0.7185 -1.1804  0.2191
 1261TIP3    H2 3790   0.914   5.112   2.894 -0.2745  0.0535 -0.7665
 1262TIP3   OH2 3791   0.074   3.643   3.178 -0.3334 -0.2093  0.4204
 1262TIP3    H1 3792   0.068   3.569   3.118 -1.7981 -0.5650  0.9559
 1262TIP3    H2 3793   0.008   3.705   3.147  2.6912  2.2686 -1.7228
 1263TIP3   OH2 3794   1.730   2.267   2.507  0.0755 -0.1635  0.0382
 1263TIP3    H1 3795   1.783   2.201   2.463 -0.4005 -0.2764 -0.3828
 1263TIP3    H2 3796   1.717   2.233   2.596 -0.5965 -0.9020 -0.3266
 1264TIP3   OH2 3797   3.818   5.147   5.051 -0.4084  0.2243  0.6978
 1264TIP3    H1 3798   3.858   5.228   5.018  0.6553 -1.4125 -2.4656
 1264TIP3    H2 3799   3.866   5.128   5.132  1.1476  1.3938  0.1018
 1265TIP3   OH2 3800   0.768   2.417   0.863  0.0108 -0.0436  0.1416
 1265TIP3    H1 3801   0.817   2.363   0.925  2.2825  1.4636 -0.2391
 1265TIP3    H2 3802   0.758   2.501   0.908  2.1771  1.2613 -1.6157
 1266TIP3   OH2 3803   4.763   2.223   0.686 -0.4659 -0.6776  0.6800
 1266TIP3    H1 3804   4.803   2.288   0.628 -0.6127 -2.4148 -1.5036
 1266TIP3    H2 3805   4.670   2.225   0.664 -0.7570 -0.4471  1.8498
 1267TIP3   OH2 3806   0.941   3.532   0.373  0.5911 -0.3329 -0.2596
 1267TIP3    H1 3807   0.951   3.447   0.415  0.5783 -0.5601 -0.7062
 1267TIP3    H2 3808   0.857   3.526   0.328  1.2754 -0.6533 -1.5589
 1268TIP3   OH2 3809   3.662   0.053   2.453 -0.7122 -0.0625 -0.0005
 1268TIP3    H1 3810   3.633  -0.017   2.394 -2.1303 -0.8786  1.5945
 1268TIP3    H2 3811   3.634   0.024   2.540  0.5118  1.5359  0.9733
 1269TIP3   OH2 3812   1.495   1.442   2.171  0.0244  0.1339 -0.2492
 1269TIP3    H1 3813   1.450   1.386   2.235 -1.2551  0.7865 -0.5490
 1269TIP3    H2 3814   1.518   1.382   2.100 -3.5353  0.2847 -1.7328
 1270TIP3   OH2 3815   0.995   3.718   4.909  0.1684 -0.0215  0.3462
 1270TIP3    H1 3816   0.950   3.785   4.858  0.9106 -0.4699 -0.9311
 1270TIP3    H2 3817   1.002   3.642   4.851  3.1787  0.2517  0.1734
 1271TIP3   OH2 3818   2.407   1.052   0.626 -0.2718 -0.6751  0.1715
 1271TIP3    H1 3819   2.384   0.982   0.686 -1.5037 -0.0726  0.4361
 1271TIP3    H2 3820   2.407   1.011   0.540 -0.5964 -1.0808  0.3628
 1272TIP3   OH2 3821   1.894   4.461   3.581 -0.0863 -0.8886 -0.3806
 1272TIP3    H1 3822   1.944   4.401   3.637  0.3705  0.1850  0.4050
 1272TIP3    H2 3823   1.809   4.419   3.570 -0.5320 -0.7177  1.9279
 1273TIP3   OH2 3824   2.461   3.989   3.158 -0.3519 -0.2072 -0.6497
 1273TIP3    H1 3825   2.389   3.929   3.178 -0.8628  0.7200  0.3711
 1273TIP3    H2 3826   2.509   3.945   3.088 -1.8080 -0.9254 -1.2426
 1274TIP3   OH2 3827   1.978   2.854   0.275 -0.4605 -0.5487 -0.1517
 1274TIP3    H1 3828   2.065   2.835   0.240  0.2122 -1.7442  1.9964
 1274TIP3    H2 3829   1.923   2.865   0.198  1.1701 -1.8219 -1.5625
 1275TIP3   OH2 3830   2.606   3.162   1.654 -0.4618  0.4528 -0.4582
 1275TIP3    H1 3831   2.682   3.212   1.624  1.8870 -2.7112 -0.2164
 1275TIP3    H2 3832   2.614   3.161   1.750  0.6939 -1.8572 -0.5052
 1276TIP3   OH2 3833   4.979   2.936   4.367 -0.0094 -0.6402  0.0819
 1276TIP3    H1 3834   5.052   2.899   4.415 -1.3012 -0.5124  2.2739
 1276TIP3    H2 3835   4.951   2.867   4.307  1.5115 -0.8689 -0.4008
 1277TIP3   OH2 3836   0.187   4.764   1.487  0.1606 -0.0476  0.4026
 1277TIP3    H1 3837   0.188   4.854   1.519  0.3353 -0.2194  0.8888
 1277TIP3    H2 3838   0.190   4.710   1.566  0.9129 -0.4774  0.0911
 1278TIP3   OH2 3839   2.831   2.132   1.710 -0.6856 -0.3350  0.5267
 1278TIP3    H1 3840   2.867   2.056   1.664 -0.3737 -0.9035  1.6619
 1278TIP3    H2 3841   2.809   2.194   1.641  1.0276 -0.6097 -0.3226
 1279TIP3   OH2 3842   2.890   2.808   0.089  0.2077 -0.8872 -0.2074
 1279TIP3    H1 3843   2.888   2.846   0.177  0.9628 -0.4723 -0.3678
 1279TIP3    H2 3844   2.841   2.870   0.035 -1.0276 -1.5805  0.0750
 1280TIP3   OH2 3845   3.143   5.774   3.600  0.0321  0.2339  0.1628
 1280TIP3    H1 3846   3.149   5.868   3.586  1.1214  0.2071  0.3850
 1280TIP3    H2 3847   3.087   5.742   3.529  2.3100  0.6110 -1.9169
 1281TIP3   OH2 3848   0.905   1.711   1.749 -0.1067 -0.1763  0.1697
 1281TIP3    H1 3849   0.881   1.649   1.680 -1.0358 -1.1538  1.3084
 1281TIP3    H2 3850   0.984   1.673   1.788  0.5215  0.4696 -0.4506
 1282TIP3   OH2 3851   2.460   1.352   2.256 -0.0978 -0.6225  0.8742
 1282TIP3    H1 3852   2.367   1.359   2.238 -0.0341  0.7850  0.9737
 1282TIP3    H2 3853   2.469   1.374   2.349  0.3872 -0.1442  0.7237
 1283TIP3   OH2 3854   5.760   4.432   4.977 -0.0708  0.1780  0.8537
 1283TIP3    H1 3855   5.766   4.506   4.918  3.3041 -0.5746  0.0745
 1283TIP3    H2 3856   5.783   4.467   5.063  1.4224  0.1222  0.5027
 1284TIP3   OH2 3857   5.829   2.498   2.892  0.3393 -0.2510 -0.0801
 1284TIP3    H1 3858   5.899   2.557   2.866 -0.7257  1.1227  0.0283
 1284TIP3    H2 3859   5.861   2.455   2.971  0.9809  0.5098  0.0783
 1285TIP3   OH2 3860   1.214   1.449   3.948  0.2576 -0.2327 -0.5545
 1285TIP3    H1 3861   1.246   1.511   4.014 -0.3807 -2.5459  2.1054
 1285TIP3    H2 3862   1.294   1.409   3.912  0.5801  0.2372 -0.3642
 1286TIP3   OH2 3863   1.517   0.132   0.192 -0.1489 -0.1241 -0.1230
 1286TIP3    H1 3864   1.491   0.160   0.280 -0.8971 -0.2650 -0.2930
 1286TIP3    H2 3865   1.575   0.058   0.206 -1.6661 -1.2864  0.2167
 1287TIP3   OH2 3866   0.736   0.847   4.370 -0.6077  0.3688 -0.2662
 1287TIP3    H1 3867   0.707   0.921   4.318  0.1718  0.3639 -0.7351
 1287TIP3    H2 3868   0.827   0.867   4.391  0.2336 -1.2703 -1.9712
 1288TIP3   OH2 3869   4.092   5.841   1.144 -0.2402 -0.8213  0.2950
 1288TIP3    H1 3870   4.001   5.813   1.154  0.1158 -3.3943 -2.4275
 1288TIP3    H2 3871   4.144   5.761   1.153  1.4402 -0.0168 -1.4077
 1289TIP3   OH2 3872   5.078   4.994   4.396 -0.1544 -0.1002 -0.3380
 1289TIP3    H1 3873   5.133   5.067   4.368 -0.7565  0.0371 -1.2090
 1289TIP3    H2 3874   5.086   4.993   4.492  2.0574 -0.6685 -0.4790
 1290TIP3   OH2 3875   0.253   4.618   0.189  0.2078  0.1003  0.2501
 1290TIP3    H1 3876   0.176   4.650   0.141  0.2579  1.6672  1.1558
 1290TIP3    H2 3877   0.223   4.538   0.231 -0.6809  0.2253 -0.1243
 1291TIP3   OH2 3878   2.442   5.480   1.282 -0.6350  0.4457 -0.0578
 1291TIP3    H1 3879   2.505   5.536   1.235  0.1192 -1.3369 -1.2566
 1291TIP3    H2 3880   2.433   5.402   1.227 -0.3948 -1.3673  2.3334
 1292TIP3   OH2 3881   3.801   3.702   2.031 -0.0971  0.1971 -0.1910
 1292TIP3    H1 3882   3.713   3.705   1.993 -0.9902  3.1351  1.7206
 1292TIP3    H2 3883   3.859   3.734   1.962 -0.8943  0.4599 -0.7505
 1293TIP3   OH2 3884   3.310   4.964   2.085  0.6692 -0.7303  0.2357
 1293TIP3    H1 3885   3.313   5.034   2.020 -3.1481 -0.7273 -0.1701
 1293TIP3    H2 3886   3.283   5.008   2.166 -0.5852 -1.4924  0.2641
 1294TIP3   OH2 3887   2.154   1.780   4.016  0.2245 -0.3857  0.2018
 1294TIP3    H1 3888   2.197   1.748   3.937  1.4360  1.7695 -0.1003
 1294TIP3    H2 3889   2.061   1.761   4.002  0.5778 -1.2692 -1.1051
 1295TIP3   OH2 3890   3.453   2.463   1.057  0.0492 -0.4383  0.1092
 1295TIP3    H1 3891   3.488   2.477   1.145 -0.4951 -0.1726  0.2894
 1295TIP3    H2 3892   3.367   2.425   1.072  0.6804 -2.1110 -0.3465
 1296TIP3   OH2 3893   6.343   4.868   2.016  1.4232  0.7262  0.1493
 1296TIP3    H1 3894   6.406   4.928   1.976  1.4881 -1.0229 -2.5856
 1296TIP3    H2 3895   6.270   4.865   1.955 -0.0509  0.4696  1.8459
 1297TIP3   OH2 3896   6.101   1.905   5.008 -0.0956 -0.4877  0.4831
 1297TIP3    H1 3897   6.031   1.955   5.050 -1.4733 -2.3274  0.4971
 1297TIP3    H2 3898   6.181   1.936   5.049 -0.9012  1.4668  0.6855
 1298TIP3   OH2 3899   0.471   4.051   4.803 -0.1464 -0.3817  0.2656
 1298TIP3    H1 3900   0.457   4.012   4.717 -0.0671  0.0174  0.0710
 1298TIP3    H2 3901   0.391   4.100   4.821 -1.3552 -2.6613  1.6269
 1299TIP3   OH2 3902   0.962   5.570   3.412 -0.2456  0.7515  0.5245
 1299TIP3    H1 3903   0.962   5.665   3.415  0.3863  0.7190  2.2365
 1299TIP3    H2 3904   0.870   5.547   3.399 -0.2015  1.5801 -1.7982
 1300TIP3   OH2 3905   1.896   5.316   4.833  0.0506  0.1322 -0.2771
 1300TIP3    H1 3906   1.913   5.260   4.909  0.1782  0.8511  0.2389
 1300TIP3    H2 3907   1.801   5.310   4.820  0.3532 -2.4224 -2.0111
 1301TIP3   OH2 3908   3.078   4.718   3.613  0.0301 -0.1163 -0.0596
 1301TIP3    H1 3909   3.005   4.658   3.623 -0.9352  1.2320  1.5045
 1301TIP3    H2 3910   3.141   4.692   3.681  1.2340 -1.4873 -1.6138
 1302TIP3   OH2 3911   3.364   4.864   0.753 -0.1261 -0.1045  0.0035
 1302TIP3    H1 3912   3.344   4.952   0.782 -0.0821  0.3279 -1.2274
 1302TIP3    H2 3913   3.284   4.814   0.769 -1.2015  0.8634 -1.9746
 1303TIP3   OH2 3914   2.831   0.507   2.906 -0.4105  0.1670 -0.2104
 1303TIP3    H1 3915   2.800   0.597   2.898  1.1367  1.7080  5.9076
 1303TIP3    H2 3916   2.763   0.463   2.957  0.5641 -0.9685  0.1575
 1304TIP3   OH2 3917   2.009   1.888   1.326 -0.1332 -0.6823  0.1371
 1304TIP3    H1 3918   2.011   1.970   1.276 -1.9976 -0.6607  0.0077
 1304TIP3    H2 3919   1.916   1.864   1.328  0.2002 -1.9962  1.4906
 1305TIP3   OH2 3920   0.970   1.911   3.970 -0.1893 -0.6665 -0.0299
 1305TIP3    H1 3921   1.033   1.852   4.011 -0.8189 -1.5445 -0.3127
 1305TIP3    H2 3922   1.008   1.998   3.982 -0.2927 -0.8830  2.3312
 1306TIP3   OH2 3923   2.405   3.802   4.331 -0.1762  0.1762  0.0214
 1306TIP3    H1 3924   2.392   3.841   4.417  1.0041 -1.2001  0.8809
 1306TIP3    H2 3925   2.492   3.833   4.303 -1.4001  2.3355 -1.7035
 1307TIP3   OH2 3926   2.097   1.625   1.337 -0.1358 -0.1033 -0.1023
 1307TIP3    H1 3927   2.045   1.704   1.326 -1.4494 -0.6293  1.7795
 1307TIP3    H2 3928   2.068   1.567   1.266 -0.3982  0.4904 -0.4826
 1308TIP3   OH2 3929   0.065   3.961   3.602 -0.0787 -0.3189 -0.0009
 1308TIP3    H1 3930   0.006   3.888   3.582  0.6347 -1.4187  1.6270
 1308TIP3    H2 3931   0.092   3.995   3.517 -2.6997 -0.0331 -0.8038
 1309TIP3   OH2 3932   4.032   2.041   1.282  0.2787 -0.4299  0.0095
 1309TIP3    H1 3933   4.053   1.998   1.365 -1.8067 -0.2184  0.6991
 1309TIP3    H2 3934   4.026   2.134   1.304 -0.5670 -0.4034 -0.3017
 1310TIP3   OH2 3935   2.892   4.258   0.917  0.1168 -0.0149  0.2593
 1310TIP3    H1 3936   2.969   4.216   0.956  0.2883  0.5693  0.5595
 1310TIP3    H2 3937   2.868   4.202   0.843  0.3093 -0.6682  0.6882
 1311TIP3   OH2 3938   1.486   2.949   0.908 -0.5997 -0.3755 -0.3124
 1311TIP3    H1 3939   1.414   2.958   0.845  0.6588 -0.0351 -1.7435
 1311TIP3    H2 3940   1.519   2.860   0.893  1.6832  0.6884 -2.4306
 1312TIP3   OH2 3941   2.645   2.025   2.129  0.7582 -0.2039  0.1080
 1312TIP3    H1 3942   2.729   1.998   2.092  1.4753 -0.0349  1.5571
 1312TIP3    H2 3943   2.668   2.079   2.204 -0.6216  2.1620 -1.0215
 1313TIP3   OH2 3944   5.824   5.644   2.964  0.2349 -0.0278  0.1014
 1313TIP3    H1 3945   5.835   5.738   2.976  0.1090  0.2774 -1.7618
 1313TIP3    H2 3946   5.912   5.608   2.972  0.7645  0.6637 -1.8448
 1314TIP3   OH2 3947   0.964   4.174   2.645  0.0862  0.3136  0.0255
 1314TIP3    H1 3948   0.974   4.190   2.739 -0.2811  0.6924  0.0012
 1314TIP3    H2 3949   0.969   4.261   2.605  1.7023  0.0459 -0.4492
 1315TIP3   OH2 3950   1.236   5.072   0.136  0.0591 -0.5976 -0.1483
 1315TIP3    H1 3951   1.331   5.086   0.129  0.0885  0.2507  1.5567
 1315TIP3    H2 3952   1.197   5.151   0.099  0.0950  0.4111  1.8743
 1316TIP3   OH2 3953   6.365   4.536   4.713  0.2798  0.5100  0.0650
 1316TIP3    H1 3954   6.290   4.588   4.684 -0.4276 -0.2038  0.5714
 1316TIP3    H2 3955   6.380   4.475   4.641 -0.9438 -0.7001  0.7734
 1317TIP3   OH2 3956   6.280   1.378   4.861 -0.0312 -0.1804 -0.5598
 1317TIP3    H1 3957   6.336   1.455   4.867 -1.5505  0.9159  0.0816
 1317TIP3    H2 3958   6.288   1.335   4.946 -0.2296  0.0113 -0.4457
 1318TIP3   OH2 3959   2.785   2.565   0.408 -0.7058  0.4545 -0.3892
 1318TIP3    H1 3960   2.878   2.549   0.389 -0.5385 -0.4726  0.9918
 1318TIP3    H2 3961   2.755   2.622   0.338  0.7837  0.3520 -1.1490
 1319TIP3   OH2 3962   0.722   2.657   0.982 -0.3421  0.4146  0.0179
 1319TIP3    H1 3963   0.772   2.696   1.054  1.0946  1.8248 -1.6719
 1319TIP3    H2 3964   0.673   2.730   0.945 -1.2050 -0.3379 -0.3677
 1320TIP3   OH2 3965   4.814   2.714   3.027  0.0942  0.2705 -0.5939
 1320TIP3    H1 3966   4.874   2.760   3.085 -1.1654 -0.0427  1.0458
 1320TIP3    H2 3967   4.854   2.628   3.013  1.7855  1.2841 -2.5657
 1321TIP3   OH2 3968   1.590   1.260   0.525 -0.1072  0.2080 -0.8187
 1321TIP3    H1 3969   1.615   1.227   0.611  2.5725 -0.2440 -1.6765
 1321TIP3    H2 3970   1.668   1.305   0.493 -0.9437  0.1560 -3.1065
 1322TIP3   OH2 3971   4.786   0.844   1.112  0.2161  0.2310  0.0737
 1322TIP3    H1 3972   4.786   0.752   1.084  0.5918  0.3167 -0.2207
 1322TIP3    H2 3973   4.788   0.840   1.207  1.7317 -0.0885  0.0646
 1323TIP3   OH2 3974   2.970   1.401   0.256  0.0828  0.9635 -0.3637
 1323TIP3    H1 3975   2.934   1.348   0.184  2.0750 -1.1040  0.0514
 1323TIP3    H2 3976   2.929   1.365   0.334 -0.4448  1.7620 -0.2622
 1324TIP3   OH2 3977   5.201   0.692   5.090  0.3730  0.3316  0.2970
 1324TIP3    H1 3978   5.232   0.653   5.172 -1.3283 -0.6996  0.5092
 1324TIP3    H2 3979   5.248   0.775   5.083  1.4284 -0.1083  1.7091
 1325TIP3   OH2 3980   5.228   3.439   1.412  0.1957 -0.2571 -0.1265
 1325TIP3    H1 3981   5.133   3.440   1.420  0.2844 -0.5904  1.3754
 1325TIP3    H2 3982   5.251   3.347   1.397  0.2431 -0.0494 -1.4392
 1326TIP3   OH2 3983   4.989   2.705   4.233 -0.0990 -0.1072  0.3910
 1326TIP3    H1 3984   4.981   2.611   4.247  0.1907  0.0471  1.6957
 1326TIP3    H2 3985   4.929   2.724   4.160 -0.9650 -1.1298  0.8099
 1327TIP3   OH2 3986   4.079   4.633   0.459 -0.1984 -0.1982 -0.1002
 1327TIP3    H1 3987   3.990   4.611   0.486 -0.7362  1.8969  0.0224
 1327TIP3    H2 3988   4.125   4.651   0.542  0.1302 -0.5380 -0.2060
 1328TIP3   OH2 3989   5.173   0.744   3.062  0.6079  0.4069 -0.1363
 1328TIP3    H1 3990   5.252   0.798   3.067  1.7519 -1.2941  2.3082
 1328TIP3    H2 3991   5.206   0.654   3.055 -1.2137 -0.1868 -2.6573
 1329TIP3   OH2 3992   0.415   2.108   2.598 -0.0610  0.0098 -0.5395
 1329TIP3    H1 3993   0.475   2.113   2.673 -1.6386  0.9388  0.7098
 1329TIP3    H2 3994   0.406   2.014   2.582 -0.0725 -0.2434  0.7728
 1330TIP3   OH2 3995   2.542   1.482   2.783  0.0466  0.1361 -0.0806
 1330TIP3    H1 3996   2.517   1.572   2.806 -0.8373 -0.0287 -0.3589
 1330TIP3    H2 3997   2.617   1.463   2.840 -1.6476 -0.0246  2.2431
 1331TIP3   OH2 3998   1.666   2.453   2.778  0.8269 -0.4003 -0.6292
 1331TIP3    H1 3999   1.680   2.449   2.683 -1.0013 -1.6953 -0.9108
 1331TIP3    H2 4000   1.614   2.375   2.797 -2.8489  2.0703  0.6446
 1332TIP3   OH2 4001  -0.023   0.465   4.964  0.0490 -0.5585  0.2618
 1332TIP3    H1 4002   0.060   0.511   4.976  0.1289 -1.2451  3.2858
 1332TIP3    H2 4003  -0.011   0.414   4.884  1.2600  1.8514 -1.2115
 1333TIP3   OH2 4004   6.100   2.490   0.551 -0.3662 -0.2024 -0.2992
 1333TIP3    H1 4005   6.008   2.519   0.554 -0.2804 -0.0376  1.0588
 1333TIP3    H2 4006   6.119   2.461   0.640  1.0740  0.2642 -0.4420
 1334TIP3   OH2 4007   3.003   5.023   2.078 -0.8885 -0.2097 -0.1868
 1334TIP3    H1 4008   3.035   4.937   2.051  0.7079  0.9147 -2.2424
 1334TIP3    H2 4009   2.960   5.058   1.999  1.6260  2.2147 -0.6354
 1335TIP3   OH2 4010   5.864   4.417   0.194 -0.1157 -0.5925 -0.0817
 1335TIP3    H1 4011   5.933   4.383   0.138  0.0336 -2.7064  1.2741
 1335TIP3    H2 4012   5.888   4.390   0.283 -2.0334 -0.3191  0.5845
 1336TIP3   OH2 4013   2.960   1.675   0.280 -0.3866  0.6687 -0.1015
 1336TIP3    H1 4014   2.977   1.581   0.269  0.1285  0.7452  0.0342
 1336TIP3    H2 4015   3.045   1.717   0.267 -0.5245  1.0776  0.2927
 1337TIP3   OH2 4016   6.255   0.040   0.308  0.0038 -0.6162  0.0426
 1337TIP3    H1 4017   6.336  -0.001   0.337  0.0793 -0.2380  0.3744
 1337TIP3    H2 4018   6.190  -0.031   0.310  0.5888 -1.2270 -1.4452
 1338TIP3   OH2 4019   0.231   2.424   4.519 -0.0103 -0.3040 -0.0390
 1338TIP3    H1 4020   0.238   2.341   4.473  1.5419  0.0778 -0.5417
 1338TIP3    H2 4021   0.142   2.454   4.500  0.3295 -0.5149 -2.1996
 1339TIP3   OH2 4022   0.198   1.602   4.247 -0.3386 -0.3844 -0.4441
 1339TIP3    H1 4023   0.226   1.680   4.295  1.1034 -1.5024  0.6777
 1339TIP3    H2 4024   0.103   1.599   4.258 -0.2675  0.5131  0.6256
 1340TIP3   OH2 4025   1.798   1.250   4.668 -0.1034  0.0141 -0.5034
 1340TIP3    H1 4026   1.860   1.214   4.731  2.1789  0.7266 -2.1990
 1340TIP3    H2 4027   1.761   1.327   4.710  1.3643  0.4692  0.0042
 1341TIP3   OH2 4028   0.921   0.387   1.506  0.3610  0.6013 -0.4018
 1341TIP3    H1 4029   0.836   0.427   1.526 -0.0027 -0.7350  0.8453
 1341TIP3    H2 4030   0.965   0.452   1.452 -1.3404  1.4446 -0.8402
 1342TIP3   OH2 4031   4.063   5.989   2.866  0.1899  0.3976  0.3447
 1342TIP3    H1 4032   3.968   6.000   2.862  0.1513  0.9795  2.0360
 1342TIP3    H2 4033   4.082   5.922   2.801 -1.0643  2.0365 -1.8362
 1343TIP3   OH2 4034   0.672   3.503   1.207 -0.2933  0.0373 -0.5538
 1343TIP3    H1 4035   0.590   3.458   1.226  0.5704 -1.7752 -0.9182
 1343TIP3    H2 4036   0.738   3.456   1.258  0.3213  2.6410  1.2741
 1344TIP3   OH2 4037   3.702   1.622   5.032  0.2857  0.3636 -0.0638
 1344TIP3    H1 4038   3.756   1.579   5.099  1.7849  1.4427 -0.5384
 1344TIP3    H2 4039   3.683   1.553   4.968 -0.4108 -0.4555  0.9819
 1345TIP3   OH2 4040   1.671   3.348   1.805 -0.8217 -0.1275 -0.5413
 1345TIP3    H1 4041   1.633   3.371   1.721 -2.1903 -0.9400 -0.1728
 1345TIP3    H2 4042   1.596   3.326   1.860  0.1176 -0.6588  0.5675
 1346TIP3   OH2 4043   5.349   2.592   4.686  0.1163  0.5010 -0.2010
 1346TIP3    H1 4044   5.367   2.502   4.715 -0.4826  0.9505  1.7167
 1346TIP3    H2 4045   5.388   2.597   4.599  0.7480 -1.4147 -0.0831
 1347TIP3   OH2 4046   4.480   4.693   1.296 -0.4504  0.3121 -0.4595
 1347TIP3    H1 4047   4.391   4.687   1.260 -0.1188 -1.4744 -1.0653
 1347TIP3    H2 4048   4.482   4.628   1.366 -0.3057  2.0068  1.1696
 1348TIP3   OH2 4049   1.005   2.676   2.340 -0.0005  0.0149 -0.3368
 1348TIP3    H1 4050   0.930   2.708   2.391  0.9915  0.5130  0.8741
 1348TIP3    H2 4051   1.069   2.747   2.346  1.3799 -1.2516  0.4630
 1349TIP3   OH2 4052   1.618   5.898   2.219 -0.6256  0.3140  0.1176
 1349TIP3    H1 4053   1.689   5.842   2.250 -1.3472  0.1307  1.5190
 1349TIP3    H2 4054   1.644   5.923   2.130  1.4425  0.7045  0.7791
 1350TIP3   OH2 4055   0.450   5.873   4.437 -0.2263  0.5863  0.6100
 1350TIP3    H1 4056   0.424   5.966   4.433  0.3343  0.7134 -0.4892
 1350TIP3    H2 4057   0.505   5.867   4.514  2.2706  1.8727 -0.9429
 1351TIP3   OH2 4058   6.145   0.255   4.789 -0.9784 -0.0851  0.5798
 1351TIP3    H1 4059   6.117   0.320   4.853 -0.3069 -0.5109  1.3255
 1351TIP3    H2 4060   6.132   0.297   4.704  0.7153  1.5495  1.0797
 1352TIP3   OH2 4061   1.039   4.890   4.093 -0.3126 -0.3500 -1.0929
 1352TIP3    H1 4062   1.128   4.872   4.062  0.2717 -1.3962  0.9893
 1352TIP3    H2 4063   1.008   4.805   4.125 -1.4417  0.3268 -0.3238
 1353TIP3   OH2 4064   3.638   0.064   3.849  0.5793  0.4005 -0.1084
 1353TIP3    H1 4065   3.687   0.041   3.928 -0.5999  0.1055  0.5681
 1353TIP3    H2 4066   3.656   0.157   3.836 -0.5272  0.8934  1.5237
 1354TIP3   OH2 4067   0.668   3.873   2.522  0.7249  0.0409  0.1311
 1354TIP3    H1 4068   0.662   3.932   2.597  1.1989  0.1887  0.0594
 1354TIP3    H2 4069   0.643   3.927   2.447  0.9186  0.0854  0.0973
 1355TIP3   OH2 4070   0.186   5.777   2.218  0.4911  0.3486  0.5429
 1355TIP3    H1 4071   0.257   5.818   2.267  0.4801  0.0560  0.8060
 1355TIP3    H2 4072   0.229   5.706   2.170  0.5238  0.7071  0.0317
 1356TIP3   OH2 4073   2.310   2.166   2.538  0.5168  0.4516  0.8264
 1356TIP3    H1 4074   2.374   2.175   2.609 -0.0159  0.4409  1.3154
 1356TIP3    H2 4075   2.350   2.211   2.464  1.0114  0.6047  1.1829
 1357TIP3   OH2 4076   5.544   5.443   0.287  1.1126  0.4210 -0.1790
 1357TIP3    H1 4077   5.497   5.510   0.336 -2.0438 -3.4347  2.8237
 1357TIP3    H2 4078   5.495   5.434   0.206  1.5257  1.6154 -0.5781
 1358TIP3   OH2 4079   5.445   2.951   4.692  0.0356  0.0222  0.0139
 1358TIP3    H1 4080   5.376   2.981   4.751 -0.4795 -2.0463  0.5591
 1358TIP3    H2 4081   5.526   2.966   4.741 -0.3201 -0.7546  0.8789
 1359TIP3   OH2 4082   5.710   1.532   1.986 -0.7202  0.4453  0.0419
 1359TIP3    H1 4083   5.771   1.488   2.045  0.9197  0.0677 -1.8169
 1359TIP3    H2 4084   5.747   1.620   1.974 -1.5550  0.8387  0.3082
 1360TIP3   OH2 4085   1.548   0.436   4.572 -0.4588 -0.4116 -0.3429
 1360TIP3    H1 4086   1.632   0.419   4.615 -0.4975 -1.4770 -0.6500
 1360TIP3    H2 4087   1.495   0.481   4.638 -0.1874 -1.1437  0.3937
 1361TIP3   OH2 4088   5.338   2.990   3.995  0.7104 -0.1209 -0.0841
 1361TIP3    H1 4089   5.317   2.901   3.969 -0.3629 -0.1033  0.6879
 1361TIP3    H2 4090   5.325   3.042   3.916  1.1664 -0.6055 -0.4878
 1362TIP3   OH2 4091   0.962   2.659   5.034  0.6901 -0.3860  0.1434
 1362TIP3    H1 4092   0.923   2.605   5.103 -1.8106 -0.6303 -1.3113
 1362TIP3    H2 4093   0.888   2.680   4.976  2.2978  1.4754 -1.3737
 1363TIP3   OH2 4094   6.193   0.062   1.828  0.2855  0.1365  0.5165
 1363TIP3    H1 4095   6.149   0.011   1.896  0.8848  1.8579  2.3008
 1363TIP3    H2 4096   6.253   0.000   1.787 -0.4617 -1.0849  1.2091
 1364TIP3   OH2 4097   0.318   3.671   0.178  0.2976  0.4342  0.0223
 1364TIP3    H1 4098   0.329   3.590   0.228 -0.7095  0.1250 -0.2340
 1364TIP3    H2 4099   0.407   3.695   0.152  0.6701 -0.2713  0.5895
 1365TIP3   OH2 4100   4.681   1.072   0.674  0.0707 -0.2738  0.0086
 1365TIP3    H1 4101   4.595   1.076   0.716  0.4925 -2.3573  1.2408
 1365TIP3    H2 4102   4.669   1.010   0.602  0.3424  0.0979 -0.3573
 1366TIP3   OH2 4103   1.577   4.542   4.065  0.5350  0.5364 -0.0407
 1366TIP3    H1 4104   1.567   4.565   3.972 -0.6586 -2.1990 -0.6989
 1366TIP3    H2 4105   1.501   4.582   4.107 -1.0045 -1.2303 -0.9833
 1367TIP3   OH2 4106   6.150   4.086   4.189  0.0669 -0.0678 -0.1832
 1367TIP3    H1 4107   6.165   4.142   4.113  1.3426  0.3868  0.3684
 1367TIP3    H2 4108   6.212   4.014   4.179  0.3162  0.0451  0.4492
 1368TIP3   OH2 4109   3.558   5.239   4.779  0.3266 -0.2583 -0.3085
 1368TIP3    H1 4110   3.592   5.156   4.813  1.0849 -0.0340 -0.5086
 1368TIP3    H2 4111   3.469   5.219   4.752  0.5692 -1.0542 -0.5349
 1369TIP3   OH2 4112   2.485   4.221   2.910  0.3356  0.4022 -0.0960
 1369TIP3    H1 4113   2.415   4.179   2.960 -0.3451  0.2948 -1.0963
 1369TIP3    H2 4114   2.456   4.215   2.819  1.1975  1.2208 -0.4457
 1370TIP3   OH2 4115   0.219   2.134   1.203  0.0968  0.3012  0.5776
 1370TIP3    H1 4116   0.145   2.170   1.154 -0.4726 -1.0106  0.4472
 1370TIP3    H2 4117   0.284   2.204   1.203 -0.1137  0.5449 -1.5473
 1371TIP3   OH2 4118   2.663   3.570   1.697 -0.0440  0.6127 -0.1719
 1371TIP3    H1 4119   2.587   3.538   1.649  1.9343  1.5148 -4.4840
 1371TIP3    H2 4120   2.642   3.662   1.716 -0.5500  0.4920 -0.1420
 1372TIP3   OH2 4121   3.750   5.496   1.058  0.4003 -0.5303  0.0023
 1372TIP3    H1 4122   3.786   5.410   1.080  1.1215 -0.2864 -0.2074
 1372TIP3    H2 4123   3.659   5.478   1.034  1.0393 -1.5326 -1.9533
 1373TIP3   OH2 4124   1.241   1.203   4.289  0.2228  0.1222  0.2320
 1373TIP3    H1 4125   1.326   1.214   4.332 -0.4894  0.4698  1.5914
 1373TIP3    H2 4126   1.180   1.251   4.344 -0.6218  1.2138 -1.5757
 1374TIP3   OH2 4127   3.209   1.601   4.792  0.2563  0.3564  0.2884
 1374TIP3    H1 4128   3.199   1.605   4.887 -0.0720  0.5263  0.2502
 1374TIP3    H2 4129   3.122   1.623   4.758  0.5230  0.9087 -0.0602
 1375TIP3   OH2 4130   3.379   0.806   3.874 -0.2095 -0.3510  0.7149
 1375TIP3    H1 4131   3.295   0.770   3.846  0.2929 -1.3123  0.4138
 1375TIP3    H2 4132   3.362   0.844   3.960 -0.9261 -0.6381  0.7006
 1376TIP3   OH2 4133   4.201   3.124   1.207  0.2639 -0.2821 -0.2456
 1376TIP3    H1 4134   4.228   3.092   1.293  1.1131  0.3176 -0.2741
 1376TIP3    H2 4135   4.105   3.122   1.209  0.2841 -1.3815  0.2814
 1377TIP3   OH2 4136   0.329   0.986   4.874  0.6952  0.0521  0.3135
 1377TIP3    H1 4137   0.404   0.935   4.842  1.6213  0.9022  1.0837
 1377TIP3    H2 4138   0.254   0.945   4.832  1.6257 -0.5311 -0.8634
 1378TIP3   OH2 4139   5.223   4.403   1.499 -0.7618 -0.6644  0.0661
 1378TIP3    H1 4140   5.178   4.319   1.489  0.7284 -1.2844 -2.1640
 1378TIP3    H2 4141   5.190   4.457   1.427  0.3939 -0.3812 -0.2761
 1379TIP3   OH2 4142   0.676   3.250   0.219 -0.0173  0.1696 -0.1419
 1379TIP3    H1 4143   0.678   3.179   0.155  1.8235  0.4609 -0.4795
 1379TIP3    H2 4144   0.639   3.210   0.298  0.0531 -0.8931 -0.6277
 1380TIP3   OH2 4145   4.845   5.670   0.249  0.1684 -0.5462 -0.7847
 1380TIP3    H1 4146   4.876   5.761   0.247 -2.1953  0.3245 -1.0690
 1380TIP3    H2 4147   4.753   5.677   0.276 -0.2367 -2.8110 -1.3979
 1381TIP3   OH2 4148   0.349   1.512   4.522  0.0610  0.0937 -0.2159
 1381TIP3    H1 4149   0.256   1.493   4.513 -0.3860  1.1733  1.4783
 1381TIP3    H2 4150   0.364   1.589   4.467 -0.1455  0.1579 -0.1817
 1382TIP3   OH2 4151   3.845   3.831   2.870  0.2350 -0.0164  0.0535
 1382TIP3    H1 4152   3.911   3.767   2.898  0.3582 -0.6453 -1.5433
 1382TIP3    H2 4153   3.896   3.905   2.836  0.1059  0.0682  0.0447
 1383TIP3   OH2 4154   6.020   3.752   2.962  0.5625  0.0785 -0.1590
 1383TIP3    H1 4155   6.046   3.667   2.928 -0.4929  0.2280 -1.4622
 1383TIP3    H2 4156   6.102   3.797   2.982  1.2145 -0.4380 -1.5577
 1384TIP3   OH2 4157   3.776   0.214   2.811 -0.0372 -0.0619  0.1133
 1384TIP3    H1 4158   3.687   0.198   2.781 -0.1132  1.3076 -0.5083
 1384TIP3    H2 4159   3.792   0.306   2.788  2.5877 -1.0328 -2.5885
 1385TIP3   OH2 4160   6.102   0.652   1.659 -0.2887  0.2380 -0.5704
 1385TIP3    H1 4161   6.149   0.584   1.708 -0.0533  0.1124 -0.9614
 1385TIP3    H2 4162   6.074   0.715   1.725  1.2878  0.8294 -0.4388
 1386TIP3   OH2 4163   5.183   0.425   0.803  0.1990 -0.7402 -0.1236
 1386TIP3    H1 4164   5.266   0.379   0.792  0.9623  0.9193 -1.9211
 1386TIP3    H2 4165   5.190   0.465   0.890  1.8352  0.3080 -0.6860
 1387TIP3   OH2 4166   3.118   2.759   1.014  0.4185 -0.4111 -0.2398
 1387TIP3    H1 4167   3.075   2.782   1.097  1.7714 -0.1582  0.4092
 1387TIP3    H2 4168   3.103   2.665   1.005  0.1327 -0.4154  0.2126
 1388TIP3   OH2 4169   1.744   0.314   4.993  0.5650  0.0519 -0.3633
 1388TIP3    H1 4170   1.672   0.303   5.055 -0.0800  1.5696 -0.7817
 1388TIP3    H2 4171   1.798   0.383   5.032  2.5436 -1.9059  0.5653
 1389TIP3   OH2 4172   3.431   0.692   3.582  0.4536  0.3212 -0.2186
 1389TIP3    H1 4173   3.481   0.698   3.663  0.2743  0.9540 -0.1493
 1389TIP3    H2 4174   3.368   0.622   3.597  1.5306 -0.7166 -0.4297
 1390TIP3   OH2 4175   4.359   5.242   1.381 -0.3154  0.3125  0.0157
 1390TIP3    H1 4176   4.287   5.304   1.395  0.2083  0.7520  0.9140
 1390TIP3    H2 4177   4.412   5.250   1.460  0.6161 -0.1395 -0.5506
 1391TIP3   OH2 4178   3.113   4.084   0.362  0.1081  0.5001 -0.6286
 1391TIP3    H1 4179   3.164   4.161   0.385 -1.8829  1.9022 -0.6259
 1391TIP3    H2 4180   3.154   4.050   0.282  2.5818 -0.0426  0.7793
 1392TIP3   OH2 4181   2.084   3.180   3.396  0.2189 -0.7113  0.0796
 1392TIP3    H1 4182   2.049   3.252   3.448  0.5617 -0.3707 -0.1673
 1392TIP3    H2 4183   2.012   3.116   3.394 -1.0826  0.6992 -1.8635
 1393TIP3   OH2 4184   6.158   5.672   4.852  0.2314  0.0231  0.0328
 1393TIP3    H1 4185   6.196   5.587   4.831  1.8274  0.5979  0.4956
 1393TIP3    H2 4186   6.214   5.735   4.809  0.4232  0.9482  1.5692
 1394TIP3   OH2 4187   2.577   4.190   1.359  0.1052 -0.4859 -0.4508
 1394TIP3    H1 4188   2.514   4.256   1.387  1.3054  0.7022 -0.4785
 1394TIP3    H2 4189   2.550   4.110   1.406  0.3044  0.7080  1.8490
 1395TIP3   OH2 4190   4.434   2.967   2.439  0.0624  0.3030  0.1477
 1395TIP3    H1 4191   4.484   2.964   2.521 -1.3189  1.8758  1.0952
 1395TIP3    H2 4192   4.501   2.972   2.371  1.2375  1.7726  1.3500
 1396TIP3   OH2 4193   5.454   2.295   0.830 -0.1049  0.4193  0.0966
 1396TIP3    H1 4194   5.442   2.249   0.748  1.3232 -0.4699  0.3478
 1396TIP3    H2 4195   5.404   2.245   0.895 -0.2343  0.4230 -0.0009
 1397TIP3   OH2 4196   0.135   1.538   2.885  0.2412  0.1792 -0.2609
 1397TIP3    H1 4197   0.117   1.462   2.940 -0.7285  1.5290  1.3994
 1397TIP3    H2 4198   0.217   1.574   2.920  0.2799  0.3361 -0.5100
 1398TIP3   OH2 4199   1.715   1.465   0.152 -0.5658  0.8872  0.5167
 1398TIP3    H1 4200   1.629   1.454   0.192 -0.6134  1.8201  0.6785
 1398TIP3    H2 4201   1.773   1.410   0.204 -1.0552  0.2734  0.4219
 1399TIP3   OH2 4202   4.832   0.900   3.195 -0.0239  0.2447  0.2156
 1399TIP3    H1 4203   4.850   0.987   3.158 -0.5762  0.0227 -0.6036
 1399TIP3    H2 4204   4.870   0.903   3.283  3.3434  0.0335 -1.0792
 1400TIP3   OH2 4205   4.748   3.040   3.120 -0.1444 -0.0830  0.5583
 1400TIP3    H1 4206   4.705   3.124   3.137 -0.5616  0.1705 -1.4929
 1400TIP3    H2 4207   4.773   3.008   3.206 -0.0489  2.1062  1.4049
 1401TIP3   OH2 4208   1.431   5.316   3.103 -0.0316  0.7048 -0.4008
 1401TIP3    H1 4209   1.337   5.302   3.100 -0.4526  3.1634 -1.1329
 1401TIP3    H2 4210   1.441   5.411   3.098  2.4392  0.6312  1.2004
 1402TIP3   OH2 4211   3.942   5.393   3.511 -0.6606  0.3287  0.3699
 1402TIP3    H1 4212   3.982   5.339   3.443  0.0073  0.3138  0.7622
 1402TIP3    H2 4213   3.890   5.458   3.463  1.5846  1.7608 -0.3020
 1403TIP3   OH2 4214   2.423   5.783   2.173  0.1071  0.6029 -0.3564
 1403TIP3    H1 4215   2.414   5.813   2.263 -0.6802  0.3880 -0.3617
 1403TIP3    H2 4216   2.409   5.688   2.178  0.3999  0.5402 -0.6621
 1404TIP3   OH2 4217   0.096   2.225   0.055 -0.0385 -0.0742 -0.1001
 1404TIP3    H1 4218   0.027   2.291   0.059  0.0324 -0.0418  0.5889
 1404TIP3    H2 4219   0.076   2.175  -0.024 -1.9617 -1.2565  1.0565
 1405TIP3   OH2 4220   3.906   1.953   4.662 -0.0471  0.2493  0.3365
 1405TIP3    H1 4221   3.953   2.011   4.602  0.4239 -1.0474 -0.5939
 1405TIP3    H2 4222   3.825   1.931   4.615 -0.1601  0.0654  0.6170
 1406TIP3   OH2 4223   5.242   1.701   4.722  0.5078  0.6072  0.2473
 1406TIP3    H1 4224   5.240   1.790   4.758 -0.8714  0.8291 -0.2997
 1406TIP3    H2 4225   5.261   1.713   4.629  0.0646  0.3600  0.1222
 1407TIP3   OH2 4226   2.845   1.809   4.375  0.1699 -0.2719 -0.9108
 1407TIP3    H1 4227   2.923   1.815   4.431 -0.0922  0.0723 -0.5805
 1407TIP3    H2 4228   2.823   1.900   4.355 -1.4561 -0.2350  0.8035
 1408TIP3   OH2 4229   3.981   2.295   1.399 -0.1287  0.1682 -0.2744
 1408TIP3    H1 4230   3.954   2.383   1.426  2.7448  1.1913 -0.3226
 1408TIP3    H2 4231   4.045   2.269   1.465 -1.3366 -2.1782  0.0465
 1409TIP3   OH2 4232   2.743   5.350   1.989 -1.2933 -0.6676 -0.0404
 1409TIP3    H1 4233   2.770   5.329   2.078 -0.8707 -1.3780 -0.3220
 1409TIP3    H2 4234   2.790   5.286   1.935  0.3201  1.2024 -0.9888
 1410TIP3   OH2 4235   2.171   4.143   3.082 -0.4866  0.4221  0.3044
 1410TIP3    H1 4236   2.170   4.113   2.991  0.3095 -0.1212  0.4646
 1410TIP3    H2 4237   2.079   4.144   3.108 -0.6628 -0.1778 -0.2681
 1411TIP3   OH2 4238   2.852   0.769   4.673  0.4081  0.2354  0.2015
 1411TIP3    H1 4239   2.855   0.674   4.662  0.6131  0.0488  1.5938
 1411TIP3    H2 4240   2.877   0.804   4.588  0.6589 -0.9608 -0.2390
 1412TIP3   OH2 4241   1.676   3.158   4.978  0.8732 -0.5111  0.5128
 1412TIP3    H1 4242   1.730   3.236   4.964 -0.4026  0.3528  0.1587
 1412TIP3    H2 4243   1.630   3.145   4.894  0.4652 -1.1576  0.8230
 1413TIP3   OH2 4244   0.291   5.504   1.829 -0.5870 -0.1597  0.4506
 1413TIP3    H1 4245   0.331   5.513   1.742 -0.5331  0.6583  0.5533
 1413TIP3    H2 4246   0.324   5.578   1.879  1.6102 -2.1108  2.1018
 1414TIP3   OH2 4247   3.902   2.921   0.263 -0.1553  0.3495 -0.2222
 1414TIP3    H1 4248   3.848   2.994   0.233 -1.3992 -0.2645  0.4401
 1414TIP3    H2 4249   3.843   2.846   0.263  0.5104 -0.2177  1.1833
 1415TIP3   OH2 4250   0.197   3.060   3.253  0.2010 -0.1727  0.5008
 1415TIP3    H1 4251   0.107   3.088   3.238  0.3666  0.1843  0.1491
 1415TIP3    H2 4252   0.192   3.001   3.328 -0.4726 -0.9382 -0.1173
 1416TIP3   OH2 4253   3.350   1.769   0.738 -0.5678 -0.4014 -0.8046
 1416TIP3    H1 4254   3.409   1.805   0.672 -1.0504 -0.6870 -1.4037
 1416TIP3    H2 4255   3.378   1.679   0.749  1.4874  0.4384  1.6600
 1417TIP3   OH2 4256   3.030   2.644   2.642 -0.0553  0.3330  0.0830
 1417TIP3    H1 4257   2.963   2.656   2.575  0.0499  0.0602 -0.0737
 1417TIP3    H2 4258   3.058   2.553   2.632  1.0418  0.7166 -0.5036
 1418TIP3   OH2 4259   3.123   4.590   0.569 -0.6530 -0.0174  0.2793
 1418TIP3    H1 4260   3.068   4.655   0.613  0.0780 -1.6055  3.8359
 1418TIP3    H2 4261   3.063   4.518   0.549 -0.6655  0.0088  0.2211
 1419TIP3   OH2 4262   0.628   2.965   3.887  0.0881 -0.2179 -0.2077
 1419TIP3    H1 4263   0.664   2.977   3.975  2.2348  1.3710 -1.1929
 1419TIP3    H2 4264   0.592   2.876   3.888 -0.3531 -0.1017  2.3585
 1420TIP3   OH2 4265   2.644   1.904   5.151 -0.2530  0.0135 -0.1099
 1420TIP3    H1 4266   2.709   1.928   5.217  0.0831 -0.8933 -0.1033
 1420TIP3    H2 4267   2.624   1.987   5.107  1.1339  0.2677 -0.3161
 1421TIP3   OH2 4268   3.071   0.144   0.796  0.3511 -0.2080 -0.3833
 1421TIP3    H1 4269   3.102   0.070   0.743 -0.3000 -0.3503 -0.5782
 1421TIP3    H2 4270   3.048   0.211   0.731  0.3196 -0.0809 -0.2402
 1422TIP3   OH2 4271   6.259   2.144   1.913 -0.1007  0.6277 -0.1419
 1422TIP3    H1 4272   6.266   2.224   1.966 -2.3952  1.3773 -0.8614
 1422TIP3    H2 4273   6.349   2.112   1.906  0.6147  1.9966  1.8961
 1423TIP3   OH2 4274   0.688   0.458   0.928 -0.3989 -1.2804 -0.7716
 1423TIP3    H1 4275   0.686   0.412   1.012 -0.4579 -0.2665 -0.1960
 1423TIP3    H2 4276   0.649   0.397   0.866  0.0300 -2.2064 -0.1494
 1424TIP3   OH2 4277   4.360   3.945   4.569 -0.2358 -0.2358  0.0638
 1424TIP3    H1 4278   4.343   3.950   4.474 -2.4584 -1.7468  0.2884
 1424TIP3    H2 4279   4.401   4.029   4.590 -0.2736  0.4126 -2.1276
 1425TIP3   OH2 4280   4.185   0.729   2.155  0.7071 -0.0003 -0.2768
 1425TIP3    H1 4281   4.210   0.649   2.200  2.0288  0.8083  0.4990
 1425TIP3    H2 4282   4.268   0.774   2.139  0.1357  0.4269 -2.2270
 1426TIP3   OH2 4283   2.171   4.503   3.119  0.4760 -0.2792  0.1716
 1426TIP3    H1 4284   2.077   4.485   3.110 -0.4390  3.6831 -0.5077
 1426TIP3    H2 4285   2.207   4.490   3.032 -0.1297  0.9278 -0.2857
 1427TIP3   OH2 4286   4.987   2.270   4.696  0.3055 -0.3025 -0.5989
 1427TIP3    H1 4287   5.049   2.265   4.769 -0.1424  3.0017  0.1563
 1427TIP3    H2 4288   5.041   2.287   4.619  0.5014  0.5722 -0.2767
 1428TIP3   OH2 4289   5.265   2.192   2.221 -0.2965 -0.5929 -0.0732
 1428TIP3    H1 4290   5.235   2.152   2.303 -1.7415  1.5727  0.5413
 1428TIP3    H2 4291   5.188   2.189   2.164 -0.9036  2.2741  0.4373
 1429TIP3   OH2 4292   0.559   3.702   3.090 -0.2637 -0.1846 -0.2933
 1429TIP3    H1 4293   0.583   3.775   3.033  0.6737 -1.1073 -1.1246
 1429TIP3    H2 4294   0.496   3.740   3.152 -0.9972  0.9452 -1.6687
 1430TIP3   OH2 4295   0.347   5.103   4.372  0.2184 -0.5959 -0.5694
 1430TIP3    H1 4296   0.308   5.176   4.420 -1.4117 -1.9272  0.2605
 1430TIP3    H2 4297   0.319   5.115   4.282 -2.1224 -1.3986 -0.0327
 1431TIP3   OH2 4298   1.336   1.546   3.391 -0.2912  0.5949  0.0011
 1431TIP3    H1 4299   1.326   1.503   3.306  0.7949 -1.7471  0.9817
 1431TIP3    H2 4300   1.431   1.553   3.403 -0.3300 -1.4603  2.0818
 1432TIP3   OH2 4301   2.791   0.167   3.878  0.8542 -0.5799 -0.2337
 1432TIP3    H1 4302   2.846   0.244   3.868 -0.4105  0.0984 -2.8397
 1432TIP3    H2 4303   2.711   0.200   3.918  0.0903 -0.3604 -1.8625
 1433TIP3   OH2 4304   1.581   4.500   4.469 -0.2221  0.2188 -0.0139
 1433TIP3    H1 4305   1.607   4.477   4.558 -1.3120 -0.1610  0.2188
 1433TIP3    H2 4306   1.540   4.420   4.435 -0.0714  0.4491 -0.7616
 1434TIP3   OH2 4307   5.561   1.115   3.925  0.0630 -0.6134  0.6124
 1434TIP3    H1 4308   5.639   1.126   3.978 -0.0269 -0.9341  0.8143
 1434TIP3    H2 4309   5.583   1.154   3.840 -0.3083  1.2605  1.3434
 1435TIP3   OH2 4310   3.655   0.600   0.214  0.6778  0.1459 -0.4128
 1435TIP3    H1 4311   3.641   0.512   0.249  1.3530 -0.4922 -1.6721
 1435TIP3    H2 4312   3.569   0.642   0.221  0.4987 -0.3612  0.8139
 1436TIP3   OH2 4313   2.623   0.213   0.147  0.3822 -0.2306 -0.2412
 1436TIP3    H1 4314   2.670   0.296   0.144 -0.9054  0.5619  0.6030
 1436TIP3    H2 4315   2.596   0.197   0.057  0.7387  0.2063 -0.4290
 1437TIP3   OH2 4316   1.613   1.788   1.777 -1.0156  0.0863 -0.0526
 1437TIP3    H1 4317   1.602   1.698   1.746  0.2597  0.5372 -2.0506
 1437TIP3    H2 4318   1.702   1.791   1.812 -0.9527  0.6247 -0.2491
 1438TIP3   OH2 4319   4.995   2.675   4.536  0.1815  0.3699  0.0923
 1438TIP3    H1 4320   4.939   2.722   4.598 -1.1689 -0.6590 -0.3161
 1438TIP3    H2 4321   5.075   2.729   4.531  0.3265  0.5409  2.6443
 1439TIP3   OH2 4322   0.047   4.666   3.773  0.0526  0.3329 -0.1966
 1439TIP3    H1 4323  -0.010   4.650   3.849 -0.9969  1.6292 -0.6675
 1439TIP3    H2 4324   0.114   4.598   3.779 -0.6089 -0.2440  1.2997
 1440TIP3   OH2 4325   4.612   0.872   0.498  0.0327  0.1083  0.6607
 1440TIP3    H1 4326   4.564   0.818   0.561 -0.9710  0.3226  0.1085
 1440TIP3    H2 4327   4.650   0.809   0.437  1.1436 -0.1109  1.5446
 1441TIP3   OH2 4328   3.749   4.185   1.947  0.2253  0.6809 -0.5237
 1441TIP3    H1 4329   3.701   4.126   1.890 -0.6078  1.3861 -0.5670
 1441TIP3    H2 4330   3.794   4.245   1.887 -0.5046  1.3086 -0.4524
 1442TIP3   OH2 4331   1.388   4.369   1.160  0.1035 -0.4272  0.5754
 1442TIP3    H1 4332   1.362   4.293   1.213 -0.0935 -1.4758 -0.9478
 1442TIP3    H2 4333   1.323   4.372   1.090 -0.2173  1.5348  0.9248
 1443TIP3   OH2 4334   2.967   2.934   1.674  0.2018  0.1857 -0.1796
 1443TIP3    H1 4335   2.913   2.960   1.600  2.4964  1.4506 -1.5228
 1443TIP3    H2 4336   2.942   2.994   1.744 -0.1746  0.7002 -0.7502
 1444TIP3   OH2 4337   1.959   0.648   3.802  0.4595  0.0718  0.1093
 1444TIP3    H1 4338   1.940   0.555   3.794 -1.6228  0.6014 -2.1388
 1444TIP3    H2 4339   1.895   0.692   3.747  1.2889  2.8945  1.1495
 1445TIP3   OH2 4340   4.687   5.937   3.197  0.3256  0.0676 -0.3560
 1445TIP3    H1 4341   4.699   5.952   3.103 -0.3051  0.6555 -0.3551
 1445TIP3    H2 4342   4.776   5.928   3.232  0.5342 -1.6328 -1.2239
 1446TIP3   OH2 4343   4.746   0.041   3.625 -0.0760 -0.3218 -0.4880
 1446TIP3    H1 4344   4.763   0.019   3.717 -0.0201 -1.1889 -0.7050
 1446TIP3    H2 4345   4.831   0.069   3.591  0.0243 -0.5606 -0.4315
 1447TIP3   OH2 4346   4.706   4.510   3.805  0.0902 -0.3758  0.3725
 1447TIP3    H1 4347   4.744   4.578   3.860 -0.0782 -0.5980  0.7685
 1447TIP3    H2 4348   4.620   4.542   3.781  0.9949  0.7263 -1.6182
 1448TIP3   OH2 4349   1.952   2.237   4.304  0.5459  0.2997  0.0415
 1448TIP3    H1 4350   1.959   2.304   4.373 -1.1701  1.0854 -0.4939
 1448TIP3    H2 4351   1.927   2.157   4.350 -0.3561  0.7648  0.3929
 1449TIP3   OH2 4352   0.439   5.808   0.238 -0.0187  0.9997 -0.5180
 1449TIP3    H1 4353   0.359   5.833   0.191 -0.0215 -0.4760 -1.3574
 1449TIP3    H2 4354   0.424   5.718   0.265  1.2425  0.7993 -0.4169
 1450TIP3   OH2 4355   4.545   1.329   4.979 -0.2640 -0.0121  0.2346
 1450TIP3    H1 4356   4.451   1.331   4.965 -0.0229 -0.5914 -1.8974
 1450TIP3    H2 4357   4.577   1.412   4.943  0.0675  0.1360  0.8484
 1451TIP3   OH2 4358   2.310   3.697   2.866 -0.0464 -0.0364  0.2845
 1451TIP3    H1 4359   2.369   3.643   2.813 -0.0280  0.4121 -0.1582
 1451TIP3    H2 4360   2.350   3.696   2.953  0.1572 -0.4302  0.1913
 1452TIP3   OH2 4361   2.592   4.975   2.969  0.3705 -0.4889 -0.0143
 1452TIP3    H1 4362   2.528   4.913   3.005  0.1515  0.2693  0.9633
 1452TIP3    H2 4363   2.676   4.930   2.977  0.3460 -0.3172  1.6118
 1453TIP3   OH2 4364   2.479   5.343   3.129 -0.2784  0.4521  0.4719
 1453TIP3    H1 4365   2.557   5.288   3.137 -0.8418 -0.2665  1.1927
 1453TIP3    H2 4366   2.503   5.409   3.064  0.2368 -0.9656 -0.8429
 1454TIP3   OH2 4367   1.501   0.328   1.264 -0.7055  0.2419 -0.1232
 1454TIP3    H1 4368   1.519   0.270   1.337  0.3936 -0.3548 -0.8426
 1454TIP3    H2 4369   1.561   0.300   1.195 -1.4426  1.0393 -1.1242
 1455TIP3   OH2 4370   2.104   1.094   4.616  0.0393 -0.3651  0.6554
 1455TIP3    H1 4371   2.073   1.062   4.701 -2.7234 -2.3596 -0.9035
 1455TIP3    H2 4372   2.027   1.087   4.559  1.3982  2.1628 -1.7341
 1456TIP3   OH2 4373   0.514   4.157   2.513  0.0897 -0.3604 -0.7052
 1456TIP3    H1 4374   0.446   4.091   2.499  0.6745 -0.8130 -1.4617
 1456TIP3    H2 4375   0.492   4.196   2.598  1.2035 -3.3478  1.0967
 1457TIP3   OH2 4376   3.186   4.408   2.347 -0.5296 -0.2738  0.1022
 1457TIP3    H1 4377   3.151   4.326   2.381 -2.9441  1.4654  2.2991
 1457TIP3    H2 4378   3.111   4.452   2.308 -0.4689  2.6465  2.8719
 1458TIP3   OH2 4379   5.311   3.602   3.487 -0.0929  0.1536 -0.0991
 1458TIP3    H1 4380   5.322   3.589   3.393  1.0290  0.7615 -0.0583
 1458TIP3    H2 4381   5.390   3.566   3.527 -0.0199  0.9682  0.5200
 1459TIP3   OH2 4382   2.942   3.643   1.566 -0.2143 -0.3850 -0.3948
 1459TIP3    H1 4383   2.922   3.675   1.654 -0.0495  1.3633 -0.9479
 1459TIP3    H2 4384   2.868   3.671   1.512  0.2903 -0.2891 -1.0526
 1460TIP3   OH2 4385   2.790   2.488   4.867 -0.1496  0.1420  0.4013
 1460TIP3    H1 4386   2.704   2.518   4.836 -0.6472 -0.2322  1.3501
 1460TIP3    H2 4387   2.840   2.470   4.788 -0.7651  0.8932 -0.1712
 1461TIP3   OH2 4388   3.832   4.527   4.259  0.3408 -0.9184 -0.8368
 1461TIP3    H1 4389   3.911   4.569   4.224  1.0511 -1.5245 -0.0096
 1461TIP3    H2 4390   3.840   4.435   4.232 -0.9163 -0.6647 -2.1531
 1462TIP3   OH2 4391   0.738   4.044   2.708  0.2165 -0.0942 -0.2345
 1462TIP3    H1 4392   0.688   4.125   2.714 -1.5751 -1.2455  1.7751
 1462TIP3    H2 4393   0.827   4.072   2.686 -0.3966  2.3799  0.1696
 1463TIP3   OH2 4394   3.869   4.497   3.607  0.3728  0.0547  0.0795
 1463TIP3    H1 4395   3.780   4.468   3.624 -0.0100  0.7728 -0.6631
 1463TIP3    H2 4396   3.860   4.583   3.566  1.4776  1.4521  2.5266
 1464TIP3   OH2 4397   3.375   0.693   4.534  0.5529  0.7378 -0.7826
 1464TIP3    H1 4398   3.440   0.624   4.523 -0.9315 -1.2409  1.7261
 1464TIP3    H2 4399   3.301   0.664   4.480 -0.2155  0.0577  0.5659
 1465TIP3   OH2 4400   1.293   1.444   1.821 -0.0506  0.1610  0.1893
 1465TIP3    H1 4401   1.206   1.448   1.782 -0.4760 -2.3479  0.6780
 1465TIP3    H2 4402   1.305   1.352   1.844  2.7040  0.4355  0.2615
 1466TIP3   OH2 4403   3.579   5.295   0.752  0.3689 -0.4982 -0.2122
 1466TIP3    H1 4404   3.569   5.339   0.837  0.1659 -2.0002  0.5622
 1466TIP3    H2 4405   3.643   5.348   0.705  1.0997 -0.1000  1.1921
 1467TIP3   OH2 4406   4.543   0.594   4.373  0.2596 -0.5771 -0.8099
 1467TIP3    H1 4407   4.629   0.612   4.334  0.2136  1.0912 -0.2097
 1467TIP3    H2 4408   4.489   0.565   4.299  1.3221 -1.7480 -1.1853
 1468TIP3   OH2 4409   1.158   2.626   0.400  0.3454  0.1037  0.2060
 1468TIP3    H1 4410   1.173   2.535   0.375  0.2849  0.1286  0.0777
 1468TIP3    H2 4411   1.075   2.624   0.448  0.3054  0.1026  0.1370
 1469TIP3   OH2 4412   3.169   0.133   0.290 -0.1896 -0.0860  0.3136
 1469TIP3    H1 4413   3.117   0.213   0.301 -0.5097 -0.5296  2.5407
 1469TIP3    H2 4414   3.251   0.163   0.251 -0.4623  1.2582  0.7134
 1470TIP3   OH2 4415   5.992   1.175   3.974 -0.4560 -0.0765 -0.1591
 1470TIP3    H1 4416   5.906   1.173   3.933  0.3132  1.1679 -1.9267
 1470TIP3    H2 4417   6.000   1.090   4.018 -1.6236 -1.1934 -1.9876
 1471TIP3   OH2 4418   1.649   5.680   4.464 -0.1150 -0.2824 -0.2928
 1471TIP3    H1 4419   1.734   5.720   4.445 -0.3926  0.3446 -0.2550
 1471TIP3    H2 4420   1.661   5.636   4.548 -0.0049  0.3888  0.0546
 1472TIP3   OH2 4421   4.113   4.420   0.256 -0.2276 -0.5771  1.0211
 1472TIP3    H1 4422   4.125   4.503   0.302  1.1920 -0.1609 -0.0376
 1472TIP3    H2 4423   4.123   4.353   0.323  0.2548  0.0560  1.5934
 1473TIP3   OH2 4424   1.953   2.433   3.035  0.3182  0.0083 -0.2097
 1473TIP3    H1 4425   1.988   2.520   3.015 -0.5599  0.4033 -0.0872
 1473TIP3    H2 4426   1.889   2.449   3.105 -0.2378 -0.6622 -0.5569
 1474TIP3   OH2 4427   4.776   1.366   4.619 -0.1509  0.0243 -0.0382
 1474TIP3    H1 4428   4.748   1.293   4.674 -0.7835  2.3066  2.9191
 1474TIP3    H2 4429   4.702   1.382   4.561  0.2202 -1.9302 -1.1707
 1475TIP3   OH2 4430   2.178   4.271   1.482  0.0624  0.5301 -0.7246
 1475TIP3    H1 4431   2.150   4.246   1.394  0.3940 -1.4837 -0.3086
 1475TIP3    H2 4432   2.265   4.307   1.470  0.1495  0.1645 -1.2312
 1476TIP3   OH2 4433   1.841   1.705   3.381  0.0828  0.7542 -0.2268
 1476TIP3    H1 4434   1.920   1.654   3.363 -1.1645 -1.2969 -0.2090
 1476TIP3    H2 4435   1.847   1.780   3.323  1.5371  0.0977 -0.9831
 1477TIP3   OH2 4436   3.258   1.191   2.179 -0.1590 -0.3795  0.5937
 1477TIP3    H1 4437   3.285   1.245   2.105  0.2256 -1.5693 -0.1619
 1477TIP3    H2 4438   3.164   1.206   2.187 -0.0798  0.2898  0.3013
 1478TIP3   OH2 4439   0.856   4.790   4.643  0.5697 -0.2038  0.5715
 1478TIP3    H1 4440   0.858   4.792   4.548  1.5903 -1.1325  0.5439
 1478TIP3    H2 4441   0.870   4.880   4.670  0.5822  0.0181 -0.1609
 1479TIP3   OH2 4442   6.259   1.270   2.759 -0.0813 -0.4961  0.0595
 1479TIP3    H1 4443   6.277   1.363   2.744 -0.3682 -0.0080  2.3865
 1479TIP3    H2 4444   6.281   1.228   2.676  3.2291  1.2113 -0.0945
 1480TIP3   OH2 4445   0.412   3.021   3.057 -0.1228 -0.2510  0.1271
 1480TIP3    H1 4446   0.367   3.062   3.131 -0.4132 -1.6204  0.7344
 1480TIP3    H2 4447   0.355   2.948   3.032  0.6862 -0.6804 -0.5086
 1481TIP3   OH2 4448   2.120   5.480   4.912 -0.0276 -0.5182  0.5736
 1481TIP3    H1 4449   2.036   5.435   4.916 -1.5434  2.0173 -0.5229
 1481TIP3    H2 4450   2.184   5.410   4.898 -2.1252 -2.3729 -0.2500
 1482TIP3   OH2 4451   3.956   1.949   2.417 -0.4258 -0.0473 -0.0693
 1482TIP3    H1 4452   3.951   1.875   2.478 -2.8141  0.9073  1.0021
 1482TIP3    H2 4453   3.870   1.990   2.421 -0.1733  1.0326 -2.9165
 1483TIP3   OH2 4454   3.077   5.138   4.124  0.1778 -0.2530  0.4930
 1483TIP3    H1 4455   3.081   5.043   4.113 -2.3499 -0.3274 -0.3537
 1483TIP3    H2 4456   3.104   5.173   4.039 -0.4805 -0.2911  0.2587
 1484TIP3   OH2 4457   4.818   0.603   2.790 -0.5543 -0.2638  0.1794
 1484TIP3    H1 4458   4.831   0.622   2.883 -0.8501 -1.4820  0.4902
 1484TIP3    H2 4459   4.893   0.644   2.746 -0.2703  0.0928  0.9867
 1485TIP3   OH2 4460   1.965   5.906   4.780  0.5732  0.2274  0.1075
 1485TIP3    H1 4461   1.873   5.893   4.759  0.1217  2.3362  0.5376
 1485TIP3    H2 4462   2.005   5.820   4.766 -1.5677 -0.9323  0.6347
 1486TIP3   OH2 4463   3.305   3.705   4.191 -0.2223  0.1392 -0.1550
 1486TIP3    H1 4464   3.276   3.645   4.260  1.3225  1.2789  1.5802
 1486TIP3    H2 4465   3.270   3.667   4.110 -1.6766 -1.5311  1.1740
 1487TIP3   OH2 4466   2.883   2.682   3.533 -0.5131 -0.5546  0.0024
 1487TIP3    H1 4467   2.909   2.697   3.624 -0.2551  0.7183 -0.2593
 1487TIP3    H2 4468   2.865   2.769   3.498 -0.1118 -0.9689 -1.3133
 1488TIP3   OH2 4469   4.148   2.965   0.388  0.3876 -0.1675 -0.0603
 1488TIP3    H1 4470   4.060   2.959   0.352  0.1941 -0.1120  0.4085
 1488TIP3    H2 4471   4.157   3.056   0.416  0.3463 -0.3486  0.5378
 1489TIP3   OH2 4472   5.476   4.784   1.940 -0.1997 -0.0684  0.1441
 1489TIP3    H1 4473   5.554   4.736   1.964  0.4886  0.3517 -1.1755
 1489TIP3    H2 4474   5.481   4.865   1.991  1.1435  0.7320 -1.1987
 1490TIP3   OH2 4475   5.278   0.067   0.984  0.2234  0.3599  0.0363
 1490TIP3    H1 4476   5.253   0.069   1.076  0.4111 -2.4157  0.2453
 1490TIP3    H2 4477   5.335   0.143   0.973 -1.7301  2.1599  1.5415
 1491TIP3   OH2 4478   3.242   2.349   3.801  0.4377  0.7789  0.1955
 1491TIP3    H1 4479   3.210   2.375   3.888  0.7372  1.1986  0.1846
 1491TIP3    H2 4480   3.317   2.406   3.785  0.9830  0.0382  0.0721
 1492TIP3   OH2 4481   0.768   0.603   2.120  0.0747 -0.2960  0.0029
 1492TIP3    H1 4482   0.796   0.546   2.049 -2.3031 -1.5442 -0.0519
 1492TIP3    H2 4483   0.784   0.692   2.088 -2.7360 -0.6993 -3.0778
 1493TIP3   OH2 4484   5.445   1.786   2.921 -0.0661 -0.5656 -0.1766
 1493TIP3    H1 4485   5.431   1.698   2.957  1.3884 -1.2052 -1.0550
 1493TIP3    H2 4486   5.531   1.812   2.956 -1.0077  1.0415  1.0540
 1494TIP3   OH2 4487   5.833   4.814   1.321  0.9883 -0.0706 -0.5309
 1494TIP3    H1 4488   5.821   4.878   1.251  0.5146  0.4577  0.0163
 1494TIP3    H2 4489   5.846   4.867   1.399  1.6170 -0.6521 -0.2299
 1495TIP3   OH2 4490   6.216   4.935   3.454 -0.2365  0.4875  0.2406
 1495TIP3    H1 4491   6.176   5.021   3.447 -1.5470 -0.1488 -0.6109
 1495TIP3    H2 4492   6.256   4.934   3.541  1.0860  2.4367 -0.2817
 1496TIP3   OH2 4493   5.139   2.116   0.182  0.6355 -0.0300  0.3598
 1496TIP3    H1 4494   5.225   2.131   0.222  0.3292  0.8365  0.6995
 1496TIP3    H2 4495   5.113   2.029   0.215  1.8462 -0.7972 -0.6175
 1497TIP3   OH2 4496   6.279   2.094   5.088 -0.0157 -0.1298  0.4693
 1497TIP3    H1 4497   6.292   2.125   4.998 -1.9257  0.6006  0.4062
 1497TIP3    H2 4498   6.357   2.125   5.135 -0.1854  1.7728 -0.3946
 1498TIP3   OH2 4499   0.080   2.634   2.169  0.1207  0.2751  0.7648
 1498TIP3    H1 4500   0.160   2.679   2.141 -0.4483  1.5304  1.0510
 1498TIP3    H2 4501   0.104   2.542   2.172  2.0374  0.7433  2.4136
 1499TIP3   OH2 4502   3.030   2.847   4.758  0.2605  0.5040 -0.0146
 1499TIP3    H1 4503   2.965   2.791   4.802  0.1814  0.0334 -0.7070
 1499TIP3    H2 4504   3.101   2.787   4.735 -0.1954  0.4931 -1.5085
 1500TIP3   OH2 4505   4.041   5.315   0.439  0.2714 -0.5908 -0.2519
 1500TIP3    H1 4506   4.096   5.378   0.393  0.0334  0.7312  1.1962
 1500TIP3    H2 4507   3.963   5.307   0.384  0.7506 -0.4193 -0.9692
 1501TIP3   OH2 4508   1.046   1.169   4.685 -0.5548  0.3587  0.1583
 1501TIP3    H1 4509   0.975   1.176   4.622 -1.4776 -0.1438  1.1036
 1501TIP3    H2 4510   1.042   1.079   4.717  1.6505 -0.2469 -1.0332
 1502TIP3   OH2 4511   5.578   0.718   5.193 -0.0605  0.8102  0.6636
 1502TIP3    H1 4512   5.521   0.749   5.122 -0.5929 -1.8240 -0.1671
 1502TIP3    H2 4513   5.661   0.764   5.179 -0.3521  0.8187 -1.3189
 1503TIP3   OH2 4514   2.567   4.817   0.674  0.0515  0.4992 -0.1214
 1503TIP3    H1 4515   2.654   4.833   0.712 -0.3793 -0.4377  1.3299
 1503TIP3    H2 4516   2.514   4.785   0.747 -1.2881  0.2321 -1.1708
 1504TIP3   OH2 4517   0.564   3.492   4.725 -0.5726 -0.2609 -0.1361
 1504TIP3    H1 4518   0.551   3.518   4.816  0.6961 -1.6024  0.4688
 1504TIP3    H2 4519   0.547   3.572   4.674  1.4416  1.3317  1.4883
 1505TIP3   OH2 4520   5.954   1.865   4.466  0.1237  0.3914  1.0531
 1505TIP3    H1 4521   5.978   1.856   4.558  1.1236  0.7711  0.8414
 1505TIP3    H2 4522   5.989   1.786   4.425  2.2798  1.5550  0.5100
 1506TIP3   OH2 4523   4.266   0.044   3.703 -0.0840  0.2445 -0.0793
 1506TIP3    H1 4524   4.211   0.032   3.627 -0.1950  0.9384 -0.1139
 1506TIP3    H2 4525   4.224  -0.008   3.772  0.2937 -0.7921 -0.6106
 1507TIP3   OH2 4526   0.729   5.813   0.278 -0.1270  0.3254  0.7945
 1507TIP3    H1 4527   0.755   5.816   0.370  0.0737 -0.9037  0.8007
 1507TIP3    H2 4528   0.633   5.808   0.280 -0.0914 -0.4791  0.9845
 1508TIP3   OH2 4529   3.930   3.130   1.152 -0.0761 -0.1269  0.3850
 1508TIP3    H1 4530   3.839   3.159   1.161 -0.1953 -0.4580  0.2749
 1508TIP3    H2 4531   3.928   3.067   1.080  0.1961 -0.3168  0.5410
 1509TIP3   OH2 4532   5.002   3.155   4.188  0.3521  0.5453 -0.2208
 1509TIP3    H1 4533   5.009   3.234   4.242 -1.1402  0.6321 -0.0986
 1509TIP3    H2 4534   4.982   3.085   4.249 -1.7398  0.7138 -0.6180
 1510TIP3   OH2 4535   0.522   2.809   1.889 -0.2330 -0.5230  0.5687
 1510TIP3    H1 4536   0.586   2.837   1.823 -0.5418 -0.7717  0.1569
 1510TIP3    H2 4537   0.445   2.863   1.871 -0.3848 -0.7298  0.6029
 1511TIP3   OH2 4538   5.057   2.237   3.207  0.5724  0.2343  0.1035
 1511TIP3    H1 4539   4.972   2.272   3.179 -0.0594 -1.0007  0.4115
 1511TIP3    H2 4540   5.105   2.314   3.239 -0.5577  0.8990  0.2705
 1512TIP3   OH2 4541   1.866   2.586   3.517 -0.3369  0.0567  0.2119
 1512TIP3    H1 4542   1.794   2.648   3.504 -0.1535 -0.1028 -2.0084
 1512TIP3    H2 4543   1.919   2.625   3.586 -2.4259  0.2456  1.8188
 1513TIP3   OH2 4544   1.629   4.071   1.674  0.4976  0.1512 -0.7574
 1513TIP3    H1 4545   1.654   4.109   1.590  1.6772  0.3109 -0.3638
 1513TIP3    H2 4546   1.710   4.033   1.708 -0.2960 -1.2551 -0.3756
 1514TIP3   OH2 4547   5.436   5.102   0.375 -0.0126  0.1525  0.2572
 1514TIP3    H1 4548   5.409   5.172   0.434  1.4586 -0.6253  1.9465
 1514TIP3    H2 4549   5.450   5.027   0.432  1.4912 -0.6408 -1.0759
 1515TIP3   OH2 4550   5.003   2.533   1.822  0.6036 -0.4183  0.5437
 1515TIP3    H1 4551   4.962   2.449   1.844  0.0067  0.5474  3.5767
 1515TIP3    H2 4552   4.993   2.541   1.727 -3.1748 -1.8211  0.6866
 1516TIP3   OH2 4553   4.944   0.806   2.360  0.5658 -0.3682 -0.2165
 1516TIP3    H1 4554   4.965   0.897   2.379  3.1855 -0.4247 -2.3526
 1516TIP3    H2 4555   4.913   0.771   2.444 -0.1752  2.3303  0.7498
 1517TIP3   OH2 4556   4.850   5.603   1.594 -0.0311 -0.3876  0.3239
 1517TIP3    H1 4557   4.888   5.677   1.545  0.6884 -0.3501  0.9200
 1517TIP3    H2 4558   4.777   5.642   1.642 -0.3676 -0.3017 -0.2418
 1518TIP3   OH2 4559   0.554   0.686   5.092 -0.0836 -0.0213 -0.4295
 1518TIP3    H1 4560   0.561   0.706   4.999  0.0430  0.2601 -0.3634
 1518TIP3    H2 4561   0.497   0.754   5.127  1.1105  0.8222 -0.0291
 1519TIP3   OH2 4562   1.530   0.993   0.879 -0.1672 -0.5497  0.1529
 1519TIP3    H1 4563   1.582   1.063   0.920 -1.2834  1.3516 -1.4636
 1519TIP3    H2 4564   1.560   0.992   0.788  0.1232 -2.5435  0.2267
 1520TIP3   OH2 4565   0.885   3.283   5.114 -0.2555 -0.9191  0.7168
 1520TIP3    H1 4566   0.958   3.267   5.055  0.3723  0.5301  1.0521
 1520TIP3    H2 4567   0.808   3.278   5.059  0.4541  3.3401 -1.0030
 1521TIP3   OH2 4568   2.625   3.949   4.694  0.1495 -0.1982  0.5065
 1521TIP3    H1 4569   2.715   3.951   4.726  0.5627 -1.2365 -0.4882
 1521TIP3    H2 4570   2.614   4.033   4.650 -0.0151  0.7117  2.2333
 1522TIP3   OH2 4571   1.223   1.047   1.209  0.4345 -0.4073  0.1051
 1522TIP3    H1 4572   1.146   1.055   1.265 -0.9071  0.0762 -1.7217
 1522TIP3    H2 4573   1.268   1.131   1.217  0.7787 -0.6720  1.1329
 1523TIP3   OH2 4574   3.232   4.903   3.464  0.7122 -0.2581  0.1476
 1523TIP3    H1 4575   3.294   4.830   3.472  0.5617 -0.4578 -0.4588
 1523TIP3    H2 4576   3.155   4.875   3.513  1.1511  0.0517  1.0278
 1524TIP3   OH2 4577   5.137   4.969   2.517  0.3562 -0.4940 -0.2175
 1524TIP3    H1 4578   5.221   5.013   2.499  2.0875 -2.8829  1.3979
 1524TIP3    H2 4579   5.148   4.932   2.604 -2.5427 -0.6895  0.1542
 1525TIP3   OH2 4580   4.975   3.173   4.890  0.1804 -0.5836 -0.1664
 1525TIP3    H1 4581   4.899   3.231   4.891 -0.6938 -1.6697  0.4550
 1525TIP3    H2 4582   4.973   3.132   4.804 -1.4305 -2.3917  0.6466
 1526TIP3   OH2 4583   0.766   5.188   5.134 -0.2227 -0.1148  0.0748
 1526TIP3    H1 4584   0.676   5.181   5.168  0.4695  1.1845  2.4656
 1526TIP3    H2 4585   0.821   5.162   5.208  1.4113  2.7198 -0.0010
 1527TIP3   OH2 4586   3.668   0.322   3.747 -0.7038  0.0517 -0.2249
 1527TIP3    H1 4587   3.665   0.378   3.670  2.3296  2.6942  1.3224
 1527TIP3    H2 4588   3.682   0.382   3.820  1.0084 -2.5772  1.8118
 1528TIP3   OH2 4589   6.103   2.963   2.477 -0.7690  0.7403 -0.0085
 1528TIP3    H1 4590   6.008   2.969   2.470 -0.7335 -0.0747 -1.6381
 1528TIP3    H2 4591   6.118   2.888   2.535 -1.1204  0.4102 -0.3384
 1529TIP3   OH2 4592   4.506   5.176   1.141 -0.1034  0.1217 -0.3566
 1529TIP3    H1 4593   4.452   5.186   1.219 -0.3270 -0.6564 -0.4044
 1529TIP3    H2 4594   4.572   5.245   1.148 -0.9014  0.8796 -0.1387
 1530TIP3   OH2 4595   0.874   5.113   4.898  0.0850  0.0971 -0.2584
 1530TIP3    H1 4596   0.824   5.133   4.977  1.6646  1.3157  0.4734
 1530TIP3    H2 4597   0.809   5.118   4.827 -0.8865  1.4351  0.6755
 1531TIP3   OH2 4598   1.253   2.906   4.429  0.3384 -0.3785 -0.3445
 1531TIP3    H1 4599   1.250   2.903   4.525  2.0400 -0.5966 -0.2673
 1531TIP3    H2 4600   1.335   2.862   4.406 -0.0569 -0.3583 -1.9122
 1532TIP3   OH2 4601   2.716   4.940   3.667  0.2642 -0.0565  0.0489
 1532TIP3    H1 4602   2.789   4.983   3.713 -0.1748 -1.3011  2.0502
 1532TIP3    H2 4603   2.702   4.859   3.716 -1.5050 -0.5511 -1.2027
 1533TIP3   OH2 4604   4.377   3.373   0.937  0.2957  0.4031 -0.3673
 1533TIP3    H1 4605   4.382   3.392   0.843  0.6670  2.3080 -0.0072
 1533TIP3    H2 4606   4.373   3.278   0.942  0.0257  0.2671 -2.3226
 1534TIP3   OH2 4607   1.372   2.898   2.998 -0.3711 -0.2044 -0.4636
 1534TIP3    H1 4608   1.404   2.953   2.927 -1.3888 -2.8776 -3.2014
 1534TIP3    H2 4609   1.280   2.921   3.007 -0.2818  0.0206 -0.1196
 1535TIP3   OH2 4610   1.150   2.603   2.968 -0.1225 -0.0975  0.2382
 1535TIP3    H1 4611   1.095   2.531   2.999 -0.5046  0.6484  1.3595
 1535TIP3    H2 4612   1.089   2.677   2.959  0.7948  0.9832  2.3579
 1536TIP3   OH2 4613   1.208   4.393   4.787 -0.3787  0.0553  0.0476
 1536TIP3    H1 4614   1.219   4.405   4.881 -1.0228  2.6002 -0.1315
 1536TIP3    H2 4615   1.128   4.441   4.766 -1.1997 -1.9036 -1.5686
 1537TIP3   OH2 4616   4.255   0.722   4.584 -0.1083  0.5505  0.2261
 1537TIP3    H1 4617   4.267   0.796   4.524  1.1872 -0.8916 -1.4119
 1537TIP3    H2 4618   4.281   0.755   4.669 -0.1735  2.1510 -0.3453
 1538TIP3   OH2 4619   5.524   2.434   3.442 -0.3488  0.1476 -0.1894
 1538TIP3    H1 4620   5.482   2.424   3.527 -0.9146  2.2282 -0.1528
 1538TIP3    H2 4621   5.474   2.378   3.383 -0.5233 -0.6112  0.6664
 1539TIP3   OH2 4622   1.410   5.013   2.014  0.2158  0.3003  0.1895
 1539TIP3    H1 4623   1.356   4.963   1.953  0.4619  0.0892  0.1430
 1539TIP3    H2 4624   1.377   4.991   2.101 -0.7888  1.3547  0.1043
 1540TIP3   OH2 4625   5.535   0.112   5.028 -0.3556 -0.1827 -0.3265
 1540TIP3    H1 4626   5.486   0.193   5.042 -0.6617 -0.3547 -0.4048
 1540TIP3    H2 4627   5.485   0.045   5.074  1.3437  0.1215  2.1586
 1541TIP3   OH2 4628   0.325   2.661   0.723 -0.1481  0.8432 -1.0143
 1541TIP3    H1 4629   0.229   2.659   0.725 -0.1255  0.2827 -0.0175
 1541TIP3    H2 4630   0.346   2.711   0.644 -1.2536  0.3795 -1.6261
 1542TIP3   OH2 4631   0.147   3.427   3.665 -1.1018  0.3186 -0.0712
 1542TIP3    H1 4632   0.084   3.381   3.610 -0.1283  0.4923 -1.3689
 1542TIP3    H2 4633   0.161   3.369   3.740 -1.1081 -0.7643 -0.8846
 1543TIP3   OH2 4634   0.844   0.359   2.522  0.0853  0.2077  0.3566
 1543TIP3    H1 4635   0.853   0.387   2.431  0.8954  0.3911  0.4847
 1543TIP3    H2 4636   0.929   0.321   2.544  0.2409  1.0764  1.3469
 1544TIP3   OH2 4637   4.792   3.955   4.801  0.2219  0.3501 -0.4935
 1544TIP3    H1 4638   4.848   3.928   4.874 -2.1245  0.7819  1.6078
 1544TIP3    H2 4639   4.714   3.901   4.809 -0.3112  0.7507 -2.4369
 1545TIP3   OH2 4640   0.296   1.408   3.581 -0.2311  0.5223 -0.1780
 1545TIP3    H1 4641   0.256   1.494   3.593 -1.6979 -0.2687  1.1629
 1545TIP3    H2 4642   0.388   1.425   3.564 -0.3376  2.3366  0.8384
 1546TIP3   OH2 4643   0.908   0.505   3.033  0.1082  0.3466  0.0105
 1546TIP3    H1 4644   0.823   0.540   3.007 -0.3425 -0.7303  0.0095
 1546TIP3    H2 4645   0.955   0.491   2.951 -0.5832 -1.2040 -0.1541
 1547TIP3   OH2 4646   1.919   0.102   4.897 -0.0943  0.6177 -0.6586
 1547TIP3    H1 4647   1.903   0.031   4.960 -2.2268  1.5504 -0.0585
 1547TIP3    H2 4648   1.854   0.168   4.919  0.8004  2.0966 -2.2328
 1548TIP3   OH2 4649   2.111   4.169   4.706  0.3345 -0.1631 -0.4524
 1548TIP3    H1 4650   2.085   4.078   4.718 -2.5553  0.4500 -1.2042
 1548TIP3    H2 4651   2.077   4.214   4.783  0.4922  0.4829 -0.7513
 1549TIP3   OH2 4652   0.463   2.934   3.589 -0.6099  0.0488 -0.0102
 1549TIP3    H1 4653   0.542   2.880   3.587  1.9320  3.4089 -1.1974
 1549TIP3    H2 4654   0.440   2.939   3.682  0.3239 -1.3495  0.3295
 1550TIP3   OH2 4655   3.560   3.597   1.919  0.4738  0.8560  0.0101
 1550TIP3    H1 4656   3.523   3.653   1.851 -1.2926 -0.8997 -0.5699
 1550TIP3    H2 4657   3.546   3.508   1.887  0.5887  0.0039  2.1596
 1551TIP3   OH2 4658   5.350   3.044   3.686 -0.1574 -0.2935  0.1391
 1551TIP3    H1 4659   5.298   3.117   3.719  0.1784  0.6113 -1.2088
 1551TIP3    H2 4660   5.429   3.086   3.650  0.4890 -1.4225  0.2010
 1552TIP3   OH2 4661   1.491   2.345   0.328  0.2229 -0.2865  0.9502
 1552TIP3    H1 4662   1.469   2.290   0.253  1.1955 -0.8608  1.0831
 1552TIP3    H2 4663   1.470   2.434   0.298 -0.3436 -0.6028  0.3642
 1553TIP3   OH2 4664   4.480   5.934   1.676  0.1898  0.2475 -0.0181
 1553TIP3    H1 4665   4.418   5.953   1.604  0.2887 -1.5596 -0.6370
 1553TIP3    H2 4666   4.437   5.969   1.754  0.6788  3.4851 -1.0737
 1554TIP3   OH2 4667   1.417   3.382   1.421 -0.0988 -0.5898 -0.1950
 1554TIP3    H1 4668   1.499   3.431   1.434 -1.1000  1.2258 -0.3533
 1554TIP3    H2 4669   1.437   3.322   1.349  0.7130  0.8424 -1.2292
 1555TIP3   OH2 4670   4.852   1.525   4.899 -0.2409 -0.2057 -0.7197
 1555TIP3    H1 4671   4.939   1.562   4.911 -0.5739  0.7432 -1.1825
 1555TIP3    H2 4672   4.864   1.457   4.832 -0.2745  1.5649 -2.5959
 1556TIP3   OH2 4673   2.211   4.737   5.085 -0.6192  0.5802 -0.4717
 1556TIP3    H1 4674   2.253   4.737   5.171  1.1811  1.0927 -1.3187
 1556TIP3    H2 4675   2.150   4.663   5.089  1.6679 -1.4085  0.2128
 1557TIP3   OH2 4676   2.756   1.869   2.553 -0.7747 -0.1328 -0.0881
 1557TIP3    H1 4677   2.845   1.867   2.588  0.0061  0.0981 -1.9621
 1557TIP3    H2 4678   2.721   1.782   2.574  0.2490 -0.5844 -0.1662
 1558TIP3   OH2 4679   0.997   4.740   3.493  0.3303 -0.1186 -0.4523
 1558TIP3    H1 4680   0.914   4.764   3.452 -0.3561 -0.4295  0.7127
 1558TIP3    H2 4681   0.974   4.674   3.558  1.4011  0.2032  0.2917
 1559TIP3   OH2 4682   0.596   4.617   2.328 -0.0692  0.4917  0.6227
 1559TIP3    H1 4683   0.501   4.631   2.323 -0.4672 -1.7386  1.0717
 1559TIP3    H2 4684   0.628   4.638   2.240 -1.1789  0.0301  0.0875
 1560TIP3   OH2 4685   1.332   1.856   3.860  0.0400 -0.3961  0.3007
 1560TIP3    H1 4686   1.261   1.833   3.801  0.8902 -0.7551 -0.6099
 1560TIP3    H2 4687   1.411   1.852   3.805  0.7174  0.3409  1.1970
 1561TIP3   OH2 4688   6.249   2.224   4.613  0.1638  0.5265 -0.4020
 1561TIP3    H1 4689   6.287   2.226   4.700  1.9626 -1.1113 -1.0734
 1561TIP3    H2 4690   6.154   2.233   4.627  0.4106  0.2175  1.6949
 1562TIP3   OH2 4691   4.045   1.690   3.725 -0.1005 -0.0243  0.4537
 1562TIP3    H1 4692   4.123   1.698   3.670  0.9407 -1.3898  1.6510
 1562TIP3    H2 4693   4.006   1.607   3.699  0.3770 -0.6575  1.7283
 1563TIP3   OH2 4694   3.343   0.150   4.438 -0.0758 -0.7031 -0.0230
 1563TIP3    H1 4695   3.346   0.058   4.412 -0.1418 -1.0262  1.0956
 1563TIP3    H2 4696   3.395   0.154   4.518  0.0808  0.2738 -0.1628
 1564TIP3   OH2 4697   5.926   1.350   3.400 -0.6290 -0.2168 -0.0699
 1564TIP3    H1 4698   5.924   1.285   3.471  0.6742  0.6554  0.8098
 1564TIP3    H2 4699   5.846   1.400   3.410  0.1626  0.8011  1.7207
 1565TIP3   OH2 4700   2.074   0.244   0.172  0.5841  0.5909  0.1400
 1565TIP3    H1 4701   2.045   0.333   0.152 -0.0896  0.5010  0.6928
 1565TIP3    H2 4702   2.163   0.239   0.136  0.9281  1.7350  0.7777
 1566TIP3   OH2 4703   0.414   0.048   0.520 -0.5185 -0.5328  0.0213
 1566TIP3    H1 4704   0.346   0.104   0.557 -0.4806 -0.0702 -0.5867
 1566TIP3    H2 4705   0.476   0.034   0.593  0.5555  1.9280 -0.3156
 1567TIP3   OH2 4706   4.141   0.798   2.700 -0.3161  0.1895 -0.0584
 1567TIP3    H1 4707   4.135   0.703   2.688  0.1119 -0.0105  1.1266
 1567TIP3    H2 4708   4.051   0.827   2.708 -0.4827 -0.0116 -1.1348
 1568TIP3   OH2 4709   0.167   1.142   4.635  0.2329  0.2280  0.3189
 1568TIP3    H1 4710   0.143   1.076   4.701 -1.5024  0.1550 -0.3340
 1568TIP3    H2 4711   0.228   1.200   4.680  0.8798 -1.1415  1.2702
 1569TIP3   OH2 4712   4.960   4.241   4.659 -0.8002  0.3470 -0.2054
 1569TIP3    H1 4713   4.924   4.270   4.575  0.0454  0.9636 -0.3666
 1569TIP3    H2 4714   4.901   4.278   4.725 -1.3055  0.0968 -0.5108
 1570TIP3   OH2 4715   3.526   0.038   2.960 -0.5443  0.0276 -0.4687
 1570TIP3    H1 4716   3.432   0.036   2.981 -0.6169  2.0548 -0.3446
 1570TIP3    H2 4717   3.532   0.097   2.885  0.7284  0.8877  0.2707
 1571TIP3   OH2 4718   6.324   5.902   4.751 -0.2804 -0.2183  0.5202
 1571TIP3    H1 4719   6.416   5.923   4.766 -0.3375 -1.4231  2.9384
 1571TIP3    H2 4720   6.276   5.967   4.801 -0.7936  0.3706 -0.6847
 1572TIP3   OH2 4721   4.850   3.823   2.558 -0.2347  0.6849  0.0760
 1572TIP3    H1 4722   4.935   3.806   2.518 -0.6055 -1.0147 -0.0646
 1572TIP3    H2 4723   4.871   3.863   2.642  0.7895 -0.7326  0.5426
 1573TIP3   OH2 4724   2.738   4.257   1.858 -0.3626  0.2079  0.3209
 1573TIP3    H1 4725   2.665   4.234   1.801 -0.1976  0.0713  0.1657
 1573TIP3    H2 4726   2.721   4.211   1.940  0.4309 -1.2190 -0.2803
 1574TIP3   OH2 4727   1.308   3.566   0.680  0.2935 -0.0453  0.2580
 1574TIP3    H1 4728   1.213   3.557   0.685  0.3057 -0.0529  0.4874
 1574TIP3    H2 4729   1.326   3.589   0.589  0.0098  0.6453  0.3736
 1575TIP3   OH2 4730   0.071   2.926   1.767 -0.0818 -0.7042 -0.2199
 1575TIP3    H1 4731   0.163   2.932   1.793 -0.0947  1.6267 -0.5147
 1575TIP3    H2 4732   0.071   2.868   1.691  1.6655  1.7183 -2.2069
 1576TIP3   OH2 4733   4.346   0.290   1.739  0.0811 -0.2169  0.2789
 1576TIP3    H1 4734   4.389   0.321   1.818  2.1512  0.7953 -1.1293
 1576TIP3    H2 4735   4.298   0.366   1.706  1.3722  0.1976 -0.7504
 1577TIP3   OH2 4736   5.836   5.633   1.256  0.7244  0.1735 -0.1131
 1577TIP3    H1 4737   5.832   5.541   1.280 -0.6145  0.4881  0.9511
 1577TIP3    H2 4738   5.862   5.633   1.163 -1.7287 -1.3817 -0.8652
 1578TIP3   OH2 4739   3.597   2.467   1.297 -0.0324  0.6808  0.1264
 1578TIP3    H1 4740   3.631   2.556   1.294  0.9807  0.2773 -1.1614
 1578TIP3    H2 4741   3.558   2.459   1.385  1.1456  1.9101  0.7881
 1579TIP3   OH2 4742   6.226   2.468   3.488  0.6156  0.7888 -0.0157
 1579TIP3    H1 4743   6.226   2.543   3.547 -2.4851  1.1341 -0.3004
 1579TIP3    H2 4744   6.237   2.506   3.401 -0.4637  0.8901 -0.1169
 1580TIP3   OH2 4745   3.599   3.065   4.134 -0.1604  0.1033  0.5683
 1580TIP3    H1 4746   3.558   3.089   4.217  0.2257  1.7385  0.3125
 1580TIP3    H2 4747   3.525   3.055   4.073 -0.5299 -2.1123  1.2928
 1581TIP3   OH2 4748   4.753   1.416   1.703  0.1709  0.3137 -0.0434
 1581TIP3    H1 4749   4.694   1.442   1.632  1.4429 -0.9368 -1.6352
 1581TIP3    H2 4750   4.834   1.464   1.685  1.1446 -1.4651 -0.6022
 1582TIP3   OH2 4751   2.313   1.640   1.955  0.5295  0.0541 -0.2581
 1582TIP3    H1 4752   2.299   1.640   2.050  3.6597 -0.1832  0.3059
 1582TIP3    H2 4753   2.229   1.669   1.919 -0.7923  0.1036  2.5493
 1583TIP3   OH2 4754   5.721   4.079   2.699 -0.7700  0.0910 -0.0549
 1583TIP3    H1 4755   5.659   4.029   2.752 -0.2752  0.6008  1.0419
 1583TIP3    H2 4756   5.781   4.118   2.763  0.0005  0.5216 -1.0146
 1584TIP3   OH2 4757   2.752   3.630   1.312  0.2757 -0.4083  0.3066
 1584TIP3    H1 4758   2.793   3.653   1.229 -0.4459 -0.5623 -0.1100
 1584TIP3    H2 4759   2.687   3.563   1.289 -2.3607  1.9100  0.3853
 1585TIP3   OH2 4760   5.680   3.244   1.015 -0.2528 -0.0921  0.3759
 1585TIP3    H1 4761   5.655   3.293   0.937 -0.2783  0.6930  0.8582
 1585TIP3    H2 4762   5.608   3.261   1.077 -0.3900 -0.9572  0.4692
 1586TIP3   OH2 4763   1.198   1.839   0.200 -0.1873 -0.4225 -0.5177
 1586TIP3    H1 4764   1.225   1.903   0.134  0.6910 -1.6192 -1.3768
 1586TIP3    H2 4765   1.280   1.808   0.238 -0.5207 -1.7106 -0.7958
 1587TIP3   OH2 4766   1.715   4.560   1.060  0.6156 -0.2946  0.6829
 1587TIP3    H1 4767   1.757   4.477   1.085 -0.4968 -1.2501 -0.4979
 1587TIP3    H2 4768   1.624   4.551   1.090 -0.3881 -0.8868 -2.2355
 1588TIP3   OH2 4769   2.438   3.043   4.651 -0.1563  0.0164  0.1345
 1588TIP3    H1 4770   2.347   3.022   4.674 -0.3405 -0.0602 -0.6394
 1588TIP3    H2 4771   2.433   3.081   4.563  0.5177  0.4027  0.2586
 1589TIP3   OH2 4772   2.529   2.689   4.096 -0.0661  0.1790  0.0535
 1589TIP3    H1 4773   2.575   2.755   4.147 -0.8130  0.5636  0.2422
 1589TIP3    H2 4774   2.593   2.619   4.083  0.6733  0.8621 -0.0031
 1590TIP3   OH2 4775   1.805   4.491   2.372  0.1605 -0.0129  0.0032
 1590TIP3    H1 4776   1.792   4.400   2.344  1.2775 -0.2763  0.2809
 1590TIP3    H2 4777   1.857   4.484   2.452  1.2097  0.8975 -0.5617
 1591TIP3   OH2 4778   1.443   1.277   4.508 -0.1737  0.6460  0.2643
 1591TIP3    H1 4779   1.397   1.198   4.537 -2.0395  1.3229 -0.6837
 1591TIP3    H2 4780   1.451   1.330   4.587 -0.7608  0.3645  0.5210
 1592TIP3   OH2 4781   5.074   1.492   3.293 -0.0273 -0.4146 -0.0253
 1592TIP3    H1 4782   4.990   1.518   3.256 -0.4302  0.7762  1.6041
 1592TIP3    H2 4783   5.059   1.403   3.327 -0.7906 -0.0175  0.7029
 1593TIP3   OH2 4784   3.407   5.415   0.448 -0.0585  0.2791 -0.1609
 1593TIP3    H1 4785   3.421   5.481   0.517  0.9264  1.1866 -1.1811
 1593TIP3    H2 4786   3.409   5.331   0.494  2.0011  0.7822  0.7718
 1594TIP3   OH2 4787   3.779   3.659   0.812 -0.7758 -0.2223  0.0635
 1594TIP3    H1 4788   3.859   3.673   0.761 -0.9446 -0.4975 -0.2775
 1594TIP3    H2 4789   3.774   3.564   0.823 -0.8679 -0.1800  0.3864
 1595TIP3   OH2 4790   5.400   4.468   4.398  0.3487 -0.4507 -0.2081
 1595TIP3    H1 4791   5.385   4.508   4.312  1.2393  1.4028  0.4411
 1595TIP3    H2 4792   5.324   4.493   4.450  1.3665  1.3293  0.4901
 1596TIP3   OH2 4793   0.188   0.096   1.904  0.5135 -0.7441 -0.4095
 1596TIP3    H1 4794   0.138   0.175   1.885  1.5269  0.4867  1.6228
 1596TIP3    H2 4795   0.274   0.128   1.931  1.8002 -2.7006 -1.9394
 1597TIP3   OH2 4796   1.920   4.447   2.972 -0.1753  0.0829  0.1373
 1597TIP3    H1 4797   1.852   4.380   2.975  0.5085 -0.6120  0.2956
 1597TIP3    H2 4798   1.901   4.496   2.892 -0.3868 -0.6047 -0.2413
 1598TIP3   OH2 4799   0.673   1.107   0.694  0.3688 -0.0856 -0.2271
 1598TIP3    H1 4800   0.755   1.058   0.697  0.1991 -0.3169  1.2503
 1598TIP3    H2 4801   0.617   1.057   0.635  1.2227 -0.0089 -1.1287
 1599TIP3   OH2 4802   2.406   1.969   3.742 -0.0921 -0.2005  0.0707
 1599TIP3    H1 4803   2.315   1.971   3.711  0.1710 -2.0062 -0.9702
 1599TIP3    H2 4804   2.457   1.944   3.665  0.9726 -1.6318  1.1824
 1600TIP3   OH2 4805   1.436   5.797   1.411  0.2519  0.1213 -0.0769
 1600TIP3    H1 4806   1.427   5.707   1.378  0.2922 -0.8188  2.2586
 1600TIP3    H2 4807   1.354   5.813   1.458  0.2425  1.3324 -0.4835
 1601TIP3   OH2 4808   5.782   0.421   0.698 -0.0567  0.4691  0.1564
 1601TIP3    H1 4809   5.858   0.368   0.724  0.3148  1.4064  1.0350
 1601TIP3    H2 4810   5.796   0.505   0.740 -1.1415  0.9541 -0.4221
 1602TIP3   OH2 4811   4.642   5.957   2.148  0.3311  0.4895 -0.0279
 1602TIP3    H1 4812   4.731   5.936   2.178 -0.7126 -1.8051  1.7584
 1602TIP3    H2 4813   4.610   5.876   2.109 -0.5711  1.6644 -1.8751
 1603TIP3   OH2 4814   4.306   0.147   1.241 -0.0413 -0.5433 -0.3302
 1603TIP3    H1 4815   4.260   0.080   1.291  0.3212 -1.0788 -0.7117
 1603TIP3    H2 4816   4.299   0.119   1.150 -3.7263  2.1618 -1.1176
 1604TIP3   OH2 4817   4.471   2.384   4.875 -0.1490 -0.1428  0.2185
 1604TIP3    H1 4818   4.555   2.424   4.895 -0.4115  1.1146 -1.0476
 1604TIP3    H2 4819   4.417   2.401   4.953 -0.0635  1.4856 -0.0361
 1605TIP3   OH2 4820   1.672   4.193   3.987 -0.5240  0.0536  0.3775
 1605TIP3    H1 4821   1.753   4.174   4.034 -0.9561 -0.7812  0.8200
 1605TIP3    H2 4822   1.666   4.288   3.985  0.3699  0.1147  0.5002
 1606TIP3   OH2 4823   6.197   5.595   0.533  0.5693 -0.6291  0.2174
 1606TIP3    H1 4824   6.196   5.500   0.523 -0.1775 -0.7083  0.9825
 1606TIP3    H2 4825   6.289   5.616   0.550  0.9580 -1.0664 -1.1947
 1607TIP3   OH2 4826   1.552   1.253   1.973  0.7041 -0.1607  0.4016
 1607TIP3    H1 4827   1.593   1.180   2.020  0.3000  0.9527  2.5893
 1607TIP3    H2 4828   1.486   1.211   1.917  2.2792 -1.6620 -0.4654
 1608TIP3   OH2 4829   2.027   3.740   0.310 -0.1136  0.6981  0.0832
 1608TIP3    H1 4830   2.080   3.817   0.332 -0.9232  0.9085  1.3939
 1608TIP3    H2 4831   2.064   3.709   0.227  0.0282  2.6882 -0.6635
 1609TIP3   OH2 4832   0.299   4.786   4.840 -0.4226  0.3369  0.5313
 1609TIP3    H1 4833   0.290   4.824   4.753 -1.2563 -0.2346  0.3591
 1609TIP3    H2 4834   0.387   4.747   4.841  0.8261  2.9118  0.9891
 1610TIP3   OH2 4835   5.230   1.057   3.617  0.0303  0.6079  0.3477
 1610TIP3    H1 4836   5.282   1.137   3.616 -0.0939  0.6924  0.4653
 1610TIP3    H2 4837   5.284   0.993   3.663  0.1117  0.6391  0.2939
 1611TIP3   OH2 4838   1.688   0.281   0.842 -0.4261 -0.0629 -0.3960
 1611TIP3    H1 4839   1.778   0.271   0.873 -0.7460  1.5187  1.1545
 1611TIP3    H2 4840   1.697   0.330   0.760  0.1478 -0.3386 -0.5046
 1612TIP3   OH2 4841   2.151   1.366   0.870 -0.7170 -0.7673  0.0460
 1612TIP3    H1 4842   2.065   1.347   0.907 -0.6051 -1.3872 -0.0083
 1612TIP3    H2 4843   2.213   1.325   0.930 -0.2425  2.1551  1.7840
 1613TIP3   OH2 4844   3.332   5.121   4.681  0.3604  0.0417  0.2190
 1613TIP3    H1 4845   3.295   5.080   4.603  0.6840 -0.1416  0.1635
 1613TIP3    H2 4846   3.284   5.083   4.754 -0.8390  1.1408  0.0465
 1614TIP3   OH2 4847   2.041   0.865   2.787  0.6340 -0.4999 -0.1333
 1614TIP3    H1 4848   2.056   0.931   2.719  0.9231 -2.3722 -1.9786
 1614TIP3    H2 4849   1.953   0.831   2.769 -0.0753  0.2462  1.6380
 1615TIP3   OH2 4850   4.170   4.820   3.630  0.3963 -0.0596  0.2716
 1615TIP3    H1 4851   4.190   4.901   3.677  3.0412 -0.2067 -0.4646
 1615TIP3    H2 4852   4.255   4.785   3.604 -0.6855 -2.8435  0.1048
 1616TIP3   OH2 4853   4.548   3.870   2.236  0.1064 -0.5754 -0.7744
 1616TIP3    H1 4854   4.471   3.917   2.269  0.9278 -0.3565  0.9767
 1616TIP3    H2 4855   4.529   3.854   2.144 -2.5877 -1.6623 -0.1192
 1617TIP3   OH2 4856   4.784   2.071   2.380 -0.4196 -0.0135 -0.2105
 1617TIP3    H1 4857   4.694   2.042   2.362 -0.4907  0.7051 -1.0988
 1617TIP3    H2 4858   4.774   2.159   2.416 -0.0701  0.1931 -0.6036
 1618TIP3   OH2 4859   3.378   3.526   0.919 -0.3345  0.2061 -0.2564
 1618TIP3    H1 4860   3.356   3.585   0.847  2.3613 -0.2578 -1.5872
 1618TIP3    H2 4861   3.415   3.582   0.987 -0.5591  0.3605 -0.2605
 1619TIP3   OH2 4862   4.884   5.048   0.159  0.0572  0.0101  0.4498
 1619TIP3    H1 4863   4.804   5.082   0.200  0.0505  1.7738 -0.9242
 1619TIP3    H2 4864   4.918   4.985   0.222 -2.9413 -1.5998  0.6956
 1620TIP3   OH2 4865   5.496   4.409   5.053 -0.0592  0.2772 -0.0697
 1620TIP3    H1 4866   5.490   4.317   5.080 -1.4356  0.2341 -0.4588
 1620TIP3    H2 4867   5.588   4.421   5.029  0.6055 -0.4440  1.9105
 1621TIP3   OH2 4868   5.835   3.912   0.306 -0.0812 -0.0880  0.2835
 1621TIP3    H1 4869   5.752   3.940   0.267 -1.6144 -4.4302 -0.1491
 1621TIP3    H2 4870   5.902   3.942   0.245 -1.5401  1.3337 -0.6996
 1622TIP3   OH2 4871   0.239   1.034   2.898 -0.0956 -0.5099  0.3113
 1622TIP3    H1 4872   0.320   1.010   2.943 -0.5702 -0.0166  1.4584
 1622TIP3    H2 4873   0.262   1.112   2.847 -0.1046  0.3218  1.5322
 1623TIP3   OH2 4874   4.768   4.602   2.968 -0.2617 -0.6805 -0.5728
 1623TIP3    H1 4875   4.793   4.561   3.050  0.6061  0.8426 -0.0442
 1623TIP3    H2 4876   4.680   4.568   2.951  0.1961 -2.3088  0.0874
 1624TIP3   OH2 4877   5.187   0.979   0.297 -0.3872 -0.5632 -0.8424
 1624TIP3    H1 4878   5.278   0.974   0.269  0.2856 -0.1968  1.1210
 1624TIP3    H2 4879   5.155   0.889   0.293  0.8210 -1.1039  0.6998
 1625TIP3   OH2 4880   1.144   5.177   4.810 -0.0654  0.7949  0.7771
 1625TIP3    H1 4881   1.055   5.180   4.844 -0.2019  1.6408  0.3699
 1625TIP3    H2 4882   1.195   5.232   4.869  0.1557  0.4434  0.9160
 1626TIP3   OH2 4883   0.238   0.949   3.305 -0.1098  0.4185  0.3767
 1626TIP3    H1 4884   0.250   1.015   3.237  1.7456 -0.1103  0.1192
 1626TIP3    H2 4885   0.258   0.866   3.261 -1.6225 -0.2442  0.8911
 1627TIP3   OH2 4886   1.369   4.718   2.123  0.4142 -0.0163  0.1332
 1627TIP3    H1 4887   1.383   4.636   2.171 -0.0408  0.5875  1.3472
 1627TIP3    H2 4888   1.404   4.702   2.036  0.5805 -1.4100  0.4444
 1628TIP3   OH2 4889   5.443   2.013   4.561 -0.0646 -0.2866  0.4666
 1628TIP3    H1 4890   5.448   2.108   4.568 -1.0813 -0.0809 -1.1691
 1628TIP3    H2 4891   5.525   1.987   4.519  0.5518 -0.2451  1.5974
 1629TIP3   OH2 4892   3.584   3.527   3.648 -0.2045  0.2115 -0.2066
 1629TIP3    H1 4893   3.610   3.556   3.735  0.0001  1.8533 -0.7742
 1629TIP3    H2 4894   3.653   3.466   3.621  0.3040  0.5346  0.3438
 1630TIP3   OH2 4895   3.376   4.375   3.563  0.4210  0.0085 -0.1658
 1630TIP3    H1 4896   3.390   4.280   3.573  2.1921  0.0014 -1.9044
 1630TIP3    H2 4897   3.333   4.384   3.477  1.4673  0.8078 -0.6303
 1631TIP3   OH2 4898   1.836   4.727   4.910  0.6478  0.5074 -0.3573
 1631TIP3    H1 4899   1.823   4.767   4.996  1.7435  0.2237 -0.0445
 1631TIP3    H2 4900   1.773   4.771   4.853 -0.3509  0.4392  0.6663
 1632TIP3   OH2 4901   0.541   4.610   4.905 -0.6620  0.3920  0.0662
 1632TIP3    H1 4902   0.510   4.655   4.984 -1.2459 -1.6637  1.0880
 1632TIP3    H2 4903   0.612   4.554   4.937  0.9142  1.4552 -1.3969
 1633TIP3   OH2 4904   2.275   4.667   0.359  0.8880 -0.1770 -0.4461
 1633TIP3    H1 4905   2.303   4.750   0.320 -0.0752  0.1670 -0.4415
 1633TIP3    H2 4906   2.344   4.605   0.337  0.9064  0.2796 -1.7312
 1634TIP3   OH2 4907   0.478   1.732   3.275  0.1624 -0.4095  0.1565
 1634TIP3    H1 4908   0.497   1.652   3.324 -1.4227 -0.4775  0.7250
 1634TIP3    H2 4909   0.416   1.780   3.331 -1.8338 -0.5450 -1.7973
 1635TIP3   OH2 4910   0.237   4.010   2.827 -0.0268 -0.1727  0.5890
 1635TIP3    H1 4911   0.301   3.946   2.795  2.4518  1.5249  1.7481
 1635TIP3    H2 4912   0.154   3.964   2.828  1.2016 -2.5919 -0.8862
 1636TIP3   OH2 4913   0.486   4.927   1.422  0.3373  0.5855  0.5025
 1636TIP3    H1 4914   0.445   4.840   1.424  0.0447  0.7231  0.5711
 1636TIP3    H2 4915   0.520   4.935   1.332  1.2996 -0.0206  0.7984
 1637TIP3   OH2 4916   4.501   2.266   0.651 -0.0451  0.5985 -0.0317
 1637TIP3    H1 4917   4.439   2.193   0.640 -0.6991  1.1886 -0.3560
 1637TIP3    H2 4918   4.473   2.331   0.586  0.0326  1.4798  0.8018
 1638TIP3   OH2 4919   2.339   0.589   4.719  0.0315  0.0067 -0.1337
 1638TIP3    H1 4920   2.294   0.599   4.804 -2.3094  2.0579 -1.4823
 1638TIP3    H2 4921   2.432   0.590   4.741 -0.4905 -0.5442  2.4936
 1639TIP3   OH2 4922   5.015   0.765   0.486  0.0222  0.2008 -0.0631
 1639TIP3    H1 4923   4.991   0.764   0.393 -1.3328  2.4868  0.1732
 1639TIP3    H2 4924   5.024   0.673   0.509  0.3764 -0.4425 -2.4340
 1640TIP3   OH2 4925   0.694   2.782   3.621  0.0102  0.1462  0.1396
 1640TIP3    H1 4926   0.779   2.795   3.662 -0.0232  1.3811 -0.1573
 1640TIP3    H2 4927   0.679   2.688   3.627 -0.0188  0.2541  2.9721
 1641TIP3   OH2 4928   4.026   5.827   5.024 -0.5124  0.1926 -0.5608
 1641TIP3    H1 4929   4.064   5.751   4.980 -1.3649 -1.2006  0.9747
 1641TIP3    H2 4930   4.080   5.901   4.997 -0.1375 -0.8098 -2.7463
 1642TIP3   OH2 4931   1.018   2.499   0.739 -0.3705 -0.1865  0.3076
 1642TIP3    H1 4932   0.943   2.454   0.777 -0.2516 -0.2761  0.4328
 1642TIP3    H2 4933   0.993   2.512   0.647 -0.9769  0.7051  0.5844
 1643TIP3   OH2 4934   0.244   4.488   0.558 -0.3577  0.3806  0.0318
 1643TIP3    H1 4935   0.313   4.449   0.504  0.6625  0.7186  1.0707
 1643TIP3    H2 4936   0.197   4.413   0.595  0.7554  0.1342  0.9602
 1644TIP3   OH2 4937   2.790   2.148   3.422 -0.1022  0.2372  0.3853
 1644TIP3    H1 4938   2.856   2.112   3.362  0.3596 -0.1383  1.1051
 1644TIP3    H2 4939   2.779   2.238   3.392  1.7926  0.7573  1.0906
 1645TIP3   OH2 4940   4.007   1.571   0.852  0.0797 -0.2507 -0.1492
 1645TIP3    H1 4941   4.059   1.558   0.773  0.5132 -3.3281  0.5118
 1645TIP3    H2 4942   4.035   1.655   0.886  0.8829  0.5131 -2.5029
 1646TIP3   OH2 4943   2.071   3.340   4.073 -0.3678 -0.1092 -0.1460
 1646TIP3    H1 4944   2.055   3.263   4.127  1.5120  0.5182  1.4015
 1646TIP3    H2 4945   2.023   3.322   3.991 -3.1613 -1.1650  1.5724
 1647TIP3   OH2 4946   2.042   1.033   0.811  0.8960  0.6027  0.0584
 1647TIP3    H1 4947   2.028   1.084   0.731  0.4233 -0.5853 -0.6313
 1647TIP3    H2 4948   2.120   1.073   0.851 -1.2788  4.0608  1.3328
 1648TIP3   OH2 4949   0.901   5.648   1.336  0.1238 -0.6848 -0.4498
 1648TIP3    H1 4950   0.862   5.563   1.358 -1.9855  0.7590  1.8003
 1648TIP3    H2 4951   0.833   5.712   1.356  3.4185  2.0287  3.5534
 1649TIP3   OH2 4952   4.823   1.163   1.020 -0.6655 -0.0793 -0.5322
 1649TIP3    H1 4953   4.878   1.235   0.989 -0.4573  0.2566  0.5686
 1649TIP3    H2 4954   4.748   1.206   1.063 -0.0662 -0.4752  0.9782
 1650TIP3   OH2 4955   3.521   0.747   4.153  0.3245  0.2180 -0.2626
 1650TIP3    H1 4956   3.436   0.788   4.136  1.2731  1.9698 -0.9949
 1650TIP3    H2 4957   3.555   0.726   4.066  1.4037  1.1741 -0.0878
 1651TIP3   OH2 4958   2.891   3.530   4.032 -0.1202 -0.2619 -0.1067
 1651TIP3    H1 4959   2.915   3.474   3.957 -3.2744 -0.3786 -1.1746
 1651TIP3    H2 4960   2.816   3.485   4.072  0.0702  0.9842  1.7564
 1652TIP3   OH2 4961   6.270   0.931   0.133  0.4084 -0.2505  0.0582
 1652TIP3    H1 4962   6.185   0.901   0.100  0.0041  1.1483 -0.2303
 1652TIP3    H2 4963   6.281   0.884   0.216 -0.5483 -0.6035  0.0061
 1653TIP3   OH2 4964   5.846   1.379   2.157 -0.3765  0.8233  0.0232
 1653TIP3    H1 4965   5.890   1.304   2.118 -0.9803  0.9710 -0.9901
 1653TIP3    H2 4966   5.887   1.389   2.243 -1.0310 -1.3119  0.6378
 1654TIP3   OH2 4967   2.923   4.250   2.642 -0.0404  0.2498 -0.6160
 1654TIP3    H1 4968   2.874   4.225   2.564  2.9971 -0.4418 -2.4612
 1654TIP3    H2 4969   2.995   4.188   2.647  0.6667  1.1148  2.0133
 1655TIP3   OH2 4970   0.706   2.776   2.077 -0.2332  0.1139  1.0216
 1655TIP3    H1 4971   0.788   2.776   2.028  0.3896 -3.2280  1.8344
 1655TIP3    H2 4972   0.641   2.746   2.014  0.4479 -3.5223  1.8495
 1656TIP3   OH2 4973   2.884   0.837   2.004 -0.3389 -0.1745  0.1590
 1656TIP3    H1 4974   2.792   0.814   2.014  0.0563 -1.1976  1.8412
 1656TIP3    H2 4975   2.929   0.754   1.988  0.4764  0.0699  1.0334
 1657TIP3   OH2 4976   1.727   1.931   4.971 -0.3563  0.2840 -0.5711
 1657TIP3    H1 4977   1.659   1.923   4.905 -1.4484  1.1200  0.3989
 1657TIP3    H2 4978   1.768   2.015   4.954 -1.3954  1.0389  0.4330
 1658TIP3   OH2 4979   2.083   0.630   0.332  0.1541 -0.2356  0.0367
 1658TIP3    H1 4980   2.059   0.598   0.419 -1.3805  1.4098  0.2800
 1658TIP3    H2 4981   2.043   0.567   0.272 -1.1208  0.0720  0.5233
 1659TIP3   OH2 4982   4.723   1.799   0.316  0.4049 -0.3717  0.3734
 1659TIP3    H1 4983   4.683   1.730   0.369  0.0247  0.6036  1.3734
 1659TIP3    H2 4984   4.769   1.751   0.246  0.9007 -1.6751  1.5481
 1660TIP3   OH2 4985   6.270   3.834   3.062 -0.1564  0.1029 -0.0851
 1660TIP3    H1 4986   6.268   3.919   3.105 -0.8216  0.5538 -0.9855
 1660TIP3    H2 4987   6.286   3.854   2.970  0.4778 -0.7967 -0.1845
 1661TIP3   OH2 4988   1.519   3.786   3.888  0.5344 -0.1716  0.4556
 1661TIP3    H1 4989   1.445   3.742   3.930  0.9728 -1.2789  0.0941
 1661TIP3    H2 4990   1.498   3.785   3.795  1.3755 -1.2400  0.2616
 1662TIP3   OH2 4991   3.589   4.382   3.106 -0.3415  0.1168  0.3728
 1662TIP3    H1 4992   3.544   4.424   3.033 -2.1201 -0.8870  0.8350
 1662TIP3    H2 4993   3.678   4.416   3.102 -1.1447  2.2747 -0.5203
 1663TIP3   OH2 4994   4.153   5.819   1.738 -0.0205 -0.3135  0.1929
 1663TIP3    H1 4995   4.110   5.737   1.711  0.0250 -0.7818  1.4880
 1663TIP3    H2 4996   4.196   5.797   1.821  0.6272  0.8290  0.1700
 1664TIP3   OH2 4997   6.294   2.663   3.187  0.2944  0.3013  0.0927
 1664TIP3    H1 4998   6.350   2.710   3.248  1.1329 -1.1039  0.4261
 1664TIP3    H2 4999   6.346   2.588   3.159 -1.6096 -1.3705  0.8486
 1665TIP3   OH2 5000   1.557   3.971   3.530 -0.0878 -0.1770  0.3840
 1665TIP3    H1 5001   1.486   3.946   3.590  1.7929  0.3747  3.0355
 1665TIP3    H2 5002   1.602   3.889   3.512 -0.7173 -0.3604 -0.4061
 1666TIP3   OH2 5003   4.619   1.687   3.927 -0.6358  0.3891 -0.1070
 1666TIP3    H1 5004   4.614   1.591   3.932  0.1638  0.3967  1.5281
 1666TIP3    H2 5005   4.711   1.707   3.946 -0.6109  1.4634 -1.2629
 1667TIP3   OH2 5006   3.120   5.498   4.030  0.3704 -0.0271  0.6473
 1667TIP3    H1 5007   3.074   5.422   3.996  0.4216 -0.4116  1.4158
 1667TIP3    H2 5008   3.213   5.474   4.028  0.7202  1.1743 -2.0001
 1668TIP3   OH2 5009   3.869   1.607   2.304 -0.0018 -0.1139 -0.1362
 1668TIP3    H1 5010   3.826   1.657   2.235  1.0669  1.6608  0.4148
 1668TIP3    H2 5011   3.798   1.588   2.366 -0.1829  2.3452  0.5293
 1669TIP3   OH2 5012   1.251   0.447   1.421 -0.6758  0.4287  0.3513
 1669TIP3    H1 5013   1.236   0.415   1.332  1.4879 -0.1412  0.1517
 1669TIP3    H2 5014   1.215   0.379   1.478  1.3229 -1.0919 -0.0981
 1670TIP3   OH2 5015   0.301   1.298   4.159 -0.6568  0.1641 -1.1280
 1670TIP3    H1 5016   0.335   1.304   4.069 -1.1636  0.8678 -1.2859
 1670TIP3    H2 5017   0.379   1.285   4.213 -0.1899  1.0959 -1.5476
 1671TIP3   OH2 5018   5.330   0.842   4.089  0.0276 -0.0085  0.1574
 1671TIP3    H1 5019   5.345   0.804   4.176  0.7209 -2.1465 -0.8030
 1671TIP3    H2 5020   5.250   0.893   4.098  0.8740  1.0631  2.3797
 1672TIP3   OH2 5021   6.198   1.000   3.704 -0.1040 -0.5351  0.3574
 1672TIP3    H1 5022   6.245   1.042   3.776  0.9812 -0.6172 -0.2837
 1672TIP3    H2 5023   6.267   0.966   3.647 -0.9465 -0.6326 -0.6269
 1673TIP3   OH2 5024   4.947   4.720   0.832  0.2087 -0.8245  0.3361
 1673TIP3    H1 5025   5.016   4.751   0.773  2.2777 -0.8534  2.6227
 1673TIP3    H2 5026   4.869   4.769   0.805  1.5041  0.5063 -1.1986
 1674TIP3   OH2 5027   1.673   2.766   3.452  0.4591 -0.4134 -0.5989
 1674TIP3    H1 5028   1.672   2.783   3.547 -1.9914  0.3148 -0.6810
 1674TIP3    H2 5029   1.593   2.716   3.436  0.6345 -0.2041 -2.3354
 1675TIP3   OH2 5030   4.437   1.023   2.033 -0.3285  1.1663 -0.3390
 1675TIP3    H1 5031   4.529   1.051   2.038  0.7178 -1.6752 -1.4155
 1675TIP3    H2 5032   4.439   0.932   2.064 -3.2748  1.8111  2.0900
 1676TIP3   OH2 5033   5.160   3.573   2.106 -0.4258 -0.4986 -0.3031
 1676TIP3    H1 5034   5.111   3.581   2.024 -0.5882 -2.5652 -0.4565
 1676TIP3    H2 5035   5.094   3.564   2.174 -0.2922  1.3165  0.0972
 1677TIP3   OH2 5036   3.900   5.200   4.659  0.4565  0.1067 -0.1492
 1677TIP3    H1 5037   3.905   5.289   4.625 -2.7881  1.2320  1.8909
 1677TIP3    H2 5038   3.830   5.159   4.608  0.4842 -0.5862  0.3527
 1678TIP3   OH2 5039   4.344   2.797   4.128  0.3369 -0.2618 -0.6746
 1678TIP3    H1 5040   4.256   2.830   4.110  0.0386 -1.9009 -2.6693
 1678TIP3    H2 5041   4.388   2.797   4.043  1.4194 -1.7300 -0.1679
 1679TIP3   OH2 5042   2.558   1.871   4.128  0.1026 -0.3764  0.0015
 1679TIP3    H1 5043   2.485   1.874   4.190 -0.0166 -2.8188  0.0981
 1679TIP3    H2 5044   2.578   1.778   4.120  0.7243 -0.0866 -2.9565
 1680TIP3   OH2 5045   5.140   3.091   1.502  0.3186 -0.4618  0.4901
 1680TIP3    H1 5046   5.153   3.130   1.416 -2.9291 -0.2660 -0.0321
 1680TIP3    H2 5047   5.158   2.998   1.489  1.1632 -0.2397 -0.0323
 1681TIP3   OH2 5048   1.287   1.146   0.138 -0.8135  0.2398  0.2202
 1681TIP3    H1 5049   1.298   1.238   0.114 -0.9040  0.5229  1.2201
 1681TIP3    H2 5050   1.289   1.099   0.054  0.1283  1.0533 -0.2339
 1682TIP3   OH2 5051   5.403   1.679   4.265  0.4810 -0.4882 -0.1028
 1682TIP3    H1 5052   5.430   1.622   4.336 -0.0801  0.9770  1.3528
 1682TIP3    H2 5053   5.484   1.707   4.223  1.0755  1.0585  1.9520
 1683TIP3   OH2 5054   5.564   3.622   0.486  0.0787  0.2718  0.0648
 1683TIP3    H1 5055   5.573   3.540   0.534 -0.0851 -0.0071 -0.3761
 1683TIP3    H2 5056   5.604   3.688   0.543  1.0599 -0.2637  0.0125
 1684TIP3   OH2 5057   0.048   5.188   3.167 -0.1371 -0.3130  0.5505
 1684TIP3    H1 5058   0.018   5.241   3.240 -0.1951 -0.1408  0.4020
 1684TIP3    H2 5059  -0.029   5.137   3.141 -0.1757 -0.2149  0.4709
 1685TIP3   OH2 5060   4.049   2.904   3.328 -0.2403  0.8227  0.2045
 1685TIP3    H1 5061   4.087   2.832   3.377 -1.8586 -1.1413 -1.2496
 1685TIP3    H2 5062   4.106   2.914   3.252 -0.4323  0.5769  0.0291
 1686TIP3   OH2 5063   2.965   5.757   3.380  0.0392  0.0045  0.4331
 1686TIP3    H1 5064   2.907   5.832   3.367  0.2103  0.0252 -0.2925
 1686TIP3    H2 5065   3.027   5.762   3.307  0.1396 -0.7609  0.4549
 1687TIP3   OH2 5066   5.449   5.786   4.535 -0.2633 -0.1851  0.5592
 1687TIP3    H1 5067   5.421   5.811   4.623 -1.5779  0.9602 -0.1430
 1687TIP3    H2 5068   5.438   5.866   4.483 -2.5675 -1.6141 -1.3492
 1688TIP3   OH2 5069   3.494   3.443   4.784 -0.4389 -0.1184  0.5817
 1688TIP3    H1 5070   3.563   3.395   4.830  2.0059  1.2428 -1.3579
 1688TIP3    H2 5071   3.512   3.535   4.803  0.1239  0.4384 -2.1622
 1689TIP3   OH2 5072   4.558   2.918   0.015  0.3659 -0.2426 -0.0084
 1689TIP3    H1 5073   4.515   2.937   0.099  2.9031  0.3428  1.2635
 1689TIP3    H2 5074   4.535   2.827  -0.003  0.7831 -0.8091  2.0333
 1690TIP3   OH2 5075   5.376   4.771   4.456  0.3160 -0.2962  0.4243
 1690TIP3    H1 5076   5.405   4.712   4.526 -1.3860 -0.0792  1.3769
 1690TIP3    H2 5077   5.281   4.776   4.467  0.1822  0.9387 -0.9880
 1691TIP3   OH2 5078   5.287   3.816   2.778  0.1892  0.0131 -0.3642
 1691TIP3    H1 5079   5.278   3.753   2.850  0.7281  0.4761  0.1172
 1691TIP3    H2 5080   5.295   3.762   2.699 -0.8463 -0.4997 -0.1426
 1692TIP3   OH2 5081   0.428   4.145   0.296  0.7769  0.3873 -0.3610
 1692TIP3    H1 5082   0.448   4.053   0.315 -1.3672 -0.5986 -2.3106
 1692TIP3    H2 5083   0.488   4.169   0.226  0.3547 -0.0573 -0.8891
 1693TIP3   OH2 5084   4.963   4.414   1.291  0.2067  0.5786 -0.5068
 1693TIP3    H1 5085   4.877   4.435   1.326 -0.9163 -1.2120 -2.0108
 1693TIP3    H2 5086   5.012   4.497   1.295 -0.2461  0.8861  3.7530
 1694TIP3   OH2 5087   4.238   3.071   4.302 -0.4869 -0.4560 -0.0506
 1694TIP3    H1 5088   4.309   3.058   4.239 -0.5248 -1.2112  0.0539
 1694TIP3    H2 5089   4.161   3.033   4.260 -0.5658 -0.7358  0.3310
 1695TIP3   OH2 5090   4.219   4.687   4.348 -0.0675 -0.0730 -0.4057
 1695TIP3    H1 5091   4.239   4.598   4.377  0.8687 -0.3280 -1.7309
 1695TIP3    H2 5092   4.303   4.722   4.318 -0.5100  1.0983 -0.3503
 1696TIP3   OH2 5093   6.211   5.348   4.221  0.0054 -0.6077  0.2050
 1696TIP3    H1 5094   6.260   5.412   4.169 -1.5782  2.7015  2.4307
 1696TIP3    H2 5095   6.267   5.331   4.296 -0.3503 -0.3574  0.5296
 1697TIP3   OH2 5096   4.088   3.732   4.541 -0.9995  0.7436 -0.1125
 1697TIP3    H1 5097   4.123   3.820   4.554  2.3606  0.1708 -3.6293
 1697TIP3    H2 5098   4.160   3.673   4.566 -1.3890 -0.7708 -2.2632
 1698TIP3   OH2 5099   6.271   1.628   4.273 -0.3509  0.2527  0.5309
 1698TIP3    H1 5100   6.248   1.616   4.365  0.4534 -0.7495  0.6129
 1698TIP3    H2 5101   6.200   1.680   4.237 -0.6452  0.7018  1.7343
 1699TIP3   OH2 5102   0.066   4.952   4.288 -0.3449 -0.5402  0.4361
 1699TIP3    H1 5103   0.083   5.022   4.226 -2.3716 -0.3677  0.0075
 1699TIP3    H2 5104   0.142   4.953   4.347 -0.7015  2.6408  1.0219
 1700TIP3   OH2 5105   0.226   2.937   3.483  0.0181 -0.4628 -0.0989
 1700TIP3    H1 5106   0.320   2.941   3.501 -0.1274  1.0222  0.5421
 1700TIP3    H2 5107   0.186   2.934   3.570 -0.5547  0.8682 -0.2907
 1701TIP3   OH2 5108   6.352   2.423   2.534 -0.3753 -0.2856 -0.0866
 1701TIP3    H1 5109   6.262   2.449   2.517 -1.2415 -3.4541 -1.0784
 1701TIP3    H2 5110   6.347   2.329   2.552  2.7098 -0.5202  0.1890
 1702TIP3   OH2 5111   6.064   1.106   1.140  0.0844  0.4257 -0.4138
 1702TIP3    H1 5112   6.159   1.115   1.132  0.0959  1.4302  0.5441
 1702TIP3    H2 5113   6.033   1.196   1.151 -0.8531  0.0034  0.5442
 1703TIP3   OH2 5114   0.891   4.158   4.090 -0.1690 -0.1950  0.2710
 1703TIP3    H1 5115   0.827   4.201   4.033 -0.9446 -1.1573  0.3917
 1703TIP3    H2 5116   0.906   4.222   4.160 -1.0688  0.0171  0.2886
 1704TIP3   OH2 5117   0.672   1.383   0.714 -0.1032 -0.0666  0.2432
 1704TIP3    H1 5118   0.693   1.291   0.698 -1.5394 -0.5655  0.9778
 1704TIP3    H2 5119   0.602   1.402   0.652 -0.6408  0.1592  0.9037
 1705TIP3   OH2 5120   5.289   2.614   0.434 -0.0840 -0.0335 -0.1494
 1705TIP3    H1 5121   5.328   2.658   0.508 -2.0478  1.2489  0.1918
 1705TIP3    H2 5122   5.319   2.523   0.441  3.0186  0.8719 -0.1572
 1706TIP3   OH2 5123   2.548   1.093   1.180  0.3832 -0.2824  0.8620
 1706TIP3    H1 5124   2.504   1.047   1.109 -1.0924 -0.5423  1.9054
 1706TIP3    H2 5125   2.639   1.099   1.151 -0.2870  0.2922 -1.3728
 1707TIP3   OH2 5126   5.522   1.194   0.694 -0.2222 -0.0476 -0.1339
 1707TIP3    H1 5127   5.456   1.243   0.645  0.6202 -0.2575 -1.5135
 1707TIP3    H2 5128   5.605   1.223   0.659  0.4045 -0.4272  0.9826
 1708TIP3   OH2 5129   4.760   4.418   1.035 -0.1955 -0.3002 -0.3090
 1708TIP3    H1 5130   4.749   4.436   0.942 -0.7360 -2.0100 -0.6087
 1708TIP3    H2 5131   4.845   4.456   1.058  0.0871 -0.1521 -1.5702
 1709TIP3   OH2 5132   2.825   0.396   3.311 -0.1953 -0.5809 -0.4107
 1709TIP3    H1 5133   2.794   0.472   3.262  1.8069 -0.1487 -1.0927
 1709TIP3    H2 5134   2.829   0.426   3.402  1.9447  0.6647 -0.8539
 1710TIP3   OH2 5135   5.658   3.812   3.972  0.0109 -0.0927  0.4475
 1710TIP3    H1 5136   5.746   3.842   3.996 -0.3230  0.2461  1.2810
 1710TIP3    H2 5137   5.606   3.822   4.052  0.0217 -3.6150  1.0491
 1711TIP3   OH2 5138   5.236   1.124   4.295  0.0743  0.5166 -0.0763
 1711TIP3    H1 5139   5.239   1.148   4.203  0.6567  1.1511  0.0936
 1711TIP3    H2 5140   5.319   1.156   4.330  0.4353 -0.8633  0.3979
 1712TIP3   OH2 5141   3.148   4.639   1.706 -0.0926 -0.3419  0.2614
 1712TIP3    H1 5142   3.223   4.697   1.694  0.1250 -0.5101  0.7885
 1712TIP3    H2 5143   3.166   4.564   1.649  0.5137 -0.7310  0.9435
 1713TIP3   OH2 5144   1.650   0.446   2.146 -0.2833  0.1166  0.4316
 1713TIP3    H1 5145   1.574   0.436   2.204 -1.5095  0.2337 -1.0847
 1713TIP3    H2 5146   1.614   0.481   2.065  0.9554 -2.2040 -1.2715
 1714TIP3   OH2 5147   4.574   3.278   2.743  0.1517 -0.4008  0.2155
 1714TIP3    H1 5148   4.514   3.322   2.682 -2.2112 -1.1344  1.8568
 1714TIP3    H2 5149   4.607   3.348   2.799  0.5786 -0.0382 -0.4727
 1715TIP3   OH2 5150   3.670   5.760   0.636 -0.3822  0.1803 -0.0469
 1715TIP3    H1 5151   3.744   5.730   0.583  1.0577 -0.2651  2.0815
 1715TIP3    H2 5152   3.707   5.773   0.723 -2.7611  0.3145  1.0152
 1716TIP3   OH2 5153   0.845   5.298   4.320 -0.0750  0.4252  0.0895
 1716TIP3    H1 5154   0.882   5.213   4.345  2.1455  1.8143  1.9421
 1716TIP3    H2 5155   0.788   5.322   4.393  1.9303  1.9245  1.2841
 1717TIP3   OH2 5156   1.525   1.530   1.702  0.2820 -0.1008  0.0140
 1717TIP3    H1 5157   1.445   1.526   1.755 -0.0489  2.6509 -0.1605
 1717TIP3    H2 5158   1.494   1.524   1.612  0.5576 -1.5468 -0.0121
 1718TIP3   OH2 5159   4.584   2.888   2.953 -0.5598  0.6256  0.7814
 1718TIP3    H1 5160   4.625   2.955   3.007  2.3108  1.0554 -1.6851
 1718TIP3    H2 5161   4.646   2.815   2.953 -0.4068  0.6636 -1.8855
 1719TIP3   OH2 5162   3.970   0.528   3.704  0.0223 -0.0451 -0.4630
 1719TIP3    H1 5163   4.032   0.485   3.764  1.0272  2.3388  0.3372
 1719TIP3    H2 5164   4.025   0.586   3.650 -1.3052  0.7942 -0.9725
 1720TIP3   OH2 5165   2.050   1.147   2.177  0.1527  0.1720 -0.5940
 1720TIP3    H1 5166   2.062   1.057   2.146 -2.3386  0.4379 -2.6841
 1720TIP3    H2 5167   1.983   1.141   2.244 -1.8819  0.6340 -2.4766
 1721TIP3   OH2 5168   1.802   3.205   2.824  0.6254 -0.0415  0.5879
 1721TIP3    H1 5169   1.854   3.181   2.747  0.9551 -0.8399  1.0418
 1721TIP3    H2 5170   1.789   3.299   2.816  1.1917 -0.0131 -0.1187
 1722TIP3   OH2 5171   3.902   5.598   4.803  0.3204  0.0529  0.2171
 1722TIP3    H1 5172   3.817   5.564   4.774 -0.1168  0.8429  0.5174
 1722TIP3    H2 5173   3.929   5.657   4.732  2.0385 -2.3271 -1.2734
 1723TIP3   OH2 5174   0.970   2.846   3.743  0.1527  0.4303  0.2184
 1723TIP3    H1 5175   0.954   2.820   3.834 -0.7432 -0.8355 -0.2740
 1723TIP3    H2 5176   1.028   2.779   3.708  1.0404  1.2831  0.0387
 1724TIP3   OH2 5177   5.395   3.257   2.559  0.3065 -0.0598  0.4076
 1724TIP3    H1 5178   5.472   3.211   2.526 -0.8871 -1.8438  0.0092
 1724TIP3    H2 5179   5.348   3.284   2.481  0.3058  0.6714  0.6528
 1725TIP3   OH2 5180   5.073   1.185   3.979 -0.4224 -0.4273 -0.3027
 1725TIP3    H1 5181   5.013   1.258   3.992  0.0631  0.2620 -1.6906
 1725TIP3    H2 5182   5.160   1.226   3.975 -0.1959 -0.9842 -1.6397
 1726TIP3   OH2 5183   4.557   3.475   0.507  0.0250 -0.2452 -0.0589
 1726TIP3    H1 5184   4.544   3.412   0.436 -0.1793  1.7914 -1.9504
 1726TIP3    H2 5185   4.649   3.500   0.500 -0.0211  0.0378  0.3260
 1727TIP3   OH2 5186   2.576   2.868   3.246 -0.1508 -0.3239  0.1453
 1727TIP3    H1 5187   2.636   2.941   3.264 -1.3644  0.5636  0.7188
 1727TIP3    H2 5188   2.624   2.790   3.274  0.5387  0.4171  1.1084
 1728TIP3   OH2 5189   3.653   3.909   0.746  0.2286 -0.1830 -0.5664
 1728TIP3    H1 5190   3.709   3.975   0.787 -0.8816 -0.0904  0.8670
 1728TIP3    H2 5191   3.700   3.827   0.757 -0.1250 -0.1854  1.0745
 1729TIP3   OH2 5192   5.821   4.271   2.890 -0.1483  0.8242  0.5968
 1729TIP3    H1 5193   5.742   4.297   2.937 -0.1763 -0.4429  1.3077
 1729TIP3    H2 5194   5.866   4.211   2.950  0.7826  0.6534 -0.2416
 1730TIP3   OH2 5195   2.601   2.296   4.780 -0.2223  0.1073 -0.0387
 1730TIP3    H1 5196   2.675   2.356   4.775 -1.4352  1.5477 -1.8469
 1730TIP3    H2 5197   2.535   2.343   4.832 -0.1958 -0.8536  0.9189
 1731TIP3   OH2 5198   4.436   1.763   5.024 -0.9371 -0.0963  0.3685
 1731TIP3    H1 5199   4.418   1.856   5.007  0.3632  0.1493  0.1997
 1731TIP3    H2 5200   4.511   1.764   5.084  3.3349 -0.8978 -4.2730
 1732TIP3   OH2 5201   3.464   5.938   2.885 -0.2557 -0.0927 -0.2423
 1732TIP3    H1 5202   3.500   6.011   2.935 -0.5022 -0.3305  0.2827
 1732TIP3    H2 5203   3.419   5.980   2.811  1.7229  0.1952 -1.3664
 1733TIP3   OH2 5204   4.741   1.878   1.105  0.2103 -0.1736  0.1705
 1733TIP3    H1 5205   4.761   1.968   1.078  0.2755 -0.5741 -1.2490
 1733TIP3    H2 5206   4.669   1.886   1.166  0.3544  0.8593  0.2262
 1734TIP3   OH2 5207   5.192   2.228   4.894 -0.0295 -0.3387 -0.0892
 1734TIP3    H1 5208   5.189   2.132   4.896  1.2273 -0.4090 -0.4678
 1734TIP3    H2 5209   5.280   2.250   4.925  0.2938  0.6180 -1.5697
 1735TIP3   OH2 5210   4.765   0.534   5.084 -0.4426  0.2839 -0.2365
 1735TIP3    H1 5211   4.733   0.454   5.127 -0.2242  0.3277  0.0077
 1735TIP3    H2 5212   4.835   0.504   5.026 -0.3751  0.2972 -0.1608
 1736TIP3   OH2 5213   0.795   5.438   4.604  0.4997  0.3051  0.2775
 1736TIP3    H1 5214   0.874   5.384   4.601 -0.0743 -0.5053 -0.5343
 1736TIP3    H2 5215   0.758   5.420   4.691  0.1178 -0.9035 -0.1195
 1737TIP3   OH2 5216   6.138   0.658   3.678 -0.0282 -0.1678 -0.5103
 1737TIP3    H1 5217   6.077   0.596   3.637 -1.1021  0.4915  0.0501
 1737TIP3    H2 5218   6.175   0.610   3.752  0.0000 -0.5150 -0.7478
 1738TIP3   OH2 5219   0.937   1.460   3.922 -0.6760  0.0008  0.2401
 1738TIP3    H1 5220   1.030   1.443   3.936 -0.7007 -1.1238 -0.8197
 1738TIP3    H2 5221   0.910   1.509   4.000  1.2433  2.2044 -0.3425
 1739TIP3   OH2 5222   1.553   4.225   0.288  0.0838 -0.1349 -0.0952
 1739TIP3    H1 5223   1.470   4.233   0.336  0.3388 -0.5025  0.4163
 1739TIP3    H2 5224   1.604   4.163   0.339  0.8781  0.4787 -0.1185
 1740TIP3   OH2 5225   4.569   4.477   0.365  0.2780  0.0440  0.4835
 1740TIP3    H1 5226   4.540   4.455   0.454 -2.1603  0.5954 -0.1181
 1740TIP3    H2 5227   4.575   4.572   0.364 -1.0033  0.1367 -0.2811
 1741TIP3   OH2 5228   6.342   3.852   2.261 -0.3749 -0.5256 -0.0508
 1741TIP3    H1 5229   6.323   3.921   2.198  0.1182  0.0182  0.3800
 1741TIP3    H2 5230   6.376   3.898   2.338 -0.0857 -1.2448  0.2666
 1742TIP3   OH2 5231   1.668   5.075  -0.027  0.0712 -0.5017 -0.0074
 1742TIP3    H1 5232   1.705   5.157   0.005 -2.5782  1.3604 -1.3879
 1742TIP3    H2 5233   1.688   5.012   0.043 -0.1605  1.9334  2.4474
 1743TIP3   OH2 5234   5.906   4.221   1.838 -0.0369  0.0167  0.3356
 1743TIP3    H1 5235   5.914   4.311   1.870 -0.3439  0.2349 -0.1908
 1743TIP3    H2 5236   5.993   4.184   1.847 -0.1086  0.0869  1.3853
 1744TIP3   OH2 5237   1.178   0.369   3.112 -0.3882 -0.1803 -0.6285
 1744TIP3    H1 5238   1.224   0.319   3.180  1.1591  0.4054 -1.2128
 1744TIP3    H2 5239   1.129   0.435   3.161  1.2211  0.6496 -0.0717
 1745TIP3   OH2 5240   2.448   2.088   2.790  0.1612 -0.0491  0.3390
 1745TIP3    H1 5241   2.517   2.022   2.792  0.7831  0.5993  0.5086
 1745TIP3    H2 5242   2.465   2.144   2.866  0.3681  1.0294 -0.4717
 1746TIP3   OH2 5243   0.939   4.342   3.168  0.5452  0.3479 -0.2189
 1746TIP3    H1 5244   1.034   4.342   3.157  0.6660 -1.5874  0.4504
 1746TIP3    H2 5245   0.906   4.395   3.096  2.1027  0.8191 -0.6225
 1747TIP3   OH2 5246   6.312   4.645   1.367  0.5336 -0.0484 -0.0942
 1747TIP3    H1 5247   6.356   4.696   1.435 -1.2121  0.7839  0.4644
 1747TIP3    H2 5248   6.333   4.690   1.285  1.1921 -0.0128  0.0898
 1748TIP3   OH2 5249   1.724   2.961   1.301  0.0858  0.3602 -0.4864
 1748TIP3    H1 5250   1.737   3.049   1.266 -2.2737  0.8054 -0.4026
 1748TIP3    H2 5251   1.651   2.925   1.250  1.3768 -1.8155 -0.9206
 1749TIP3   OH2 5252   1.136   3.120   3.539 -0.1103 -0.3592 -0.2065
 1749TIP3    H1 5253   1.172   3.035   3.564 -0.8296 -0.6732 -0.2203
 1749TIP3    H2 5254   1.106   3.107   3.449 -0.1276 -0.0581 -0.2446
 1750TIP3   OH2 5255   4.645   4.422   0.790 -0.5197 -0.4017  0.1333
 1750TIP3    H1 5256   4.676   4.337   0.759 -1.7803 -0.1149 -2.1137
 1750TIP3    H2 5257   4.652   4.479   0.713 -0.4045  1.3533  1.3859
 1751TIP3   OH2 5258   4.284   2.094   0.622 -0.6083 -0.4865  0.4894
 1751TIP3    H1 5259   4.192   2.122   0.623 -1.1948 -2.2383  1.4589
 1751TIP3    H2 5260   4.294   2.048   0.539 -0.9772 -1.3359  0.9041
 1752TIP3   OH2 5261   5.985   5.063   4.267  0.1034 -0.0314  0.4580
 1752TIP3    H1 5262   6.079   5.056   4.250 -0.0424 -1.5230  0.1874
 1752TIP3    H2 5263   5.967   5.157   4.263  1.3517  0.1825 -0.7589
 1753TIP3   OH2 5264   3.528   2.391   1.551  0.0332  0.3886  0.2774
 1753TIP3    H1 5265   3.445   2.347   1.535  0.9797 -1.3671 -0.0361
 1753TIP3    H2 5266   3.579   2.328   1.602  1.2137  1.3819  0.3579
 1754TIP3   OH2 5267   2.162   4.005   0.174  0.9197  0.2295 -0.4107
 1754TIP3    H1 5268   2.140   4.089   0.214  0.3573 -0.1758  0.1288
 1754TIP3    H2 5269   2.085   3.982   0.122 -0.7990 -2.0200  2.8243
 1755TIP3   OH2 5270   1.769   2.153   0.152  0.3782  0.0214  0.8003
 1755TIP3    H1 5271   1.746   2.121   0.240 -1.2719 -2.9934 -0.5918
 1755TIP3    H2 5272   1.833   2.090   0.120 -0.0456  0.3078 -0.6543
 1756TIP3   OH2 5273   4.665   3.780   1.257  0.3315 -0.0601  0.1621
 1756TIP3    H1 5274   4.592   3.745   1.205 -0.3093  0.9707  0.3408
 1756TIP3    H2 5275   4.675   3.718   1.329 -1.3628  0.5217  0.9545
 1757TIP3   OH2 5276   2.575   0.317   3.990  0.2384  0.1252 -0.1007
 1757TIP3    H1 5277   2.525   0.394   3.963 -1.0036 -0.3161  0.8612
 1757TIP3    H2 5278   2.610   0.340   4.076 -0.2118 -0.4060  0.2314
 1758TIP3   OH2 5279   0.805   4.965   3.678 -0.3972  0.0519  0.0573
 1758TIP3    H1 5280   0.871   5.034   3.678  1.5456 -1.6898 -1.0061
 1758TIP3    H2 5281   0.763   4.971   3.592 -0.5021  0.1210  0.1117
 1759TIP3   OH2 5282   1.062   1.983   1.683  0.2678  0.2899  0.4629
 1759TIP3    H1 5283   1.093   1.897   1.710  1.6819 -0.0350 -1.8968
 1759TIP3    H2 5284   0.985   1.964   1.629  0.3835  0.5217  0.2146
 1760TIP3   OH2 5285   5.030   1.940   2.339  0.2857 -0.2530 -0.5851
 1760TIP3    H1 5286   4.940   1.971   2.340  0.8737  1.5831  0.8895
 1760TIP3    H2 5287   5.047   1.917   2.248 -1.7164 -0.8911 -0.8444
 1761TIP3   OH2 5288   5.372   5.308   0.057  0.0723  0.1484  0.5930
 1761TIP3    H1 5289   5.304   5.242   0.063 -0.5920  0.8723  1.1281
 1761TIP3    H2 5290   5.330   5.390   0.082  1.1395  0.6083  0.9817
 1762TIP3   OH2 5291   2.164   2.011   2.323 -0.0717  0.1770  0.2730
 1762TIP3    H1 5292   2.214   2.051   2.394 -1.6357  0.4782  1.2654
 1762TIP3    H2 5293   2.074   2.008   2.356 -0.6677 -0.6321 -1.3061
 1763TIP3   OH2 5294   1.466   5.161   4.056 -0.0456  0.1381 -0.0436
 1763TIP3    H1 5295   1.469   5.153   3.960 -0.1847  0.9235 -0.1205
 1763TIP3    H2 5296   1.488   5.253   4.073  0.3375 -0.0847  0.7016
 1764TIP3   OH2 5297   4.708   1.108   3.565  0.0087  0.4651 -0.5897
 1764TIP3    H1 5298   4.785   1.134   3.615 -0.3449 -0.8423  0.7126
 1764TIP3    H2 5299   4.672   1.190   3.531  1.2859  1.2034 -0.2302
 1765TIP3   OH2 5300   2.190   3.688   0.549  0.3475  0.3512  0.7482
 1765TIP3    H1 5301   2.189   3.783   0.538  1.9870  0.4250  1.0258
 1765TIP3    H2 5302   2.240   3.656   0.475 -0.1098 -0.3012  0.7145
 1766TIP3   OH2 5303   6.245   3.022   0.861  0.2598 -0.3995  0.2869
 1766TIP3    H1 5304   6.269   2.956   0.796 -1.7719 -1.8568  0.9312
 1766TIP3    H2 5305   6.189   2.976   0.924  0.1774  1.5366  1.7441
 1767TIP3   OH2 5306   5.671   0.167   3.029  0.4996  0.5057  0.2079
 1767TIP3    H1 5307   5.761   0.165   3.062  0.6736 -1.3806 -0.2383
 1767TIP3    H2 5308   5.618   0.185   3.106  1.2739  2.5856  0.3233
 1768TIP3   OH2 5309   2.260   4.057   2.012 -0.8167  0.4749  0.0976
 1768TIP3    H1 5310   2.206   4.103   2.077 -2.5880 -1.6624  0.2767
 1768TIP3    H2 5311   2.272   4.120   1.941 -0.8889  2.0597  1.4263
 1769TIP3   OH2 5312   1.311   5.729   3.222 -0.5818 -0.0879 -0.6854
 1769TIP3    H1 5313   1.331   5.665   3.290 -1.6167 -2.3677 -2.4035
 1769TIP3    H2 5314   1.325   5.814   3.264 -0.0760 -1.3976  1.9906
 1770TIP3   OH2 5315   5.556   3.195   4.966  0.3378  0.2962  0.6279
 1770TIP3    H1 5316   5.590   3.283   4.950  2.2895 -0.7528 -1.6322
 1770TIP3    H2 5317   5.466   3.197   4.933  0.4573  1.3714  0.3410
 1771TIP3   OH2 5318   6.232   4.237   1.757  0.4828  0.0279  0.0802
 1771TIP3    H1 5319   6.251   4.312   1.814  1.4289 -0.3460  0.2849
 1771TIP3    H2 5320   6.291   4.247   1.683 -0.1529  0.0602 -0.4274
 1772TIP3   OH2 5321   2.512   1.107   3.353 -0.2808 -0.3117 -0.4198
 1772TIP3    H1 5322   2.533   1.140   3.440  0.2467 -0.9446 -0.2934
 1772TIP3    H2 5323   2.482   1.017   3.369  1.3276 -0.9943 -1.0095
 1773TIP3   OH2 5324   2.425   2.195   5.181  0.2295 -0.6854  0.4001
 1773TIP3    H1 5325   2.422   2.104   5.208 -1.5285 -1.0015 -0.6825
 1773TIP3    H2 5326   2.333   2.219   5.166  0.6526  1.2377  0.5810
 1774TIP3   OH2 5327   5.395   4.477   4.116  0.0257 -0.2860 -0.1210
 1774TIP3    H1 5328   5.347   4.395   4.109  2.2693 -1.9362  1.8801
 1774TIP3    H2 5329   5.486   4.452   4.099  0.8083  1.7377  0.7991
 1775TIP3   OH2 5330   5.375   5.337   4.641  0.2136 -0.1225 -0.2855
 1775TIP3    H1 5331   5.415   5.251   4.632  0.8733 -0.0268  1.4239
 1775TIP3    H2 5332   5.342   5.340   4.730 -0.2791  1.2017 -0.4798
 1776TIP3   OH2 5333   1.446   0.286   0.708  0.6049 -0.4904  0.3819
 1776TIP3    H1 5334   1.498   0.284   0.788 -0.8829 -1.1281  1.3746
 1776TIP3    H2 5335   1.408   0.374   0.706  0.0985 -0.6950  0.7584
 1777TIP3   OH2 5336   1.785   0.229   3.095 -0.4511  0.2172 -0.2729
 1777TIP3    H1 5337   1.878   0.248   3.108 -0.1701 -1.9637  1.4815
 1777TIP3    H2 5338   1.778   0.207   3.002  1.5103 -2.8341  0.1703
 1778TIP3   OH2 5339   1.821   1.674   4.674 -0.4867 -0.4007  0.7829
 1778TIP3    H1 5340   1.788   1.751   4.628  0.5495 -0.5920 -0.3310
 1778TIP3    H2 5341   1.905   1.702   4.710  0.4843 -1.3173 -0.6679
 1779TIP3   OH2 5342   5.426   0.110   1.389 -0.1449  0.1668  0.7187
 1779TIP3    H1 5343   5.494   0.090   1.324 -1.4178  0.7264 -0.8529
 1779TIP3    H2 5344   5.418   0.206   1.386 -0.7961  0.1306  1.1117
 1780TIP3   OH2 5345   2.178   0.898   3.469  0.4110  1.0325 -0.0816
 1780TIP3    H1 5346   2.263   0.891   3.425  0.3284 -1.4520 -0.0008
 1780TIP3    H2 5347   2.115   0.868   3.404 -0.1453  0.8411  0.5338
 1781TIP3   OH2 5348   0.766   2.057   1.275  0.3106  0.4207 -0.4338
 1781TIP3    H1 5349   0.680   2.064   1.316  0.2416 -0.7032 -0.3687
 1781TIP3    H2 5350   0.785   2.146   1.245 -1.4314  0.4625 -1.5578
 1782TIP3   OH2 5351   3.937   5.370   1.418 -0.0171  0.0909  0.0600
 1782TIP3    H1 5352   3.842   5.362   1.427  0.1213 -0.1445  1.5512
 1782TIP3    H2 5353   3.972   5.302   1.475  1.0539  0.6616  0.1001
 1783TIP3   OH2 5354   6.197   4.393   1.270 -0.6504 -0.0096  0.1270
 1783TIP3    H1 5355   6.142   4.409   1.194 -0.1614  0.5714 -0.1078
 1783TIP3    H2 5356   6.198   4.298   1.279  0.9229 -0.2228 -1.8113
 1784TIP3   OH2 5357   1.796   3.909   3.929  0.0893  0.5895  0.5142
 1784TIP3    H1 5358   1.742   3.968   3.876  0.0794  1.4552  1.4637
 1784TIP3    H2 5359   1.733   3.856   3.978  0.1005 -0.1144 -0.2067
 1785TIP3   OH2 5360   0.203   5.623   3.629 -0.0826 -0.2808 -0.0109
 1785TIP3    H1 5361   0.270   5.689   3.609  1.1492 -0.7006  2.3711
 1785TIP3    H2 5362   0.126   5.674   3.656  0.3778  0.2092  0.4069
 1786TIP3   OH2 5363   1.949   3.276   2.380 -0.2076 -0.1965 -0.4141
 1786TIP3    H1 5364   1.914   3.363   2.399  0.3969 -0.3935  1.7761
 1786TIP3    H2 5365   1.871   3.220   2.377 -0.6060  0.3888 -1.8947
 1787TIP3   OH2 5366   5.878   4.912   0.794  0.2756 -0.0557  0.5960
 1787TIP3    H1 5367   5.910   4.830   0.757  0.0419 -0.1678  0.6402
 1787TIP3    H2 5368   5.886   4.976   0.723 -0.8132 -0.4218  0.1250
 1788TIP3   OH2 5369   5.114   2.851   2.436 -0.1229 -0.6327  0.5476
 1788TIP3    H1 5370   5.056   2.854   2.512 -1.0050 -1.8331 -0.0431
 1788TIP3    H2 5371   5.084   2.775   2.386  0.4755  0.1050 -0.9829
 1789TIP3   OH2 5372   4.801   4.085   0.041  0.0581  0.0308  0.2504
 1789TIP3    H1 5373   4.796   3.989   0.033  0.3743 -0.1116  1.5726
 1789TIP3    H2 5374   4.753   4.117  -0.036 -0.6965 -1.1911  0.1741
 1790TIP3   OH2 5375   0.019   0.837   1.708  0.0682 -0.2578  0.3090
 1790TIP3    H1 5376  -0.016   0.926   1.718  3.3741  1.4477 -1.7335
 1790TIP3    H2 5377   0.035   0.808   1.797  0.9770  2.1774  1.0358
 1791TIP3   OH2 5378   6.309   5.525   1.328  0.4800  0.2270  0.0732
 1791TIP3    H1 5379   6.301   5.466   1.402 -0.1277  1.3775  0.9608
 1791TIP3    H2 5380   6.227   5.576   1.329  0.2796 -0.0009 -1.6304
 1792TIP3   OH2 5381   3.244   0.927   5.071 -0.5110  0.0171 -0.1045
 1792TIP3    H1 5382   3.255   1.018   5.046  0.3960 -0.0684 -0.0548
 1792TIP3    H2 5383   3.270   0.877   4.994 -0.3220 -0.2041  0.0983
 1793TIP3   OH2 5384   0.661   0.135   3.687 -0.1340 -0.0393  0.6733
 1793TIP3    H1 5385   0.623   0.117   3.601 -0.5909 -1.4171  1.1418
 1793TIP3    H2 5386   0.753   0.110   3.678 -0.2700 -0.5575  0.6899
 1794TIP3   OH2 5387   5.450   2.815   2.942 -0.2779 -0.5316 -0.3910
 1794TIP3    H1 5388   5.410   2.733   2.912 -1.3284 -0.2128  0.0897
 1794TIP3    H2 5389   5.479   2.796   3.031 -0.9374 -0.2552 -0.1120
 1795TIP3   OH2 5390   3.483   5.753   4.275 -0.1811 -0.1041  0.0479
 1795TIP3    H1 5391   3.466   5.843   4.305  2.8310  0.4366  0.5126
 1795TIP3    H2 5392   3.480   5.700   4.354  2.1078  0.3582  0.5110
 1796TIP3   OH2 5393   1.831   4.112   4.244 -0.4362  0.0936  0.1177
 1796TIP3    H1 5394   1.837   4.070   4.330  0.9401  0.5119  0.2483
 1796TIP3    H2 5395   1.920   4.142   4.226 -0.3203 -1.4383 -2.1999
 1797TIP3   OH2 5396   4.600   5.464   0.736  0.4073 -0.2356  0.5630
 1797TIP3    H1 5397   4.643   5.542   0.701  0.3890 -0.4138  0.1401
 1797TIP3    H2 5398   4.519   5.497   0.775 -0.4718 -0.2472 -1.1737
 1798TIP3   OH2 5399   5.367   2.293   3.256 -0.0657 -0.6786 -0.4322
 1798TIP3    H1 5400   5.401   2.261   3.172 -0.2287 -2.1253  0.0376
 1798TIP3    H2 5401   5.303   2.228   3.283 -0.9504  0.4236  0.2227
 1799TIP3   OH2 5402   4.693   0.382   0.175  0.0054  0.1265  0.2514
 1799TIP3    H1 5403   4.760   0.332   0.222  1.7670  1.7990 -0.3140
 1799TIP3    H2 5404   4.640   0.317   0.131  0.7286 -1.3187  1.4311
 1800TIP3   OH2 5405   5.506   1.977   1.143 -0.0608  0.2738 -0.7868
 1800TIP3    H1 5406   5.468   1.972   1.055 -0.2307 -0.6509 -0.6705
 1800TIP3    H2 5407   5.489   2.066   1.172 -0.5900  0.3883 -1.4351
 1801TIP3   OH2 5408   2.270   5.408   2.860  0.2884 -0.3665  0.4449
 1801TIP3    H1 5409   2.190   5.436   2.904 -0.7546  1.1140 -2.1568
 1801TIP3    H2 5410   2.261   5.313   2.852 -1.2893 -0.2141  0.1109
 1802TIP3   OH2 5411   4.074   2.745   2.050 -0.4003  0.0787 -0.0308
 1802TIP3    H1 5412   4.032   2.699   2.123  0.4598 -1.3673 -0.4033
 1802TIP3    H2 5413   4.003   2.792   2.007 -1.2973 -0.7779  0.4798
 1803TIP3   OH2 5414   4.567   0.901   4.603 -0.0536  0.0045 -0.0827
 1803TIP3    H1 5415   4.477   0.881   4.576 -0.1724  0.0470  0.2812
 1803TIP3    H2 5416   4.611   0.816   4.605  0.3249  0.1273 -1.7134
 1804TIP3   OH2 5417   4.313   1.252   4.533 -0.2331  0.0314  0.4778
 1804TIP3    H1 5418   4.332   1.281   4.444  0.5846  0.5156  0.7964
 1804TIP3    H2 5419   4.239   1.192   4.524 -0.3281  0.2840 -0.4910
 1805TIP3   OH2 5420   1.835   1.368   1.280 -0.2029  0.4932  0.4236
 1805TIP3    H1 5421   1.749   1.348   1.315 -0.9630  2.0768 -0.4051
 1805TIP3    H2 5422   1.892   1.299   1.313 -1.9650 -1.1271  0.2318
 1806TIP3   OH2 5423   1.208   3.961   0.940  0.8953 -0.0194  0.0155
 1806TIP3    H1 5424   1.146   3.963   0.868  2.3019 -0.3965 -1.2592
 1806TIP3    H2 5425   1.210   3.869   0.968 -0.1530  0.2420  1.0328
 1807TIP3   OH2 5426   6.280   1.313   1.955 -0.0142 -0.4232 -0.8877
 1807TIP3    H1 5427   6.372   1.342   1.956 -0.3074  0.5366 -0.2887
 1807TIP3    H2 5428   6.231   1.390   1.984 -0.7886 -1.6468  1.2531
 1808TIP3   OH2 5429   5.356   5.128   1.875  0.5791  0.4250  0.0415
 1808TIP3    H1 5430   5.347   5.122   1.970  1.4582  0.1137  0.1087
 1808TIP3    H2 5431   5.421   5.196   1.861  0.9961 -0.0434 -0.3158
 1809TIP3   OH2 5432   2.953   0.572   1.140 -0.2781 -0.4823  0.0556
 1809TIP3    H1 5433   2.983   0.484   1.166  1.9802 -0.8850 -3.3847
 1809TIP3    H2 5434   3.031   0.615   1.106 -1.9521  1.8034 -1.1206
 1810TIP3   OH2 5435   5.785   2.180   2.542  0.5765 -0.2578  0.2338
 1810TIP3    H1 5436   5.816   2.091   2.525  0.2662 -0.3564  0.1815
 1810TIP3    H2 5437   5.699   2.168   2.582  0.6970  0.0079  0.5843
 1811TIP3   OH2 5438   6.191   2.885   0.623  0.4618 -0.4607  0.5184
 1811TIP3    H1 5439   6.214   2.822   0.555  2.1245  1.1237 -0.4565
 1811TIP3    H2 5440   6.096   2.877   0.632 -0.1668  0.5523 -3.3746
 1812TIP3   OH2 5441   3.357   3.758   5.184 -0.1820 -0.1441  0.0166
 1812TIP3    H1 5442   3.293   3.760   5.256 -1.0340  0.5353 -0.7256
 1812TIP3    H2 5443   3.317   3.701   5.118  0.5307 -0.6540  0.0153
 1813TIP3   OH2 5444   3.857   2.361   0.770  0.3166  0.5263  0.5883
 1813TIP3    H1 5445   3.906   2.279   0.773  0.6854  0.7299  0.2287
 1813TIP3    H2 5446   3.825   2.368   0.680 -0.6026  0.2689  0.8840
 1814TIP3   OH2 5447   2.870   1.539   3.660  0.6539 -0.1865  0.2154
 1814TIP3    H1 5448   2.862   1.462   3.604  1.0241 -0.5146  0.6104
 1814TIP3    H2 5449   2.813   1.522   3.734  0.0789  0.2968 -0.1075
 1815TIP3   OH2 5450   4.901   3.852   4.093 -0.8767  0.5309 -0.1935
 1815TIP3    H1 5451   4.814   3.857   4.054 -0.9718  3.6254  0.1395
 1815TIP3    H2 5452   4.961   3.855   4.019 -1.0612  0.6981 -0.3360
 1816TIP3   OH2 5453   2.243   0.553   3.229  0.3933  0.0602  0.4219
 1816TIP3    H1 5454   2.247   0.607   3.308  2.3204 -0.3264  0.6354
 1816TIP3    H2 5455   2.301   0.598   3.167 -0.1002 -0.3253 -0.3259
 1817TIP3   OH2 5456   3.734   3.597   1.407  1.1304 -0.2741  0.4347
 1817TIP3    H1 5457   3.730   3.557   1.320  0.3297  1.2127 -0.2465
 1817TIP3    H2 5458   3.659   3.561   1.454  1.8389 -1.4479  0.6958
 1818TIP3   OH2 5459   5.668   3.612   1.162 -0.7633  0.1265 -0.1989
 1818TIP3    H1 5460   5.695   3.690   1.210  2.0128  0.1413 -1.5639
 1818TIP3    H2 5461   5.726   3.543   1.194  2.2925  0.4338 -4.1913
 1819TIP3   OH2 5462   6.058   3.959   1.027 -0.4292 -0.2269  0.7758
 1819TIP3    H1 5463   6.047   3.866   1.009  0.0452 -0.0237 -0.6706
 1819TIP3    H2 5464   6.152   3.973   1.023 -0.4941  0.3152  1.0404
 1820TIP3   OH2 5465   0.211   1.817   0.195  0.0128  0.0385  0.3523
 1820TIP3    H1 5466   0.183   1.789   0.282 -0.4820  0.2977  0.2807
 1820TIP3    H2 5467   0.302   1.787   0.188 -0.0165 -0.1795  0.8696
 1821TIP3   OH2 5468   2.215   5.567   5.156 -0.2723 -0.2958 -0.1355
 1821TIP3    H1 5469   2.310   5.555   5.161 -0.3878 -1.1383  0.1396
 1821TIP3    H2 5470   2.196   5.570   5.062  0.0001 -0.3754 -0.1933
 1822TIP3   OH2 5471   0.206   5.958   0.207  0.1921 -0.2436  0.3145
 1822TIP3    H1 5472   0.197   6.049   0.180 -0.9407 -0.6273 -0.6894
 1822TIP3    H2 5473   0.156   5.951   0.288 -0.1538 -0.0809  0.1172
 1823TIP3   OH2 5474   5.238   4.945   3.781 -0.3514  0.4440  0.9131
 1823TIP3    H1 5475   5.231   4.894   3.701 -0.7884  0.0217  1.2158
 1823TIP3    H2 5476   5.275   4.884   3.845  0.4407  0.9127  0.9132
 1824TIP3   OH2 5477   4.956   2.151   5.070 -0.3137  0.2986 -0.9800
 1824TIP3    H1 5478   4.886   2.203   5.031 -0.6087  2.6366  2.3392
 1824TIP3    H2 5479   5.037   2.193   5.040 -0.4910  1.0768 -0.3855
 1825TIP3   OH2 5480   4.739   3.710   0.822  0.1118 -0.4155  0.6027
 1825TIP3    H1 5481   4.811   3.746   0.874 -0.2512  0.7387  0.3274
 1825TIP3    H2 5482   4.724   3.623   0.859  0.2378  0.1620  2.0769
 1826TIP3   OH2 5483   5.044   1.914   4.645  0.5506 -0.1504 -0.2054
 1826TIP3    H1 5484   5.095   1.840   4.613  0.8073 -0.1712  0.2441
 1826TIP3    H2 5485   5.108   1.973   4.684  0.2405 -0.1686  0.3552
 1827TIP3   OH2 5486   2.683   3.893   1.740 -0.4208  0.5291 -0.5573
 1827TIP3    H1 5487   2.668   3.895   1.645  0.0885  2.2272 -0.6405
 1827TIP3    H2 5488   2.777   3.905   1.749 -0.5128  0.7319  0.1684
 1828TIP3   OH2 5489   5.279   4.707   4.786  0.1098  0.2560  0.2854
 1828TIP3    H1 5490   5.258   4.622   4.746  2.1351  0.0386 -0.3984
 1828TIP3    H2 5491   5.363   4.732   4.748 -0.3224  2.4880  0.6574
 1829TIP3   OH2 5492   1.969   2.178   1.525  0.3166  0.2780 -0.1644
 1829TIP3    H1 5493   1.937   2.248   1.469  1.3005 -0.0152 -1.1276
 1829TIP3    H2 5494   2.027   2.222   1.588  1.3042  0.3004 -1.0605
 1830TIP3   OH2 5495   3.469   1.570   5.178  0.1072 -0.2545  0.1387
 1830TIP3    H1 5496   3.464   1.479   5.149 -1.0587  0.2495 -1.3754
 1830TIP3    H2 5497   3.553   1.601   5.144  0.1985 -0.5824  0.0595
 1831TIP3   OH2 5498   3.023   0.189   4.488  0.0313  0.0877  0.0317
 1831TIP3    H1 5499   3.089   0.246   4.448  0.5931 -1.2053 -0.9749
 1831TIP3    H2 5500   3.056   0.170   4.575 -0.4898  1.7970  0.6333
 1832TIP3   OH2 5501   0.503   4.712   0.198  0.4274 -0.2272 -0.4873
 1832TIP3    H1 5502   0.508   4.745   0.108 -0.3300  0.1670 -0.3959
 1832TIP3    H2 5503   0.415   4.675   0.205  0.2321  0.3523  0.2845
 1833TIP3   OH2 5504   1.131   2.495   1.852  0.2593 -0.4916 -0.0548
 1833TIP3    H1 5505   1.126   2.508   1.946 -0.9346 -0.3346 -0.1163
 1833TIP3    H2 5506   1.040   2.499   1.823  0.5951 -0.7086 -1.1912
 1834TIP3   OH2 5507   4.696   2.164   4.303 -0.0707 -0.1987 -0.0099
 1834TIP3    H1 5508   4.610   2.170   4.344 -0.7257 -0.5701 -1.2810
 1834TIP3    H2 5509   4.751   2.120   4.368  0.3720  3.7212  2.6212
 1835TIP3   OH2 5510   5.735   0.283   0.075  0.3618  0.1555 -0.1483
 1835TIP3    H1 5511   5.717   0.360   0.022 -3.2127 -0.4443 -0.0874
 1835TIP3    H2 5512   5.830   0.273   0.072  0.7251  2.9480 -2.3437
 1836TIP3   OH2 5513   4.951   3.249   2.756  0.2725 -0.3226  0.0509
 1836TIP3    H1 5514   5.005   3.219   2.683 -0.7151 -2.9044  0.3010
 1836TIP3    H2 5515   4.877   3.292   2.714  0.5638 -0.2398 -0.3971
 1837TIP3   OH2 5516   3.373   2.578   4.294 -0.2089  0.2740  0.0327
 1837TIP3    H1 5517   3.391   2.570   4.387 -0.5086  3.0567  0.4098
 1837TIP3    H2 5518   3.409   2.664   4.270 -0.4944 -0.1990 -2.3284
 1838TIP3   OH2 5519   5.465   4.986   4.331 -0.2900  0.0664 -0.3590
 1838TIP3    H1 5520   5.391   4.985   4.270 -0.6803 -1.0273  0.0967
 1838TIP3    H2 5521   5.449   4.911   4.388  1.6353 -0.6968 -0.7697
 1839TIP3   OH2 5522   4.459   0.146   3.433 -0.0627 -0.1216 -0.0983
 1839TIP3    H1 5523   4.488   0.152   3.524  0.1731 -1.3453 -0.0686
 1839TIP3    H2 5524   4.446   0.236   3.405  3.5896  0.5589 -0.0500
 1840TIP3   OH2 5525   0.547   4.820   3.736  0.2481  0.1206  0.2675
 1840TIP3    H1 5526   0.487   4.777   3.674  0.7384 -0.1386 -0.0361
 1840TIP3    H2 5527   0.609   4.867   3.680 -0.8441  2.0609  0.5957
 1841TIP3   OH2 5528   0.938   0.088   1.211  0.3263 -0.0557 -0.3880
 1841TIP3    H1 5529   0.994   0.104   1.135  0.7221  0.5776  0.0221
 1841TIP3    H2 5530   0.987   0.027   1.265  1.1398  1.2974  0.4779
 1842TIP3   OH2 5531   0.932   4.462   2.299 -0.2488  0.2950  0.0235
 1842TIP3    H1 5532   0.846   4.477   2.337 -0.3541 -0.4020  0.0734
 1842TIP3    H2 5533   0.921   4.385   2.244  0.4613 -0.1080  0.4266
 1843TIP3   OH2 5534   6.021   3.844   1.851 -0.2983 -0.8368  0.2924
 1843TIP3    H1 5535   5.958   3.775   1.872 -1.1834 -0.2681 -0.4482
 1843TIP3    H2 5536   6.013   3.855   1.756 -0.0642  0.2018  0.3889
 1844TIP3   OH2 5537   1.159   5.036   2.695 -0.1283 -0.2587 -0.1492
 1844TIP3    H1 5538   1.160   5.074   2.608 -1.0027  0.4272  0.1270
 1844TIP3    H2 5539   1.234   5.077   2.740  0.1564 -0.4088 -0.4820
 1845TIP3   OH2 5540   0.615   4.828   2.774  0.5622  0.3611 -0.0081
 1845TIP3    H1 5541   0.612   4.739   2.808  0.0206  0.0959 -0.7236
 1845TIP3    H2 5542   0.526   4.860   2.783  0.4458  0.3528 -0.9664
 1846TIP3   OH2 5543   3.128   2.361   2.243 -0.1276  0.3201 -0.4282
 1846TIP3    H1 5544   3.144   2.362   2.337 -0.0083  1.9035 -0.4379
 1846TIP3    H2 5545   3.112   2.269   2.222  1.1711 -0.2402  0.8961
 1847TIP3   OH2 5546   1.785   0.679   1.887 -0.1117 -0.4366  0.3668
 1847TIP3    H1 5547   1.847   0.605   1.879  0.8944  0.4159  0.0151
 1847TIP3    H2 5548   1.739   0.680   1.803  1.0536  0.3388 -0.2883
 1848TIP3   OH2 5549   5.554   5.392   2.049  0.8544 -0.0775 -0.0075
 1848TIP3    H1 5550   5.492   5.394   2.122  0.5504  1.6979 -0.2772
 1848TIP3    H2 5551   5.502   5.410   1.972  1.0396 -2.7103 -0.8665
 1849TIP3   OH2 5552   1.792   2.653   1.024  0.4698  0.2983 -0.5008
 1849TIP3    H1 5553   1.871   2.610   0.993  0.2724  0.5246 -1.3472
 1849TIP3    H2 5554   1.815   2.746   1.026  1.6234  0.1073  3.4130
 1850TIP3   OH2 5555   1.129   5.003   4.598  0.0207  0.2776  0.2654
 1850TIP3    H1 5556   1.155   5.061   4.669  1.1704 -1.8296  1.6692
 1850TIP3    H2 5557   1.107   4.921   4.641 -1.7198 -0.3377 -1.6215
 1851TIP3   OH2 5558   0.675   3.603   4.349 -0.1113 -0.1649  0.1081
 1851TIP3    H1 5559   0.716   3.582   4.432 -0.7090 -1.3887  0.1100
 1851TIP3    H2 5560   0.711   3.540   4.287  0.9133  1.2230 -0.7540
 1852TIP3   OH2 5561   0.199   0.646   0.249 -0.0106 -0.1794  0.5456
 1852TIP3    H1 5562   0.135   0.717   0.257  0.6585  0.3940  0.9480
 1852TIP3    H2 5563   0.169   0.579   0.311 -3.1840 -2.3326 -2.9030
 1853TIP3   OH2 5564   0.509   1.848   4.777  0.3105 -0.3945 -0.4414
 1853TIP3    H1 5565   0.547   1.832   4.691  1.7723 -0.1075  0.1300
 1853TIP3    H2 5566   0.584   1.855   4.836 -0.5483  1.3829  0.5284
 1854TIP3   OH2 5567   2.774   5.962   1.620  0.4105 -0.1127  0.2879
 1854TIP3    H1 5568   2.763   6.001   1.533  1.0636 -2.4451 -0.9148
 1854TIP3    H2 5569   2.862   5.989   1.647  0.1708  0.6963  0.2996
 1855TIP3   OH2 5570   5.236   1.968   0.610  0.1431  0.2166  0.0275
 1855TIP3    H1 5571   5.271   1.884   0.579 -0.8843  0.4366 -1.8497
 1855TIP3    H2 5572   5.141   1.956   0.610 -0.0658  1.6255 -1.1316
 1856TIP3   OH2 5573   6.105   1.119   2.926 -0.3479 -0.3945  0.2974
 1856TIP3    H1 5574   6.110   1.188   2.860 -0.6680 -1.9623 -1.4654
 1856TIP3    H2 5575   6.192   1.116   2.965 -0.6923  1.8377  1.3618
 1857TIP3   OH2 5576   3.801   2.600   2.848 -0.7375 -0.2102  0.3607
 1857TIP3    H1 5577   3.853   2.649   2.784 -1.0599 -1.6367 -1.0445
 1857TIP3    H2 5578   3.711   2.613   2.820 -1.0047  0.3819  1.4449
 1858TIP3   OH2 5579   4.068   1.180   4.193  0.0807  0.2167 -0.5108
 1858TIP3    H1 5580   3.997   1.232   4.230 -0.7293  0.1253 -1.8847
 1858TIP3    H2 5581   4.106   1.235   4.125  0.1105 -0.4461 -1.0422
 1859TIP3   OH2 5582   0.477   2.564   4.419  0.5294  0.1380 -0.0693
 1859TIP3    H1 5583   0.560   2.516   4.420  0.6513  0.3496  0.3157
 1859TIP3    H2 5584   0.414   2.504   4.458  1.0198  0.8617  1.9778
 1860TIP3   OH2 5585   2.337   3.271   3.784 -0.2673 -0.2604  0.2491
 1860TIP3    H1 5586   2.364   3.197   3.730 -0.5937 -0.6088  0.5564
 1860TIP3    H2 5587   2.355   3.349   3.731 -1.4238 -0.6329 -0.7300
 1861TIP3   OH2 5588   1.498   5.669   4.837 -0.3403 -0.2095  0.2416
 1861TIP3    H1 5589   1.533   5.744   4.789 -0.1219 -1.1915 -1.1968
 1861TIP3    H2 5590   1.570   5.642   4.895 -0.8954  1.5042  1.8254
 1862TIP3   OH2 5591   6.188   1.060   4.702  0.1524  0.4168  0.1498
 1862TIP3    H1 5592   6.116   1.070   4.765  2.0240  1.0287  2.3441
 1862TIP3    H2 5593   6.210   1.149   4.676  0.3490  0.2549 -0.2497
 1863TIP3   OH2 5594   0.885   4.741   4.388 -0.5762  0.1261 -0.7449
 1863TIP3    H1 5595   0.962   4.699   4.352 -0.5420 -0.3963 -0.0788
 1863TIP3    H2 5596   0.812   4.708   4.334 -0.4752 -0.3050 -0.6215
 1864TIP3   OH2 5597   6.193   0.692   1.406  0.0450  0.2681 -0.5943
 1864TIP3    H1 5598   6.185   0.782   1.374  0.7665  1.5295  2.4355
 1864TIP3    H2 5599   6.161   0.695   1.496 -0.4192 -2.6619 -0.5715
 1865TIP3   OH2 5600   3.319   2.052   1.591  0.1675  0.2850  0.1269
 1865TIP3    H1 5601   3.388   2.021   1.533  0.1092 -1.4022  0.8888
 1865TIP3    H2 5602   3.238   2.039   1.541 -0.0032 -2.3010  0.9123
 1866TIP3   OH2 5603   2.889   3.566   4.846 -0.0298 -0.2049 -0.1054
 1866TIP3    H1 5604   2.944   3.519   4.909  1.2521  0.4471 -0.6816
 1866TIP3    H2 5605   2.808   3.585   4.893  0.5790 -0.4396  1.0712
 1867TIP3   OH2 5606   2.878   3.401   0.423 -0.5781  0.3203 -0.3580
 1867TIP3    H1 5607   2.961   3.355   0.413 -1.2661 -0.9023 -0.7705
 1867TIP3    H2 5608   2.824   3.369   0.350 -2.2094 -0.7827  1.2282
 1868TIP3   OH2 5609   6.091   5.584   0.248 -0.3066  0.4427  0.1138
 1868TIP3    H1 5610   6.072   5.495   0.279 -1.9647  0.7448  0.0445
 1868TIP3    H2 5611   6.014   5.609   0.196  0.1588  1.8861  0.0706
 1869TIP3   OH2 5612   5.936   5.324   4.342  0.2110  0.0263  0.4072
 1869TIP3    H1 5613   5.876   5.398   4.351 -0.2958 -0.4224  0.7883
 1869TIP3    H2 5614   6.016   5.362   4.305 -0.9914  0.3152 -2.1230
 1870TIP3   OH2 5615   0.266   2.229   3.601 -0.2252 -0.2934  0.6527
 1870TIP3    H1 5616   0.245   2.148   3.648  0.3360  0.0849  1.5766
 1870TIP3    H2 5617   0.361   2.233   3.601 -0.2431  0.2547  0.3932
 1871TIP3   OH2 5618   5.037   2.952   1.228 -0.3460  0.7308 -0.1516
 1871TIP3    H1 5619   4.986   2.938   1.307 -0.7906 -1.0142 -0.7013
 1871TIP3    H2 5620   5.122   2.912   1.246 -0.0089  1.4695 -0.0977
 1872TIP3   OH2 5621   5.165   4.890   1.970 -0.4289  0.2054 -0.0784
 1872TIP3    H1 5622   5.245   4.908   1.921 -0.7989 -0.3406 -0.9030
 1872TIP3    H2 5623   5.105   4.959   1.944 -0.3874  0.3296  0.1580
 1873TIP3   OH2 5624   4.078   4.541   3.255 -0.8241  0.5204 -0.1903
 1873TIP3    H1 5625   4.075   4.617   3.312 -0.5215  1.2311 -1.0973
 1873TIP3    H2 5626   4.000   4.491   3.278 -1.1824  1.2497  0.2181
 1874TIP3   OH2 5627   4.121   2.474   0.798  0.6154  0.0634  0.0778
 1874TIP3    H1 5628   4.090   2.461   0.709  0.1492  1.0625  0.0772
 1874TIP3    H2 5629   4.046   2.511   0.845  0.4310 -1.6910  1.2459
 1875TIP3   OH2 5630   6.161   0.275   3.434 -0.3706 -0.5900  0.6552
 1875TIP3    H1 5631   6.141   0.249   3.524 -0.7547 -0.6073  0.5636
 1875TIP3    H2 5632   6.199   0.196   3.395 -0.7877 -0.7701  0.6164
 1876TIP3   OH2 5633   3.558   4.454   4.176  0.4137  0.2466 -0.4005
 1876TIP3    H1 5634   3.645   4.445   4.138  1.1980  0.6770  1.1823
 1876TIP3    H2 5635   3.539   4.547   4.169 -0.2321  0.0448 -1.3749
 1877TIP3   OH2 5636   3.246   0.742   1.332  0.1917  0.5783  0.2032
 1877TIP3    H1 5637   3.253   0.720   1.239  3.6002  1.0091  0.2358
 1877TIP3    H2 5638   3.286   0.668   1.377  0.9055  1.4870  1.1164
 1878TIP3   OH2 5639   1.236   0.549   0.192 -0.0632  0.0982 -0.2102
 1878TIP3    H1 5640   1.299   0.532   0.262 -0.8368 -2.0133  0.0236
 1878TIP3    H2 5641   1.288   0.590   0.123  1.2203 -0.0831  0.6140
 1879TIP3   OH2 5642   0.656   5.658   2.657  0.3814 -0.0810  0.7416
 1879TIP3    H1 5643   0.574   5.665   2.706  1.2370  0.8368  2.1060
 1879TIP3    H2 5644   0.722   5.635   2.723  0.8415 -3.5739 -0.7189
 1880TIP3   OH2 5645   1.129   0.207   4.130 -0.6095 -0.0790 -0.1198
 1880TIP3    H1 5646   1.170   0.272   4.187  0.8560 -0.3966 -0.7623
 1880TIP3    H2 5647   1.038   0.235   4.123 -0.2244  1.3764  0.3556
 1881TIP3   OH2 5648   3.038   1.147   3.620 -0.2757 -0.4333  0.3228
 1881TIP3    H1 5649   2.976   1.210   3.584  0.8049 -0.7892 -2.3799
 1881TIP3    H2 5650   3.105   1.201   3.661 -0.2746  0.1208 -0.3877
 1882TIP3   OH2 5651   2.589   2.880   1.334  0.2148  0.0746 -0.0292
 1882TIP3    H1 5652   2.570   2.962   1.289  0.0872 -0.4775 -0.9992
 1882TIP3    H2 5653   2.516   2.823   1.312  1.1356 -0.8556 -0.7771
 1883TIP3   OH2 5654   5.132   0.000   0.399 -0.0365 -0.0561 -0.8966
 1883TIP3    H1 5655   5.124   0.021   0.306  1.3454  2.6156 -0.5282
 1883TIP3    H2 5656   5.162   0.082   0.439  2.9732 -2.0592  1.3643
 1884TIP3   OH2 5657   4.594   1.377   3.594  0.5257  0.2806 -0.4231
 1884TIP3    H1 5658   4.527   1.394   3.528  1.0334 -1.2179 -1.3739
 1884TIP3    H2 5659   4.545   1.370   3.676 -0.3981 -0.1068 -0.9912
 1885TIP3   OH2 5660   0.975   0.123   0.924  0.0491 -0.4736  0.7806
 1885TIP3    H1 5661   0.983   0.216   0.943  0.4946 -0.3512  0.0239
 1885TIP3    H2 5662   1.063   0.087   0.938  0.9097 -0.0309 -2.7393
 1886TIP3   OH2 5663   3.900   0.677   1.258  0.3116  0.0784  0.0420
 1886TIP3    H1 5664   3.905   0.729   1.177  0.7531 -0.9101 -0.5876
 1886TIP3    H2 5665   3.967   0.714   1.315 -1.5561  2.3431  0.9365
 1887TIP3   OH2 5666   5.497   1.166   4.400  0.1489 -0.6298 -0.1876
 1887TIP3    H1 5667   5.535   1.112   4.470 -1.8478  0.4209  1.8102
 1887TIP3    H2 5668   5.540   1.251   4.409 -1.6624  0.2154  1.3627
 1888TIP3   OH2 5669   3.649   0.935   3.840  0.0668  0.5184 -0.3332
 1888TIP3    H1 5670   3.560   0.902   3.833  0.1774  0.3609 -1.1809
 1888TIP3    H2 5671   3.705   0.857   3.839  0.1930  0.5774  0.9072
 1889TIP3   OH2 5672   4.806   3.477   4.803 -0.0073  0.0255  0.6148
 1889TIP3    H1 5673   4.731   3.501   4.748  1.3383 -1.2783 -1.9601
 1889TIP3    H2 5674   4.771   3.413   4.865 -1.1336 -0.1852 -0.2031
 1890TIP3   OH2 5675   1.664   4.911   3.066 -0.2902 -0.2492 -0.3802
 1890TIP3    H1 5676   1.574   4.903   3.096 -0.5809  0.9620 -0.8885
 1890TIP3    H2 5677   1.712   4.945   3.141 -0.3783 -0.3168 -0.2942
 1891TIP3   OH2 5678   1.613   0.841   4.429  0.1092 -0.0359  0.2271
 1891TIP3    H1 5679   1.685   0.898   4.402  0.4398 -1.1118 -1.3059
 1891TIP3    H2 5680   1.534   0.884   4.395  0.2942 -0.1337 -0.3427
 1892TIP3   OH2 5681   5.986   2.555   0.196 -0.7068  0.4168 -0.6296
 1892TIP3    H1 5682   6.030   2.472   0.177 -0.7519  0.3354 -0.3932
 1892TIP3    H2 5683   5.974   2.597   0.111 -0.1098  0.4748 -0.6921
 1893TIP3   OH2 5684   1.592   1.060   3.726 -0.0134  0.0542 -0.1230
 1893TIP3    H1 5685   1.566   1.082   3.636  1.8399  1.2360 -0.4412
 1893TIP3    H2 5686   1.688   1.059   3.722  0.0760 -0.6965  1.6689
 1894TIP3   OH2 5687   1.475   5.664   3.977  0.3546 -0.6704 -0.1905
 1894TIP3    H1 5688   1.561   5.696   3.950  0.9578 -1.1952  1.0758
 1894TIP3    H2 5689   1.414   5.705   3.915  1.4286  0.3171 -0.6195
 1895TIP3   OH2 5690   0.243   4.907   3.674  0.0179  0.2048 -0.1068
 1895TIP3    H1 5691   0.233   4.813   3.683  0.3301  0.3176  1.8686
 1895TIP3    H2 5692   0.250   4.922   3.580 -0.2601 -1.7072 -0.4603
 1896TIP3   OH2 5693   3.617   2.940   0.048 -0.2862 -0.1002  0.0622
 1896TIP3    H1 5694   3.523   2.931   0.060 -0.4163  1.5879  0.5441
 1896TIP3    H2 5695   3.654   2.859   0.083 -1.4327  0.0383  1.6983
 1897TIP3   OH2 5696   4.682   4.110   4.477 -0.3687 -0.3675 -0.0143
 1897TIP3    H1 5697   4.706   4.090   4.568  0.8407 -0.6539 -0.3733
 1897TIP3    H2 5698   4.617   4.179   4.484 -0.6893 -0.7680  1.0893
 1898TIP3   OH2 5699   3.430   1.840   2.820 -0.3401 -0.4094  0.0433
 1898TIP3    H1 5700   3.373   1.898   2.769 -1.3002 -0.4631  1.0208
 1898TIP3    H2 5701   3.444   1.887   2.903 -1.2198 -1.5813  0.8984
 1899TIP3   OH2 5702   5.232   5.171   5.038  0.1335 -0.2972  0.0013
 1899TIP3    H1 5703   5.178   5.111   4.986 -1.6137  1.4457 -0.3221
 1899TIP3    H2 5704   5.214   5.147   5.129  1.1976 -1.6617 -0.1061
 1900TIP3   OH2 5705   2.354   5.019   3.249 -0.4772  0.0849  0.2994
 1900TIP3    H1 5706   2.446   5.024   3.276 -0.0877  0.5278 -1.0260
 1900TIP3    H2 5707   2.311   5.088   3.298  0.2154  0.9024 -0.2049
 1901TIP3   OH2 5708   4.057   5.020   0.987  0.2676  0.4271 -1.0711
 1901TIP3    H1 5709   4.030   5.046   1.075 -0.0345 -0.2916 -0.9438
 1901TIP3    H2 5710   4.151   5.041   0.984  0.7841 -1.4455  0.1777
 1902TIP3   OH2 5711   1.067   5.070   3.314  0.4202 -0.8531 -0.4283
 1902TIP3    H1 5712   1.086   5.030   3.398 -0.6288 -0.0122  0.2442
 1902TIP3    H2 5713   1.100   5.160   3.322  0.6936 -0.8886 -1.0735
 1903TIP3   OH2 5714   2.817   4.063   0.313 -0.2298 -0.2336 -0.9636
 1903TIP3    H1 5715   2.771   4.014   0.382 -0.8037  0.3615 -0.9101
 1903TIP3    H2 5716   2.905   4.075   0.348 -0.4700 -0.0673 -0.3883
 1904TIP3   OH2 5717   1.219   2.539   1.279  0.3947 -0.3473  0.5840
 1904TIP3    H1 5718   1.181   2.479   1.344 -2.1076 -0.2740 -0.6912
 1904TIP3    H2 5719   1.227   2.622   1.325 -1.1096 -0.3589  0.8988
 1905TIP3   OH2 5720   4.964   1.897   2.616 -0.6790  0.0150  0.2113
 1905TIP3    H1 5721   4.895   1.959   2.595 -0.6501  0.1481  0.5134
 1905TIP3    H2 5722   5.009   1.881   2.532 -0.4619  0.6695  0.2019
 1906TIP3   OH2 5723   5.037   4.637   2.747  0.1222  0.3083  0.1982
 1906TIP3    H1 5724   4.980   4.660   2.820  0.2880  1.4540 -0.0175
 1906TIP3    H2 5725   4.979   4.634   2.671  0.2493  0.9593  0.0686
 1907TIP3   OH2 5726   3.125   0.351   2.258 -0.5973 -0.0977 -0.2920
 1907TIP3    H1 5727   3.129   0.378   2.166 -0.4401  0.3690 -0.1515
 1907TIP3    H2 5728   3.081   0.266   2.256 -2.7109  0.9309 -0.5873
 1908TIP3   OH2 5729   3.900   0.846   3.984  0.5109 -0.2500  0.1406
 1908TIP3    H1 5730   3.987   0.864   3.948  0.2489  0.5003 -0.1350
 1908TIP3    H2 5731   3.911   0.851   4.079  0.5445  1.0203  0.0946
 1909TIP3   OH2 5732   0.511   3.275   1.093  0.0448 -0.7923 -0.7836
 1909TIP3    H1 5733   0.533   3.339   1.025 -0.1661  0.3987  0.2101
 1909TIP3    H2 5734   0.526   3.190   1.053  0.9255 -0.1085 -1.9773
 1910TIP3   OH2 5735   1.738   4.548   3.296  0.3251 -0.4968  0.0183
 1910TIP3    H1 5736   1.809   4.500   3.339 -0.3931 -1.3682  0.2774
 1910TIP3    H2 5737   1.782   4.617   3.247  1.4468 -1.6704 -0.7017
 1911TIP3   OH2 5738   0.274   3.603   0.616 -0.2097 -0.3116  0.2123
 1911TIP3    H1 5739   0.232   3.577   0.534 -0.4316 -1.0174  0.5449
 1911TIP3    H2 5740   0.282   3.522   0.667 -0.4343  0.1747  1.0528
 1912TIP3   OH2 5741   5.536   2.547   2.515 -0.1275 -0.2652 -0.0682
 1912TIP3    H1 5742   5.614   2.559   2.460 -0.1516 -1.5995 -0.4402
 1912TIP3    H2 5743   5.567   2.498   2.591 -0.4835 -0.2540  0.0884
 1913TIP3   OH2 5744   5.133   3.148   0.995  0.6857  0.5359 -0.9292
 1913TIP3    H1 5745   5.041   3.172   0.999  0.9982  1.6313  0.4434
 1913TIP3    H2 5746   5.133   3.055   0.970 -0.9246 -0.3784  1.9703
 1914TIP3   OH2 5747   5.878   1.711   3.163 -0.2792  0.2203  0.4543
 1914TIP3    H1 5748   5.843   1.632   3.204 -1.0764  0.7490  0.8207
 1914TIP3    H2 5749   5.805   1.746   3.112 -0.1017  1.0196  0.7400
 1915TIP3   OH2 5750   4.677   5.399   3.797  0.0800 -0.1343  0.0405
 1915TIP3    H1 5751   4.641   5.455   3.866 -0.6923 -0.2846 -0.2211
 1915TIP3    H2 5752   4.757   5.443   3.770 -0.5650  0.9276 -0.2328
 1916TIP3   OH2 5753   0.571   1.239   0.367 -0.5673 -0.6679  0.0403
 1916TIP3    H1 5754   0.521   1.244   0.449  1.5567  0.6258  1.3403
 1916TIP3    H2 5755   0.661   1.256   0.392  0.8207 -3.9383 -2.0743
 1917TIP3   OH2 5756   5.299   2.127   3.541 -0.4806 -0.1705 -0.1362
 1917TIP3    H1 5757   5.270   2.041   3.510  1.0465 -0.2077 -1.5761
 1917TIP3    H2 5758   5.228   2.186   3.515 -0.6389 -0.6936 -0.9597
 1918TIP3   OH2 5759   4.577   1.178   4.734  0.6590 -0.0453 -0.6536
 1918TIP3    H1 5760   4.512   1.121   4.776 -0.3940  0.4884 -1.4790
 1918TIP3    H2 5761   4.560   1.265   4.772 -0.8025  0.6034 -2.5742
 1919TIP3   OH2 5762   4.215   3.371   4.996  0.4154  0.0555  0.3867
 1919TIP3    H1 5763   4.258   3.421   5.066  0.3485  1.0030 -0.2232
 1919TIP3    H2 5764   4.278   3.371   4.925  0.2385 -0.3585  0.2305
 1920TIP3   OH2 5765   2.406   3.455   3.592 -0.0451 -0.5264 -0.4419
 1920TIP3    H1 5766   2.343   3.527   3.603  0.8915  0.0589  1.6756
 1920TIP3    H2 5767   2.433   3.461   3.500 -0.7307  1.2123 -0.5814
 1921TIP3   OH2 5768   3.370   3.679   1.700 -0.2880  0.2439  0.0077
 1921TIP3    H1 5769   3.321   3.761   1.707 -0.8704 -0.2456  2.3382
 1921TIP3    H2 5770   3.303   3.612   1.688  0.1977  0.0700 -2.1424
 1922TIP3   OH2 5771   3.911   5.276   4.328  0.2319  0.3886 -0.3046
 1922TIP3    H1 5772   3.864   5.335   4.386  0.0894  0.5037 -0.5375
 1922TIP3    H2 5773   3.865   5.282   4.245  0.3480  0.1147 -0.3911
 1923TIP3   OH2 5774   5.488   3.461   0.935 -0.2720 -0.2240  0.2382
 1923TIP3    H1 5775   5.396   3.437   0.928 -0.4241  0.5033 -0.4713
 1923TIP3    H2 5776   5.527   3.432   0.852 -0.2946  1.2046 -0.2972
 1924TIP3   OH2 5777   3.146   2.042   0.084  0.1877  0.0221 -0.0342
 1924TIP3    H1 5778   3.160   1.956   0.124  1.3224 -1.0096 -2.4702
 1924TIP3    H2 5779   3.223   2.094   0.111  0.6531 -0.4794 -0.3665
 1925TIP3   OH2 5780   3.520   1.532   0.399  0.7814 -0.0075  0.5430
 1925TIP3    H1 5781   3.604   1.496   0.427  0.7536 -1.0032 -0.6023
 1925TIP3    H2 5782   3.485   1.468   0.337 -0.1574  1.0867 -0.0988
 1926TIP3   OH2 5783   6.170   2.137   3.840 -0.0666  0.4410 -0.2422
 1926TIP3    H1 5784   6.249   2.095   3.804  0.2529  0.6559  0.1941
 1926TIP3    H2 5785   6.203   2.214   3.885 -0.6084  0.9337 -0.6715
 1927TIP3   OH2 5786   1.634   5.360   2.625 -0.1025 -0.3744 -0.1124
 1927TIP3    H1 5787   1.651   5.295   2.693  1.2504  0.8199  0.7403
 1927TIP3    H2 5788   1.567   5.417   2.662 -0.7564 -0.8270 -0.5694
 1928TIP3   OH2 5789   2.345   2.357   4.870  0.2228  0.3105  0.5512
 1928TIP3    H1 5790   2.262   2.391   4.903 -0.1551  0.6795 -0.7113
 1928TIP3    H2 5791   2.320   2.298   4.799  0.9705 -1.0531  1.3978
 1929TIP3   OH2 5792   5.424   5.084   3.017 -0.3226  0.6213  0.0362
 1929TIP3    H1 5793   5.499   5.143   3.015 -0.0050  0.2281  0.2511
 1929TIP3    H2 5794   5.435   5.035   3.099  0.8400 -1.5793 -1.3452
 1930TIP3   OH2 5795   3.807   4.955   0.274 -0.1058  0.7115 -0.6995
 1930TIP3    H1 5796   3.772   4.938   0.187  0.6628 -0.0180 -0.8741
 1930TIP3    H2 5797   3.900   4.936   0.267 -0.2014 -0.3084  0.5352
 1931TIP3   OH2 5798   4.442   4.550   1.563  0.1328 -0.9313  0.5083
 1931TIP3    H1 5799   4.537   4.559   1.569  0.0991  1.0224 -0.9271
 1931TIP3    H2 5800   4.407   4.628   1.606 -0.7426 -0.7738 -0.4421
 1932TIP3   OH2 5801   4.193   1.296   1.583 -0.0292  0.3226 -0.2642
 1932TIP3    H1 5802   4.242   1.340   1.513 -1.2607  1.6613 -0.3401
 1932TIP3    H2 5803   4.260   1.253   1.636  1.3370  2.7566  0.1195
 1933TIP3   OH2 5804   0.461   0.636   3.840  0.6502  0.0352 -0.4516
 1933TIP3    H1 5805   0.378   0.599   3.870  1.5503 -1.5169  0.2362
 1933TIP3    H2 5806   0.522   0.563   3.841  1.6537  0.7485 -2.5689
 1934TIP3   OH2 5807   3.009   4.591   3.286 -0.2676  0.9005 -0.3530
 1934TIP3    H1 5808   2.980   4.643   3.210  0.8154 -1.1447 -2.2935
 1934TIP3    H2 5809   3.101   4.614   3.296  0.4003 -0.9675 -1.6378
 1935TIP3   OH2 5810   1.729   1.651   0.500 -0.3502 -0.0219 -0.0070
 1935TIP3    H1 5811   1.703   1.723   0.442 -1.9426 -0.4545  0.1237
 1935TIP3    H2 5812   1.788   1.692   0.564 -0.7373  1.0324 -0.3072
 1936TIP3   OH2 5813   2.190   0.747   5.002 -0.2018  0.2695  0.3338
 1936TIP3    H1 5814   2.260   0.767   5.064  1.1192 -2.1064 -0.2863
 1936TIP3    H2 5815   2.120   0.808   5.025  1.9366  2.6047  1.1346
 1937TIP3   OH2 5816   1.485   4.339   4.920  0.2985  0.2107 -0.3563
 1937TIP3    H1 5817   1.424   4.371   4.987  0.9767  0.2067  0.2808
 1937TIP3    H2 5818   1.431   4.285   4.862 -0.5951  1.4035 -0.6686
 1938TIP3   OH2 5819   5.691   4.721   3.296 -0.3525 -0.0932  0.2779
 1938TIP3    H1 5820   5.766   4.684   3.342  2.2655  1.1105 -2.6418
 1938TIP3    H2 5821   5.671   4.657   3.227  0.4630  1.1687 -1.2077
 1939TIP3   OH2 5822   6.266   5.811   0.265 -0.4014  0.3230  0.1791
 1939TIP3    H1 5823   6.223   5.727   0.281 -4.6897  2.3035  0.4027
 1939TIP3    H2 5824   6.305   5.834   0.350  1.5248 -1.6183 -0.0758
 1940TIP3   OH2 5825   4.687   1.524   2.094 -0.1537  0.0126  0.2481
 1940TIP3    H1 5826   4.648   1.464   2.158 -2.1722 -0.2527 -1.1420
 1940TIP3    H2 5827   4.769   1.482   2.069 -0.4660 -1.0515  0.9533
 1941TIP3   OH2 5828   0.350   2.301   0.466 -0.5994 -0.2809  0.3248
 1941TIP3    H1 5829   0.403   2.284   0.544 -0.9948  0.5895  0.7970
 1941TIP3    H2 5830   0.376   2.233   0.404  0.3944 -0.4215  0.8815
 1942TIP3   OH2 5831   1.164   2.900   2.320 -0.3066 -0.1498 -0.0982
 1942TIP3    H1 5832   1.165   2.933   2.230 -0.0139  0.4149  0.1120
 1942TIP3    H2 5833   1.257   2.887   2.342 -0.3610  0.0468  0.2454
 1943TIP3   OH2 5834   5.554   5.943   0.047 -0.4207  0.2747  0.2502
 1943TIP3    H1 5835   5.473   5.991   0.031 -0.1718  0.3143 -0.9501
 1943TIP3    H2 5836   5.603   5.999   0.107 -1.6937 -0.2291  1.8639
 1944TIP3   OH2 5837   0.729   5.118   1.912 -0.0541 -0.1450  0.3495
 1944TIP3    H1 5838   0.681   5.129   1.830 -0.4189 -0.5432  0.5082
 1944TIP3    H2 5839   0.661   5.117   1.979  0.2748  0.6374  0.7069
 1945TIP3   OH2 5840   0.366   5.426   1.523 -0.3188  0.5787 -0.1171
 1945TIP3    H1 5841   0.339   5.371   1.450 -1.1290  0.2357  0.4329
 1945TIP3    H2 5842   0.306   5.500   1.521  0.5882  1.3256 -0.6825
 1946TIP3   OH2 5843   2.411   3.393   4.367 -0.4203  0.7972  0.1807
 1946TIP3    H1 5844   2.462   3.344   4.432 -2.5813  1.0575  2.2062
 1946TIP3    H2 5845   2.372   3.325   4.312  1.0636  0.5571 -0.6488
 1947TIP3   OH2 5846   0.443   2.132   0.648  0.1018  0.0432  0.0794
 1947TIP3    H1 5847   0.415   2.063   0.709  0.9204 -0.8193 -0.4922
 1947TIP3    H2 5848   0.530   2.157   0.679  0.7656 -0.7993 -1.0364
 1948TIP3   OH2 5849   0.034   5.469   3.788 -0.0356  0.0639 -0.2792
 1948TIP3    H1 5850  -0.025   5.514   3.727  0.2734 -0.4243 -0.9434
 1948TIP3    H2 5851   0.122   5.490   3.756  0.1443 -2.8490 -2.0360
 1949TIP3   OH2 5852   0.340   5.219   2.803  0.5822 -0.4967  0.0245
 1949TIP3    H1 5853   0.320   5.126   2.810  1.4638 -0.6262  1.1523
 1949TIP3    H2 5854   0.394   5.238   2.880  1.4863  0.6548 -0.8472
 1950TIP3   OH2 5855   5.617   5.474   3.080  0.1595  0.1590 -0.1484
 1950TIP3    H1 5856   5.693   5.527   3.060  1.3196 -1.1853  0.4967
 1950TIP3    H2 5857   5.553   5.495   3.012  1.3657  0.8112 -1.1008
 1951TIP3   OH2 5858   0.781   5.172   3.031  0.2366  0.2341  0.5114
 1951TIP3    H1 5859   0.779   5.267   3.039 -1.7242  0.2113  0.6910
 1951TIP3    H2 5860   0.707   5.151   2.974  0.0189 -1.2563  1.2963
 1952TIP3   OH2 5861   1.391   2.104   0.388  0.1683  0.4412 -0.2579
 1952TIP3    H1 5862   1.421   2.073   0.474  1.7662 -1.4935 -1.4372
 1952TIP3    H2 5863   1.403   2.199   0.392 -1.5124  0.6777  2.2364
 1953TIP3   OH2 5864   2.009   2.798   0.586  0.1135 -0.0617 -0.0278
 1953TIP3    H1 5865   1.949   2.817   0.514 -0.8362  1.4320  1.0851
 1953TIP3    H2 5866   2.097   2.808   0.548 -0.3558  0.0874 -1.1097
 1954TIP3   OH2 5867   0.711   4.546   2.048 -0.4570  0.6322 -0.4945
 1954TIP3    H1 5868   0.697   4.472   1.989 -1.5839 -1.7443  2.4646
 1954TIP3    H2 5869   0.806   4.545   2.065 -0.6073 -1.0523  0.4814
 1955TIP3   OH2 5870   1.427   4.381   0.780 -0.0789  0.0979  0.3743
 1955TIP3    H1 5871   1.336   4.390   0.807 -0.8180 -2.1542 -1.0616
 1955TIP3    H2 5872   1.426   4.401   0.686  1.0314  0.5897  0.4498
 1956TIP3   OH2 5873   2.448   0.666   3.051  0.4935 -0.6581  0.1452
 1956TIP3    H1 5874   2.362   0.690   3.015  0.6484 -3.4804 -2.5125
 1956TIP3    H2 5875   2.509   0.729   3.012 -0.2714  2.1614  2.9928
 1957TIP3   OH2 5876   0.074   1.248   5.123  0.5490  0.1387  0.3768
 1957TIP3    H1 5877   0.142   1.268   5.188 -1.2674  0.0454  2.4274
 1957TIP3    H2 5878   0.013   1.190   5.170 -0.9914  0.2890 -1.3502
 1958TIP3   OH2 5879   0.474   4.483   4.474  0.0576 -0.0656 -0.8946
 1958TIP3    H1 5880   0.396   4.538   4.464 -0.4349 -0.4914  0.4003
 1958TIP3    H2 5881   0.530   4.532   4.535  1.3158  0.7408 -2.6152
 1959TIP3   OH2 5882   2.398   5.060   0.063 -0.3805  0.7474  0.3501
 1959TIP3    H1 5883   2.442   5.069  -0.022  0.6678  1.4221  0.9524
 1959TIP3    H2 5884   2.442   5.123   0.120 -0.3627 -0.4344  1.6923
 1960TIP3   OH2 5885   5.633   3.746   2.117  0.1673 -0.1439 -0.1197
 1960TIP3    H1 5886   5.554   3.722   2.165  2.0256 -1.2696  2.6243
 1960TIP3    H2 5887   5.653   3.835   2.145 -1.2412  1.0230 -2.5453
 1961TIP3   OH2 5888   4.068   1.464   4.675 -0.8643 -0.0970 -0.2304
 1961TIP3    H1 5889   4.073   1.547   4.629  2.3642  0.1341  0.2462
 1961TIP3    H2 5890   4.041   1.401   4.608 -1.4899  1.0275 -1.0640
 1962TIP3   OH2 5891   0.459   1.386   2.188 -0.4012  0.1516  0.1738
 1962TIP3    H1 5892   0.413   1.343   2.260  0.5945 -3.8841 -1.3439
 1962TIP3    H2 5893   0.552   1.378   2.211 -0.1066 -0.3749 -1.1085
 1963TIP3   OH2 5894   3.256   4.153   1.889  0.2679  0.0660  0.1329
 1963TIP3    H1 5895   3.283   4.186   1.975 -0.0066 -0.1957  0.3216
 1963TIP3    H2 5896   3.188   4.214   1.861  0.1969  0.0197  0.2041
 1964TIP3   OH2 5897   2.157   0.090   4.287 -0.0460 -0.0869 -0.1640
 1964TIP3    H1 5898   2.227   0.132   4.237  0.8046  0.5519  1.4999
 1964TIP3    H2 5899   2.083   0.150   4.280  0.9224  1.3700  1.5579
 1965TIP3   OH2 5900   3.170   2.313   4.830  0.3269  0.4780 -0.2661
 1965TIP3    H1 5901   3.232   2.330   4.901 -0.2596  1.2507  0.0766
 1965TIP3    H2 5902   3.116   2.241   4.863  1.6256 -0.8772 -0.9612
 1966TIP3   OH2 5903   0.112   3.025   2.693  0.0901 -0.1397 -0.1674
 1966TIP3    H1 5904   0.081   2.976   2.617 -1.8758 -0.0952  0.5399
 1966TIP3    H2 5905   0.126   3.114   2.660  2.1459 -0.7504 -1.0982
 1967TIP3   OH2 5906   2.707   4.719   3.820 -0.8784  0.4660  0.3539
 1967TIP3    H1 5907   2.748   4.653   3.764  0.0615  0.4339  1.0633
 1967TIP3    H2 5908   2.729   4.692   3.909 -1.7201  0.9329  0.7166
 1968TIP3   OH2 5909   1.817   1.383   1.945 -0.6826 -0.0703  0.1202
 1968TIP3    H1 5910   1.731   1.345   1.928 -0.6517 -1.4268  2.5228
 1968TIP3    H2 5911   1.878   1.325   1.900 -0.8275 -1.5150  1.6575
 1969TIP3   OH2 5912   1.382   2.185   2.537  0.1516 -0.6811  0.0291
 1969TIP3    H1 5913   1.462   2.154   2.580  0.7310 -2.2556 -2.0519
 1969TIP3    H2 5914   1.406   2.193   2.445 -2.4758 -2.9189 -0.9836
 1970TIP3   OH2 5915   1.019   5.471   3.665 -0.2213 -0.0089 -0.5117
 1970TIP3    H1 5916   1.000   5.501   3.576 -0.3670  0.2300 -0.3985
 1970TIP3    H2 5917   1.070   5.542   3.704  1.7200 -0.9880 -1.1043
 1971TIP3   OH2 5918   4.192   2.309   0.406 -0.8876 -0.3575  0.1835
 1971TIP3    H1 5919   4.280   2.342   0.394 -1.3808  0.4365 -1.4546
 1971TIP3    H2 5920   4.172   2.263   0.325 -1.5891 -1.4962  0.9667
 1972TIP3   OH2 5921   2.993   0.974   0.451 -0.9567  0.0996 -0.2792
 1972TIP3    H1 5922   2.921   0.956   0.390 -1.7997 -0.1360  0.7470
 1972TIP3    H2 5923   3.055   0.902   0.436 -0.7896  0.4544 -1.3665
 1973TIP3   OH2 5924   3.924   0.217   3.721  0.0962 -0.3767 -0.8340
 1973TIP3    H1 5925   3.838   0.261   3.723  0.7632  0.9916  0.2695
 1973TIP3    H2 5926   3.963   0.244   3.638 -0.9850 -2.0020 -1.9258
 1974TIP3   OH2 5927   2.584   1.859   0.957 -0.3130  0.0597  0.1732
 1974TIP3    H1 5928   2.620   1.847   0.869 -1.4894 -3.2037  0.0245
 1974TIP3    H2 5929   2.661   1.856   1.014  0.2327 -0.3145 -0.5640
 1975TIP3   OH2 5930   2.311   2.251   3.182  0.6973  0.6132 -0.4325
 1975TIP3    H1 5931   2.329   2.235   3.274  1.8189  1.6829 -0.4348
 1975TIP3    H2 5932   2.273   2.339   3.180 -0.3535  0.1614 -0.8944
 1976TIP3   OH2 5933   2.294   5.316   3.746  0.1078 -0.0467  0.1537
 1976TIP3    H1 5934   2.365   5.253   3.733  0.5069  0.0494  1.6571
 1976TIP3    H2 5935   2.297   5.336   3.839 -0.7785  1.3014 -0.0800
 1977TIP3   OH2 5936   3.604   1.431   3.467  0.6072 -0.0271 -0.0819
 1977TIP3    H1 5937   3.545   1.356   3.468  1.9742 -1.1699  1.4340
 1977TIP3    H2 5938   3.556   1.501   3.512 -0.3745 -0.2440 -0.7769
 1978TIP3   OH2 5939   0.841   0.768   1.757 -0.0798  0.6498 -0.1547
 1978TIP3    H1 5940   0.863   0.842   1.699  0.1314  0.6527 -0.0725
 1978TIP3    H2 5941   0.920   0.714   1.757 -0.1314  0.5757  0.0184
 1979TIP3   OH2 5942   2.284   5.313  -0.009 -0.0127 -0.5020  0.0457
 1979TIP3    H1 5943   2.375   5.302  -0.035  0.3300 -1.4211  1.5352
 1979TIP3    H2 5944   2.287   5.371   0.067 -0.7911  0.3828 -0.5653
 1980TIP3   OH2 5945   0.688   5.807   1.325  0.3420  0.0626 -0.2228
 1980TIP3    H1 5946   0.731   5.877   1.276 -0.3878  0.5209 -0.2209
 1980TIP3    H2 5947   0.621   5.773   1.265 -0.4035  0.4754  0.3605
 1981TIP3   OH2 5948   0.874   0.495   0.380 -0.0372  0.2882 -0.0997
 1981TIP3    H1 5949   0.819   0.488   0.302 -1.0971  0.6279  0.5887
 1981TIP3    H2 5950   0.816   0.532   0.447  1.0236  0.6120  0.6749
 1982TIP3   OH2 5951   2.555   0.253   1.624 -0.6950 -0.3468  0.0339
 1982TIP3    H1 5952   2.503   0.173   1.617 -1.9302  0.3920  0.5020
 1982TIP3    H2 5953   2.544   0.297   1.540 -0.4642 -0.4015 -0.0253
 1983TIP3   OH2 5954   5.241   0.248   2.550  0.2781  0.2481 -0.1449
 1983TIP3    H1 5955   5.199   0.255   2.464  0.5736 -0.5710 -0.3616
 1983TIP3    H2 5956   5.295   0.170   2.544 -0.1487 -0.1501  0.9838
 1984TIP3   OH2 5957   5.896   2.197   4.073 -0.0382  0.4256 -0.1696
 1984TIP3    H1 5958   5.865   2.212   4.163  0.3545 -3.2967  0.7758
 1984TIP3    H2 5959   5.822   2.155   4.029  0.8463 -0.9662 -0.4188
 1985TIP3   OH2 5960   1.233   4.446   3.100 -0.3862 -0.5828  0.0387
 1985TIP3    H1 5961   1.266   4.518   3.154  0.2071  1.1379 -2.4054
 1985TIP3    H2 5962   1.288   4.371   3.123  0.6018  0.3993  0.9849
 1986TIP3   OH2 5963   2.767   4.417   3.970 -0.0237  0.4598  0.4590
 1986TIP3    H1 5964   2.839   4.404   4.032  0.5494  2.5120  0.2854
 1986TIP3    H2 5965   2.690   4.385   4.016  0.7707 -0.4105  1.2323
 1987TIP3   OH2 5966   4.940   3.816   1.994 -0.1753 -0.3439  0.3312
 1987TIP3    H1 5967   4.918   3.735   2.040 -0.1629 -0.0030  0.9520
 1987TIP3    H2 5968   4.944   3.883   2.063  2.3126 -0.2670  0.2085
 1988TIP3   OH2 5969   3.539   5.492   2.208  0.5071 -0.0586  0.8555
 1988TIP3    H1 5970   3.613   5.431   2.198  1.2903  1.1084 -1.3615
 1988TIP3    H2 5971   3.503   5.499   2.119 -1.1464  0.7963  1.5618
 1989TIP3   OH2 5972   4.194   1.133   0.976  0.2193  0.0339  0.2576
 1989TIP3    H1 5973   4.118   1.101   0.927  1.1878  1.0866 -2.0666
 1989TIP3    H2 5974   4.195   1.227   0.961  2.3324 -0.0316 -0.3270
 1990TIP3   OH2 5975   1.937   5.698   2.626 -0.5177  0.0119  0.1939
 1990TIP3    H1 5976   2.027   5.710   2.596 -0.7581 -0.7092 -0.8548
 1990TIP3    H2 5977   1.923   5.603   2.624 -0.6489 -0.0681  2.3428
 1991TIP3   OH2 5978   1.000   1.141   4.997  0.1650  0.2853  0.2037
 1991TIP3    H1 5979   0.951   1.201   4.941  1.3179 -0.1775 -1.3723
 1991TIP3    H2 5980   0.974   1.054   4.968  0.6855  0.0311  0.4702
 1992TIP3   OH2 5981   2.746   1.501   1.188  0.3737  0.0634  0.4154
 1992TIP3    H1 5982   2.780   1.451   1.263 -0.1859  0.5547  1.0129
 1992TIP3    H2 5983   2.770   1.449   1.112  0.2864 -0.8416  0.9878
 1993TIP3   OH2 5984   2.304   4.022   3.494 -0.3002 -0.4555 -0.5089
 1993TIP3    H1 5985   2.367   4.086   3.528  0.5842 -2.3408  1.6742
 1993TIP3    H2 5986   2.228   4.075   3.469  0.8210  1.5569  0.0518
 1994TIP3   OH2 5987   1.631   4.155   0.711 -0.2829  0.0763  0.4147
 1994TIP3    H1 5988   1.726   4.149   0.724 -0.0706  0.1473 -0.9042
 1994TIP3    H2 5989   1.607   4.240   0.748  0.3121  0.4265  0.0124
 1995TIP3   OH2 5990   5.086   2.045   3.770 -0.2308 -0.0353 -0.2883
 1995TIP3    H1 5991   5.148   2.070   3.702 -1.1331 -1.1897 -1.5971
 1995TIP3    H2 5992   5.004   2.030   3.724 -1.0125 -0.3368  1.1331
 1996TIP3   OH2 5993   3.175   3.417   0.342  0.1398 -0.1113 -0.1952
 1996TIP3    H1 5994   3.261   3.425   0.382  0.7283  0.8721 -1.5716
 1996TIP3    H2 5995   3.135   3.503   0.356 -1.1585 -0.9213  1.5100
 1997TIP3   OH2 5996   4.249   1.242   0.092  0.0449  0.6230  0.1168
 1997TIP3    H1 5997   4.278   1.152   0.074 -0.4854  0.7922 -1.7770
 1997TIP3    H2 5998   4.154   1.238   0.082 -0.0241  1.2935  0.4983
 1998TIP3   OH2 5999   4.903   5.494   3.161  0.3292 -0.1268 -0.5421
 1998TIP3    H1 6000   4.967   5.557   3.195 -0.3595  0.2439  0.0992
 1998TIP3    H2 6001   4.818   5.533   3.182 -0.1182 -1.6140  0.5127
 1999TIP3   OH2 6002   4.213   2.261   2.815 -0.0470  0.2123  0.9071
 1999TIP3    H1 6003   4.146   2.210   2.769  1.1905  1.2202 -2.2793
 1999TIP3    H2 6004   4.170   2.344   2.836 -0.1647  0.3963 -0.0292
 2000TIP3   OH2 6005   0.111   4.372   3.140  0.0401  0.3629  0.1393
 2000TIP3    H1 6006   0.073   4.371   3.228  1.3705 -0.1665  0.7328
 2000TIP3    H2 6007   0.148   4.285   3.128 -0.3261  0.3473 -1.0580
 2001TIP3   OH2 6008   2.500   5.513   2.097  0.6935  0.4005 -0.0151
 2001TIP3    H1 6009   2.593   5.498   2.079  0.2342 -1.4298 -1.1150
 2001TIP3    H2 6010   2.455   5.485   2.017 -0.9300 -0.4905  1.1529
 2002TIP3   OH2 6011   5.949   2.233   3.060 -0.0262  0.1412 -0.1375
 2002TIP3    H1 6012   5.997   2.219   2.978  0.9257  0.9246  0.2699
 2002TIP3    H2 6013   6.015   2.263   3.122 -1.1055  1.7271  0.3208
 2003TIP3   OH2 6014   3.159   4.507   1.460  0.4036 -0.7128  0.3165
 2003TIP3    H1 6015   3.086   4.458   1.423 -0.3757  0.6815 -0.0515
 2003TIP3    H2 6016   3.236   4.474   1.413 -0.0393 -1.8891  0.4012
 2004TIP3   OH2 6017   0.728   2.700   1.660  0.0404  0.3184  0.1099
 2004TIP3    H1 6018   0.694   2.661   1.741  0.6737  2.4427  1.4967
 2004TIP3    H2 6019   0.655   2.753   1.627 -0.1137 -0.3077 -0.5924
 2005TIP3   OH2 6020   0.060   1.168   2.155  0.1330  0.2305 -0.2387
 2005TIP3    H1 6021   0.110   1.241   2.118 -1.6209 -0.0128 -3.4723
 2005TIP3    H2 6022   0.125   1.100   2.173  1.2652  0.7463 -2.1466
 2006TIP3   OH2 6023   0.249   0.152   3.635  0.2273  0.6479 -0.3026
 2006TIP3    H1 6024   0.284   0.063   3.635 -1.3821 -0.0407  1.7353
 2006TIP3    H2 6025   0.263   0.183   3.545  2.5992 -0.8870 -0.5498
 2007TIP3   OH2 6026   3.245   3.058   0.546 -0.3738  0.1876  0.3144
 2007TIP3    H1 6027   3.340   3.048   0.538 -0.4042  0.2154 -0.1155
 2007TIP3    H2 6028   3.234   3.140   0.595 -0.1857  1.4194 -1.5763
 2008TIP3   OH2 6029   4.605   4.169   4.851 -0.4008 -0.3964  0.0474
 2008TIP3    H1 6030   4.665   4.096   4.837  1.8862  0.4411  4.0935
 2008TIP3    H2 6031   4.535   4.133   4.906 -1.1313 -0.2399 -0.7420
 2009TIP3   OH2 6032   3.756   3.694   1.103  0.4367  0.3135  0.7793
 2009TIP3    H1 6033   3.660   3.695   1.094  0.1963  3.4328  2.1787
 2009TIP3    H2 6034   3.788   3.675   1.015 -1.4577 -0.0707  0.1178
 2010TIP3   OH2 6035   6.240   5.524   4.505 -0.1906  0.1297 -0.4336
 2010TIP3    H1 6036   6.225   5.500   4.596  0.0103  1.5702  0.0036
 2010TIP3    H2 6037   6.295   5.454   4.470 -1.8232 -1.4469 -0.0164
 2011TIP3   OH2 6038   3.547   4.406   4.980 -0.7560  0.4306 -0.2988
 2011TIP3    H1 6039   3.586   4.359   4.906  1.6028 -0.6656  1.5032
 2011TIP3    H2 6040   3.573   4.497   4.966 -0.8574  0.3411 -1.1322
 2012TIP3   OH2 6041   4.474   3.972   5.049  0.7661 -0.1483  0.5888
 2012TIP3    H1 6042   4.435   3.887   5.068  0.1240  0.3784  1.7476
 2012TIP3    H2 6043   4.567   3.954   5.038  0.6945 -0.9445  1.2231
 2013TIP3   OH2 6044   5.703   2.557   0.003 -0.1938 -0.1473  0.0776
 2013TIP3    H1 6045   5.767   2.624   0.027  0.4552 -1.0479  1.0208
 2013TIP3    H2 6046   5.618   2.596   0.022  0.2088  0.0814  1.5386
 2014TIP3   OH2 6047   2.757   0.872   0.098  0.1055 -0.2363  0.4127
 2014TIP3    H1 6048   2.737   0.872   0.191  0.6129  1.1451  0.5415
 2014TIP3    H2 6049   2.849   0.900   0.093 -0.1414  0.4623 -0.5297
 2015TIP3   OH2 6050   4.121   4.744   4.626 -0.0792 -0.0402 -0.0428
 2015TIP3    H1 6051   4.133   4.726   4.533  2.2391  0.4319  0.0961
 2015TIP3    H2 6052   4.048   4.805   4.630  0.2394  0.4874 -1.6452
 2016TIP3   OH2 6053   5.666   2.202   0.438 -0.4148  0.2657 -0.2877
 2016TIP3    H1 6054   5.707   2.280   0.477 -0.2916  0.7437 -1.3390
 2016TIP3    H2 6055   5.594   2.181   0.498  1.1435 -0.4050  1.4333
 2017TIP3   OH2 6056   5.234   4.187   0.290  0.5099 -0.0876  0.2245
 2017TIP3    H1 6057   5.236   4.245   0.366 -1.9028 -0.2226  0.4591
 2017TIP3    H2 6058   5.143   4.187   0.262  0.8049 -2.2518 -0.9518
 2018TIP3   OH2 6059   1.777   4.851   5.159  0.0305  0.2526 -0.4109
 2018TIP3    H1 6060   1.866   4.882   5.177 -0.0140  0.7953 -1.0846
 2018TIP3    H2 6061   1.721   4.923   5.185 -0.2045 -0.0002 -0.2083
 2019TIP3   OH2 6062   1.901   5.187   3.034  0.3475  0.0332 -0.3383
 2019TIP3    H1 6063   1.908   5.096   3.063  0.7993  0.2408  0.2362
 2019TIP3    H2 6064   1.807   5.203   3.027  0.2725 -0.6697 -1.0994
 2020TIP3   OH2 6065   4.243   1.927   1.733  0.0753 -0.2322 -0.0382
 2020TIP3    H1 6066   4.336   1.940   1.718  0.0083  1.4245  0.7501
 2020TIP3    H2 6067   4.239   1.860   1.802  0.7324  0.4298  0.6638
 2021TIP3   OH2 6068   1.860   4.205   0.974  0.1444  0.2764 -0.4695
 2021TIP3    H1 6069   1.778   4.246   1.003 -0.3984  0.2982 -1.9738
 2021TIP3    H2 6070   1.871   4.235   0.884  1.6274 -0.0310 -0.4076
 2022TIP3   OH2 6071   4.037   0.008   3.883  0.2185  0.2081 -0.0556
 2022TIP3    H1 6072   3.996   0.069   3.944 -0.1032  0.4300 -0.4876
 2022TIP3    H2 6073   4.026   0.049   3.797 -1.2909 -1.1107 -0.5368
 2023TIP3   OH2 6074   5.776   4.418   1.175  0.5261  0.1808 -0.0967
 2023TIP3    H1 6075   5.726   4.488   1.218  0.2886  0.2160 -0.4288
 2023TIP3    H2 6076   5.729   4.402   1.093  0.7410 -0.1748 -0.1511
 2024TIP3   OH2 6077   3.081   3.499   1.192  0.4329  0.3329  0.4562
 2024TIP3    H1 6078   3.138   3.570   1.163  0.2581 -0.0113 -0.7722
 2024TIP3    H2 6079   2.994   3.525   1.163  0.8642 -2.4146 -4.4059
 2025TIP3   OH2 6080   0.114   2.473   3.155  0.0713 -0.2232 -0.3681
 2025TIP3    H1 6081   0.164   2.394   3.136 -1.0254 -1.0216 -0.0131
 2025TIP3    H2 6082   0.174   2.528   3.204  0.9279 -0.7238 -0.8271
 2026TIP3   OH2 6083   0.947   0.200   0.340 -0.1355  0.5009 -0.7608
 2026TIP3    H1 6084   0.882   0.268   0.355  2.0202  2.4518  0.4160
 2026TIP3    H2 6085   0.934   0.174   0.249 -1.4117  2.0683 -1.0651
 2027TIP3   OH2 6086   2.561   5.563   2.454 -0.2300 -0.3295 -0.2444
 2027TIP3    H1 6087   2.595   5.534   2.369 -2.8628 -1.5345 -0.9773
 2027TIP3    H2 6088   2.565   5.658   2.450  0.6880 -0.3962 -1.2741
 2028TIP3   OH2 6089   2.735   0.835   0.354 -0.2532 -0.5700 -0.0999
 2028TIP3    H1 6090   2.689   0.823   0.437  0.2536 -0.7503  0.1610
 2028TIP3    H2 6091   2.758   0.746   0.327 -2.4365 -0.7469 -1.6216
 2029TIP3   OH2 6092   1.169   5.252   4.354 -0.3749  0.1043 -0.8585
 2029TIP3    H1 6093   1.245   5.200   4.326 -0.9391 -0.8930 -0.5750
 2029TIP3    H2 6094   1.203   5.342   4.360  0.5637 -0.1805 -1.5761
 2030TIP3   OH2 6095   5.537   0.372   4.906 -0.1987  0.0413 -0.4972
 2030TIP3    H1 6096   5.564   0.461   4.883 -1.0454  0.3838 -0.2084
 2030TIP3    H2 6097   5.502   0.380   4.995  3.2956 -1.3167  1.1933
 2031TIP3   OH2 6098   2.951   4.748   4.410 -0.0474 -0.1741 -0.0860
 2031TIP3    H1 6099   3.022   4.796   4.367  0.9066  0.5367  2.1473
 2031TIP3    H2 6100   2.926   4.681   4.347  0.2139  1.7263 -2.3543
 2032TIP3   OH2 6101   4.243   5.408   0.647 -0.4099  0.1677 -0.0677
 2032TIP3    H1 6102   4.174   5.372   0.591 -1.2319 -1.0410  1.6336
 2032TIP3    H2 6103   4.209   5.399   0.736  1.6002  0.3188  0.7717
 2033TIP3   OH2 6104   4.071   4.602   3.876 -0.3842 -0.4703  0.0751
 2033TIP3    H1 6105   4.073   4.528   3.816  0.5525 -0.4790  0.0986
 2033TIP3    H2 6106   3.979   4.610   3.901 -0.7415 -0.6404 -1.1308
 2034TIP3   OH2 6107   5.587   0.509   4.345 -0.6080 -0.1483  0.1043
 2034TIP3    H1 6108   5.517   0.511   4.280 -1.2882 -0.4850  0.8122
 2034TIP3    H2 6109   5.655   0.565   4.308 -0.5434 -1.1369 -1.3725
 2035TIP3   OH2 6110   3.513   2.383   3.053  0.0580 -0.3511  0.4311
 2035TIP3    H1 6111   3.480   2.459   3.005  1.4978  1.5526  2.2148
 2035TIP3    H2 6112   3.446   2.316   3.043 -1.3212  1.1847 -1.1774
 2036TIP3   OH2 6113   3.848   1.867   1.823  0.3240 -0.0848 -0.2245
 2036TIP3    H1 6114   3.896   1.790   1.853  1.8576  0.6158 -0.7970
 2036TIP3    H2 6115   3.884   1.939   1.874 -1.3280  0.2538  0.5466
 2037TIP3   OH2 6116   2.454   1.979   4.836 -0.7623  0.0387 -0.2659
 2037TIP3    H1 6117   2.425   2.068   4.857  0.2762  0.6727 -1.4113
 2037TIP3    H2 6118   2.549   1.981   4.851 -0.5748 -0.5699 -1.2773
 2038TIP3   OH2 6119   3.293   0.122   1.435 -0.0457 -0.1130  0.1985
 2038TIP3    H1 6120   3.257   0.210   1.441  0.6927  0.1861  0.3233
 2038TIP3    H2 6121   3.381   0.129   1.470 -0.0486 -0.9497  0.4072
 2039TIP3   OH2 6122   5.767   1.431   0.342  0.3003 -0.7206  0.3404
 2039TIP3    H1 6123   5.828   1.504   0.348 -1.4727  0.9135 -0.6781
 2039TIP3    H2 6124   5.780   1.396   0.254 -0.0459 -0.5073  0.1999
 2040TIP3   OH2 6125   4.375   5.853   1.424  0.3304  0.1173 -0.1750
 2040TIP3    H1 6126   4.463   5.870   1.391 -0.4106 -0.1159 -2.4737
 2040TIP3    H2 6127   4.336   5.940   1.435  0.5364  0.1916 -0.0275
 2041TIP3   OH2 6128   0.696   1.397   1.644  0.7940 -0.4003 -0.1145
 2041TIP3    H1 6129   0.681   1.455   1.719 -0.3711 -0.8932  0.0526
 2041TIP3    H2 6130   0.791   1.387   1.640  1.0904  1.8405 -0.3870
 2042TIP3   OH2 6131   0.617   0.406   2.261  0.5073 -0.4489 -0.0568
 2042TIP3    H1 6132   0.567   0.403   2.179  2.2599 -3.0605 -1.1755
 2042TIP3    H2 6133   0.669   0.485   2.255 -0.7159  0.3499 -0.5802
 2043TIP3   OH2 6134   0.416   2.684   4.123  0.2129  0.1961  0.5467
 2043TIP3    H1 6135   0.453   2.641   4.200 -0.4666 -0.6091  0.4292
 2043TIP3    H2 6136   0.484   2.673   4.056 -0.5243 -2.0352  0.0827
 2044TIP3   OH2 6137   2.064   4.329   4.213 -0.7590 -0.5517  0.2789
 2044TIP3    H1 6138   2.006   4.364   4.145  0.6094  0.5619 -0.3685
 2044TIP3    H2 6139   2.141   4.298   4.165  0.0456 -0.1550  1.2762
 2045TIP3   OH2 6140   3.931   0.132   1.818  0.3995  0.0991 -0.0145
 2045TIP3    H1 6141   3.983   0.092   1.748 -0.2057 -1.2978  0.2892
 2045TIP3    H2 6142   3.886   0.205   1.775  1.7835  0.6950 -0.5168
 2046TIP3   OH2 6143   4.263   4.789   3.910  0.1719 -0.2184  0.3777
 2046TIP3    H1 6144   4.215   4.851   3.964 -2.4287 -0.9134 -0.9690
 2046TIP3    H2 6145   4.196   4.727   3.880  2.0946 -1.7741 -0.9323
 2047TIP3   OH2 6146   4.644   5.165   0.284  0.3831  0.3461  0.4193
 2047TIP3    H1 6147   4.645   5.257   0.256  1.3734  0.3568  0.4599
 2047TIP3    H2 6148   4.553   5.150   0.311  0.1595  1.2543  0.2360
 2048TIP3   OH2 6149   2.007   0.211   2.524 -0.3558 -0.1347 -0.5339
 2048TIP3    H1 6150   1.947   0.284   2.507  1.6028  1.3429 -1.6546
 2048TIP3    H2 6151   1.996   0.153   2.448 -1.9606 -1.1087  0.3880
 2049TIP3   OH2 6152   2.633   3.157   2.291 -0.1518 -0.3067  0.1129
 2049TIP3    H1 6153   2.590   3.240   2.270 -1.4428 -1.1479 -0.7087
 2049TIP3    H2 6154   2.670   3.171   2.378  2.8371  2.3274 -1.3797
 2050TIP3   OH2 6155   1.618   2.778   4.791  0.2795  0.7654 -0.0563
 2050TIP3    H1 6156   1.662   2.817   4.866 -0.2146  1.7868 -0.2806
 2050TIP3    H2 6157   1.584   2.694   4.823 -0.9217  1.7066  1.1868
 2051TIP3   OH2 6158   5.344   3.981   3.175 -0.3174 -0.7283  0.4162
 2051TIP3    H1 6159   5.270   3.993   3.116 -0.6185  0.2772  0.9745
 2051TIP3    H2 6160   5.394   3.909   3.137 -0.6665 -0.3106 -0.8836
 2052TIP3   OH2 6161   5.443   5.220   3.673  0.9625 -0.0605  0.3260
 2052TIP3    H1 6162   5.534   5.239   3.652  1.6874 -1.8635  1.6621
 2052TIP3    H2 6163   5.415   5.158   3.605 -0.0504  2.1722 -1.4364
 2053TIP3   OH2 6164   4.227   5.049   3.385 -0.4829 -0.7180  0.1605
 2053TIP3    H1 6165   4.264   5.115   3.444 -0.7098  0.6562 -1.1536
 2053TIP3    H2 6166   4.299   4.989   3.367  0.9173  1.2957 -1.5001
 2054TIP3   OH2 6167   4.198   4.332   4.112  0.4891 -0.5068 -0.4198
 2054TIP3    H1 6168   4.198   4.346   4.207  0.8805  0.8573 -0.5995
 2054TIP3    H2 6169   4.106   4.341   4.087  0.3880 -0.8410 -0.1730
 2055TIP3   OH2 6170   5.156   5.043   1.327  0.1789  0.0881 -0.5352
 2055TIP3    H1 6171   5.142   4.974   1.392 -1.6301  1.2459  0.3524
 2055TIP3    H2 6172   5.224   5.099   1.365  2.3134 -1.5777 -1.6447
 2056TIP3   OH2 6173   0.724   1.351   2.769  0.5309 -0.4423  0.3924
 2056TIP3    H1 6174   0.808   1.390   2.791  0.2174  0.7278 -0.4184
 2056TIP3    H2 6175   0.667   1.376   2.842  0.6993 -0.6722  0.6084
 2057TIP3   OH2 6176   5.925   4.013   3.927  0.5950  0.0836 -0.4579
 2057TIP3    H1 6177   5.973   3.966   3.859 -1.1251 -0.2579 -1.4689
 2057TIP3    H2 6178   5.868   4.073   3.880 -0.1930  0.2690  0.6963
 2058TIP3   OH2 6179   0.199   5.122   4.117 -0.7758  0.2831  0.2457
 2058TIP3    H1 6180   0.209   5.087   4.029 -3.7075 -0.4364  0.0929
 2058TIP3    H2 6181   0.175   5.214   4.103 -0.7112  0.3099  0.3115
 2059TIP3   OH2 6182   1.449   1.285   3.809  0.0876 -0.2904  0.5778
 2059TIP3    H1 6183   1.533   1.247   3.784 -0.8169 -1.6723 -0.4463
 2059TIP3    H2 6184   1.425   1.239   3.890 -0.3804 -0.9743  0.0566
 2060TIP3   OH2 6185   3.242   3.538   2.016 -0.3250  0.0584 -0.5255
 2060TIP3    H1 6186   3.207   3.455   2.047  1.9788 -1.4093 -1.5179
 2060TIP3    H2 6187   3.232   3.534   1.921  2.3956 -0.5302 -0.8896
 2061TIP3   OH2 6188   1.274   3.887   2.000  0.5710  0.1245 -0.1543
 2061TIP3    H1 6189   1.346   3.922   2.052 -1.2850  2.0934  1.2582
 2061TIP3    H2 6190   1.288   3.922   1.912  0.0518  2.6119  0.6890
 2062TIP3   OH2 6191   3.594   1.809   0.603 -0.3934  0.3824 -0.1133
 2062TIP3    H1 6192   3.658   1.771   0.543 -0.6938 -0.6517  0.2124
 2062TIP3    H2 6193   3.647   1.847   0.673 -0.0787  0.8794 -0.6068
 2063TIP3   OH2 6194   0.135   2.454   1.637  0.1600 -0.2193  0.2492
 2063TIP3    H1 6195   0.112   2.524   1.698  0.3540  1.3040 -1.3441
 2063TIP3    H2 6196   0.230   2.443   1.648  0.4693  1.1215 -0.7812
 2064TIP3   OH2 6197   2.556   3.878   5.067  0.0741  0.2556 -0.3137
 2064TIP3    H1 6198   2.519   3.867   5.155  0.3787 -0.7381 -0.3013
 2064TIP3    H2 6199   2.593   3.966   5.068  1.8055 -0.4099  1.2381
 2065TIP3   OH2 6200   4.282   1.599   1.522 -0.3604 -0.2968  0.1103
 2065TIP3    H1 6201   4.325   1.518   1.495 -0.5842 -0.2874 -0.2822
 2065TIP3    H2 6202   4.235   1.629   1.444  1.1161  1.1428 -0.2818
 2066TIP3   OH2 6203   6.265   1.192   3.244 -0.3043 -0.2321  0.0286
 2066TIP3    H1 6204   6.304   1.125   3.188  0.7624 -1.2318  1.8500
 2066TIP3    H2 6205   6.336   1.218   3.303 -1.7680 -0.4119  1.9497
 2067TIP3   OH2 6206   4.381   5.829   3.533  0.1671 -0.9350 -0.4375
 2067TIP3    H1 6207   4.451   5.861   3.589 -0.6549  0.4313 -0.1501
 2067TIP3    H2 6208   4.411   5.846   3.443 -0.3176  0.8310 -0.2871
 2068TIP3   OH2 6209   4.472   0.730   0.694 -0.1136 -0.2186  0.3042
 2068TIP3    H1 6210   4.399   0.705   0.751 -0.7650  0.6658 -0.1068
 2068TIP3    H2 6211   4.548   0.687   0.733 -0.6316 -0.1003  1.5180
 2069TIP3   OH2 6212   2.542   2.828   1.811 -0.2719 -0.1471 -0.2015
 2069TIP3    H1 6213   2.495   2.902   1.773  0.0886  1.2142  1.8579
 2069TIP3    H2 6214   2.490   2.752   1.787 -2.0105  1.0274 -0.3043
 2070TIP3   OH2 6215   4.276   4.843   1.123 -0.1331 -0.4881  0.3655
 2070TIP3    H1 6216   4.257   4.894   1.201  0.0760  0.4961 -0.2198
 2070TIP3    H2 6217   4.262   4.903   1.050 -1.7993 -1.7927 -0.4670
 2071TIP3   OH2 6218   5.954   5.743   0.448 -0.2383 -0.2419 -0.4014
 2071TIP3    H1 6219   6.045   5.725   0.473 -0.2199  1.6176  1.0342
 2071TIP3    H2 6220   5.923   5.660   0.412  1.9985 -0.9494 -0.8812
 2072TIP3   OH2 6221   0.457   1.730   0.188  0.0923  0.4601  0.6341
 2072TIP3    H1 6222   0.477   1.751   0.279 -0.5529 -1.5843  1.2879
 2072TIP3    H2 6223   0.540   1.701   0.151  0.0827 -0.0109  0.9699
 2073TIP3   OH2 6224   5.328   5.104   0.664 -0.5917 -0.0513 -0.0366
 2073TIP3    H1 6225   5.328   5.192   0.624 -0.4282 -0.2846 -0.5522
 2073TIP3    H2 6226   5.252   5.061   0.624 -0.0665 -0.4956 -0.5573
 2074TIP3   OH2 6227   0.585   5.223   1.213 -0.2683  0.1381  0.3523
 2074TIP3    H1 6228   0.494   5.217   1.240 -0.2083 -0.9349  0.3519
 2074TIP3    H2 6229   0.609   5.134   1.187  0.1140  0.8158 -1.8309
 2075TIP3   OH2 6230   2.737   4.966   1.664 -0.2366  0.4667  0.0780
 2075TIP3    H1 6231   2.651   4.927   1.677  0.5382 -1.1483  0.4985
 2075TIP3    H2 6232   2.799   4.897   1.686  1.1815  1.6074 -0.1926
 2076TIP3   OH2 6233   5.577   5.940   3.635  0.4630  0.3804  0.1489
 2076TIP3    H1 6234   5.668   5.955   3.606  0.4185  0.3771  0.0047
 2076TIP3    H2 6235   5.525   5.992   3.574  0.4404  1.3297  0.9643
 2077TIP3   OH2 6236   1.161   4.645   3.862  0.1616 -0.5041 -0.0127
 2077TIP3    H1 6237   1.108   4.574   3.898 -2.0903  0.2085 -1.7152
 2077TIP3    H2 6238   1.098   4.712   3.837  1.5467 -0.4056 -4.0363
 2078TIP3   OH2 6239   3.332   3.447   3.374 -0.5111 -0.2257  0.0306
 2078TIP3    H1 6240   3.371   3.372   3.418  0.3682  0.6784  0.8349
 2078TIP3    H2 6241   3.406   3.494   3.336 -0.5103  2.3529  2.8723
 2079TIP3   OH2 6242   5.778   1.028   1.133  0.0182 -0.1225 -0.4508
 2079TIP3    H1 6243   5.725   1.057   1.059 -0.1610 -0.5112 -0.4736
 2079TIP3    H2 6244   5.864   1.068   1.117 -0.1181  0.0819 -0.6831
 2080TIP3   OH2 6245   1.023   4.075   0.075 -0.6998  0.0259 -0.1556
 2080TIP3    H1 6246   1.059   4.116  -0.004 -1.6742  0.8475 -0.1912
 2080TIP3    H2 6247   1.098   4.030   0.115 -0.1486 -0.2070 -1.4172
 2081TIP3   OH2 6248   4.016   3.966   4.107 -0.0925  0.0475 -0.0671
 2081TIP3    H1 6249   3.947   3.900   4.101 -1.1368  1.1843 -1.8668
 2081TIP3    H2 6250   3.969   4.046   4.131  0.4382  0.9807 -1.9470
 2082TIP3   OH2 6251   0.109   0.552   1.659 -0.3114 -0.0964  0.3140
 2082TIP3    H1 6252   0.102   0.646   1.643  0.5071 -0.2171 -0.9407
 2082TIP3    H2 6253   0.171   0.545   1.732 -0.5742  0.3439  0.5815
 2083TIP3   OH2 6254   0.082   0.896   2.693  0.1463 -0.2851 -0.0540
 2083TIP3    H1 6255   0.138   0.898   2.770 -1.0448  1.0026  0.8388
 2083TIP3    H2 6256   0.113   0.969   2.639 -0.1873 -0.0342  0.0902
 2084TIP3   OH2 6257   5.293   4.538   5.143 -0.7746  0.1148  0.5822
 2084TIP3    H1 6258   5.358   4.482   5.100 -1.1961  1.4572 -2.0570
 2084TIP3    H2 6259   5.312   4.530   5.236  0.1257 -3.1706  0.2394
 2085TIP3   OH2 6260   0.632   3.945   2.951 -0.3460 -0.7327 -0.3875
 2085TIP3    H1 6261   0.660   3.983   2.868  1.9817  2.5042  1.6263
 2085TIP3    H2 6262   0.684   3.991   3.017 -3.2396 -1.8946  3.0428
 2086TIP3   OH2 6263   6.299   4.452   0.421  1.0287  0.4977 -0.1791
 2086TIP3    H1 6264   6.361   4.448   0.347 -0.3979 -1.9049 -1.3855
 2086TIP3    H2 6265   6.336   4.393   0.486 -0.3299 -1.7366 -1.3058
 2087TIP3   OH2 6266   6.229   2.082   1.223  0.4980  0.2136  0.6496
 2087TIP3    H1 6267   6.308   2.037   1.254 -0.6633 -0.8471  2.2041
 2087TIP3    H2 6268   6.229   2.066   1.129  1.4744 -0.8780  0.7996
 2088TIP3   OH2 6269   2.058   0.375   1.389 -0.4818  0.4452 -0.1170
 2088TIP3    H1 6270   1.988   0.422   1.344 -1.7818 -0.1253  1.2344
 2088TIP3    H2 6271   2.033   0.283   1.384  0.1822  0.2284  0.3996
 2089TIP3   OH2 6272   0.144   2.163   0.324  0.1695  0.3238 -0.5058
 2089TIP3    H1 6273   0.142   2.188   0.231  1.8234  0.3778 -0.5597
 2089TIP3    H2 6274   0.104   2.237   0.370  1.3260  1.2974 -1.0088
 2090TIP3   OH2 6275   4.957   1.242   3.426 -0.9683 -0.2123 -0.0104
 2090TIP3    H1 6276   4.925   1.265   3.339 -0.6307 -1.2944 -0.4339
 2090TIP3    H2 6277   5.003   1.159   3.414  0.5431  0.4447  0.8790
 2091TIP3   OH2 6278   5.769   0.876   2.733 -0.4101 -0.8587 -0.0133
 2091TIP3    H1 6279   5.695   0.885   2.793 -0.0450  0.6886  0.2500
 2091TIP3    H2 6280   5.845   0.871   2.790 -0.1074  0.1045 -0.3038
 2092TIP3   OH2 6281   1.863   1.880   0.920 -0.4853 -0.8384 -0.2101
 2092TIP3    H1 6282   1.936   1.934   0.950 -1.0355 -0.4771  0.5221
 2092TIP3    H2 6283   1.804   1.942   0.878 -0.6080 -1.0431 -0.3390
 2093TIP3   OH2 6284   6.279   1.575   0.688 -0.2510 -0.1364 -0.3547
 2093TIP3    H1 6285   6.327   1.609   0.612  0.9987 -1.1727 -0.0606
 2093TIP3    H2 6286   6.292   1.642   0.755 -1.0101  0.5840 -0.9035
 2094TIP3   OH2 6287   4.054   4.417   1.302 -0.0944 -0.4252 -0.6194
 2094TIP3    H1 6288   4.105   4.486   1.260  1.0116  0.2035  1.5599
 2094TIP3    H2 6289   4.078   4.337   1.254  4.1112 -0.3873  1.0055
 2095TIP3   OH2 6290   2.180   3.504   1.716 -0.0850 -0.1505  0.1002
 2095TIP3    H1 6291   2.235   3.437   1.675  0.0098 -0.9496  1.4574
 2095TIP3    H2 6292   2.236   3.582   1.720 -0.5969  0.4388 -2.5961
 2096TIP3   OH2 6293   1.229   2.535   5.007 -0.0259 -0.2787 -0.2499
 2096TIP3    H1 6294   1.153   2.593   5.005  0.5381  0.4415 -1.1533
 2096TIP3    H2 6295   1.223   2.492   5.092  0.5823  2.5173  1.3260
 2097TIP3   OH2 6296   3.203   4.908   4.448  0.0421 -0.4556  0.5478
 2097TIP3    H1 6297   3.267   4.848   4.487  1.1880  0.8342  0.7372
 2097TIP3    H2 6298   3.247   4.942   4.370 -1.3781 -1.3495 -0.6902
 2098TIP3   OH2 6299   2.687   0.818   5.180  0.5627  0.5901  0.1806
 2098TIP3    H1 6300   2.727   0.749   5.232  0.2180  1.4574  1.6563
 2098TIP3    H2 6301   2.641   0.772   5.109  1.1850 -0.6097  0.5363
 2099TIP3   OH2 6302   1.903   1.879   2.160 -0.3726  1.0329  0.2597
 2099TIP3    H1 6303   1.847   1.814   2.120 -0.8410  1.6031 -0.0198
 2099TIP3    H2 6304   1.988   1.835   2.170 -0.9885  0.0004  1.1590
 2100TIP3   OH2 6305   3.096   0.063   2.232 -0.1654 -0.3627  0.0424
 2100TIP3    H1 6306   3.014   0.013   2.226 -0.2735 -0.2047  0.2235
 2100TIP3    H2 6307   3.154   0.020   2.168 -0.0681 -1.0856  0.5971
 2101TIP3   OH2 6308   0.533   2.520   1.094 -0.7308  0.2657  0.0403
 2101TIP3    H1 6309   0.595   2.587   1.064 -0.8639  0.1983 -0.3856
 2101TIP3    H2 6310   0.449   2.564   1.097 -0.6135  0.4576  0.9697
 2102TIP3   OH2 6311   3.031   2.052   2.526  0.4435 -1.1952  0.6450
 2102TIP3    H1 6312   2.987   1.967   2.523 -1.0772 -0.4263 -0.9083
 2102TIP3    H2 6313   2.999   2.098   2.447  1.9846  0.4377  0.9129
 2103TIP3   OH2 6314   5.649   5.361   2.443 -0.1345  0.1161  0.1971
 2103TIP3    H1 6315   5.659   5.266   2.443 -1.7558 -0.0951  1.1242
 2103TIP3    H2 6316   5.714   5.392   2.380  0.2019 -1.6256 -0.3682
 2104TIP3   OH2 6317   4.382   2.431   1.966 -0.1506 -0.5418 -0.1275
 2104TIP3    H1 6318   4.475   2.423   1.987  0.9076 -1.3999 -4.1765
 2104TIP3    H2 6319   4.353   2.341   1.950 -0.7854 -0.0727 -1.8481
 2105TIP3   OH2 6320   5.847   0.358   1.815  0.1495 -0.1663 -0.4780
 2105TIP3    H1 6321   5.832   0.450   1.836 -0.1958 -0.3673  0.1782
 2105TIP3    H2 6322   5.905   0.326   1.884  0.1735 -0.4666 -0.6339
 2106TIP3   OH2 6323   1.395   4.852   3.560 -0.0522  0.1837  0.0394
 2106TIP3    H1 6324   1.389   4.806   3.644 -2.2243  0.9112  0.3592
 2106TIP3    H2 6325   1.317   4.908   3.558 -0.8809 -0.9019 -3.1157
 2107TIP3   OH2 6326   1.262   2.214   1.419  0.3099  0.3644  0.6392
 2107TIP3    H1 6327   1.191   2.153   1.398  0.5074 -0.4623  2.2330
 2107TIP3    H2 6328   1.218   2.289   1.458  0.2408  0.2389  0.8040
 2108TIP3   OH2 6329   0.055   1.874   3.445  0.2574  0.4356  0.4983
 2108TIP3    H1 6330   0.068   1.868   3.350  0.1170  0.3723  0.4826
 2108TIP3    H2 6331   0.032   1.965   3.460  0.4649  0.4891  0.4944
 2109TIP3   OH2 6332   1.546   3.313   3.138 -0.2131  0.4379 -0.5387
 2109TIP3    H1 6333   1.582   3.229   3.167 -1.2561  0.2836  0.3977
 2109TIP3    H2 6334   1.623   3.369   3.123  0.4598 -0.3989 -0.2800
 2110TIP3   OH2 6335   2.856   3.873   3.144 -0.6406 -0.0816 -0.3755
 2110TIP3    H1 6336   2.823   3.936   3.080 -2.2097  0.6572  1.0610
 2110TIP3    H2 6337   2.791   3.803   3.145 -0.5096 -0.1980  0.2308
 2111TIP3   OH2 6338   5.123   4.928   2.814  0.4790  0.0435  0.5155
 2111TIP3    H1 6339   5.101   4.858   2.751 -1.5820  0.5735  0.5586
 2111TIP3    H2 6340   5.112   4.887   2.900  1.6563 -0.2212  0.5522
 2112TIP3   OH2 6341   4.320   5.602   1.174 -0.9745 -0.2872 -0.4497
 2112TIP3    H1 6342   4.378   5.659   1.224 -0.2395 -0.6931 -0.8093
 2112TIP3    H2 6343   4.285   5.541   1.239  1.8370 -2.3745 -0.6436
 2113TIP3   OH2 6344   0.456   3.183   3.876  0.4272 -0.0903  0.1768
 2113TIP3    H1 6345   0.495   3.270   3.881 -0.6763  0.4032  0.5331
 2113TIP3    H2 6346   0.530   3.123   3.889  0.6264  0.8015  5.4285
 2114TIP3   OH2 6347   0.706   1.094   2.734 -0.0203  0.0586  0.2432
 2114TIP3    H1 6348   0.789   1.051   2.713 -0.6010 -0.3193 -1.4112
 2114TIP3    H2 6349   0.725   1.188   2.731  0.4354 -0.0326  0.2924
 2115TIP3   OH2 6350   1.785   1.742   1.297  0.0729 -0.4667  0.1039
 2115TIP3    H1 6351   1.771   1.687   1.220 -0.5316 -0.4295  0.1769
 2115TIP3    H2 6352   1.696   1.760   1.329 -0.1865  3.9484 -2.2878
 2116TIP3   OH2 6353   0.806   0.096   3.006 -0.6047 -0.2707 -0.1786
 2116TIP3    H1 6354   0.846   0.077   2.922 -0.7110 -0.7881 -0.1140
 2116TIP3    H2 6355   0.872   0.071   3.071 -1.5359 -2.5736 -0.0063
 2117TIP3   OH2 6356   1.160   0.366   1.170 -0.2365 -0.4165  0.3796
 2117TIP3    H1 6357   1.228   0.310   1.134 -0.5898 -0.4951 -0.1803
 2117TIP3    H2 6358   1.096   0.374   1.099  0.2745  1.5019  0.0922
 2118TIP3   OH2 6359   1.953   5.452   2.161  0.0670  0.4055  0.3807
 2118TIP3    H1 6360   1.882   5.395   2.190  0.3229 -0.0240  0.1701
 2118TIP3    H2 6361   2.027   5.429   2.217  0.5975 -0.5099 -0.6651
 2119TIP3   OH2 6362   0.403   4.180   1.165  0.2737 -0.0395  0.0041
 2119TIP3    H1 6363   0.452   4.140   1.093  0.1162  0.5605 -0.4432
 2119TIP3    H2 6364   0.330   4.120   1.180 -0.8688  0.8373 -1.7296
 2120TIP3   OH2 6365   2.928   1.256   0.486  0.0867  0.5007 -0.4462
 2120TIP3    H1 6366   2.841   1.230   0.516  0.7615  0.2626  1.4337
 2120TIP3    H2 6367   2.974   1.173   0.472 -0.5934  0.5365 -3.5981
 2121TIP3   OH2 6368   2.011   1.018   3.026  0.3703  0.3443  0.1375
 2121TIP3    H1 6369   1.980   0.963   3.097 -1.7040  0.7740 -0.3637
 2121TIP3    H2 6370   2.029   0.957   2.954  0.2755  0.1233  0.3015
 2122TIP3   OH2 6371   5.228   3.585   0.298  0.1912  0.2350 -0.6845
 2122TIP3    H1 6372   5.298   3.521   0.281  0.4002  0.1021  0.5741
 2122TIP3    H2 6373   5.261   3.638   0.370 -0.1639  1.5251 -1.4343
 2123TIP3   OH2 6374   4.444   2.651   0.995  0.4063  0.4293  0.3289
 2123TIP3    H1 6375   4.459   2.563   0.962 -0.8725  0.4423 -0.3471
 2123TIP3    H2 6376   4.515   2.666   1.057  0.7526 -0.9923  0.3009
 2124TIP3   OH2 6377   1.695   2.714   2.878 -0.1942  0.1925  0.1374
 2124TIP3    H1 6378   1.721   2.780   2.814  0.7300  0.3645  0.6711
 2124TIP3    H2 6379   1.700   2.631   2.831 -2.1477  0.5480 -0.7725
 2125TIP3   OH2 6380   1.114   2.517   2.145 -0.4297  0.4133  0.5730
 2125TIP3    H1 6381   1.056   2.578   2.191 -2.1116 -0.9839  0.4186
 2125TIP3    H2 6382   1.186   2.501   2.206 -1.6901 -0.0140  2.0064
 2126TIP3   OH2 6383   3.241   5.367   3.184 -0.5660  0.5131 -0.2225
 2126TIP3    H1 6384   3.226   5.283   3.228  0.5940 -0.1521 -1.0390
 2126TIP3    H2 6385   3.320   5.353   3.132 -1.3042  1.5902 -1.7079
 2127TIP3   OH2 6386   1.064   0.859   3.094  0.2166  0.0442 -0.1838
 2127TIP3    H1 6387   1.002   0.789   3.074  1.4034 -0.7205 -1.3534
 2127TIP3    H2 6388   1.054   0.875   3.188 -0.3985 -1.3732  0.0091
 2128TIP3   OH2 6389   0.337   3.919   2.498 -0.3974  0.5317  0.7659
 2128TIP3    H1 6390   0.351   3.892   2.588 -0.1251  0.3978  0.6825
 2128TIP3    H2 6391   0.244   3.944   2.495 -0.8153 -0.9346  0.7060
 2129TIP3   OH2 6392   5.325   5.970   2.946 -0.6029 -0.2190  0.2614
 2129TIP3    H1 6393   5.397   5.928   2.899 -0.3222 -0.4647  0.8864
 2129TIP3    H2 6394   5.291   6.035   2.886  0.0640 -0.1877 -0.0929
 2130TIP3   OH2 6395   2.738   3.114   3.260  0.5862  0.2569 -0.5135
 2130TIP3    H1 6396   2.647   3.144   3.252  0.1267 -1.4459 -2.4905
 2130TIP3    H2 6397   2.783   3.152   3.185  0.7282 -1.3237 -1.2771
 2131TIP3   OH2 6398   0.536   3.177   2.526  0.3651  0.8618  1.0739
 2131TIP3    H1 6399   0.561   3.102   2.579 -0.3526  0.1252  0.4012
 2131TIP3    H2 6400   0.503   3.241   2.589 -0.3644  0.0459  1.5484
 2132TIP3   OH2 6401   6.103   1.218   0.851 -0.8422  0.3830  0.1772
 2132TIP3    H1 6402   6.030   1.179   0.899 -0.7746  0.3813  0.2802
 2132TIP3    H2 6403   6.146   1.275   0.915  0.3415 -1.0087  0.6913
 2133TIP3   OH2 6404   1.751   4.939   0.989  0.2240 -0.7443  0.0687
 2133TIP3    H1 6405   1.737   4.955   1.082 -0.1323 -2.0233  0.2595
 2133TIP3    H2 6406   1.663   4.925   0.954  0.4659 -1.7599 -0.1550
 2134TIP3   OH2 6407   0.572   3.046   3.333  0.4571  0.3934  0.1113
 2134TIP3    H1 6408   0.523   3.033   3.414  1.2480 -0.6618  0.4455
 2134TIP3    H2 6409   0.586   3.141   3.328 -1.6978  0.7502 -0.0774
 2135TIP3   OH2 6410   3.813   5.432   4.536  0.2288  0.5779 -0.6438
 2135TIP3    H1 6411   3.897   5.475   4.550  0.8739 -0.6488 -0.5818
 2135TIP3    H2 6412   3.768   5.439   4.621  0.3692  1.0258 -0.6055
 2136TIP3   OH2 6413   2.634   5.886   1.998 -0.8423 -0.6073 -0.3700
 2136TIP3    H1 6414   2.562   5.847   2.047  0.4912 -0.8296  1.4861
 2136TIP3    H2 6415   2.598   5.969   1.965 -1.8928 -0.6270  0.6743
 2137TIP3   OH2 6416   5.843   5.489   5.179  0.3064  0.3680  0.7504
 2137TIP3    H1 6417   5.803   5.533   5.104  0.5885  1.6516  1.3284
 2137TIP3    H2 6418   5.842   5.396   5.156  0.2992  0.7342 -0.7935
 2138TIP3   OH2 6419   4.503   1.790   2.811 -1.2606 -0.4876  0.0310
 2138TIP3    H1 6420   4.502   1.863   2.872 -0.8879  1.2071 -1.8874
 2138TIP3    H2 6421   4.594   1.784   2.781 -1.2460 -1.8558  0.2566
 2139TIP3   OH2 6422   6.057   3.203   2.595 -0.2748  0.0476  0.4485
 2139TIP3    H1 6423   6.073   3.129   2.537 -1.8466 -0.8785  1.1578
 2139TIP3    H2 6424   6.118   3.190   2.668 -0.0131 -0.1094  0.2061
 2140TIP3   OH2 6425   0.671   0.409   4.785 -0.7535  0.0638 -0.5422
 2140TIP3    H1 6426   0.759   0.425   4.820 -1.5248  1.9099  0.6860
 2140TIP3    H2 6427   0.678   0.430   4.692  0.3374 -0.8317 -0.6855
 2141TIP3   OH2 6428   3.953   1.421   3.807 -0.3399 -0.2195  0.0514
 2141TIP3    H1 6429   3.891   1.348   3.806 -1.9775  1.0866 -1.7053
 2141TIP3    H2 6430   3.909   1.489   3.858 -0.2941  0.6423 -1.0188
 2142TIP3   OH2 6431   2.195   5.032   5.037 -0.8378 -0.4360 -0.9905
 2142TIP3    H1 6432   2.191   4.953   5.091  0.5585 -0.1053 -0.3472
 2142TIP3    H2 6433   2.197   4.999   4.947 -1.0408 -1.0891 -0.7649
 2143TIP3   OH2 6434   0.759   0.621   0.594  0.1824 -0.2223 -0.0157
 2143TIP3    H1 6435   0.743   0.676   0.671 -0.7054  0.9421 -1.0106
 2143TIP3    H2 6436   0.729   0.534   0.621  0.4638  0.0183  1.1558
 2144TIP3   OH2 6437   2.442   2.041   0.670  0.3383  0.4103  0.3298
 2144TIP3    H1 6438   2.379   2.083   0.612 -3.0265 -1.4952  2.2636
 2144TIP3    H2 6439   2.426   2.079   0.756  0.6717 -1.2766  1.1892
 2145TIP3   OH2 6440   5.269   5.005   0.921 -0.0747  0.2767 -0.3880
 2145TIP3    H1 6441   5.322   4.928   0.899  0.1801 -0.4077  2.2731
 2145TIP3    H2 6442   5.267   5.056   0.840  1.9456 -1.2523 -1.5132
 2146TIP3   OH2 6443   3.688   5.263  -0.030 -0.8437  0.1746 -0.3099
 2146TIP3    H1 6444   3.715   5.174  -0.009  0.3601  0.7386  0.6408
 2146TIP3    H2 6445   3.670   5.303   0.055  1.6087  1.7316 -0.4147
 2147TIP3   OH2 6446   1.804   0.714   4.312 -0.0518 -0.0262  0.2078
 2147TIP3    H1 6447   1.837   0.799   4.281  1.3960 -0.8476 -0.6159
 2147TIP3    H2 6448   1.760   0.734   4.394  2.4035  1.1978  1.3174
 2148TIP3   OH2 6449   2.321   0.370   1.328  0.3709 -0.2073 -0.5233
 2148TIP3    H1 6450   2.345   0.278   1.329 -0.4173 -0.4208  0.6552
 2148TIP3    H2 6451   2.226   0.371   1.344  0.6268  0.8488  1.2463
 2149TIP3   OH2 6452   6.218   1.469   0.309 -0.1333 -0.3301 -0.0056
 2149TIP3    H1 6453   6.291   1.522   0.341  0.7171 -1.5460  0.1342
 2149TIP3    H2 6454   6.173   1.526   0.247  1.1988  0.3154 -0.4328
 2150TIP3   OH2 6455   3.276   4.552   2.632  0.8638  0.3468 -0.7187
 2150TIP3    H1 6456   3.233   4.488   2.688  0.1689  1.2518 -0.1874
 2150TIP3    H2 6457   3.244   4.531   2.544  0.6543 -0.0372 -0.5543
 2151TIP3   OH2 6458   5.721   2.157   3.183  0.4170 -0.3135  0.0406
 2151TIP3    H1 6459   5.713   2.175   3.276 -0.3381 -0.0070 -0.0758
 2151TIP3    H2 6460   5.787   2.219   3.151  0.5769 -0.3291  0.3413
 2152TIP3   OH2 6461   3.890   4.850   3.715 -0.3341 -0.2378 -1.2410
 2152TIP3    H1 6462   3.862   4.905   3.642 -0.5012  1.8154  0.2754
 2152TIP3    H2 6463   3.986   4.846   3.707 -0.2003  1.3212 -0.7303
 2153TIP3   OH2 6464   2.695   3.926   1.205 -0.2055  0.3985  0.4889
 2153TIP3    H1 6465   2.611   3.959   1.175  0.1229  1.6854  0.9451
 2153TIP3    H2 6466   2.692   3.832   1.185 -1.6805  0.4450  0.3665
 2154TIP3   OH2 6467   5.993   1.386   1.188 -0.4396  0.0140 -0.0892
 2154TIP3    H1 6468   6.013   1.450   1.120  1.6590  0.2219  0.6624
 2154TIP3    H2 6469   5.962   1.437   1.262  0.2386  0.0904  0.1507
 2155TIP3   OH2 6470   4.190   2.006   4.219  0.0357  0.7342 -0.2509
 2155TIP3    H1 6471   4.265   2.039   4.170  0.5372 -0.5727 -0.4115
 2155TIP3    H2 6472   4.115   2.055   4.186  0.5237  0.6039 -1.5987
 2156TIP3   OH2 6473   3.310   0.622   2.980 -0.1513  0.4184 -0.6286
 2156TIP3    H1 6474   3.343   0.580   2.901  0.4908  0.6080 -0.4618
 2156TIP3    H2 6475   3.301   0.550   3.043  3.2294  0.7660  0.4505
 2157TIP3   OH2 6476   1.132   5.717   1.479 -0.1833 -0.0021 -0.7215
 2157TIP3    H1 6477   1.054   5.705   1.425  0.0421 -0.0209 -1.0463
 2157TIP3    H2 6478   1.165   5.629   1.495 -1.2357 -0.1336  0.9310
 2158TIP3   OH2 6479   4.136   3.236   3.615 -0.1258  0.0388 -0.7110
 2158TIP3    H1 6480   4.069   3.265   3.677  0.7325  1.3559 -0.3638
 2158TIP3    H2 6481   4.087   3.215   3.535 -1.3700 -2.6092  0.6302
 2159TIP3   OH2 6482   1.663   1.191   2.993 -0.3298  0.1824  0.6719
 2159TIP3    H1 6483   1.723   1.261   3.018 -1.3624  0.6185  2.0404
 2159TIP3    H2 6484   1.666   1.190   2.897  0.9078  1.0120  0.6845
 2160TIP3   OH2 6485   5.167   5.691   3.930 -0.4683  0.2674  0.1069
 2160TIP3    H1 6486   5.197   5.620   3.987  1.6201 -1.2268 -2.6016
 2160TIP3    H2 6487   5.205   5.770   3.968  2.4701 -0.9115 -0.1191
 2161TIP3   OH2 6488   2.124   2.539   0.986 -0.0284  0.5320 -0.4048
 2161TIP3    H1 6489   2.180   2.617   0.980  0.2797  0.3361 -0.1354
 2161TIP3    H2 6490   2.150   2.485   0.912  0.6518  0.1164  0.1253
 2162TIP3   OH2 6491   2.945   0.842   4.418 -0.0074  0.2115 -0.0719
 2162TIP3    H1 6492   2.944   0.850   4.323  1.2116 -1.3498 -0.2585
 2162TIP3    H2 6493   2.952   0.932   4.450 -3.2549  1.0540 -1.3042
 2163TIP3   OH2 6494   3.090   5.705   1.838 -0.0984  0.0598 -0.0881
 2163TIP3    H1 6495   3.072   5.620   1.798  0.3157 -0.1567  0.1703
 2163TIP3    H2 6496   3.059   5.696   1.928 -0.8862  0.4924 -0.3125
 2164TIP3   OH2 6497   2.697   3.757   2.870 -0.0050  0.4270 -0.1040
 2164TIP3    H1 6498   2.723   3.679   2.821  0.1588  0.1540  0.4099
 2164TIP3    H2 6499   2.758   3.825   2.841 -0.1440  0.3664 -0.5490
 2165TIP3   OH2 6500   1.411   1.213   3.115  0.2284  0.1350 -0.0916
 2165TIP3    H1 6501   1.495   1.212   3.070  0.3538  0.9114  0.1182
 2165TIP3    H2 6502   1.393   1.120   3.133  0.9073 -0.0583 -0.3658
 2166TIP3   OH2 6503   1.368   2.412   2.732  0.9486  0.4011 -0.2773
 2166TIP3    H1 6504   1.361   2.433   2.639  0.0191 -0.3486 -0.3928
 2166TIP3    H2 6505   1.370   2.316   2.735  0.4702  0.4048  0.4931
 2167TIP3   OH2 6506   3.973   2.063   0.799  0.3530  0.9594  0.5133
 2167TIP3    H1 6507   3.996   2.102   0.715  1.8021  1.2690  1.0133
 2167TIP3    H2 6508   4.018   2.118   0.864  0.7758 -0.3345  1.3619
 2168TIP3   OH2 6509   5.111   0.874   1.394  0.3372 -0.7291 -0.0034
 2168TIP3    H1 6510   5.018   0.895   1.407  0.5387  0.7583 -0.8356
 2168TIP3    H2 6511   5.126   0.799   1.451 -0.9161  0.1673  1.5944
 2169TIP3   OH2 6512   4.874   1.848   1.840 -0.1373 -0.0757 -0.2879
 2169TIP3    H1 6513   4.928   1.771   1.859 -0.3793 -0.1118  0.2839
 2169TIP3    H2 6514   4.876   1.899   1.921  0.4207  0.7751 -0.8123
 2170TIP3   OH2 6515   5.427   1.502   4.498 -0.0801  0.7485 -0.1379
 2170TIP3    H1 6516   5.462   1.508   4.587 -1.0458  0.4717  0.2697
 2170TIP3    H2 6517   5.333   1.485   4.509 -0.2352  0.8042 -1.2075
 2171TIP3   OH2 6518   1.320   1.046   2.481  0.9373 -0.1146  0.0854
 2171TIP3    H1 6519   1.337   1.074   2.571  1.9106  1.6008 -0.5759
 2171TIP3    H2 6520   1.368   0.964   2.472 -0.1767 -0.9730  1.4608
 2172TIP3   OH2 6521   1.677   5.428   3.441  0.0987  0.0341  0.1160
 2172TIP3    H1 6522   1.725   5.426   3.358  2.0395 -1.8500  1.1897
 2172TIP3    H2 6523   1.657   5.337   3.460 -2.8699  0.6302  0.4055
 2173TIP3   OH2 6524   0.646   3.882   4.905  0.2402 -0.2806  0.1609
 2173TIP3    H1 6525   0.589   3.959   4.894  0.0174 -0.5842 -0.8585
 2173TIP3    H2 6526   0.589   3.816   4.945 -0.7733 -1.2698 -2.6842
 2174TIP3   OH2 6527   2.307   1.521   0.714 -0.4492 -0.0025 -0.1913
 2174TIP3    H1 6528   2.257   1.466   0.775 -1.7382 -0.1283 -1.3081
 2174TIP3    H2 6529   2.332   1.597   0.766 -0.3950 -0.6951  0.8340
 2175TIP3   OH2 6530   1.145   2.211   3.729  0.1605 -0.0355  0.0239
 2175TIP3    H1 6531   1.165   2.284   3.670  0.3766 -0.0207  0.1136
 2175TIP3    H2 6532   1.209   2.143   3.704 -0.5575 -0.4921 -0.6055
 2176TIP3   OH2 6533   3.292   5.598   1.318  0.0635 -0.1202  0.1543
 2176TIP3    H1 6534   3.284   5.663   1.388 -1.2632  0.7174 -0.7239
 2176TIP3    H2 6535   3.237   5.525   1.347 -1.1337  0.5567 -0.3396
 2177TIP3   OH2 6536   1.132   3.389   3.577  0.3878 -0.6361  0.3162
 2177TIP3    H1 6537   1.186   3.428   3.646 -1.1318 -0.3252  1.3754
 2177TIP3    H2 6538   1.122   3.297   3.603 -0.5866 -0.4062  0.7969
 2178TIP3   OH2 6539   1.103   4.486   1.932 -0.2158 -0.2515 -0.1003
 2178TIP3    H1 6540   1.192   4.492   1.896 -0.4254  0.4018 -0.5309
 2178TIP3    H2 6541   1.058   4.564   1.898 -0.5684  0.1300  1.1858
 2179TIP3   OH2 6542   5.706   3.355   2.920 -0.0128  0.5256 -0.2232
 2179TIP3    H1 6543   5.763   3.298   2.867  0.6196  1.3335 -0.4322
 2179TIP3    H2 6544   5.638   3.297   2.952  1.4649 -0.6971  0.8494
 2180TIP3   OH2 6545   5.704   1.174   1.377  0.3687 -0.3407 -0.7581
 2180TIP3    H1 6546   5.612   1.162   1.356  0.0303  1.8680 -0.7597
 2180TIP3    H2 6547   5.751   1.134   1.304 -0.6023 -0.4459 -1.3415
 2181TIP3   OH2 6548   0.195   5.432   4.156  0.0549  0.1820  0.0018
 2181TIP3    H1 6549   0.112   5.480   4.158 -0.9162 -1.4099 -0.3398
 2181TIP3    H2 6550   0.240   5.466   4.079 -0.5865  0.5956 -0.2028
 2182TIP3   OH2 6551   0.005   5.446   2.888 -0.0030 -0.1054  0.1311
 2182TIP3    H1 6552   0.039   5.534   2.876 -1.5756  0.7264  1.3570
 2182TIP3    H2 6553   0.046   5.395   2.818  2.1925  1.1999  0.3742
 2183TIP3   OH2 6554   0.365   4.631   3.651  0.3625 -0.4836  0.2653
 2183TIP3    H1 6555   0.383   4.668   3.565  0.8113  0.7949  0.8828
 2183TIP3    H2 6556   0.401   4.542   3.647  2.4377  0.3210 -0.1529
 2184TIP3   OH2 6557   1.240   4.078   3.504  0.0504 -0.0624 -0.1631
 2184TIP3    H1 6558   1.170   4.029   3.462  3.0547 -3.2957 -1.9262
 2184TIP3    H2 6559   1.264   4.026   3.581  0.6411  0.9239  0.3539
 2185TIP3   OH2 6560   5.402   3.727   3.814  0.2372  0.4417 -0.0472
 2185TIP3    H1 6561   5.482   3.769   3.845 -0.2933  1.6397 -0.2648
 2185TIP3    H2 6562   5.429   3.679   3.736  1.0124 -0.3012  0.6566
 2186TIP3   OH2 6563   5.995   2.025   2.094  0.2373 -0.2449 -0.0690
 2186TIP3    H1 6564   6.081   2.014   2.053  0.4417  0.6772  0.0973
 2186TIP3    H2 6565   5.943   2.072   2.029 -1.2789 -3.6787 -1.6348
 2187TIP3   OH2 6566   3.582   2.602   3.795 -0.2861  0.2667 -0.3047
 2187TIP3    H1 6567   3.666   2.581   3.837 -1.1729  0.5914  1.7723
 2187TIP3    H2 6568   3.605   2.659   3.722  1.2987  0.5335  0.3583
 2188TIP3   OH2 6569   6.190   4.536   2.847  0.3309  0.1686  0.0378
 2188TIP3    H1 6570   6.100   4.513   2.828 -0.0239  1.5226 -0.0414
 2188TIP3    H2 6571   6.230   4.551   2.761  1.3256 -2.6468 -0.1068
 2189TIP3   OH2 6572   2.531   1.092   2.495  0.6540 -0.2760  0.0505
 2189TIP3    H1 6573   2.606   1.097   2.436  2.5055 -0.7328  2.1933
 2189TIP3    H2 6574   2.569   1.064   2.579 -2.3205 -3.4910  0.5314
 2190TIP3   OH2 6575   3.670   1.487   1.212 -0.1596 -0.5662  0.2799
 2190TIP3    H1 6576   3.655   1.522   1.124 -0.0091 -2.8935 -0.7405
 2190TIP3    H2 6577   3.586   1.449   1.238 -0.0344 -0.4537  0.8757
 2191TIP3   OH2 6578   5.444   2.954   5.140  0.1189 -0.2190 -0.2591
 2191TIP3    H1 6579   5.363   2.943   5.089  0.7504 -0.0878 -1.3185
 2191TIP3    H2 6580   5.502   3.003   5.082  0.1547  1.7593  1.3667
 2192TIP3   OH2 6581   3.710   1.219   5.137 -0.2148 -0.7305  0.0618
 2192TIP3    H1 6582   3.781   1.282   5.126 -1.0419  0.5189  1.4517
 2192TIP3    H2 6583   3.641   1.250   5.079  0.0903 -1.5365 -0.7537
 2193TIP3   OH2 6584   1.654   1.031   3.279  0.6856  0.2137 -0.5231
 2193TIP3    H1 6585   1.659   1.127   3.276 -0.6893  0.3152 -0.1354
 2193TIP3    H2 6586   1.693   1.003   3.196 -1.5098  1.2512 -2.0042
 2194TIP3   OH2 6587   1.958   3.573   0.603  0.0071 -0.3086  0.5554
 2194TIP3    H1 6588   1.909   3.647   0.638 -0.7355 -0.6295  0.2173
 2194TIP3    H2 6589   2.045   3.608   0.584  0.1310  0.1052  1.7949
 2195TIP3   OH2 6590   1.805   3.848   4.506 -0.4208  0.0442  0.3164
 2195TIP3    H1 6591   1.728   3.801   4.475 -1.1081  1.8153 -0.8346
 2195TIP3    H2 6592   1.867   3.845   4.433 -0.8707  1.6968 -0.1842
 2196TIP3   OH2 6593   3.788   5.236   1.167 -0.8579 -0.0575  0.3917
 2196TIP3    H1 6594   3.721   5.185   1.212 -0.8212  0.7737  1.4266
 2196TIP3    H2 6595   3.870   5.192   1.191 -1.0816 -2.9908 -3.3435
 2197TIP3   OH2 6596   6.083   2.284   4.955 -0.0771  0.0458 -0.0308
 2197TIP3    H1 6597   6.096   2.199   4.996  1.0898  0.0467 -0.3583
 2197TIP3    H2 6598   6.125   2.346   5.014 -2.1368  0.6073  0.9286
 2198TIP3   OH2 6599   1.434   3.101   2.814 -0.5156  0.2728  0.1880
 2198TIP3    H1 6600   1.404   3.181   2.857 -1.6263 -1.1762  2.3039
 2198TIP3    H2 6601   1.366   3.082   2.749 -1.0857  0.2216  0.7888
 2199TIP3   OH2 6602   3.473   5.211   3.297  0.4718  0.2910  0.4643
 2199TIP3    H1 6603   3.383   5.233   3.319  0.7239  0.5692  1.2293
 2199TIP3    H2 6604   3.526   5.269   3.350  1.1070  0.3217 -0.1881
 2200TIP3   OH2 6605   5.923   4.764   5.112 -0.2120  0.0337  0.2037
 2200TIP3    H1 6606   5.958   4.720   5.035 -0.4009  0.2452 -0.0033
 2200TIP3    H2 6607   5.859   4.826   5.077 -1.5207 -1.0134  0.6244
 2201TIP3   OH2 6608   1.197   4.883   1.900 -0.4826  0.7518  0.1697
 2201TIP3    H1 6609   1.147   4.813   1.859 -0.1010  0.9409 -0.6324
 2201TIP3    H2 6610   1.132   4.929   1.954 -0.6158 -0.5311  1.1439
 2202TIP3   OH2 6611   3.650   0.117   3.197  0.0109  0.1749 -0.0484
 2202TIP3    H1 6612   3.622   0.079   3.113  1.1945  1.6533 -1.1698
 2202TIP3    H2 6613   3.665   0.210   3.177 -0.2751  0.6909  1.9675
 2203TIP3   OH2 6614   0.474   5.083   3.262  0.9109 -0.4226 -0.1742
 2203TIP3    H1 6615   0.497   5.025   3.189  0.4677  0.7341 -1.2592
 2203TIP3    H2 6616   0.442   5.163   3.220 -3.4857 -1.2267  1.1867
 2204TIP3   OH2 6617   0.539   5.094   0.629  0.1244  0.5051  0.3086
 2204TIP3    H1 6618   0.572   5.029   0.691 -0.4109  0.1389  0.2140
 2204TIP3    H2 6619   0.445   5.078   0.625  0.1061  0.7493 -0.3368
 2205TIP3   OH2 6620   5.296   0.013   3.438  0.6732  0.0736 -0.0374
 2205TIP3    H1 6621   5.244   0.092   3.427  0.0322 -0.3796 -0.3237
 2205TIP3    H2 6622   5.337  -0.002   3.353  2.2673  1.0937  0.5027
 2206TIP3   OH2 6623   3.932   4.443   2.193  0.4380  0.0235 -0.2583
 2206TIP3    H1 6624   3.866   4.496   2.149  0.0132 -1.6082 -1.6974
 2206TIP3    H2 6625   3.978   4.504   2.251 -0.5037  1.7656 -1.2795
 2207TIP3   OH2 6626   4.608   0.118   4.587  0.0980  0.1063  0.3662
 2207TIP3    H1 6627   4.577   0.074   4.509 -0.8308  0.5346  0.4818
 2207TIP3    H2 6628   4.582   0.209   4.575  2.2264  0.7323 -0.0020
 2208TIP3   OH2 6629   5.161   5.475   2.033 -0.0149 -0.1359 -0.0974
 2208TIP3    H1 6630   5.115   5.395   2.058 -3.2337  1.6017  0.0346
 2208TIP3    H2 6631   5.185   5.515   2.116 -3.0614  1.4422  0.1589
 2209TIP3   OH2 6632   1.118   3.869   4.093 -1.0925  0.4228  0.2549
 2209TIP3    H1 6633   1.181   3.908   4.154  0.1027 -0.4184 -0.4150
 2209TIP3    H2 6634   1.159   3.787   4.066 -1.1663  1.1681 -2.3572
 2210TIP3   OH2 6635   4.793   4.953   1.258  0.0351 -0.5816  0.5384
 2210TIP3    H1 6636   4.841   5.023   1.304  0.2879  0.8619 -1.7365
 2210TIP3    H2 6637   4.702   4.966   1.283  0.2111 -0.1445  0.9803
 2211TIP3   OH2 6638   0.303   2.933   4.893 -0.9657  0.1999 -0.0295
 2211TIP3    H1 6639   0.353   2.914   4.813 -0.2051 -0.1337  0.5176
 2211TIP3    H2 6640   0.248   3.007   4.869 -0.4231  0.3888 -0.7423
 2212TIP3   OH2 6641   5.722   5.615   2.087 -0.0295  0.0956  0.1369
 2212TIP3    H1 6642   5.676   5.532   2.078 -1.1842  0.3760  2.6033
 2212TIP3    H2 6643   5.659   5.680   2.056  0.7644  0.1028 -1.5210
 2213TIP3   OH2 6644   3.247   4.918   3.839 -0.0134 -0.0274 -0.1868
 2213TIP3    H1 6645   3.204   4.900   3.923 -2.2949  1.8029 -0.8728
 2213TIP3    H2 6646   3.270   4.831   3.806 -2.9616 -1.1839  0.4249
 2214TIP3   OH2 6647   1.908   4.730   0.916 -0.0752  0.0016 -0.3714
 2214TIP3    H1 6648   1.871   4.691   0.995  1.3540  0.5911  0.6389
 2214TIP3    H2 6649   1.851   4.804   0.897  0.4373  0.8107  1.0726
 2215TIP3   OH2 6650   2.942   4.037   3.551 -0.3072  0.0022 -0.4525
 2215TIP3    H1 6651   2.871   4.080   3.599 -0.0609  0.4422 -0.4721
 2215TIP3    H2 6652   2.923   4.056   3.459  1.3567  2.6490 -0.3743
 2216TIP3   OH2 6653   1.326   0.939   3.138 -0.2369  0.0860 -0.5643
 2216TIP3    H1 6654   1.367   0.860   3.172 -1.6603 -0.4712 -0.0619
 2216TIP3    H2 6655   1.235   0.914   3.123 -0.7567  1.6848 -0.2352
 2217TIP3   OH2 6656   1.161   2.659   4.048  0.3346  0.2491  0.8520
 2217TIP3    H1 6657   1.231   2.599   4.022  0.6905  0.1008  2.0944
 2217TIP3    H2 6658   1.139   2.706   3.967  0.6860 -0.8896  0.0594
 2218TIP3   OH2 6659   6.247   1.378   1.036  0.1963  0.4149  0.2040
 2218TIP3    H1 6660   6.250   1.407   1.127 -0.2032 -1.7386  0.9488
 2218TIP3    H2 6661   6.338   1.379   1.007  0.7026 -1.5422  1.5608
 2219TIP3   OH2 6662   6.131   2.715   0.381  0.6842 -0.1128  0.2436
 2219TIP3    H1 6663   6.068   2.683   0.316  0.3301 -0.1636  0.6057
 2219TIP3    H2 6664   6.142   2.642   0.442  1.7618 -0.4133 -0.2926
 2220TIP3   OH2 6665   5.850   4.702   2.941 -0.0471  0.1690 -0.3031
 2220TIP3    H1 6666   5.887   4.768   2.999 -0.8001  0.1997  0.1591
 2220TIP3    H2 6667   5.765   4.680   2.980 -0.2307 -0.3695 -0.9722
 2221TIP3   OH2 6668   0.853   0.892   5.092 -0.1113  0.0079 -0.2976
 2221TIP3    H1 6669   0.770   0.899   5.138  0.0695  0.1178  0.0190
 2221TIP3    H2 6670   0.836   0.831   5.020 -0.0990 -1.0926  0.6099
 2222TIP3   OH2 6671   6.198   4.607   0.163  0.2801  0.8328 -0.4052
 2222TIP3    H1 6672   6.113   4.650   0.174 -0.3120  0.2736 -2.3745
 2222TIP3    H2 6673   6.184   4.518   0.193 -1.4351 -0.8021 -5.0506
 2223TIP3   OH2 6674   5.062   5.870   2.576  0.0836 -0.2363  0.2258
 2223TIP3    H1 6675   4.997   5.809   2.541  1.3822 -1.2388 -0.5323
 2223TIP3    H2 6676   5.143   5.820   2.579  0.7270  0.8133  1.6820
 2224TIP3   OH2 6677   3.260   4.411   4.223 -0.9911  0.5202 -0.5638
 2224TIP3    H1 6678   3.268   4.496   4.267  0.0459  0.0426  0.2060
 2224TIP3    H2 6679   3.350   4.383   4.209 -1.2664 -1.3793  1.0401
 2225TIP3   OH2 6680   2.688   2.384   2.706  0.3065  0.2161 -0.2205
 2225TIP3    H1 6681   2.648   2.471   2.708  0.4083  0.2521  0.5428
 2225TIP3    H2 6682   2.687   2.355   2.798  0.7302 -0.3765 -0.3970
 2226TIP3   OH2 6683   2.682   3.379   1.388  0.1695 -0.0141 -0.2199
 2226TIP3    H1 6684   2.666   3.371   1.294 -1.9694  2.8254 -0.2172
 2226TIP3    H2 6685   2.775   3.395   1.395  0.3187  0.0548 -1.8800
 2227TIP3   OH2 6686   2.074   3.086   0.495 -0.2333 -0.1229 -0.0077
 2227TIP3    H1 6687   2.093   2.994   0.481 -0.7899 -0.1456 -0.7265
 2227TIP3    H2 6688   2.016   3.088   0.571  0.8317 -0.2347  0.8330
 2228TIP3   OH2 6689   4.163   0.260   4.109 -0.1475  0.8718 -0.0306
 2228TIP3    H1 6690   4.204   0.317   4.175  0.4002 -1.0718  1.4219
 2228TIP3    H2 6691   4.229   0.192   4.092 -1.8508 -1.0966  0.7028
 2229TIP3   OH2 6692   1.220   0.656   4.551 -0.1866  0.1948 -0.2474
 2229TIP3    H1 6693   1.237   0.671   4.644 -0.7023 -0.9875  0.0491
 2229TIP3    H2 6694   1.301   0.681   4.507 -0.2974  1.8163  0.3982
 2230TIP3   OH2 6695   2.108   0.704   1.445  0.4274 -0.1396 -0.0636
 2230TIP3    H1 6696   2.187   0.650   1.442  0.4326 -0.1813  0.6130
 2230TIP3    H2 6697   2.056   0.673   1.371  0.1956 -1.4662  0.6139
 2231TIP3   OH2 6698   6.044   3.347   4.122  0.1541 -0.0711 -0.6047
 2231TIP3    H1 6699   6.055   3.256   4.092  0.9935  0.2587 -1.3456
 2231TIP3    H2 6700   6.097   3.353   4.201  3.7898  0.8722 -2.8720
 2232TIP3   OH2 6701   1.512   2.862   1.164 -0.3883  0.2380  0.3477
 2232TIP3    H1 6702   1.468   2.911   1.095  1.4257  0.0529 -0.9892
 2232TIP3    H2 6703   1.540   2.781   1.123  1.3461  0.4224  1.0663
 2233TIP3   OH2 6704   1.558   4.484   3.012 -0.1601  0.1424 -0.9694
 2233TIP3    H1 6705   1.533   4.406   3.061  0.1239 -0.8781 -2.3797
 2233TIP3    H2 6706   1.585   4.451   2.927  0.7937  1.7156 -1.3171
 2234TIP3   OH2 6707   1.292   5.477   4.727  0.3651 -0.1802 -0.1751
 2234TIP3    H1 6708   1.279   5.449   4.818  0.5491 -1.4957 -0.5213
 2234TIP3    H2 6709   1.380   5.514   4.726  0.1220  0.4353  0.3037
 2235TIP3   OH2 6710   5.091   2.184   2.681 -0.4384 -0.2334 -0.0244
 2235TIP3    H1 6711   5.060   2.270   2.654  0.6293  0.2685  0.2676
 2235TIP3    H2 6712   5.012   2.133   2.699 -1.0770  0.6851 -0.1998
 2236TIP3   OH2 6713   1.045   2.137   4.365 -0.3316  0.1782  0.0441
 2236TIP3    H1 6714   1.004   2.202   4.422  0.4418 -0.4827  1.4168
 2236TIP3    H2 6715   1.139   2.143   4.385 -0.3750 -2.7558  1.8894
 2237TIP3   OH2 6716   4.957   1.598   2.352 -0.1838 -0.1309 -0.3919
 2237TIP3    H1 6717   5.011   1.622   2.427  0.6256  1.6658 -1.4812
 2237TIP3    H2 6718   4.870   1.631   2.373 -0.1222 -0.2445  0.0408
 2238TIP3   OH2 6719   0.339   2.584   2.941 -0.0155  0.0121 -0.0526
 2238TIP3    H1 6720   0.349   2.501   2.894  1.1099 -0.1935  0.5020
 2238TIP3    H2 6721   0.331   2.558   3.033 -2.1380  0.4065 -0.0696
 2239TIP3   OH2 6722   1.068   4.832   4.990  0.0642 -0.3809  0.0950
 2239TIP3    H1 6723   1.053   4.925   5.009  0.7437  0.3331 -2.4865
 2239TIP3    H2 6724   1.016   4.786   5.056 -0.4014  1.8152  1.3753
 2240TIP3   OH2 6725   0.615   4.373   4.274 -0.7951 -0.2666  0.1774
 2240TIP3    H1 6726   0.678   4.306   4.301  0.3921 -0.2912 -2.4225
 2240TIP3    H2 6727   0.564   4.391   4.354  0.7030 -2.1889  1.6669
 2241TIP3   OH2 6728   4.524   1.855   3.504  0.3663 -0.0761 -0.3065
 2241TIP3    H1 6729   4.473   1.889   3.430 -1.2459  0.0229  0.8037
 2241TIP3    H2 6730   4.614   1.859   3.474 -0.1056  1.5009 -1.6722
 2242TIP3   OH2 6731   2.414   2.081   0.947  0.0154 -0.2763 -0.1525
 2242TIP3    H1 6732   2.417   2.095   1.042  0.8651 -0.2969 -0.1719
 2242TIP3    H2 6733   2.475   2.009   0.931 -0.6975 -0.7893 -0.6327
 2243TIP3   OH2 6734   2.773   4.467   3.359 -0.3408  0.1912 -0.0189
 2243TIP3    H1 6735   2.727   4.428   3.285  0.4514 -1.6053  0.3802
 2243TIP3    H2 6736   2.855   4.499   3.322  0.1424 -0.8835  0.0784
 2244TIP3   OH2 6737   1.649   0.164   2.418  0.4301  0.7957 -0.2619
 2244TIP3    H1 6738   1.676   0.256   2.424  0.6644  0.8249 -1.3956
 2244TIP3    H2 6739   1.684   0.135   2.333  0.5517 -0.4056  0.1802
 2245TIP3   OH2 6740   1.929   4.301   0.716  0.5588  0.4357  0.1082
 2245TIP3    H1 6741   1.869   4.344   0.655 -0.1944  1.9338  1.8026
 2245TIP3    H2 6742   1.938   4.212   0.682 -0.0338  1.1208 -1.9951
 2246TIP3   OH2 6743   2.745   5.445   2.625  0.1007  0.3568  0.3823
 2246TIP3    H1 6744   2.659   5.464   2.587  0.3069 -2.4435 -1.7883
 2246TIP3    H2 6745   2.806   5.499   2.575  0.2674 -2.6525 -3.0491
 2247TIP3   OH2 6746   6.242   3.710   4.370 -0.3311 -0.4557  0.2235
 2247TIP3    H1 6747   6.228   3.771   4.297 -0.1854 -2.6256 -1.7222
 2247TIP3    H2 6748   6.155   3.702   4.411 -0.6009  0.1545 -0.2107
 2248TIP3   OH2 6749   4.290   4.981   3.094 -0.3675 -0.7523  0.2146
 2248TIP3    H1 6750   4.310   4.900   3.140  1.0159 -1.2211 -1.1136
 2248TIP3    H2 6751   4.368   4.998   3.041 -1.0104  0.9383 -0.2660
 2249TIP3   OH2 6752   0.475   4.145   2.083  0.0909  0.1106 -0.2091
 2249TIP3    H1 6753   0.479   4.216   2.146  1.6188 -0.3618  0.2635
 2249TIP3    H2 6754   0.527   4.175   2.008  0.1289 -0.2171 -0.3171
 2250TIP3   OH2 6755   4.248   5.037   4.566  0.4615  0.3648  0.1730
 2250TIP3    H1 6756   4.339   5.012   4.583 -0.0276 -1.1806  0.7143
 2250TIP3    H2 6757   4.203   5.021   4.649 -0.4108  0.6570 -0.2289
 2251TIP3   OH2 6758   5.389   0.610   0.294  0.1073  0.2283  0.2929
 2251TIP3    H1 6759   5.387   0.659   0.213  1.0305 -1.2106 -0.6429
 2251TIP3    H2 6760   5.321   0.544   0.284 -1.1827  1.2922  1.5695
 2252TIP3   OH2 6761   2.554   0.565   5.092  0.0149  0.3162  0.0283
 2252TIP3    H1 6762   2.461   0.544   5.095  0.2076 -0.5328  0.2910
 2252TIP3    H2 6763   2.575   0.566   4.998 -0.3638  1.0066 -0.0519
 2253TIP3   OH2 6764   2.333   5.287   1.150 -0.5006  0.0424  0.0870
 2253TIP3    H1 6765   2.284   5.263   1.072 -0.4645 -0.2730  0.1602
 2253TIP3    H2 6766   2.276   5.264   1.223  0.0964 -1.1666  0.2047
 2254TIP3   OH2 6767   0.942   3.354   1.319  0.6779  0.1619 -0.1772
 2254TIP3    H1 6768   0.925   3.288   1.251 -0.6402  1.6619 -1.3957
 2254TIP3    H2 6769   0.973   3.304   1.394 -1.2085 -1.9649 -0.7038
 2255TIP3   OH2 6770   2.441   0.121   1.353  0.4365 -0.3380 -0.1594
 2255TIP3    H1 6771   2.367   0.093   1.407  0.6337  1.4912  1.1616
 2255TIP3    H2 6772   2.436   0.067   1.275 -1.8053 -0.8352  0.2663
 2256TIP3   OH2 6773   5.617   4.561   3.064  0.0997 -0.1221 -0.1390
 2256TIP3    H1 6774   5.566   4.634   3.031 -0.5795 -0.1929  0.7245
 2256TIP3    H2 6775   5.574   4.483   3.028 -0.3875 -0.1797  0.5507
 2257TIP3   OH2 6776   2.157   1.035   3.712  0.0651 -0.1786 -0.2489
 2257TIP3    H1 6777   2.144   0.992   3.628  2.3439 -0.9620 -0.2551
 2257TIP3    H2 6778   2.145   0.966   3.777 -0.9293  0.2534  0.0428
 2258TIP3   OH2 6779   6.330   3.262   3.223 -0.8329  0.1241  0.5533
 2258TIP3    H1 6780   6.395   3.308   3.170  0.3212 -0.6673  1.2213
 2258TIP3    H2 6781   6.252   3.257   3.168 -0.8114  2.3127  0.2368
 2259TIP3   OH2 6782   5.167   2.810   1.496  0.0078  0.3776 -0.0903
 2259TIP3    H1 6783   5.094   2.749   1.483 -0.3040  0.9761 -1.3607
 2259TIP3    H2 6784   5.213   2.777   1.573 -0.9260 -0.6892  0.0359
 2260TIP3   OH2 6785   5.408   0.373   2.187  0.4380  0.3390 -0.7260
 2260TIP3    H1 6786   5.497   0.391   2.157  0.0431  2.5164 -0.7816
 2260TIP3    H2 6787   5.354   0.377   2.108  0.2787 -1.1749 -0.7247
 2261TIP3   OH2 6788   3.263   0.329   4.977 -0.6403  0.3484  0.1033
 2261TIP3    H1 6789   3.334   0.344   5.040 -1.0939  1.6982  0.3262
 2261TIP3    H2 6790   3.220   0.414   4.968 -1.2168 -0.0530 -1.2786
 2262TIP3   OH2 6791   1.589   2.484   1.116  0.2803  0.1463 -0.6059
 2262TIP3    H1 6792   1.621   2.395   1.098  1.7547 -0.2241  2.9493
 2262TIP3    H2 6793   1.664   2.541   1.095 -0.0049  0.3378 -1.1041
 2263TIP3   OH2 6794   6.107   5.914   3.171  0.2072 -0.1326 -0.2580
 2263TIP3    H1 6795   6.125   5.917   3.265  1.3105 -0.9287 -0.4235
 2263TIP3    H2 6796   6.176   5.966   3.132 -1.1904  1.5884 -0.5474
 2264TIP3   OH2 6797   2.624   5.540   2.966  0.2182  0.0754 -0.0993
 2264TIP3    H1 6798   2.569   5.595   2.911  0.8684  0.6528 -0.1821
 2264TIP3    H2 6799   2.636   5.459   2.916 -1.3580 -0.4756  0.3416
 2265TIP3   OH2 6800   4.083   1.653   4.478 -0.1913  0.0181  0.5780
 2265TIP3    H1 6801   4.056   1.740   4.450 -1.1447 -0.3106  0.4490
 2265TIP3    H2 6802   4.154   1.629   4.419 -2.6839 -1.0180 -2.2371
 2266TIP3   OH2 6803   3.937   4.662   1.379  0.2147  0.6374  0.0211
 2266TIP3    H1 6804   3.916   4.724   1.309 -0.3199 -0.0553 -0.4480
 2266TIP3    H2 6805   4.001   4.602   1.341 -0.4813 -0.0679 -0.0664
 2267TIP3   OH2 6806   0.222   4.191   5.030  0.5580 -0.1992 -0.1720
 2267TIP3    H1 6807   0.272   4.266   4.997  1.2559  0.0728  1.4120
 2267TIP3    H2 6808   0.131   4.221   5.028  0.8537  0.8438  0.7457
 2268TIP3   OH2 6809   5.731   4.851   0.182  0.7079 -0.3932  0.0160
 2268TIP3    H1 6810   5.657   4.793   0.195 -0.1927  0.8983  0.8011
 2268TIP3    H2 6811   5.693   4.934   0.153  2.0931 -0.7901 -3.5198
 2269TIP3   OH2 6812   6.221   4.602   1.000  0.0194  0.3714 -0.3303
 2269TIP3    H1 6813   6.243   4.509   1.012  1.1580  0.6552 -0.1551
 2269TIP3    H2 6814   6.128   4.601   0.976 -0.6444 -0.6672  1.9955
 2270TIP3   OH2 6815   0.267   5.325   2.040 -0.2092  0.4485 -0.1896
 2270TIP3    H1 6816   0.260   5.359   1.950  0.7735  2.3596  0.3991
 2270TIP3    H2 6817   0.297   5.400   2.091 -0.4974 -0.6756  1.7111
 2271TIP3   OH2 6818   2.196   5.299   2.187 -0.8187 -0.1951  0.2433
 2271TIP3    H1 6819   2.166   5.235   2.252 -1.3875 -0.0088  0.1709
 2271TIP3    H2 6820   2.291   5.295   2.191 -0.8492 -1.0879  0.2012
 2272TIP3   OH2 6821   6.200   0.602   0.196  0.9397  0.0764  0.6946
 2272TIP3    H1 6822   6.230   0.673   0.253 -0.5777  1.2392  0.0991
 2272TIP3    H2 6823   6.121   0.568   0.238  1.8240 -1.5316  1.1467
 2273TIP3   OH2 6824   3.208   2.391   2.968  0.0915  0.2782  0.4761
 2273TIP3    H1 6825   3.118   2.362   2.952  0.1593 -1.6021  2.9073
 2273TIP3    H2 6826   3.199   2.480   3.001 -0.8377  0.3036  0.1838
 2274TIP3   OH2 6827   4.998   5.133   3.351  0.1780 -0.8644  0.0032
 2274TIP3    H1 6828   5.055   5.088   3.289  1.3819  0.7468 -0.1277
 2274TIP3    H2 6829   4.988   5.072   3.424  2.6998 -0.9567  0.3472
 2275TIP3   OH2 6830   5.027   3.121   3.625  0.5074 -0.0506  0.1021
 2275TIP3    H1 6831   4.992   3.186   3.564  0.4147 -0.1980 -0.0025
 2275TIP3    H2 6832   4.949   3.085   3.668  0.5330 -0.3494 -0.1004
 2276TIP3   OH2 6833   0.106   4.603   4.959  0.5686  0.2543 -0.6319
 2276TIP3    H1 6834   0.148   4.689   4.962 -1.4387  1.2992 -0.6274
 2276TIP3    H2 6835   0.091   4.587   4.866 -0.3921  0.6299 -0.5547
 2277TIP3   OH2 6836   6.171   4.618   3.938 -0.0266  0.2355 -0.5879
 2277TIP3    H1 6837   6.100   4.564   3.905 -0.9641  1.2342 -0.2780
 2277TIP3    H2 6838   6.131   4.672   4.006  1.4442 -0.4634  0.8942
 2278TIP3   OH2 6839   0.715   3.706   2.304 -0.1078 -0.3666 -0.3870
 2278TIP3    H1 6840   0.670   3.757   2.371 -0.1431 -1.3079  0.3278
 2278TIP3    H2 6841   0.777   3.767   2.265  0.6400 -0.0595  1.2161
 2279TIP3   OH2 6842   0.915   2.769   2.881  0.5524  0.8347 -0.2040
 2279TIP3    H1 6843   0.830   2.727   2.893  0.6905  0.4374 -0.5768
 2279TIP3    H2 6844   0.955   2.722   2.807  1.5403  0.2838  0.6482
 2280TIP3   OH2 6845   3.502   4.085   0.110  0.2463  0.1167 -0.4416
 2280TIP3    H1 6846   3.417   4.043   0.117  0.2119  0.0156 -1.3490
 2280TIP3    H2 6847   3.542   4.046   0.032  1.2458 -0.0601  0.1386
 2281TIP3   OH2 6848   1.053   5.691   0.533  0.4141  0.0089 -0.3287
 2281TIP3    H1 6849   1.138   5.651   0.516  0.6802  1.0772 -1.6885
 2281TIP3    H2 6850   0.990   5.630   0.493  0.4630 -1.0053  1.0627
 2282TIP3   OH2 6851   4.729   3.030   2.752 -0.0149  0.3899 -0.5977
 2282TIP3    H1 6852   4.689   2.969   2.814 -0.5868  0.2493 -1.1001
 2282TIP3    H2 6853   4.678   3.111   2.762  0.3308  0.5864 -0.3985
 2283TIP3   OH2 6854   5.813   0.648   0.506  0.3780 -0.2606  0.3636
 2283TIP3    H1 6855   5.750   0.631   0.576 -0.3723  0.0630 -0.2320
 2283TIP3    H2 6856   5.761   0.651   0.426  1.0894  0.4511 -0.0808
 2284TIP3   OH2 6857   2.684   0.342   1.368 -0.5311 -0.1382  0.0950
 2284TIP3    H1 6858   2.750   0.288   1.412  0.4655  0.3748 -0.7142
 2284TIP3    H2 6859   2.665   0.294   1.287  1.0580  1.0983 -1.0909
 2285TIP3   OH2 6860   0.475   0.953   0.353  0.0475 -0.3322 -0.1896
 2285TIP3    H1 6861   0.430   0.922   0.431 -0.6994  0.4182 -0.3205
 2285TIP3    H2 6862   0.508   1.040   0.376  1.5447 -0.8978 -0.0580
 2286TIP3   OH2 6863   0.197   1.770   1.995  0.2775  0.4147  0.2889
 2286TIP3    H1 6864   0.172   1.769   2.087 -1.7946 -0.5610 -0.2057
 2286TIP3    H2 6865   0.284   1.731   1.992  1.2229  2.2153  1.9789
 2287TIP3   OH2 6866   0.403   4.313   0.777  0.3428 -0.2413 -0.1119
 2287TIP3    H1 6867   0.366   4.268   0.701  0.9250  1.2563 -1.3313
 2287TIP3    H2 6868   0.458   4.247   0.819  0.2036 -1.0273 -1.1250
 2288TIP3   OH2 6869   1.335   4.642   2.521  0.0027 -0.1880  0.3720
 2288TIP3    H1 6870   1.295   4.561   2.552 -0.2047 -0.2781 -0.1182
 2288TIP3    H2 6871   1.270   4.710   2.540  0.2141 -0.1237  0.8635
 2289TIP3   OH2 6872   6.011   4.314   3.433 -0.7911 -0.2669 -0.3832
 2289TIP3    H1 6873   6.047   4.253   3.499  0.7473 -1.1198 -1.9463
 2289TIP3    H2 6874   5.931   4.271   3.403  0.3642 -1.6731 -1.5854
 2290TIP3   OH2 6875   5.740   3.392   1.349  0.3383  0.2471 -0.7057
 2290TIP3    H1 6876   5.783   3.444   1.417 -1.5175  0.5287  0.3327
 2290TIP3    H2 6877   5.807   3.330   1.320  1.2133  0.1326  1.3713
 2291TIP3   OH2 6878   4.749   2.106   3.312  0.2363  0.5990  0.7642
 2291TIP3    H1 6879   4.759   2.022   3.356 -0.8218  0.4098  0.6776
 2291TIP3    H2 6880   4.772   2.171   3.378  1.7557  0.2349  0.6139
 2292TIP3   OH2 6881   4.227   4.573   1.156  0.0870 -0.2584 -0.3694
 2292TIP3    H1 6882   4.223   4.665   1.130 -0.5854 -0.5021 -1.1774
 2292TIP3    H2 6883   4.294   4.534   1.100  1.5228  0.0670  1.0785
 2293TIP3   OH2 6884   3.327   5.750   1.733 -0.5233 -1.0060  0.0453
 2293TIP3    H1 6885   3.330   5.833   1.686 -2.0212 -1.4279 -0.8689
 2293TIP3    H2 6886   3.237   5.745   1.767 -0.8096 -2.7006 -0.8242
 2294TIP3   OH2 6887   4.358   3.534   4.376 -0.1926  0.0196  0.5970
 2294TIP3    H1 6888   4.451   3.555   4.384  0.0332 -1.1554  1.4369
 2294TIP3    H2 6889   4.340   3.541   4.282  1.5272 -2.5945 -0.0610
 2295TIP3   OH2 6890   3.683   4.158   2.240 -0.0381 -0.3596 -0.1005
 2295TIP3    H1 6891   3.676   4.196   2.152  1.1286  0.5055  0.1689
 2295TIP3    H2 6892   3.771   4.182   2.270 -0.1462 -1.2809  1.0153
 2296TIP3   OH2 6893   2.894   3.622   0.041  0.0942 -0.0720  0.2995
 2296TIP3    H1 6894   2.869   3.677   0.116  3.9407  4.1369 -1.0410
 2296TIP3    H2 6895   2.833   3.648  -0.028  1.2422  1.9738 -0.0241
 2297TIP3   OH2 6896   5.784   2.609   1.200 -0.0007  0.6465 -0.4900
 2297TIP3    H1 6897   5.811   2.674   1.264  1.2285 -1.7411  1.6260
 2297TIP3    H2 6898   5.728   2.549   1.249  0.4481 -0.9251 -1.7830
 2298TIP3   OH2 6899   0.188   3.248   1.922 -0.5611  0.1782  0.0926
 2298TIP3    H1 6900   0.188   3.305   1.845 -0.9634  0.3480  0.2156
 2298TIP3    H2 6901   0.097   3.218   1.930 -0.8531  1.3248  1.3509
 2299TIP3   OH2 6902   5.900   4.810   2.000 -0.0470 -0.0395 -0.1295
 2299TIP3    H1 6903   5.947   4.806   2.083  0.6819  0.1503 -0.5235
 2299TIP3    H2 6904   5.838   4.737   2.004 -0.7059  0.5688  0.9829
 2300TIP3   OH2 6905   5.654   3.688   1.463 -0.3565 -0.0364 -0.1255
 2300TIP3    H1 6906   5.660   3.736   1.545  0.1217  0.4550 -0.4387
 2300TIP3    H2 6907   5.592   3.618   1.480 -2.0971  1.4508 -0.0148
 2301TIP3   OH2 6908   0.879   4.780   2.967  0.3042 -0.2456  0.0054
 2301TIP3    H1 6909   0.851   4.829   2.890  0.6718 -1.2474 -0.7889
 2301TIP3    H2 6910   0.858   4.837   3.041  1.3858  1.4240 -0.9167
 2302TIP3   OH2 6911   3.058   0.647   2.747 -0.8303  0.0681 -0.2527
 2302TIP3    H1 6912   2.989   0.582   2.736 -0.8407  0.1290 -0.5613
 2302TIP3    H2 6913   3.011   0.730   2.756 -0.8592 -0.0881  1.1823
 2303TIP3   OH2 6914   3.743   4.947   4.110 -0.0882 -0.3134  0.2490
 2303TIP3    H1 6915   3.681   5.004   4.065  0.6405 -0.7643 -1.4212
 2303TIP3    H2 6916   3.829   4.976   4.080  0.3285 -1.8305 -0.1501
 2304TIP3   OH2 6917   5.694   1.277   3.700  0.0360  0.1941  0.2280
 2304TIP3    H1 6918   5.760   1.216   3.667  0.3374 -0.0128  1.1685
 2304TIP3    H2 6919   5.656   1.316   3.622  1.1780  0.2106 -0.3436
 2305TIP3   OH2 6920   4.128   1.903   1.496  0.5098  0.5333  0.4604
 2305TIP3    H1 6921   4.168   1.900   1.583  1.1912 -1.3983  0.1457
 2305TIP3    H2 6922   4.187   1.851   1.441 -1.3618 -0.6977 -0.4894
 2306TIP3   OH2 6923   5.535   2.435   3.764  0.1716  0.1601 -0.7863
 2306TIP3    H1 6924   5.492   2.384   3.832  0.6310  0.4048 -0.3009
 2306TIP3    H2 6925   5.621   2.393   3.753 -0.7399 -1.3194 -2.8823
 2307TIP3   OH2 6926   2.403   2.579   0.419 -0.0852 -0.2499  0.5892
 2307TIP3    H1 6927   2.466   2.521   0.463  1.2625 -0.2894 -1.3109
 2307TIP3    H2 6928   2.454   2.626   0.354 -1.7359  0.9515  0.0878
 2308TIP3   OH2 6929   1.498   2.216   0.073 -0.6594 -0.3591  0.7634
 2308TIP3    H1 6930   1.481   2.277   0.000  0.3124 -0.5856  0.3301
 2308TIP3    H2 6931   1.594   2.209   0.076 -0.6766 -0.0720  2.3085
 2309TIP3   OH2 6932   2.955   3.410   1.435 -0.0494  0.4283  0.0261
 2309TIP3    H1 6933   2.993   3.436   1.352 -0.0659  0.6898  0.1002
 2309TIP3    H2 6934   2.944   3.492   1.484 -0.9948  0.3968 -0.1099
 2310TIP3   OH2 6935   4.630   0.293   3.666 -0.2241 -0.0369  0.5240
 2310TIP3    H1 6936   4.560   0.280   3.731 -0.5604 -1.5524 -0.0867
 2310TIP3    H2 6937   4.666   0.205   3.653  0.2678  0.3562 -0.8588
 2311TIP3   OH2 6938   5.797   1.468   2.943 -0.1653  0.0944  0.0964
 2311TIP3    H1 6939   5.804   1.399   2.878 -0.3740  0.2232 -0.0632
 2311TIP3    H2 6940   5.741   1.534   2.902  0.3708  0.5418  0.0870
 2312TIP3   OH2 6941   4.836   5.799   3.568 -0.2559  0.5458 -0.0641
 2312TIP3    H1 6942   4.867   5.833   3.484 -0.2125  3.2647  0.9533
 2312TIP3    H2 6943   4.913   5.758   3.607 -0.4001 -1.2196 -1.5025
 2313TIP3   OH2 6944   3.793   1.547   1.574  0.2771 -0.3034  0.0087
 2313TIP3    H1 6945   3.859   1.505   1.629  0.8968  0.4251 -0.1695
 2313TIP3    H2 6946   3.814   1.640   1.576  0.7510 -0.3084 -1.9935
 2314TIP3   OH2 6947   3.061   2.655   3.805 -0.1420  0.0068 -0.0001
 2314TIP3    H1 6948   3.076   2.562   3.819  0.6881  0.1983  0.4539
 2314TIP3    H2 6949   3.032   2.688   3.891 -0.4554  0.1684 -0.1643
 2315TIP3   OH2 6950   4.179   2.097   4.500 -0.0434 -0.2209  0.5911
 2315TIP3    H1 6951   4.108   2.160   4.491 -1.5133 -1.8794  0.1137
 2315TIP3    H2 6952   4.191   2.061   4.413  0.8939 -0.5087  0.8207
 2316TIP3   OH2 6953   5.527   4.209   2.372 -0.1806  0.0365 -0.2546
 2316TIP3    H1 6954   5.449   4.241   2.326  1.0372  2.3660 -0.8649
 2316TIP3    H2 6955   5.595   4.208   2.306  0.6563 -0.5673  0.5937
 2317TIP3   OH2 6956   6.250   3.027   2.231 -0.1784  0.4123  0.2621
 2317TIP3    H1 6957   6.329   3.038   2.284  0.0370 -1.9040  0.5178
 2317TIP3    H2 6958   6.179   3.019   2.295 -0.4373  1.0873  0.0702
 2318TIP3   OH2 6959   4.326   5.841   0.328  0.3601 -0.3339 -0.2660
 2318TIP3    H1 6960   4.343   5.758   0.372 -0.2300  0.3484  1.3133
 2318TIP3    H2 6961   4.407   5.861   0.281  0.4595 -1.8480 -0.7873
 2319TIP3   OH2 6962   5.619   1.330   1.065 -0.3164  0.3724  0.2693
 2319TIP3    H1 6963   5.679   1.274   1.016  0.1387 -0.0114  1.2273
 2319TIP3    H2 6964   5.669   1.410   1.081 -0.0048  0.0049  1.1736
 2320TIP3   OH2 6965   4.667   5.112   3.709  0.2092 -0.7149 -0.6213
 2320TIP3    H1 6966   4.667   5.199   3.749  0.4193 -1.1141  0.2855
 2320TIP3    H2 6967   4.663   5.129   3.615  3.5620  0.4259 -0.7218
 2321TIP3   OH2 6968   3.549   0.858   4.743  0.4087 -0.2784  0.7686
 2321TIP3    H1 6969   3.594   0.924   4.690  1.3672  0.3739  2.3250
 2321TIP3    H2 6970   3.456   0.878   4.732  0.6118  0.1910 -0.1997
 2322TIP3   OH2 6971   0.255   0.906   3.750 -0.4477 -0.4131 -0.0755
 2322TIP3    H1 6972   0.263   0.862   3.665  0.1608  0.0601 -0.2729
 2322TIP3    H2 6973   0.246   0.835   3.813 -1.0452 -0.7651 -0.5467
 2323TIP3   OH2 6974   2.108   5.340   1.578 -0.2857  0.5355 -0.7172
 2323TIP3    H1 6975   2.032   5.377   1.532 -0.2377  1.1227 -0.3387
 2323TIP3    H2 6976   2.177   5.405   1.566 -0.3865  0.8908  0.5045
 2324TIP3   OH2 6977   0.534   0.831   0.726 -0.6303 -0.4362 -0.0802
 2324TIP3    H1 6978   0.474   0.787   0.787 -1.4438  0.1455 -0.4394
 2324TIP3    H2 6979   0.621   0.811   0.760 -1.0607  0.0237  1.3870
 2325TIP3   OH2 6980   0.398   2.749   0.476  0.3376 -0.9195 -0.2215
 2325TIP3    H1 6981   0.309   2.784   0.462 -0.2915 -2.1206  0.6577
 2325TIP3    H2 6982   0.416   2.697   0.397 -0.1311 -1.4521  0.0180
 2326TIP3   OH2 6983   4.461   1.461   1.828  0.2063 -0.1599  0.4939
 2326TIP3    H1 6984   4.485   1.535   1.772  0.3714  0.2186  1.0484
 2326TIP3    H2 6985   4.544   1.435   1.869  0.1651 -0.7223  0.2269
 2327TIP3   OH2 6986   4.123   0.446   3.937 -0.1971 -0.2514 -0.0506
 2327TIP3    H1 6987   4.208   0.491   3.939 -0.3454  0.2007 -1.8709
 2327TIP3    H2 6988   4.136   0.369   3.992  0.9271  0.5488  0.8818
 2328TIP3   OH2 6989   4.248   1.668   2.941  0.7923  0.9641 -0.2454
 2328TIP3    H1 6990   4.223   1.614   2.866  0.2970 -2.5504  2.2122
 2328TIP3    H2 6991   4.344   1.660   2.945  0.6201 -1.4161  1.0839
 2329TIP3   OH2 6992   2.394   5.133   2.551  0.5208  0.1431 -0.6262
 2329TIP3    H1 6993   2.370   5.114   2.642 -0.9529 -0.2767 -1.0764
 2329TIP3    H2 6994   2.381   5.227   2.542 -4.3574 -0.3465 -1.6632
 2330TIP3   OH2 6995   4.894   5.527   1.046  0.4372  0.8898 -0.1590
 2330TIP3    H1 6996   4.868   5.459   1.108  0.8127 -0.7423 -1.6987
 2330TIP3    H2 6997   4.869   5.609   1.088 -2.5826 -0.2890  0.6060
 2331TIP3   OH2 6998   0.462   4.615   0.693 -0.0896 -0.2070 -0.3572
 2331TIP3    H1 6999   0.523   4.620   0.619  1.2181 -3.2578  0.3695
 2331TIP3    H2 7000   0.414   4.533   0.678 -0.3407 -0.4826  1.7402
 2332TIP3   OH2 7001   3.685   0.748   2.957  0.3100  0.5943 -0.7621
 2332TIP3    H1 7002   3.701   0.811   2.887  1.8747  1.2282  0.1299
 2332TIP3    H2 7003   3.735   0.781   3.032 -1.3003 -0.0682  0.6772
 2333TIP3   OH2 7004   4.768   4.550   4.192 -0.0415 -0.8074 -0.0522
 2333TIP3    H1 7005   4.691   4.559   4.136  0.1213 -1.9531 -0.4828
 2333TIP3    H2 7006   4.840   4.584   4.138 -0.1449 -0.3264  0.1110
 2334TIP3   OH2 7007   1.758   3.762   0.386 -0.4099  0.2292  0.0602
 2334TIP3    H1 7008   1.711   3.683   0.414 -0.3629 -0.3967 -1.5182
 2334TIP3    H2 7009   1.848   3.733   0.372 -0.1838  0.7770  0.3641
 2335TIP3   OH2 7010   0.089   2.348   0.590 -0.2704  0.2467  0.5710
 2335TIP3    H1 7011   0.163   2.319   0.536 -0.3975  1.3836 -0.2331
 2335TIP3    H2 7012   0.130   2.396   0.662 -0.1759 -0.1155  0.7641
 2336TIP3   OH2 7013   5.058   4.126   2.543 -0.2693  0.3246 -0.4989
 2336TIP3    H1 7014   5.046   4.037   2.511 -0.3417  0.1362  0.0314
 2336TIP3    H2 7015   4.969   4.154   2.567 -0.0257 -0.1396  1.0566
 2337TIP3   OH2 7016   4.861   2.446   0.558  0.0907 -0.5186  0.1699
 2337TIP3    H1 7017   4.912   2.487   0.627 -0.2269  2.3817 -1.1827
 2337TIP3    H2 7018   4.773   2.481   0.568 -0.2735 -1.0616 -0.9162
 2338TIP3   OH2 7019   0.083   4.557   1.826  0.9386 -0.3986  0.1612
 2338TIP3    H1 7020   0.163   4.548   1.774 -0.1092  0.1835 -1.6170
 2338TIP3    H2 7021   0.115   4.571   1.916  2.7874 -2.3616 -0.1129
 2339TIP3   OH2 7022   4.888   3.754   4.565 -0.7440 -0.5805 -0.0709
 2339TIP3    H1 7023   4.885   3.792   4.477  2.0636 -0.8736 -0.3823
 2339TIP3    H2 7024   4.859   3.824   4.622 -2.5380 -0.3523 -1.1782
 2340TIP3   OH2 7025   4.025   1.819   3.966  0.0231 -0.1843  0.0301
 2340TIP3    H1 7026   4.023   1.780   3.879 -0.3921 -0.1255  0.0106
 2340TIP3    H2 7027   4.090   1.768   4.014 -1.3308 -1.6933  0.3659
 2341TIP3   OH2 7028   5.508   4.441   0.456  0.1615  0.0436  0.7714
 2341TIP3    H1 7029   5.426   4.471   0.416 -0.3397 -0.7088  1.2094
 2341TIP3    H2 7030   5.481   4.375   0.520  1.0546  0.2966  1.4354
 2342TIP3   OH2 7031   3.846   0.505   2.633  0.5936  0.4325 -0.0150
 2342TIP3    H1 7032   3.825   0.583   2.581 -0.0625 -0.0002 -0.4105
 2342TIP3    H2 7033   3.797   0.434   2.592 -0.3712  0.1670  1.4827
 2343TIP3   OH2 7034   2.874   1.601   4.181  0.1412  0.6570  0.0275
 2343TIP3    H1 7035   2.883   1.685   4.227  0.2214  0.5707  0.1724
 2343TIP3    H2 7036   2.803   1.615   4.119 -0.2163  0.6669  0.4325
 2344TIP3   OH2 7037   0.317   0.312   2.361  0.3735  0.3279  0.4897
 2344TIP3    H1 7038   0.317   0.407   2.376  2.4186  0.6542 -1.2151
 2344TIP3    H2 7039   0.380   0.278   2.425  0.1316  0.2014  0.6606
 2345TIP3   OH2 7040   2.912   5.317   2.922 -0.4798 -0.3213  0.2563
 2345TIP3    H1 7041   2.837   5.322   2.863 -1.0937 -1.6623  0.8696
 2345TIP3    H2 7042   2.971   5.255   2.880 -0.3049 -0.2539  0.4019
 2346TIP3   OH2 7043   1.653   5.098   5.030  0.3944 -0.0713  0.0124
 2346TIP3    H1 7044   1.713   5.124   5.099  0.5117  0.5057 -0.3039
 2346TIP3    H2 7045   1.651   5.173   4.970 -0.3013 -0.2570 -0.2036
 2347TIP3   OH2 7046   4.569   4.365   1.237  0.7375 -0.8912 -0.0763
 2347TIP3    H1 7047   4.625   4.394   1.165 -0.7977  2.5198 -0.1042
 2347TIP3    H2 7048   4.617   4.390   1.316  0.5259 -0.5955 -0.0394
 2348TIP3   OH2 7049   2.062   3.604   4.119 -0.0565 -0.2879  0.1849
 2348TIP3    H1 7050   2.121   3.606   4.194 -1.2853  0.0457  1.1731
 2348TIP3    H2 7051   2.068   3.513   4.087  1.0818 -0.2231  0.1527
 2349TIP3   OH2 7052   2.729   0.537   2.408  0.3232  0.0181  0.3055
 2349TIP3    H1 7053   2.691   0.625   2.418  0.6537  0.3083 -0.8151
 2349TIP3    H2 7054   2.757   0.513   2.496  0.4984  1.1626  0.5821
 2350TIP3   OH2 7055   5.795   3.113   4.382 -0.2885 -0.0257  0.1405
 2350TIP3    H1 7056   5.799   3.082   4.292 -0.0594  0.0529  0.1242
 2350TIP3    H2 7057   5.702   3.111   4.404 -0.3408 -0.0769 -0.0866
 2351TIP3   OH2 7058   3.722   2.122   1.048  0.3646  0.2871 -0.5586
 2351TIP3    H1 7059   3.738   2.029   1.066 -0.8221  0.2008  0.1190
 2351TIP3    H2 7060   3.808   2.156   1.021  0.8889 -0.9219 -0.4721
 2352TIP3   OH2 7061   1.742   4.397   1.687  0.1488 -0.3462  0.1101
 2352TIP3    H1 7062   1.831   4.363   1.690 -0.0230 -0.7570  1.0342
 2352TIP3    H2 7063   1.711   4.390   1.777 -0.3749  0.9994  0.0529
 2353TIP3   OH2 7064   3.316   1.545   2.356  0.3439  0.2828 -0.6095
 2353TIP3    H1 7065   3.292   1.474   2.415  0.0287  0.4445 -0.5400
 2353TIP3    H2 7066   3.399   1.518   2.318 -0.5634 -0.9192 -1.8428
 2354TIP3   OH2 7067   1.439   3.031   1.461  0.0039  0.5492 -0.3137
 2354TIP3    H1 7068   1.384   3.052   1.537 -0.7418 -0.6555 -0.4934
 2354TIP3    H2 7069   1.526   3.064   1.485 -0.4038  0.9564  0.6958
 2355TIP3   OH2 7070   0.283   2.699   2.657  0.2126 -0.1976  0.2645
 2355TIP3    H1 7071   0.218   2.769   2.661 -0.2257 -0.4942 -1.1395
 2355TIP3    H2 7072   0.258   2.638   2.725 -0.0170  0.4822  0.8055
 2356TIP3   OH2 7073   5.951   4.636   3.362 -0.6795  0.1727 -0.6632
 2356TIP3    H1 7074   5.938   4.566   3.298  2.2789 -0.9090 -0.2540
 2356TIP3    H2 7075   6.042   4.625   3.391 -0.6428  3.1669  0.6970
 2357TIP3   OH2 7076   1.298   1.354   0.476 -0.7208 -0.0320 -0.3149
 2357TIP3    H1 7077   1.343   1.427   0.518 -0.1269  0.4375 -1.7238
 2357TIP3    H2 7078   1.317   1.279   0.533 -0.4876  0.6933  0.5946
 2358TIP3   OH2 7079   5.108   5.238   2.240  0.2350 -0.0471 -0.4310
 2358TIP3    H1 7080   5.018   5.271   2.240  0.2395 -0.0053  0.6247
 2358TIP3    H2 7081   5.109   5.172   2.310  0.4955 -1.5636 -1.7832
 2359TIP3   OH2 7082   1.350   3.306   0.991  0.3156  0.2415  0.5921
 2359TIP3    H1 7083   1.441   3.308   0.960  0.3764  1.8348  0.7772
 2359TIP3    H2 7084   1.350   3.243   1.062  0.9277 -0.9318 -0.4085
 2360TIP3   OH2 7085   4.008   1.167   0.552 -0.3225 -0.4228 -0.4002
 2360TIP3    H1 7086   3.921   1.176   0.592  0.6119  0.8046  1.4698
 2360TIP3    H2 7087   4.009   1.234   0.483 -0.0671  1.2103  1.1278
 2361TIP3   OH2 7088   1.691   2.338   3.562  0.3013 -0.4526  0.4873
 2361TIP3    H1 7089   1.752   2.272   3.596  0.5680 -0.3727  0.1681
 2361TIP3    H2 7090   1.722   2.421   3.598 -0.6304 -0.6088  1.7179
 2362TIP3   OH2 7091   5.004   3.678   2.990 -0.9025  0.4159 -0.0224
 2362TIP3    H1 7092   5.017   3.583   2.983 -0.1557  0.5432 -0.5885
 2362TIP3    H2 7093   5.092   3.714   2.979 -1.3030  1.2173 -0.7043
 2363TIP3   OH2 7094   6.226   0.434   1.770 -0.5516  0.4351  0.1730
 2363TIP3    H1 7095   6.283   0.394   1.836  1.7668  3.2086  0.0602
 2363TIP3    H2 7096   6.279   0.436   1.691 -1.2151  2.0485 -0.2780
 2364TIP3   OH2 7097   5.351   4.230   4.787  0.5958 -0.5420  0.0394
 2364TIP3    H1 7098   5.424   4.225   4.848  0.7234  1.0696  0.0413
 2364TIP3    H2 7099   5.301   4.150   4.804  1.8592 -1.2368  0.6503
 2365TIP3   OH2 7100   1.422   1.943   0.893  0.0078  0.4299 -0.2284
 2365TIP3    H1 7101   1.376   1.859   0.900 -0.3149  0.6041 -0.2339
 2365TIP3    H2 7102   1.498   1.934   0.951 -0.6677  0.5484  0.7097
 2366TIP3   OH2 7103   1.583   2.887   0.110 -0.0995 -0.1785 -0.8938
 2366TIP3    H1 7104   1.628   2.804   0.128  0.1179 -0.2996 -1.9193
 2366TIP3    H2 7105   1.498   2.879   0.153  0.2089 -0.6373 -0.3699
 2367TIP3   OH2 7106   3.097   4.775   1.963 -0.1879  0.0345 -0.1501
 2367TIP3    H1 7107   3.079   4.712   1.894 -0.8096 -0.5471  0.5245
 2367TIP3    H2 7108   3.121   4.722   2.039 -0.8348  0.5891  0.4624
 2368TIP3   OH2 7109   6.095   1.524   1.980 -0.0890 -0.3747 -0.4417
 2368TIP3    H1 7110   6.016   1.511   2.032 -0.5268  1.4882 -0.5809
 2368TIP3    H2 7111   6.128   1.609   2.007  0.7971 -0.2590 -1.7828
 2369TIP3   OH2 7112   4.017   1.563   3.410  0.7088 -0.2173  0.1648
 2369TIP3    H1 7113   4.078   1.587   3.341  1.6479  2.1754  1.6824
 2369TIP3    H2 7114   4.065   1.500   3.464  0.1586 -1.6999 -1.0326
 2370TIP3   OH2 7115   3.730   5.737   3.974  0.7438  0.6268 -0.0052
 2370TIP3    H1 7116   3.712   5.790   4.051 -2.8967  0.9834 -0.9215
 2370TIP3    H2 7117   3.649   5.687   3.960  0.9267  1.1539 -3.9980
 2371TIP3   OH2 7118   2.803   4.494   5.009  0.3383  0.0130 -0.0884
 2371TIP3    H1 7119   2.867   4.495   5.081 -0.1941 -0.7577  0.4164
 2371TIP3    H2 7120   2.752   4.414   5.024 -0.6147  0.5169 -0.5988
 2372TIP3   OH2 7121   5.308   1.306   3.753 -0.1145  0.3761 -0.1110
 2372TIP3    H1 7122   5.219   1.325   3.781 -0.0224  0.5227  0.0771
 2372TIP3    H2 7123   5.364   1.355   3.812  0.1297 -0.6433  0.5237
 2373TIP3   OH2 7124   0.666   4.593   1.412  0.4385 -0.2224 -0.5344
 2373TIP3    H1 7125   0.705   4.517   1.368  0.2492 -0.4225 -0.3531
 2373TIP3    H2 7126   0.587   4.612   1.361  0.4977 -0.1326 -0.5931
 2374TIP3   OH2 7127   1.240   3.240   2.037 -0.1084 -0.7115  0.6947
 2374TIP3    H1 7128   1.156   3.244   2.082  0.1292 -1.3017  1.2102
 2374TIP3    H2 7129   1.243   3.151   2.001 -1.2506  0.3838 -2.4173
 2375TIP3   OH2 7130   3.563   2.325   3.808  0.1333  0.1621 -0.1001
 2375TIP3    H1 7131   3.559   2.419   3.822 -0.8983  0.0644  0.3371
 2375TIP3    H2 7132   3.644   2.298   3.851 -0.1292  0.6928  0.7554
 2376TIP3   OH2 7133   0.988   1.430   1.071  0.1925  0.0677 -0.3068
 2376TIP3    H1 7134   0.949   1.429   0.984  1.1218  0.2843 -0.7446
 2376TIP3    H2 7135   1.052   1.501   1.068  0.8394 -0.4715  0.2691
 2377TIP3   OH2 7136   6.260   5.328   5.032  0.8570  0.0901  0.7631
 2377TIP3    H1 7137   6.269   5.411   5.080 -1.3872 -0.0603  1.5357
 2377TIP3    H2 7138   6.213   5.351   4.952  1.3078 -0.2609  0.3897
 2378TIP3   OH2 7139   5.202   3.696   0.057 -0.0868  0.1743  1.0666
 2378TIP3    H1 7140   5.199   3.650   0.141 -1.3816 -0.1108  0.8886
 2378TIP3    H2 7141   5.172   3.631  -0.007 -0.0932  0.6993  0.5237
 2379TIP3   OH2 7142   3.478   3.697   1.109  0.1900 -0.1243  0.0133
 2379TIP3    H1 7143   3.448   3.782   1.077  1.1670  0.4958  0.6839
 2379TIP3    H2 7144   3.435   3.687   1.195  0.1437 -0.2770 -0.0261
 2380TIP3   OH2 7145   4.572   3.319   4.565 -0.2700 -0.6926  0.4516
 2380TIP3    H1 7146   4.645   3.263   4.537  0.0597 -0.1370  0.2020
 2380TIP3    H2 7147   4.496   3.260   4.565  0.3143 -1.4907  1.5183
 2381TIP3   OH2 7148   3.918   5.943   0.513  0.2453 -0.1510 -0.2195
 2381TIP3    H1 7149   3.861   5.990   0.574  1.4048 -1.1232  1.7224
 2381TIP3    H2 7150   3.906   5.987   0.429 -2.4496  0.4007  0.3666
 2382TIP3   OH2 7151   5.970   4.429   5.154  0.4403  0.1514  0.6393
 2382TIP3    H1 7152   6.019   4.348   5.142  1.5234  0.7001  1.1404
 2382TIP3    H2 7153   6.017   4.494   5.101 -1.9604 -0.0607 -1.9589
 2383TIP3   OH2 7154   3.537   5.913   3.684 -0.3867  0.1645  0.2060
 2383TIP3    H1 7155   3.562   5.928   3.593  0.6808  2.6424  0.8195
 2383TIP3    H2 7156   3.450   5.952   3.692  0.5990  2.4275  0.7792
 2384TIP3   OH2 7157   6.043   2.259   2.278  0.7923 -0.3999 -0.1931
 2384TIP3    H1 7158   6.018   2.340   2.234 -1.7613 -0.6266  0.6683
 2384TIP3    H2 7159   6.044   2.193   2.210  0.9943 -0.0098 -0.5736
 2385TIP3   OH2 7160   1.656   1.176   1.065  0.1912 -0.1873  0.1516
 2385TIP3    H1 7161   1.699   1.108   1.118 -0.3300 -0.9413 -0.3647
 2385TIP3    H2 7162   1.577   1.197   1.114  0.3345  0.0277  0.2933
 2386TIP3   OH2 7163   0.049   2.259   1.029 -0.1360 -0.1677 -0.1213
 2386TIP3    H1 7164   0.008   2.344   1.044  2.6668  0.9701  1.8460
 2386TIP3    H2 7165   0.110   2.274   0.956  1.6792  0.1048  1.3721
 2387TIP3   OH2 7166   5.201   3.693   1.329 -0.6133 -0.4972 -0.1169
 2387TIP3    H1 7167   5.228   3.603   1.347 -3.3758 -0.9497  2.6645
 2387TIP3    H2 7168   5.261   3.747   1.379 -1.2972 -1.1171  1.4535
 2388TIP3   OH2 7169   3.975   5.387   1.917 -0.5594  0.5627  0.2717
 2388TIP3    H1 7170   4.038   5.458   1.910  0.9763 -0.9012 -2.8209
 2388TIP3    H2 7171   3.913   5.403   1.846 -0.9666 -0.4664  0.3833
 2389TIP3   OH2 7172   3.539   2.340   2.177 -0.4917 -0.4787  0.0792
 2389TIP3    H1 7173   3.597   2.326   2.252  1.7038  0.0982 -1.4191
 2389TIP3    H2 7174   3.527   2.435   2.174 -0.1774 -0.4574 -0.5651
 2390TIP3   OH2 7175   4.762   0.550   1.043 -0.2666 -0.5496 -0.2721
 2390TIP3    H1 7176   4.815   0.483   1.085 -1.3744 -0.7129  0.9308
 2390TIP3    H2 7177   4.672   0.519   1.053 -0.6760  0.1800 -1.4117
 2391TIP3   OH2 7178   6.085   0.131   4.280 -0.1749 -0.3661 -0.0314
 2391TIP3    H1 7179   6.138   0.211   4.286 -0.0543 -0.4332 -0.2323
 2391TIP3    H2 7180   6.058   0.127   4.189  1.9333 -1.9282 -0.6591
 2392TIP3   OH2 7181   0.803   0.663   3.692  0.2562  0.4144  0.1717
 2392TIP3    H1 7182   0.801   0.654   3.787 -0.0112 -0.4346  0.0966
 2392TIP3    H2 7183   0.731   0.722   3.671 -1.6156 -1.6832  0.2920
 2393TIP3   OH2 7184   3.347   2.378   5.018  0.0864  0.0759 -0.3917
 2393TIP3    H1 7185   3.336   2.347   5.107  0.2026  0.1014 -0.3691
 2393TIP3    H2 7186   3.362   2.472   5.027 -0.7310  0.2219 -0.4853
 2394TIP3   OH2 7187   5.904   2.101   3.735  0.6075  0.5408 -0.1857
 2394TIP3    H1 7188   5.878   2.047   3.810  0.4363  0.4776 -0.2897
 2394TIP3    H2 7189   5.995   2.124   3.752  0.9031 -0.3700 -0.4885
 2395TIP3   OH2 7190   3.232   1.050   4.417 -0.6472 -0.3288  0.3507
 2395TIP3    H1 7191   3.139   1.070   4.410 -0.7087 -0.1708  1.4844
 2395TIP3    H2 7192   3.273   1.133   4.445 -0.2425 -0.5366  0.3856
 2396TIP3   OH2 7193   2.805   1.873   3.757  0.2671 -0.0133  0.4675
 2396TIP3    H1 7194   2.839   1.961   3.737  0.5477  0.2660  2.0783
 2396TIP3    H2 7195   2.880   1.827   3.795  0.5042 -1.4235 -1.5174
 2397TIP3   OH2 7196   3.727   4.806   5.108  0.5115 -0.3701  0.0981
 2397TIP3    H1 7197   3.653   4.848   5.151  0.6697 -0.3620  0.3688
 2397TIP3    H2 7198   3.785   4.782   5.180  1.0558  0.1696 -0.1515
 2398TIP3   OH2 7199   5.570   4.122   3.593 -0.3435  0.3791 -0.0058
 2398TIP3    H1 7200   5.507   4.150   3.659 -0.4957 -0.0482  0.0359
 2398TIP3    H2 7201   5.526   4.051   3.546  0.3989 -0.4766  0.5470
 2399TIP3   OH2 7202   2.550   4.289   4.115 -0.3277  0.2427  0.0592
 2399TIP3    H1 7203   2.575   4.205   4.153  2.3129  0.3319 -1.2943
 2399TIP3    H2 7204   2.474   4.269   4.060  1.1950 -1.6496 -1.5054
 2400TIP3   OH2 7205   0.363   3.741   5.123 -0.0380  0.1233  0.2438
 2400TIP3    H1 7206   0.439   3.784   5.162  0.4544 -0.2022 -0.3475
 2400TIP3    H2 7207   0.296   3.810   5.119  0.3847  0.5451  0.3115
 2401TIP3   OH2 7208   2.779   2.719   4.560 -0.7052 -0.2486  0.5172
 2401TIP3    H1 7209   2.850   2.775   4.593 -1.9196  1.2606  0.6922
 2401TIP3    H2 7210   2.803   2.701   4.470 -0.5601  1.0735  0.2749
 2402TIP3   OH2 7211   4.884   0.662   3.054 -0.3239 -0.1378 -0.0799
 2402TIP3    H1 7212   4.976   0.673   3.079 -0.3123  1.4154 -0.7153
 2402TIP3    H2 7213   4.838   0.730   3.104 -0.9652 -0.1865 -0.5932
 2403TIP3   OH2 7214   3.184   5.161   3.342  0.1284  0.0476 -0.7338
 2403TIP3    H1 7215   3.222   5.074   3.353 -0.1773 -0.0039 -0.0496
 2403TIP3    H2 7216   3.090   5.145   3.328  0.1519  0.2414 -1.1405
 2404TIP3   OH2 7217   1.433   4.355   2.037 -0.2495 -0.1561  0.0319
 2404TIP3    H1 7218   1.517   4.399   2.049 -0.4654  0.4833 -0.7174
 2404TIP3    H2 7219   1.396   4.347   2.125  0.4376 -0.1417  0.3254
 2405TIP3   OH2 7220   3.725   2.740   1.986 -0.3639 -0.3183 -0.0066
 2405TIP3    H1 7221   3.672   2.675   1.940 -2.1171  1.9453 -1.3795
 2405TIP3    H2 7222   3.786   2.772   1.919 -0.8014  0.7620  0.0920
 2406TIP3   OH2 7223   3.998   1.854   4.349 -0.3878 -0.4824 -0.3093
 2406TIP3    H1 7224   4.061   1.923   4.332 -1.3736  1.2810  2.4975
 2406TIP3    H2 7225   3.927   1.869   4.286  0.9762 -1.2600 -2.1307
 2407TIP3   OH2 7226   1.538   0.953   1.838  0.6872 -0.1298  0.4947
 2407TIP3    H1 7227   1.622   0.960   1.883 -0.3258 -0.5415  2.5802
 2407TIP3    H2 7228   1.478   0.920   1.905 -0.9507 -0.7131 -1.1736
 2408TIP3   OH2 7229   4.988   0.111   2.611 -0.3835 -0.3723 -0.2918
 2408TIP3    H1 7230   5.066   0.161   2.633 -1.5667  1.3076  0.3358
 2408TIP3    H2 7231   4.967   0.064   2.692  0.0237 -0.9062 -0.4927
 2409TIP3   OH2 7232   1.811   0.620   5.076 -0.0218 -0.0345  0.4549
 2409TIP3    H1 7233   1.874   0.690   5.091  0.9759 -0.7580 -0.1975
 2409TIP3    H2 7234   1.753   0.623   5.152 -0.7768  2.2785 -0.1573
 2410TIP3   OH2 7235   0.361   0.564   1.316 -0.3936 -0.4128 -0.3193
 2410TIP3    H1 7236   0.368   0.607   1.401 -0.4777 -0.4320 -0.3023
 2410TIP3    H2 7237   0.363   0.636   1.252 -0.6828 -0.3703 -0.2841
 2411TIP3   OH2 7238   0.159   3.022   2.367  0.2404  0.0772  0.6442
 2411TIP3    H1 7239   0.247   3.018   2.330  0.4388 -0.9351  1.1740
 2411TIP3    H2 7240   0.148   3.113   2.394  0.2721  0.7326 -1.4014
 2412TIP3   OH2 7241   4.254   1.034   5.182  0.2248 -0.1358 -0.4682
 2412TIP3    H1 7242   4.198   1.102   5.144  1.0050  1.7791  1.5708
 2412TIP3    H2 7243   4.314   1.082   5.238 -0.6615 -2.6742  2.9584
 2413TIP3   OH2 7244   2.372   4.315   4.680 -0.4627  0.2740 -0.8601
 2413TIP3    H1 7245   2.295   4.259   4.686 -0.1515 -0.0201  1.5385
 2413TIP3    H2 7246   2.346   4.397   4.722  0.1648  0.6343 -1.1517
 2414TIP3   OH2 7247   3.089   1.434   4.113  0.1676 -0.1332 -0.0722
 2414TIP3    H1 7248   3.041   1.459   4.192 -1.2929 -1.7562 -0.3774
 2414TIP3    H2 7249   3.053   1.490   4.044 -0.0900 -0.1807  0.0209
 2415TIP3   OH2 7250   3.437   2.980   1.942  0.3390 -0.2854 -0.1595
 2415TIP3    H1 7251   3.383   2.903   1.959  2.1617 -1.1955  1.7866
 2415TIP3    H2 7252   3.373   3.049   1.923 -1.3766 -1.9750 -0.9005
 2416TIP3   OH2 7253   3.793   1.863   5.068 -0.1444 -0.0183 -0.0381
 2416TIP3    H1 7254   3.808   1.847   5.161  1.6865  0.1847 -0.2606
 2416TIP3    H2 7255   3.784   1.776   5.030 -0.8736 -0.1033  0.3085
 2417TIP3   OH2 7256   3.146   3.601   3.689 -0.2195  0.1878 -0.7267
 2417TIP3    H1 7257   3.229   3.581   3.646  0.6536  0.2865  0.8251
 2417TIP3    H2 7258   3.127   3.691   3.664  1.0997  0.7922  0.3024
 2418TIP3   OH2 7259   0.656   3.417   3.995 -0.1809 -0.3842  0.0436
 2418TIP3    H1 7260   0.740   3.386   4.029 -0.8681 -0.9179  1.3379
 2418TIP3    H2 7261   0.662   3.405   3.901  1.7030  0.8814 -0.0469
 2419TIP3   OH2 7262   5.609   1.866   0.550  0.4545  0.2767  0.0885
 2419TIP3    H1 7263   5.534   1.820   0.514  1.1095 -0.7123 -0.0533
 2419TIP3    H2 7264   5.630   1.819   0.631 -0.4158  1.8883  1.3293
 2420TIP3   OH2 7265   1.784   5.456   3.804 -0.2558 -0.0114  0.2273
 2420TIP3    H1 7266   1.791   5.381   3.746  2.1529 -0.9798  1.6258
 2420TIP3    H2 7267   1.742   5.524   3.751  1.8405 -0.8095 -2.6625
 2421TIP3   OH2 7268   5.733   2.602   4.532  0.3378 -0.0579 -0.2180
 2421TIP3    H1 7269   5.770   2.689   4.515  1.2034 -0.6425 -1.4968
 2421TIP3    H2 7270   5.802   2.541   4.507 -0.3864 -1.1370  0.3245
 2422TIP3   OH2 7271   0.294   3.732   3.780  0.1000  0.5494 -0.3793
 2422TIP3    H1 7272   0.248   3.648   3.782 -0.0641  0.6623  1.3011
 2422TIP3    H2 7273   0.385   3.710   3.797 -0.2903  0.8886  2.5519
 2423TIP3   OH2 7274   1.174   3.482   2.745 -0.2780  0.4582  0.8414
 2423TIP3    H1 7275   1.215   3.401   2.714 -0.8579  0.3568  0.3294
 2423TIP3    H2 7276   1.110   3.453   2.810  0.3127  0.6029  1.5026
 2424TIP3   OH2 7277   5.116   2.503   3.294  0.2161 -0.1306  0.6028
 2424TIP3    H1 7278   5.028   2.524   3.325 -0.1542 -0.5022 -0.1772
 2424TIP3    H2 7279   5.171   2.573   3.328 -0.2697 -0.2273  1.6223
 2425TIP3   OH2 7280   4.249   0.506   1.601 -0.8408 -0.0529  0.3309
 2425TIP3    H1 7281   4.242   0.458   1.519 -2.9853 -0.3083  0.5890
 2425TIP3    H2 7282   4.254   0.598   1.575 -0.3243 -0.1993 -0.0937
 2426TIP3   OH2 7283   5.548   2.526   4.099  0.4580 -0.2367 -0.4095
 2426TIP3    H1 7284   5.637   2.498   4.082  0.8080  0.8841 -0.5548
 2426TIP3    H2 7285   5.515   2.466   4.165  1.7005  0.0015  0.4578
 2427TIP3   OH2 7286   3.163   4.495   2.080  0.2071  0.4453  0.1565
 2427TIP3    H1 7287   3.198   4.561   2.139 -0.8009  1.8894 -0.8037
 2427TIP3    H2 7288   3.234   4.478   2.017  0.3177  0.9515  0.1426
 2428TIP3   OH2 7289   4.488   3.805   0.844 -0.3107 -0.6466  0.1537
 2428TIP3    H1 7290   4.470   3.815   0.937 -2.0075  0.7974 -0.2972
 2428TIP3    H2 7291   4.573   3.760   0.841  0.4107  0.4579  2.3765
 2429TIP3   OH2 7292   2.532   2.577   2.122  0.1098 -0.1543 -0.0514
 2429TIP3    H1 7293   2.478   2.539   2.052 -0.4528  0.9432 -0.2454
 2429TIP3    H2 7294   2.605   2.516   2.133  0.0058 -0.5377 -1.3489
 2430TIP3   OH2 7295   5.634   4.041   0.096  0.0771  0.6690 -0.1723
 2430TIP3    H1 7296   5.597   4.113   0.146  0.4096  1.3884 -0.9385
 2430TIP3    H2 7297   5.709   4.079   0.050  2.9114 -1.0522  2.5840
 2431TIP3   OH2 7298   1.771   3.107   4.086  0.7378  0.4780  0.3637
 2431TIP3    H1 7299   1.716   3.181   4.115  0.2849 -0.0255  0.8267
 2431TIP3    H2 7300   1.728   3.030   4.125  0.4908 -0.1585 -1.1213
 2432TIP3   OH2 7301   0.801   0.769   3.952 -0.2185  0.2583  0.2083
 2432TIP3    H1 7302   0.712   0.805   3.955 -1.0701 -1.6739 -0.3496
 2432TIP3    H2 7303   0.832   0.776   4.043 -1.6621 -0.6903  0.8081
 2433TIP3   OH2 7304   5.569   1.473   2.612  0.3672 -0.4099 -0.4504
 2433TIP3    H1 7305   5.625   1.415   2.663 -3.4404 -3.5143  0.7632
 2433TIP3    H2 7306   5.559   1.429   2.528  0.3233  0.4572 -0.9089
 2434TIP3   OH2 7307   4.604   1.582   0.477 -0.3302  0.0844  0.6499
 2434TIP3    H1 7308   4.584   1.565   0.570 -0.1931 -2.4010  0.3037
 2434TIP3    H2 7309   4.534   1.538   0.429  0.7762 -0.5653 -0.4286
 2435TIP3   OH2 7310   2.052   0.056   3.052  0.2528 -0.0402  0.0843
 2435TIP3    H1 7311   2.034   0.082   2.961 -1.0038  0.2545  0.3962
 2435TIP3    H2 7312   2.142   0.084   3.067  0.1179  0.9147 -0.7314
 2436TIP3   OH2 7313   5.709   2.004   4.478  0.0108 -0.1029  0.5470
 2436TIP3    H1 7314   5.746   1.974   4.561  0.8206  0.5959  0.4476
 2436TIP3    H2 7315   5.766   1.966   4.411  1.7454  2.4269  0.4385
 2437TIP3   OH2 7316   2.658   5.941   4.718  0.3095 -0.1402  0.4648
 2437TIP3    H1 7317   2.588   5.974   4.662  0.8663 -0.4065 -0.3992
 2437TIP3    H2 7318   2.682   5.857   4.679  2.3189  0.7454 -0.3208
 2438TIP3   OH2 7319   3.378   1.312   5.048 -0.0359 -0.1853  0.1132
 2438TIP3    H1 7320   3.324   1.296   4.970 -1.9918  0.9106  1.1576
 2438TIP3    H2 7321   3.334   1.264   5.118  2.3632 -2.1612  0.3994
 2439TIP3   OH2 7322   2.623   0.810   1.858 -0.1750  0.2316  0.1220
 2439TIP3    H1 7323   2.627   0.836   1.766 -0.7139 -2.0368 -0.6275
 2439TIP3    H2 7324   2.533   0.831   1.884  0.1821  1.5078  0.3553
 2440TIP3   OH2 7325   5.425   0.141   4.479 -0.1936  0.0214  0.0201
 2440TIP3    H1 7326   5.398   0.053   4.506 -0.4321  0.2670  0.5853
 2440TIP3    H2 7327   5.443   0.187   4.561  0.2741  0.3950 -0.2876
 2441TIP3   OH2 7328   1.638   1.070   4.963 -0.0280 -0.5161  0.0439
 2441TIP3    H1 7329   1.730   1.096   4.953  0.1427 -1.0445  0.1902
 2441TIP3    H2 7330   1.589   1.152   4.958  0.4377 -0.2488 -0.2208
 2442TIP3   OH2 7331   3.580   4.438   0.717 -0.2134 -0.2027  0.3938
 2442TIP3    H1 7332   3.507   4.480   0.671  0.5755  0.7986  0.0037
 2442TIP3    H2 7333   3.567   4.344   0.702 -1.0099  0.0035 -0.2907
 2443TIP3   OH2 7334   5.430   4.077   1.889 -0.2704 -0.2058 -0.2717
 2443TIP3    H1 7335   5.507   4.020   1.886 -0.4944 -0.5442  0.1385
 2443TIP3    H2 7336   5.356   4.016   1.890 -0.5591  0.1256 -1.1203
 2444TIP3   OH2 7337   3.467   3.232   3.507  0.4358  0.0361 -0.1428
 2444TIP3    H1 7338   3.446   3.152   3.555 -1.3903  0.7787  0.3660
 2444TIP3    H2 7339   3.555   3.217   3.473  0.9475 -1.3829  1.6369
 2445TIP3   OH2 7340   0.768   4.233   2.399  0.6252 -0.0295 -0.1265
 2445TIP3    H1 7341   0.691   4.177   2.404 -0.2401  1.2253  3.3585
 2445TIP3    H2 7342   0.842   4.172   2.392 -0.4982 -1.3488 -1.0596
 2446TIP3   OH2 7343   6.338   4.172   3.742  0.2320 -0.4124  0.4315
 2446TIP3    H1 7344   6.356   4.079   3.727 -2.8363 -1.0522  0.0207
 2446TIP3    H2 7345   6.311   4.176   3.834  1.2624  0.2676  0.7165
 2447TIP3   OH2 7346   1.552   2.659   1.505  0.4012  0.5570 -0.3570
 2447TIP3    H1 7347   1.469   2.693   1.472  0.5397  0.5375 -0.7296
 2447TIP3    H2 7348   1.561   2.573   1.464 -1.2046 -1.1581  2.5291
 2448TIP3   OH2 7349   2.990   4.062   2.121  0.3368 -0.4816 -0.1301
 2448TIP3    H1 7350   2.978   4.143   2.169  0.8759  1.3359 -2.8317
 2448TIP3    H2 7351   3.078   4.033   2.143 -0.1967 -0.9207  1.5749
 2449TIP3   OH2 7352   0.155   5.578   0.878 -0.2855 -0.4766 -0.3366
 2449TIP3    H1 7353   0.208   5.498   0.883  0.2617 -0.1462 -0.7210
 2449TIP3    H2 7354   0.097   5.574   0.954  2.6421  0.8532  2.1849
 2450TIP3   OH2 7355   3.558   3.710   4.812 -0.3898 -0.8206 -0.1487
 2450TIP3    H1 7356   3.633   3.737   4.759 -2.0070  1.6735 -1.3853
 2450TIP3    H2 7357   3.590   3.713   4.903  1.4074 -1.5113 -0.7049
 2451TIP3   OH2 7358   0.640   4.970   3.939  0.1747  0.3352 -0.1478
 2451TIP3    H1 7359   0.642   4.911   3.864  0.5095 -0.3194  0.3584
 2451TIP3    H2 7360   0.607   4.915   4.011  0.6891  0.7089  0.3793
 2452TIP3   OH2 7361   1.753   4.250   2.888  0.2495  0.1358  0.6999
 2452TIP3    H1 7362   1.681   4.280   2.833  1.5597 -1.2481 -1.9623
 2452TIP3    H2 7363   1.729   4.161   2.914  0.3998  0.1640  0.9475
 2453TIP3   OH2 7364   5.459   2.114   0.567  0.1321 -0.2721  0.0989
 2453TIP3    H1 7365   5.371   2.081   0.585  0.4806  0.2070  3.3995
 2453TIP3    H2 7366   5.516   2.037   0.576  0.0551 -1.0107 -3.9367
 2454TIP3   OH2 7367   2.336   0.160   1.846  0.5170  0.4068 -0.1095
 2454TIP3    H1 7368   2.393   0.109   1.789 -0.1853 -0.2885 -0.2091
 2454TIP3    H2 7369   2.360   0.133   1.935 -0.4980 -0.8595 -0.1829
 2455TIP3   OH2 7370   6.111   1.281   1.728 -0.1784 -0.4458 -0.3362
 2455TIP3    H1 7371   6.162   1.292   1.808 -0.9214 -1.3582  0.2983
 2455TIP3    H2 7372   6.099   1.369   1.694 -1.0069  0.1212  1.3091
 2456TIP3   OH2 7373   0.733   5.729   0.541 -0.3039 -0.0565  0.4354
 2456TIP3    H1 7374   0.702   5.654   0.590  0.3474  0.2669  1.3760
 2456TIP3    H2 7375   0.677   5.801   0.569 -0.8986 -0.1631 -0.4304
 2457TIP3   OH2 7376   0.468   5.175   3.651  0.5431 -0.2436 -0.2348
 2457TIP3    H1 7377   0.535   5.234   3.685 -0.5053 -0.4636  2.4422
 2457TIP3    H2 7378   0.516   5.109   3.601  1.8228  2.2258 -2.5019
 2458TIP3   OH2 7379   4.435   0.520   4.142 -0.0188  0.2447  0.6111
 2458TIP3    H1 7380   4.361   0.572   4.174  0.3382 -0.1539  2.1882
 2458TIP3    H2 7381   4.426   0.436   4.188  1.2141  0.0768  0.5788
 2459TIP3   OH2 7382   3.818   5.029   2.906  0.4144  0.6769 -0.2646
 2459TIP3    H1 7383   3.817   5.113   2.860  1.1996  1.5392  1.2305
 2459TIP3    H2 7384   3.911   5.012   2.923  0.4640 -1.4397 -2.1444
 2460TIP3   OH2 7385   0.154   3.515   2.817 -0.0076  0.1752 -0.0579
 2460TIP3    H1 7386   0.168   3.603   2.853 -1.5498  1.0679 -1.5058
 2460TIP3    H2 7387   0.194   3.519   2.730  1.6414 -1.2258  0.5784
 2461TIP3   OH2 7388   3.458   5.799   3.922 -0.7730 -0.5717 -0.3965
 2461TIP3    H1 7389   3.434   5.866   3.987 -0.6950 -1.0111  0.0902
 2461TIP3    H2 7390   3.481   5.849   3.844  2.0146  0.1755  0.7840
 2462TIP3   OH2 7391   1.313   4.090   4.936  0.2221  0.2081  0.3350
 2462TIP3    H1 7392   1.230   4.058   4.973  1.2196 -1.4689  1.2542
 2462TIP3    H2 7393   1.367   4.109   5.012  1.1365 -0.0100 -0.2483
 2463TIP3   OH2 7394   3.237   1.041   1.229 -0.0645 -0.2603  0.3604
 2463TIP3    H1 7395   3.182   1.092   1.289 -0.7707  0.0930 -0.5711
 2463TIP3    H2 7396   3.303   1.002   1.286  0.6097  1.8225  1.1161
 2464TIP3   OH2 7397   4.714   0.665   0.815 -0.1368 -0.1640  0.4789
 2464TIP3    H1 7398   4.777   0.736   0.826  1.8060 -1.4227 -1.6900
 2464TIP3    H2 7399   4.714   0.620   0.900  0.1875  1.1560  1.2077
 2465TIP3   OH2 7400   5.605   1.607   4.042 -0.2292 -0.2689  0.5580
 2465TIP3    H1 7401   5.698   1.628   4.042 -0.1232 -0.6605 -0.6075
 2465TIP3    H2 7402   5.563   1.684   4.003 -0.5284  0.3344  1.9934
 2466TIP3   OH2 7403   4.280   5.162   4.043  0.4940 -0.6084  0.3505
 2466TIP3    H1 7404   4.273   5.225   4.114 -1.7973 -2.0138  1.4891
 2466TIP3    H2 7405   4.374   5.145   4.035  0.8827  0.2127  2.4737
 2467TIP3   OH2 7406   0.390   3.228   5.125  0.5509 -0.1529  0.3324
 2467TIP3    H1 7407   0.472   3.248   5.079  1.3311  1.9263  2.4305
 2467TIP3    H2 7408   0.322   3.263   5.068  0.7594 -3.7841 -2.5052
 2468TIP3   OH2 7409   6.267   2.783   4.707 -0.1134 -0.1034  0.4517
 2468TIP3    H1 7410   6.228   2.857   4.754 -0.3533 -0.0526  0.1792
 2468TIP3    H2 7411   6.320   2.824   4.638 -0.4424 -0.1857  0.1456
 2469TIP3   OH2 7412   3.118   1.939   3.004 -0.2166 -0.1398 -0.3663
 2469TIP3    H1 7413   3.081   1.854   2.981 -0.7471  0.0465 -0.2258
 2469TIP3    H2 7414   3.182   1.920   3.072 -1.3651 -0.2815  0.7060
 2470TIP3   OH2 7415   1.678   0.443   4.323  0.4844 -0.1224 -0.1065
 2470TIP3    H1 7416   1.725   0.525   4.339  0.3607  0.1830 -1.2378
 2470TIP3    H2 7417   1.606   0.445   4.386  0.8912  0.3028  0.3563
 2471TIP3   OH2 7418   3.176   5.383   1.465 -0.3984  0.1875 -0.2465
 2471TIP3    H1 7419   3.272   5.380   1.457 -0.4337  0.9660 -1.1007
 2471TIP3    H2 7420   3.154   5.302   1.510  0.6262 -0.2402 -0.4723
 2472TIP3   OH2 7421   3.934   2.442   3.550  0.1658  0.5465  0.2686
 2472TIP3    H1 7422   3.920   2.516   3.609 -1.5528  0.4365  0.0403
 2472TIP3    H2 7423   3.992   2.383   3.599  1.6291  2.0301  0.4250
 2473TIP3   OH2 7424   0.586   2.209   0.250 -0.2113 -0.0703 -0.4717
 2473TIP3    H1 7425   0.654   2.157   0.293  0.2254 -0.8933 -2.0770
 2473TIP3    H2 7426   0.505   2.160   0.267  0.0932 -0.9043 -1.3371
 2474TIP3   OH2 7427   3.529   2.537   4.662  0.6624 -0.4047  0.0262
 2474TIP3    H1 7428   3.560   2.616   4.707 -1.2419 -0.5687  1.7791
 2474TIP3    H2 7429   3.453   2.566   4.611  0.6350 -0.9010 -0.2183
 2475TIP3   OH2 7430   6.070   3.436   1.187  0.8211  0.3621  0.2166
 2475TIP3    H1 7431   6.034   3.390   1.112 -0.2567 -0.4397  1.1876
 2475TIP3    H2 7432   6.119   3.370   1.236  1.1674  0.7734  0.4406
 2476TIP3   OH2 7433   2.422   5.854   0.557 -0.2264 -0.2636 -0.0379
 2476TIP3    H1 7434   2.454   5.923   0.616 -1.7433  0.0435  0.4697
 2476TIP3    H2 7435   2.501   5.820   0.515  0.6234  1.3637  0.1507
 2477TIP3   OH2 7436   3.092   4.884   3.211  0.2754 -0.1115  0.1009
 2477TIP3    H1 7437   3.152   4.880   3.285 -0.5481  0.3885  0.8204
 2477TIP3    H2 7438   3.139   4.842   3.139  1.1412 -0.4876  0.8698
 2478TIP3   OH2 7439   2.578   1.126   2.173  0.1383  0.7984 -1.0734
 2478TIP3    H1 7440   2.650   1.133   2.236 -0.9153  1.2302  0.1407
 2478TIP3    H2 7441   2.517   1.195   2.199 -0.6352  0.5598 -2.1804
 2479TIP3   OH2 7442   1.934   2.117   0.590 -0.1240 -0.8098  0.2015
 2479TIP3    H1 7443   1.865   2.096   0.653 -0.8653  0.5545 -0.1286
 2479TIP3    H2 7444   1.930   2.047   0.525 -2.5733  0.2575 -0.8999
 2480TIP3   OH2 7445   5.628   2.960   3.138 -0.8001 -0.2414 -0.0442
 2480TIP3    H1 7446   5.667   2.873   3.129 -0.1433  0.0722 -0.2866
 2480TIP3    H2 7447   5.580   2.956   3.221  1.7074  0.0753  1.5639
 2481TIP3   OH2 7448   5.284   0.031   2.157 -0.0519  0.1366 -0.9670
 2481TIP3    H1 7449   5.215   0.016   2.092 -0.7712  0.8481 -0.3966
 2481TIP3    H2 7450   5.238   0.070   2.231  0.3266 -2.8889  0.9829
 2482TIP3   OH2 7451   5.314   1.401   2.463  0.3047  0.5432 -0.0752
 2482TIP3    H1 7452   5.391   1.374   2.413 -0.0082  0.2023 -0.3810
 2482TIP3    H2 7453   5.240   1.366   2.414 -0.0344  0.6316  0.3653
 2483TIP3   OH2 7454   6.175   4.274   3.071  0.3877 -0.3009  0.4229
 2483TIP3    H1 7455   6.241   4.217   3.111 -0.9156 -0.9983  1.7180
 2483TIP3    H2 7456   6.173   4.352   3.127 -1.7044 -1.4359  2.1163
 2484TIP3   OH2 7457   0.593   2.463   2.697 -0.3129  0.3179 -0.3640
 2484TIP3    H1 7458   0.543   2.486   2.618 -0.5110 -1.7010 -0.8855
 2484TIP3    H2 7459   0.632   2.379   2.676 -0.5020 -0.3563  1.7827
 2485TIP3   OH2 7460   1.891   2.140   4.637 -0.4382 -0.4888  0.3675
 2485TIP3    H1 7461   1.944   2.070   4.600  1.4854 -0.4738  2.8616
 2485TIP3    H2 7462   1.924   2.219   4.594  0.6211 -0.6471  0.8456
 2486TIP3   OH2 7463   5.694   1.591   1.164  0.4830  0.3830  0.2175
 2486TIP3    H1 7464   5.604   1.618   1.182 -0.1213  0.4528 -2.4553
 2486TIP3    H2 7465   5.716   1.530   1.235 -2.7481 -1.9663 -0.5612
 2487TIP3   OH2 7466   3.189   4.032   3.052  0.0740  0.0070 -0.2205
 2487TIP3    H1 7467   3.180   4.088   3.129 -0.1884  0.2162 -0.4034
 2487TIP3    H2 7468   3.282   4.006   3.052  0.6164  1.7676 -1.0554
 2488TIP3   OH2 7469   2.687   5.160   3.170 -0.1198  0.0008 -0.1395
 2488TIP3    H1 7470   2.659   5.094   3.107  1.0623 -0.9956  0.3422
 2488TIP3    H2 7471   2.754   5.117   3.222 -0.0101  1.2827  0.8341
 2489TIP3   OH2 7472   6.105   2.638   3.796 -0.8083 -0.2759 -0.1223
 2489TIP3    H1 7473   6.056   2.561   3.825 -0.8663 -0.8261 -1.6215
 2489TIP3    H2 7474   6.179   2.643   3.857 -2.7714  0.7328  2.3638
 2490TIP3   OH2 7475   2.022   2.172   3.352 -0.0149 -0.2663  0.1586
 2490TIP3    H1 7476   2.090   2.217   3.404  0.3255 -1.5887  0.9017
 2490TIP3    H2 7477   2.071   2.123   3.287 -0.2041 -1.4781  0.8934
 2491TIP3   OH2 7478   0.214   2.095   4.690 -0.0025  0.3261  0.6324
 2491TIP3    H1 7479   0.249   2.055   4.770  1.2808 -1.2085 -0.6230
 2491TIP3    H2 7480   0.291   2.106   4.634 -0.9065  1.1367 -0.4903
 2492TIP3   OH2 7481   3.980   0.059   2.932 -0.5875  0.2933 -0.0553
 2492TIP3    H1 7482   3.955  -0.033   2.918  1.5450 -0.2548 -0.4971
 2492TIP3    H2 7483   3.897   0.107   2.926 -1.8313 -1.6480  0.7315
 2493TIP3   OH2 7484   4.101   1.896   3.388 -0.3872  0.0849  0.1910
 2493TIP3    H1 7485   4.064   1.815   3.355 -1.7503  0.3814  0.9256
 2493TIP3    H2 7486   4.193   1.893   3.361 -0.9409 -0.6101 -1.7969
 2494TIP3   OH2 7487   2.357   3.328   0.796  0.3374 -0.5989 -0.2002
 2494TIP3    H1 7488   2.279   3.378   0.820  1.0589  0.8061 -0.7014
 2494TIP3    H2 7489   2.345   3.309   0.703 -0.7765 -2.9816  0.3392
 2495TIP3   OH2 7490   2.784   3.005   3.952 -0.0058  0.4396 -0.1206
 2495TIP3    H1 7491   2.756   2.943   3.885 -0.3707  1.7559 -1.2168
 2495TIP3    H2 7492   2.804   3.086   3.904  2.3448  0.6298  1.0204
 2496TIP3   OH2 7493   4.131   0.282   4.925  0.3879  0.7562 -0.1099
 2496TIP3    H1 7494   4.155   0.226   4.851  0.5737  0.8548 -0.1257
 2496TIP3    H2 7495   4.210   0.333   4.942  0.9705 -0.5413  1.3097
 2497TIP3   OH2 7496   5.064   3.238   5.157  0.2034 -0.4426 -0.7600
 2497TIP3    H1 7497   5.053   3.200   5.069 -2.2779 -0.9719 -0.3026
 2497TIP3    H2 7498   5.074   3.162   5.214 -0.4445 -0.2220 -0.3438
 2498TIP3   OH2 7499   2.881   2.138   3.687 -0.2920  0.3051  0.2229
 2498TIP3    H1 7500   2.971   2.166   3.672  0.1555  0.6756  3.0413
 2498TIP3    H2 7501   2.843   2.131   3.599  2.2863  0.6774 -1.0227
 2499TIP3   OH2 7502   0.967   5.498   1.587  0.4583  0.0927 -0.4733
 2499TIP3    H1 7503   0.947   5.416   1.633  1.5138 -0.2434 -0.5940
 2499TIP3    H2 7504   1.041   5.476   1.530  1.0449  1.2386 -0.1792
 2500TIP3   OH2 7505   2.303   2.126   0.454 -0.3784  0.0204  0.2930
 2500TIP3    H1 7506   2.266   2.195   0.399  0.0648  0.5805  0.6791
 2500TIP3    H2 7507   2.340   2.063   0.392 -1.4095 -0.2376 -0.0813
 2501TIP3   OH2 7508   5.867   4.624   2.282  0.0671  0.0431  0.4438
 2501TIP3    H1 7509   5.898   4.589   2.365  0.1930  2.2066  1.3769
 2501TIP3    H2 7510   5.775   4.596   2.278  0.1954 -0.5026  1.0550
 2502TIP3   OH2 7511   4.914   0.241   0.282  0.4098  0.3622 -0.6383
 2502TIP3    H1 7512   4.983   0.205   0.226  0.6861 -0.8821  0.4728
 2502TIP3    H2 7513   4.876   0.165   0.325 -0.3033  1.2308  0.2897
 2503TIP3   OH2 7514   1.497   5.379   2.277 -0.5091  0.3909  0.4190
 2503TIP3    H1 7515   1.542   5.433   2.212  0.0013  0.2790  0.6763
 2503TIP3    H2 7516   1.564   5.360   2.343 -0.0516 -2.2391 -0.6571
 2504TIP3   OH2 7517   5.592   2.292   1.674 -0.2440 -0.0953  0.2945
 2504TIP3    H1 7518   5.650   2.223   1.705 -0.7227  0.4853  2.7635
 2504TIP3    H2 7519   5.629   2.373   1.710 -0.4646  0.7807 -1.3579
 2505TIP3   OH2 7520   4.727   1.426   0.810  0.2745  0.1919 -0.0145
 2505TIP3    H1 7521   4.816   1.427   0.845 -0.3110 -0.6829  1.6175
 2505TIP3    H2 7522   4.695   1.515   0.822  0.3926  0.1196  0.9151
 2506TIP3   OH2 7523   2.955   0.235   4.993  0.3184  0.8168  0.5511
 2506TIP3    H1 7524   2.862   0.209   4.995  0.6673 -0.8114 -1.0482
 2506TIP3    H2 7525   2.971   0.258   4.901  2.1700 -1.9708  0.0394
 2507TIP3   OH2 7526   4.228   1.465   1.934 -0.0907 -0.5692  0.4275
 2507TIP3    H1 7527   4.318   1.465   1.902  0.2939  2.5045  1.1814
 2507TIP3    H2 7528   4.177   1.430   1.861  1.3214  1.3590 -1.6135
 2508TIP3   OH2 7529   2.515   0.043   3.004  0.1701  0.5256  0.0140
 2508TIP3    H1 7530   2.480   0.116   2.952 -2.1054 -0.2874  0.2882
 2508TIP3    H2 7531   2.532  -0.026   2.939 -0.0882  0.4320  0.0469
 2509TIP3   OH2 7532   0.502   5.654   3.796  0.3686  0.2427 -0.8274
 2509TIP3    H1 7533   0.582   5.695   3.829 -1.2333  2.3665  0.6675
 2509TIP3    H2 7534   0.482   5.702   3.715  1.5234 -1.5454 -2.2599
 2510TIP3   OH2 7535   4.440   4.614   2.118 -0.0809 -1.0286  0.6104
 2510TIP3    H1 7536   4.363   4.558   2.129 -0.6215  0.0272  2.7523
 2510TIP3    H2 7537   4.417   4.696   2.162  1.5957  0.0106 -0.3065
 2511TIP3   OH2 7538   2.364   3.837   4.800 -0.6118  0.0703  0.0795
 2511TIP3    H1 7539   2.349   3.772   4.869  0.3849 -1.8583 -1.4173
 2511TIP3    H2 7540   2.457   3.859   4.807 -0.4991 -0.1446 -0.6350
 2512TIP3   OH2 7541   3.335   5.116   3.663 -0.1754 -0.1640 -0.6519
 2512TIP3    H1 7542   3.312   5.031   3.700 -1.1157  0.1948 -0.3663
 2512TIP3    H2 7543   3.423   5.104   3.627 -0.5656 -1.4480 -1.2373
 2513TIP3   OH2 7544   1.932   1.827   0.624  0.2696  0.5018  0.0543
 2513TIP3    H1 7545   1.907   1.836   0.716  0.7102 -2.7357  0.6084
 2513TIP3    H2 7546   2.027   1.837   0.624  0.5109 -1.3916  0.3449
 2514TIP3   OH2 7547   2.407   1.752   2.783  0.2525  0.0950 -0.8430
 2514TIP3    H1 7548   2.495   1.785   2.801 -0.9291  2.8558  0.3974
 2514TIP3    H2 7549   2.367   1.818   2.727 -1.1773 -0.9404 -1.1120
 2515TIP3   OH2 7550   1.533   4.833   0.664  0.6318  0.5650  0.8687
 2515TIP3    H1 7551   1.506   4.924   0.664  0.5965  0.5581  0.1978
 2515TIP3    H2 7552   1.501   4.798   0.747 -0.8900  0.7066  0.3545
 2516TIP3   OH2 7553   5.974   5.054   2.582 -0.7804  0.3183 -0.7232
 2516TIP3    H1 7554   5.972   5.111   2.506 -0.4092 -0.5267 -1.3800
 2516TIP3    H2 7555   5.991   4.966   2.547  0.8551  0.1182  0.4316
 2517TIP3   OH2 7556   4.101   4.378   4.386 -0.0279 -0.2624 -0.8527
 2517TIP3    H1 7557   4.144   4.385   4.471 -0.7275  0.9948 -0.5681
 2517TIP3    H2 7558   4.097   4.284   4.369 -0.8284 -0.6202  1.0205
 2518TIP3   OH2 7559   3.152   1.411   0.484 -0.0998 -0.2737 -0.1560
 2518TIP3    H1 7560   3.077   1.368   0.525  0.3337 -0.8593  0.0321
 2518TIP3    H2 7561   3.202   1.340   0.444  1.3314 -0.1202  1.2751
 2519TIP3   OH2 7562   5.127   0.034   2.842  0.1579  0.4387 -0.1506
 2519TIP3    H1 7563   5.206   0.065   2.887  1.5242 -1.2910 -1.2009
 2519TIP3    H2 7564   5.096  -0.039   2.896 -0.4216  0.7727 -0.0263
 2520TIP3   OH2 7565   1.451   2.155   1.928  0.0401 -0.7644  0.5242
 2520TIP3    H1 7566   1.472   2.099   1.853 -1.5501 -0.2785 -0.3376
 2520TIP3    H2 7567   1.468   2.244   1.897  1.7846 -0.6843  1.6149
 2521TIP3   OH2 7568   5.215   5.530   0.066  0.4032 -0.5220 -0.7817
 2521TIP3    H1 7569   5.157   5.467   0.023  1.7798 -2.1161 -0.4126
 2521TIP3    H2 7570   5.166   5.612   0.064 -1.0595 -1.3579 -2.1568
 2522TIP3   OH2 7571   2.520   4.100   4.351 -0.6768 -0.6553  0.6719
 2522TIP3    H1 7572   2.549   4.118   4.440  1.0104 -0.6271  0.1596
 2522TIP3    H2 7573   2.573   4.026   4.323 -1.8242 -1.2405 -0.0113
 2523TIP3   OH2 7574   4.966   5.010   0.880 -0.3095  0.0392 -0.2397
 2523TIP3    H1 7575   4.875   5.020   0.910  0.3130  0.5022  1.6334
 2523TIP3    H2 7576   5.001   4.939   0.934  0.2776 -0.5747 -1.4003
 2524TIP3   OH2 7577   0.880   2.708   3.973  0.4141  0.3269  0.0194
 2524TIP3    H1 7578   0.933   2.629   3.963 -0.0492  0.0621 -0.3943
 2524TIP3    H2 7579   0.863   2.715   4.067  0.5136 -0.0238  0.0622
 2525TIP3   OH2 7580   1.071   3.585   0.125 -0.3059  0.0361 -0.1432
 2525TIP3    H1 7581   1.021   3.549   0.199 -1.9327  0.0036 -1.1907
 2525TIP3    H2 7582   1.148   3.624   0.165 -0.9966 -0.2150  1.5480
 2526TIP3   OH2 7583   4.031   5.616   1.620  0.4678  0.4130 -0.2877
 2526TIP3    H1 7584   4.016   5.683   1.553 -0.1043 -0.4003 -0.9822
 2526TIP3    H2 7585   3.951   5.565   1.622  0.6908  0.0707  0.6314
 2527TIP3   OH2 7586   0.407   4.626   1.309  0.1867 -0.0290  0.8386
 2527TIP3    H1 7587   0.351   4.549   1.302 -0.1059  0.0570  2.0169
 2527TIP3    H2 7588   0.395   4.673   1.226  1.0208 -1.6623 -0.2557
 2528TIP3   OH2 7589   4.198   1.378   3.937 -0.0212 -0.5339  0.5124
 2528TIP3    H1 7590   4.248   1.457   3.916 -0.4011  0.4779  3.0923
 2528TIP3    H2 7591   4.124   1.379   3.876  1.4397 -0.4597 -1.3414
 2529TIP3   OH2 7592   6.342   2.902   5.002 -0.0476  0.3267  0.1874
 2529TIP3    H1 7593   6.384   2.950   4.931 -0.9384 -1.5785 -1.7392
 2529TIP3    H2 7594   6.258   2.945   5.015  0.5231  1.2815  0.8043
 2530TIP3   OH2 7595   3.788   0.732   2.257  0.0065 -0.7059 -0.3313
 2530TIP3    H1 7596   3.834   0.671   2.199 -1.0729  0.9722 -3.1407
 2530TIP3    H2 7597   3.852   0.799   2.278  0.0862 -0.7319 -0.4919
 2531TIP3   OH2 7598   5.279   0.444   3.036  0.2017 -0.3351  0.3681
 2531TIP3    H1 7599   5.288   0.465   2.943  0.0051  0.2551  0.4777
 2531TIP3    H2 7600   5.360   0.474   3.076 -0.8392  2.1082  0.8456
 2532TIP3   OH2 7601   0.997   2.466   1.081 -0.3020  0.1316 -0.2775
 2532TIP3    H1 7602   0.957   2.543   1.123 -1.9647 -0.8753  0.0660
 2532TIP3    H2 7603   1.087   2.465   1.114 -0.0899  2.1786 -0.6531
 2533TIP3   OH2 7604   1.148   4.735   0.235 -0.2263 -0.1500  0.5878
 2533TIP3    H1 7605   1.214   4.804   0.234 -0.6168  0.2263  0.4865
 2533TIP3    H2 7606   1.069   4.777   0.269 -0.9817 -0.0709 -1.1957
 2534TIP3   OH2 7607   3.238   1.499   0.218  0.0446 -0.4001 -0.0640
 2534TIP3    H1 7608   3.307   1.437   0.242 -1.4099 -1.5024  1.5216
 2534TIP3    H2 7609   3.157   1.459   0.251 -1.1759  1.5347 -0.5348
 2535TIP3   OH2 7610   4.958   1.076   3.719  0.0398  0.1382  0.4675
 2535TIP3    H1 7611   4.988   1.145   3.778 -1.0992  1.1214 -0.0304
 2535TIP3    H2 7612   5.036   1.048   3.672  0.4963  1.2931  0.5055
 2536TIP3   OH2 7613   5.145   6.000   3.641  0.1099 -0.0919 -0.8439
 2536TIP3    H1 7614   5.206   6.006   3.568 -2.7100  1.7862 -3.2937
 2536TIP3    H2 7615   5.118   5.908   3.643  1.2185 -0.4327 -1.2537
 2537TIP3   OH2 7616   4.831   3.122   1.513  0.4125 -0.6494  0.7875
 2537TIP3    H1 7617   4.870   3.156   1.432 -0.8120 -0.5784  0.2117
 2537TIP3    H2 7618   4.850   3.029   1.511 -0.3134 -0.7940 -0.0057
 2538TIP3   OH2 7619   3.550   3.047   4.848  0.5544 -0.2821 -0.2008
 2538TIP3    H1 7620   3.584   3.131   4.878 -1.1814  0.0320  1.0643
 2538TIP3    H2 7621   3.592   2.982   4.904 -0.2723  0.0336  0.8200
 2539TIP3   OH2 7622   1.578   4.775   2.493 -0.1651  0.5720 -0.6845
 2539TIP3    H1 7623   1.634   4.731   2.557  0.9112 -0.8348 -2.5337
 2539TIP3    H2 7624   1.491   4.739   2.510  0.1477  0.0236 -0.1973
 2540TIP3   OH2 7625   4.935   5.920   3.309  0.3113 -0.0522  0.3074
 2540TIP3    H1 7626   4.991   5.852   3.273  0.3348  0.1048  0.0467
 2540TIP3    H2 7627   4.995   5.990   3.335  0.3733 -0.4839  1.3916
 2541TIP3   OH2 7628   1.871   0.299   2.156  0.3195 -0.0926  0.5819
 2541TIP3    H1 7629   1.922   0.338   2.227  0.1414  1.4145 -0.0837
 2541TIP3    H2 7630   1.791   0.351   2.152  0.3532 -0.1079 -0.7546
 2542TIP3   OH2 7631   6.062   0.286   4.531 -0.5391 -0.1133  0.3424
 2542TIP3    H1 7632   5.988   0.255   4.478  0.5996 -4.5894  0.9870
 2542TIP3    H2 7633   6.131   0.305   4.467 -1.0067  0.4044 -0.0284
 2543TIP3   OH2 7634   1.545   4.168   4.562 -0.5885  0.0629 -0.2596
 2543TIP3    H1 7635   1.554   4.124   4.478 -0.0370 -1.0478  0.3512
 2543TIP3    H2 7636   1.635   4.175   4.595 -0.8184  0.2270  0.3470
 2544TIP3   OH2 7637   5.935   3.889   0.648 -0.0217  0.4545 -0.3437
 2544TIP3    H1 7638   5.996   3.930   0.587  1.0211  0.9169  0.9556
 2544TIP3    H2 7639   5.979   3.810   0.678 -0.5720  0.1664 -0.2782
 2545TIP3   OH2 7640   2.790   3.249   0.224 -0.2478  0.0005  0.0649
 2545TIP3    H1 7641   2.762   3.262   0.133  0.1678  0.2328 -0.0292
 2545TIP3    H2 7642   2.879   3.215   0.217 -0.5119 -0.7694  0.3682
 2546TIP3   OH2 7643   2.529   3.509   4.627 -0.4935  0.1797  0.1508
 2546TIP3    H1 7644   2.554   3.567   4.699  1.1585  1.0077 -1.0185
 2546TIP3    H2 7645   2.437   3.490   4.643  0.2129 -1.1400  3.4536
 2547TIP3   OH2 7646   2.307   1.788   1.293  0.4092 -0.0432 -0.2443
 2547TIP3    H1 7647   2.255   1.708   1.291  0.1492 -0.0059 -4.4819
 2547TIP3    H2 7648   2.243   1.859   1.300  0.3631 -0.1291  0.2057
 2548TIP3   OH2 7649   2.913   1.057   3.870  0.2956 -0.2935  0.0423
 2548TIP3    H1 7650   2.956   1.093   3.793  1.6447 -0.9559  0.4583
 2548TIP3    H2 7651   2.984   1.041   3.932 -0.7272 -0.1074  1.2948
 2549TIP3   OH2 7652   1.772   0.251   2.807 -0.2357  0.0127 -0.6578
 2549TIP3    H1 7653   1.759   0.159   2.785  1.2767 -0.2892 -0.4016
 2549TIP3    H2 7654   1.845   0.279   2.751  0.8647  0.3924  0.8864
 2550TIP3   OH2 7655   2.985   1.006   2.259 -0.4763 -0.1709 -0.2037
 2550TIP3    H1 7656   2.999   1.059   2.180 -1.2280  1.2000  0.5509
 2550TIP3    H2 7657   2.993   0.916   2.229  0.7321  0.3508 -1.5563
 2551TIP3   OH2 7658   0.024   2.224   4.863  0.4154  0.4880  0.4664
 2551TIP3    H1 7659   0.098   2.216   4.802 -0.8874  1.9083 -1.4097
 2551TIP3    H2 7660   0.050   2.294   4.923  0.8103  0.6086  0.1610
 2552TIP3   OH2 7661   1.604   5.558   2.936  0.0289  0.1094 -0.0724
 2552TIP3    H1 7662   1.684   5.548   2.884 -0.2991 -2.3452 -0.2359
 2552TIP3    H2 7663   1.537   5.583   2.873  0.0451 -0.9269 -0.5209
 2553TIP3   OH2 7664   4.482   4.518   4.728  0.6145  0.0663  0.6816
 2553TIP3    H1 7665   4.539   4.508   4.804  0.5744 -0.8845  0.5970
 2553TIP3    H2 7666   4.543   4.530   4.654  0.6815 -0.0257  0.7213
 2554TIP3   OH2 7667   5.551   0.297   4.077  0.0877 -0.0110  0.2348
 2554TIP3    H1 7668   5.491   0.318   4.149 -0.2199  1.1120 -0.3184
 2554TIP3    H2 7669   5.619   0.365   4.082 -0.5307  0.7559 -1.1804
 2555TIP3   OH2 7670   2.694   4.502   4.732 -0.5001  0.6081  0.4237
 2555TIP3    H1 7671   2.728   4.485   4.820  1.8312 -3.1644 -0.9769
 2555TIP3    H2 7672   2.770   4.529   4.681 -0.3089 -3.3277 -1.7219
 2556TIP3   OH2 7673   4.516   2.405   0.868  0.1547 -0.1401 -0.2918
 2556TIP3    H1 7674   4.480   2.351   0.939 -0.3427  0.3752 -0.1474
 2556TIP3    H2 7675   4.502   2.354   0.789  0.4507 -0.5929 -0.0571
 2557TIP3   OH2 7676   0.510   0.675   0.216  0.4530 -0.1341 -0.1804
 2557TIP3    H1 7677   0.424   0.641   0.192  0.5879 -1.8775  1.5655
 2557TIP3    H2 7678   0.497   0.718   0.300  1.4279 -1.3761  0.6522
 2558TIP3   OH2 7679   3.627   3.872   1.331 -0.1117 -0.0686  0.1223
 2558TIP3    H1 7680   3.706   3.818   1.335 -1.0098 -1.4405  0.0050
 2558TIP3    H2 7681   3.557   3.814   1.359 -1.1327  1.0390 -0.0583
 2559TIP3   OH2 7682   0.599   0.032   4.347 -0.3739 -0.3161 -0.5137
 2559TIP3    H1 7683   0.672   0.039   4.409 -0.0248 -0.9616 -0.8480
 2559TIP3    H2 7684   0.639   0.043   4.261 -0.7933  0.1208 -0.6619
 2560TIP3   OH2 7685   1.809   5.960   2.454 -0.3095 -0.4972 -0.2577
 2560TIP3    H1 7686   1.725   6.005   2.464  0.7205  1.3945  0.4755
 2560TIP3    H2 7687   1.806   5.888   2.518 -1.0892  0.0016  0.2859
 2561TIP3   OH2 7688   2.555   2.527   1.221 -0.2103  0.1400 -0.8548
 2561TIP3    H1 7689   2.514   2.528   1.307  1.6526 -2.0845  0.1769
 2561TIP3    H2 7690   2.507   2.593   1.171 -2.4372  0.3687  1.3553
 2562TIP3   OH2 7691   3.887   0.221   4.470  0.6244 -0.5439  0.4304
 2562TIP3    H1 7692   3.898   0.129   4.494 -1.2194 -0.6784  0.8540
 2562TIP3    H2 7693   3.865   0.265   4.552 -0.5829 -0.1007 -0.1209
 2563TIP3   OH2 7694   1.602   0.011   0.781 -0.2310  0.2533  0.1402
 2563TIP3    H1 7695   1.661   0.082   0.755  0.7217 -0.4507  0.3106
 2563TIP3    H2 7696   1.660  -0.054   0.821 -0.7956 -1.4432 -1.6399
 2564TIP3   OH2 7697   6.261   1.689   1.648  0.0221 -0.0527 -0.0660
 2564TIP3    H1 7698   6.321   1.615   1.634 -2.6640 -2.2508 -0.9082
 2564TIP3    H2 7699   6.268   1.742   1.569 -1.3697 -2.0805 -1.6565
 2565TIP3   OH2 7700   0.085   0.811   5.025  0.3239 -0.0540  0.0105
 2565TIP3    H1 7701   0.142   0.740   4.994  0.6977  0.7665 -1.2784
 2565TIP3    H2 7702   0.077   0.869   4.949 -1.3478  0.4218  0.5221
 2566TIP3   OH2 7703   0.351   3.770   3.257 -0.2369  0.4196 -0.4326
 2566TIP3    H1 7704   0.271   3.720   3.269  0.6804 -1.5107 -1.6884
 2566TIP3    H2 7705   0.406   3.746   3.331  0.3007 -0.7269 -1.1675
 2567TIP3   OH2 7706   1.533   2.220   2.299  0.1101 -0.2523 -0.2187
 2567TIP3    H1 7707   1.510   2.127   2.295  1.5295 -0.5991 -0.7219
 2567TIP3    H2 7708   1.621   2.222   2.334 -0.4340  1.0199  1.1625
 2568TIP3   OH2 7709   4.364   3.420   3.407 -0.2281 -0.4121 -0.0755
 2568TIP3    H1 7710   4.302   3.457   3.345  0.1400  0.2190 -0.0725
 2568TIP3    H2 7711   4.369   3.327   3.383 -0.5324 -0.2940 -0.6115
 2569TIP3   OH2 7712   0.350   1.300   4.786 -0.1273 -0.1141 -0.2820
 2569TIP3    H1 7713   0.379   1.245   4.859  1.7883 -1.0477 -1.6556
 2569TIP3    H2 7714   0.346   1.388   4.822 -0.2683 -0.7006  1.2112
 2570TIP3   OH2 7715   5.779   1.456   3.198  0.4985  0.2258 -0.2464
 2570TIP3    H1 7716   5.849   1.402   3.236  0.9270  0.5515 -0.5661
 2570TIP3    H2 7717   5.790   1.447   3.104  0.4504  0.7094 -0.3015
 2571TIP3   OH2 7718   6.204   2.351   0.122  0.2572 -0.2364 -0.0032
 2571TIP3    H1 7719   6.247   2.389   0.199 -2.1240 -1.5634  2.1293
 2571TIP3    H2 7720   6.175   2.264   0.150 -0.2915 -0.9754 -2.5824
 2572TIP3   OH2 7721   5.077   5.816   4.820  0.1678 -0.4898  0.0341
 2572TIP3    H1 7722   5.108   5.734   4.858 -0.5550 -0.3845  0.8754
 2572TIP3    H2 7723   4.999   5.791   4.769 -0.7659 -0.1767  1.2645
 2573TIP3   OH2 7724   0.683   1.952   4.959 -0.0543 -0.4172  0.9947
 2573TIP3    H1 7725   0.774   1.922   4.948 -0.8757 -2.3697 -1.5703
 2573TIP3    H2 7726   0.685   2.044   4.934  0.9633 -0.9367 -1.0662
 2574TIP3   OH2 7727   0.378   0.418   0.442 -0.0971 -0.3456  0.1559
 2574TIP3    H1 7728   0.285   0.420   0.464 -0.4577  1.4614 -1.3660
 2574TIP3    H2 7729   0.404   0.510   0.434  1.3496 -0.8205 -1.2904
 2575TIP3   OH2 7730   3.633   4.496   0.350 -0.0830  0.2679  0.0092
 2575TIP3    H1 7731   3.544   4.523   0.373 -0.8274 -1.8522 -0.2149
 2575TIP3    H2 7732   3.622   4.417   0.297  1.9591 -0.4245  0.5235
 2576TIP3   OH2 7733   4.259   2.054   4.779  0.1906  0.6864 -0.1195
 2576TIP3    H1 7734   4.215   2.058   4.694  0.1977 -0.7332 -0.2091
 2576TIP3    H2 7735   4.344   2.095   4.764  0.8658 -1.0386 -1.2607
 2577TIP3   OH2 7736   1.351   5.410   4.987  0.1611  0.7171 -0.4228
 2577TIP3    H1 7737   1.325   5.334   5.040 -0.1124 -0.2249 -1.8509
 2577TIP3    H2 7738   1.407   5.462   5.045  0.8330 -0.8799  0.4197
 2578TIP3   OH2 7739   0.351   4.107   4.450  0.2381  0.3092  0.2856
 2578TIP3    H1 7740   0.313   4.120   4.363  1.4526  2.1847 -0.0221
 2578TIP3    H2 7741   0.293   4.156   4.509 -0.1422 -0.3185  0.4510
 2579TIP3   OH2 7742   3.994   5.169   0.665 -0.4517  0.3714  0.4662
 2579TIP3    H1 7743   4.070   5.111   0.671 -0.7751  0.0813  2.2858
 2579TIP3    H2 7744   4.011   5.222   0.586 -0.9118 -3.1659 -2.2696
 2580TIP3   OH2 7745   3.402   1.702   1.054 -0.5723 -0.1720 -0.0759
 2580TIP3    H1 7746   3.314   1.679   1.023 -0.1592 -1.5057 -0.3496
 2580TIP3    H2 7747   3.413   1.794   1.029 -1.4052 -0.3486 -1.1829
 2581TIP3   OH2 7748   5.408   0.890   1.840  0.4515 -0.2367 -0.0980
 2581TIP3    H1 7749   5.325   0.936   1.851  1.1397  1.4389 -1.5042
 2581TIP3    H2 7750   5.452   0.899   1.925 -0.5043 -0.5528  0.4423
 2582TIP3   OH2 7751   0.275   2.373   2.438  0.3175  0.6125  0.0702
 2582TIP3    H1 7752   0.331   2.445   2.408  1.6131 -0.9963 -1.5484
 2582TIP3    H2 7753   0.188   2.413   2.448  0.9537  2.3686 -0.9455
 2583TIP3   OH2 7754   5.168   0.215   0.585  0.2216 -0.1529 -0.0783
 2583TIP3    H1 7755   5.146   0.284   0.648 -1.7353  0.6686 -1.5350
 2583TIP3    H2 7756   5.221   0.260   0.519 -1.8923  0.3496 -1.5678
 2584TIP3   OH2 7757   4.309   2.170   1.976 -0.3429 -0.2343  0.0835
 2584TIP3    H1 7758   4.391   2.143   2.016  0.6227  2.1668 -0.1008
 2584TIP3    H2 7759   4.323   2.157   1.882  1.6297  4.0029 -0.4572
 2585TIP3   OH2 7760   6.057   2.316   2.581  0.1634 -0.3718 -0.3958
 2585TIP3    H1 7761   6.066   2.323   2.486  1.0791 -0.4592 -0.3184
 2585TIP3    H2 7762   5.967   2.284   2.594 -0.1553  0.1654 -1.2008
 2586TIP3   OH2 7763   2.984   2.315   2.618 -0.1536  0.1052 -0.0285
 2586TIP3    H1 7764   2.892   2.305   2.641  0.2329 -2.0253  0.8100
 2586TIP3    H2 7765   3.020   2.227   2.625  2.0293  0.9411 -0.0344
 2587TIP3   OH2 7766   5.005   4.888   4.130 -0.1568 -0.3277 -0.0225
 2587TIP3    H1 7767   5.083   4.932   4.096 -0.0380 -1.1455 -0.8603
 2587TIP3    H2 7768   5.020   4.882   4.225  1.3214 -1.4403 -0.2940
 2588TIP3   OH2 7769   1.731   1.460   4.849 -0.0718  0.2228 -0.0672
 2588TIP3    H1 7770   1.698   1.482   4.936 -0.6554 -0.3234 -0.1405
 2588TIP3    H2 7771   1.777   1.538   4.820 -0.1748  0.5347  0.5861
 2589TIP3   OH2 7772   5.203   2.258   4.498 -0.0529 -0.3526 -0.3117
 2589TIP3    H1 7773   5.172   2.188   4.442 -0.6718 -0.9148  0.6966
 2589TIP3    H2 7774   5.295   2.238   4.513  0.2534  0.0842 -1.5097
 2590TIP3   OH2 7775   2.020   4.071   1.290  0.1126 -0.0649  0.2808
 2590TIP3    H1 7776   2.046   3.986   1.327  1.0756  0.2364  0.3264
 2590TIP3    H2 7777   2.039   4.063   1.197 -0.5475 -0.1700  0.1517
 2591TIP3   OH2 7778   5.455   4.565   1.565  0.5942  0.7997 -0.6059
 2591TIP3    H1 7779   5.520   4.503   1.597  0.5586  0.2507 -1.5875
 2591TIP3    H2 7780   5.376   4.513   1.552  0.1863  1.3020 -0.2264
 2592TIP3   OH2 7781   5.581   1.188   3.249 -0.1037 -0.0601  0.1403
 2592TIP3    H1 7782   5.520   1.129   3.292  1.5734 -0.3841  2.3013
 2592TIP3    H2 7783   5.659   1.135   3.234 -0.0402  0.5180 -1.8889
 2593TIP3   OH2 7784   1.225   3.803   3.116 -0.3459 -0.0381 -0.2118
 2593TIP3    H1 7785   1.279   3.732   3.150  0.4039  1.0733  1.0333
 2593TIP3    H2 7786   1.194   3.772   3.031  0.1632 -1.7290  0.1912
 2594TIP3   OH2 7787   3.927   1.394   5.103  0.2976  0.4915  0.2348
 2594TIP3    H1 7788   3.956   1.441   5.026  0.3312  0.0343 -0.0365
 2594TIP3    H2 7789   4.004   1.347   5.134  0.0506 -0.1032 -0.0306
 2595TIP3   OH2 7790   3.605   1.155   1.260  0.4161 -0.0130  0.0170
 2595TIP3    H1 7791   3.535   1.221   1.257 -0.8176 -1.1156  2.1561
 2595TIP3    H2 7792   3.661   1.176   1.185 -1.5020  1.6917 -1.0379
 2596TIP3   OH2 7793   2.242   4.625   2.179  0.7689  0.2547 -0.5407
 2596TIP3    H1 7794   2.249   4.719   2.162  1.1203 -0.0247 -2.1636
 2596TIP3    H2 7795   2.187   4.592   2.107 -0.8821 -0.5262  1.0205
 2597TIP3   OH2 7796   2.054   0.306   3.189  0.2076 -0.3655 -0.4373
 2597TIP3    H1 7797   2.106   0.226   3.189 -0.7563 -1.0341 -1.7509
 2597TIP3    H2 7798   2.116   0.376   3.211  1.0389 -1.4706  0.8231
 2598TIP3   OH2 7799   4.756   2.543   3.643  0.0282  0.0595  0.6311
 2598TIP3    H1 7800   4.696   2.503   3.705 -0.7262 -0.3970 -0.3634
 2598TIP3    H2 7801   4.704   2.610   3.598  1.0516  1.6243  1.7016
 2599TIP3   OH2 7802   3.516   5.046   3.948  0.3367 -0.2569  0.1903
 2599TIP3    H1 7803   3.480   5.000   3.872  2.2351  0.3399 -1.1482
 2599TIP3    H2 7804   3.497   5.139   3.932  1.6883 -0.0159 -0.1357
 2600TIP3   OH2 7805   4.569   2.411   3.848  0.0441  0.1674 -0.2379
 2600TIP3    H1 7806   4.540   2.324   3.875  0.8589 -0.3926 -1.1063
 2600TIP3    H2 7807   4.556   2.466   3.926  0.3618 -0.9336  0.6187
 2601TIP3   OH2 7808   1.190   5.629   3.816 -0.1912  0.2492 -0.0863
 2601TIP3    H1 7809   1.183   5.606   3.909 -0.3233  1.9066  0.3565
 2601TIP3    H2 7810   1.217   5.721   3.817  1.2652 -0.1184 -1.7107
 2602TIP3   OH2 7811   0.979   2.228   4.852 -0.1398 -0.5668 -0.4211
 2602TIP3    H1 7812   1.067   2.191   4.844  0.5759  0.6738  1.1124
 2602TIP3    H2 7813   0.945   2.191   4.934 -1.0122 -0.9490 -0.9476
 2603TIP3   OH2 7814   1.697   5.655   3.639 -0.4113 -0.0199  0.8137
 2603TIP3    H1 7815   1.667   5.737   3.600  1.1206  0.6882  1.0164
 2603TIP3    H2 7816   1.691   5.591   3.569  1.3655  1.0034 -0.3627
 2604TIP3   OH2 7817   3.615   2.162   1.294  0.1149  0.0913 -0.3403
 2604TIP3    H1 7818   3.661   2.154   1.210 -0.0886  2.8991 -0.8121
 2604TIP3    H2 7819   3.618   2.256   1.314 -0.9505 -0.3333  2.1911
 2605TIP3   OH2 7820   2.702   4.031   2.962 -0.0241  0.1072  0.2644
 2605TIP3    H1 7821   2.621   4.073   2.933 -0.3144 -0.0512  0.8394
 2605TIP3    H2 7822   2.733   3.983   2.885  0.9024  2.2422 -0.7713
 2606TIP3   OH2 7823   0.903   5.716   4.844 -0.4519  0.0701  0.3248
 2606TIP3    H1 7824   0.906   5.717   4.748  2.0412 -1.5746  0.3039
 2606TIP3    H2 7825   0.856   5.796   4.867  0.0039  1.1774 -2.2410
 2607TIP3   OH2 7826   1.090   2.802   3.282 -0.2559  0.0807  0.1858
 2607TIP3    H1 7827   1.002   2.772   3.302 -0.2040  0.5947  1.2376
 2607TIP3    H2 7828   1.086   2.830   3.190 -1.1598  0.0140  0.2008
 2608TIP3   OH2 7829   2.795   5.824   2.261 -0.3248  0.4494  0.2960
 2608TIP3    H1 7830   2.820   5.901   2.312 -1.1007  1.8761 -1.3556
 2608TIP3    H2 7831   2.701   5.816   2.274 -0.1950 -0.4555  0.7387
 2609TIP3   OH2 7832   2.669   5.703   3.980 -0.9708 -0.1834  0.3345
 2609TIP3    H1 7833   2.631   5.753   4.053 -0.5306 -0.1829  0.5643
 2609TIP3    H2 7834   2.607   5.716   3.908 -1.1766  0.1871  0.5733
 2610TIP3   OH2 7835   0.143   0.636   0.864 -0.4248 -0.1791  0.2714
 2610TIP3    H1 7836   0.132   0.655   0.771 -0.4102 -2.1159 -0.1504
 2610TIP3    H2 7837   0.109   0.714   0.908  0.2149  1.0711 -1.3485
 2611TIP3   OH2 7838   5.021   5.767   0.532 -0.0692 -0.0822  0.3570
 2611TIP3    H1 7839   5.004   5.729   0.618 -1.2651  1.0828  0.6625
 2611TIP3    H2 7840   5.086   5.835   0.548  1.7227 -1.5752 -0.1208
 2612TIP3   OH2 7841   4.847   3.999   1.537  0.6595 -0.2506  0.6097
 2612TIP3    H1 7842   4.873   3.910   1.561  0.8558 -0.8596 -1.6109
 2612TIP3    H2 7843   4.775   4.020   1.597  2.3678 -0.7777  3.0039
 2613TIP3   OH2 7844   5.107   1.535   1.080  0.0124 -0.2312  0.3294
 2613TIP3    H1 7845   5.049   1.610   1.066  0.3971  0.1131  0.5629
 2613TIP3    H2 7846   5.185   1.572   1.120  0.0128 -0.8236  0.8923
 2614TIP3   OH2 7847   0.454   4.458   4.011 -0.5927  0.4735 -0.1468
 2614TIP3    H1 7848   0.504   4.510   3.948 -1.3675  2.2853  0.6538
 2614TIP3    H2 7849   0.497   4.474   4.095 -1.8285  1.2339  0.3823
 2615TIP3   OH2 7850   1.944   3.254   3.051 -0.4296  0.0149  0.2308
 2615TIP3    H1 7851   1.874   3.234   2.989  0.0701 -2.0842  0.2793
 2615TIP3    H2 7852   1.983   3.335   3.018 -2.9923  1.4237  0.3588
 2616TIP3   OH2 7853   6.339   3.284   3.489 -0.0535  0.6041  0.3289
 2616TIP3    H1 7854   6.295   3.205   3.519 -0.2370  0.6960  0.2989
 2616TIP3    H2 7855   6.354   3.270   3.396  0.8557  0.1560  0.5298
 2617TIP3   OH2 7856   3.511   1.594   3.136 -0.0506  0.5483 -0.1071
 2617TIP3    H1 7857   3.596   1.559   3.162 -0.7373 -0.5508  0.7366
 2617TIP3    H2 7858   3.500   1.673   3.190 -0.7458 -0.8229  1.8912
 2618TIP3   OH2 7859   2.334   5.115   0.606 -0.3712  0.4564 -0.1635
 2618TIP3    H1 7860   2.388   5.046   0.569 -0.3826  0.5334 -0.3259
 2618TIP3    H2 7861   2.290   5.075   0.681  1.6906  1.0205  1.4226
 2619TIP3   OH2 7862   3.542   4.343   0.077 -0.7359  0.6179 -0.1682
 2619TIP3    H1 7863   3.533   4.248   0.081 -0.8622  0.5032 -2.0597
 2619TIP3    H2 7864   3.635   4.360   0.090 -0.7012  0.2152  0.0863
 2620TIP3   OH2 7865   3.878   1.888   1.086  0.1322  0.3373  0.3374
 2620TIP3    H1 7866   3.829   1.858   1.162  1.8396  1.7619  2.0877
 2620TIP3    H2 7867   3.956   1.929   1.122  3.1478 -2.5376 -2.2511
 2621TIP3   OH2 7868   5.128   4.042   4.785 -0.3478 -0.0188 -0.7181
 2621TIP3    H1 7869   5.137   3.967   4.726 -0.7981 -1.4030  0.8792
 2621TIP3    H2 7870   5.092   4.111   4.730  2.0915 -0.2438 -2.7621
 2622TIP3   OH2 7871   2.301   4.252   0.947 -0.0473 -0.0586 -0.0397
 2622TIP3    H1 7872   2.357   4.249   1.024  0.4195 -0.8548 -0.3958
 2622TIP3    H2 7873   2.305   4.343   0.917  1.6161 -0.2413 -0.4464
 2623TIP3   OH2 7874   3.967   2.696   2.650  0.3502 -0.1375 -0.4214
 2623TIP3    H1 7875   3.974   2.666   2.560 -0.0225  2.0959 -1.2640
 2623TIP3    H2 7876   4.057   2.704   2.680  0.4825 -0.6848 -0.6691
 2624TIP3   OH2 7877   5.514   3.860   4.197  0.0877  0.6614  0.8228
 2624TIP3    H1 7878   5.543   3.775   4.230 -2.7966 -0.4585  0.7950
 2624TIP3    H2 7879   5.466   3.899   4.270 -0.0755  1.5050  0.2822
 2625TIP3   OH2 7880   1.195   3.214   1.493 -0.0922 -0.2031  0.1631
 2625TIP3    H1 7881   1.203   3.230   1.587 -2.1681  3.0499 -0.0709
 2625TIP3    H2 7882   1.250   3.281   1.452 -1.8145  0.6304 -0.9145
 2626TIP3   OH2 7883   0.054   3.467   0.943  0.1879 -0.3981 -0.2392
 2626TIP3    H1 7884  -0.031   3.473   0.898 -0.7665 -2.3912  1.1363
 2626TIP3    H2 7885   0.057   3.544   0.999 -0.7635 -0.3221 -0.2674
 2627TIP3   OH2 7886   6.304   1.800   0.889 -0.2481 -0.1975  0.6747
 2627TIP3    H1 7887   6.388   1.798   0.935  0.0378  0.9419  0.2479
 2627TIP3    H2 7888   6.278   1.892   0.892 -1.3862 -0.5047  0.6129
 2628TIP3   OH2 7889   1.997   1.977   0.114 -0.1784  0.2544 -0.3951
 2628TIP3    H1 7890   2.015   1.952   0.205 -0.2971  1.7093  0.0508
 2628TIP3    H2 7891   2.079   2.016   0.083 -0.5909  1.1367 -0.4068
 2629TIP3   OH2 7892   4.170   5.471   2.251 -0.4334  0.2189 -0.3997
 2629TIP3    H1 7893   4.143   5.555   2.215 -1.2441  0.8939  1.6215
 2629TIP3    H2 7894   4.263   5.463   2.229 -0.1786  1.9654 -0.0792
 2630TIP3   OH2 7895   5.687   5.460   0.677  0.1141 -0.1469 -0.2338
 2630TIP3    H1 7896   5.703   5.397   0.747  0.1799  1.1478  0.9573
 2630TIP3    H2 7897   5.773   5.496   0.656  0.0017 -0.0204 -0.4890
 2631TIP3   OH2 7898   4.911   2.955   5.091 -0.4274  0.1041  0.1222
 2631TIP3    H1 7899   4.947   3.009   5.161  0.4030  0.9668 -0.9437
 2631TIP3    H2 7900   4.890   3.017   5.021 -1.6931 -0.6819 -0.2358
 2632TIP3   OH2 7901   1.432   4.218   3.077 -0.7115 -0.2583  0.0698
 2632TIP3    H1 7902   1.500   4.179   3.023  0.4018  0.8428  0.6498
 2632TIP3    H2 7903   1.408   4.147   3.138 -2.2968 -1.6617 -2.0373
 2633TIP3   OH2 7904   4.021   5.202   3.313 -0.0011 -0.3034 -0.3975
 2633TIP3    H1 7905   3.984   5.144   3.246 -0.3514  0.7718 -1.1573
 2633TIP3    H2 7906   4.098   5.155   3.344 -0.4141 -1.2944 -0.8163
 2634TIP3   OH2 7907   6.062   0.933   0.522  0.3426  0.2544  0.3021
 2634TIP3    H1 7908   6.033   0.859   0.576 -0.7618  0.6555  0.2914
 2634TIP3    H2 7909   6.130   0.897   0.466 -1.1551 -1.1253 -0.6993
 2635TIP3   OH2 7910   4.782   0.906   3.833  0.0501  0.9027 -0.0211
 2635TIP3    H1 7911   4.852   0.970   3.843  0.6435  0.3364 -0.4533
 2635TIP3    H2 7912   4.784   0.883   3.740  0.7350 -0.7120  0.3587
 2636TIP3   OH2 7913   4.015   3.035   3.797 -0.0192 -0.5160 -0.3571
 2636TIP3    H1 7914   3.949   3.096   3.829  0.8698 -0.8701  2.4646
 2636TIP3    H2 7915   4.070   3.087   3.739 -0.3723  0.9130  0.5276
 2637TIP3   OH2 7916   0.542   0.683   4.264  0.2139  0.2174 -0.4295
 2637TIP3    H1 7917   0.627   0.726   4.278 -0.0995  0.4333  1.0585
 2637TIP3    H2 7918   0.495   0.697   4.347 -2.1191  1.9341 -1.9152
 2638TIP3   OH2 7919   3.780   3.819   4.128 -0.0707  0.7533 -0.2718
 2638TIP3    H1 7920   3.818   3.738   4.161 -0.1872  0.8024 -0.0123
 2638TIP3    H2 7921   3.690   3.818   4.161 -1.0925 -0.5067 -2.8257
 2639TIP3   OH2 7922   0.403   1.121   0.559 -0.3457  0.4565 -0.4716
 2639TIP3    H1 7923   0.319   1.101   0.518 -0.8640 -1.5788  1.3891
 2639TIP3    H2 7924   0.380   1.151   0.647  0.8771 -0.7385  0.2797
 2640TIP3   OH2 7925   2.437   0.546   1.165  0.1021  1.1232 -0.0133
 2640TIP3    H1 7926   2.409   0.488   1.236 -0.5605  1.0151 -0.3617
 2640TIP3    H2 7927   2.435   0.634   1.204 -1.3742  1.2001 -0.2107
 2641TIP3   OH2 7928   2.005   4.574   1.958  0.1256 -0.2275 -0.1753
 2641TIP3    H1 7929   1.911   4.589   1.964 -0.3375 -2.7606  0.2415
 2641TIP3    H2 7930   2.014   4.499   1.899  1.5686 -1.8574  1.9142
 2642TIP3   OH2 7931   2.339   0.472   0.611 -0.2526 -1.0686  0.5217
 2642TIP3    H1 7932   2.397   0.461   0.535  1.5510 -0.3741  1.7147
 2642TIP3    H2 7933   2.374   0.411   0.677 -1.1588 -0.9365  1.1434
 2643TIP3   OH2 7934   3.709   5.913   2.544  0.6684  0.5527 -0.3033
 2643TIP3    H1 7935   3.716   5.819   2.556 -0.2644  0.4049 -0.8089
 2643TIP3    H2 7936   3.670   5.923   2.457 -1.6079  1.3367  0.7465
 2644TIP3   OH2 7937   0.344   1.066   4.453  0.0252 -0.6421 -0.1232
 2644TIP3    H1 7938   0.275   1.106   4.506  0.2991 -1.8007  1.1645
 2644TIP3    H2 7939   0.385   1.140   4.407 -0.8786  0.2675  0.4864
 2645TIP3   OH2 7940   1.114   5.699   1.174 -0.3517  0.6026 -0.4975
 2645TIP3    H1 7941   1.138   5.782   1.214  1.1727 -0.8208  1.7655
 2645TIP3    H2 7942   1.035   5.671   1.220  0.5877 -0.3523  0.6091
 2646TIP3   OH2 7943   6.184   3.353   4.356  0.6100  0.4495 -0.4335
 2646TIP3    H1 7944   6.228   3.422   4.407 -1.3654  0.7286  1.0315
 2646TIP3    H2 7945   6.111   3.326   4.412  0.0392 -1.2981 -1.9456
 2647TIP3   OH2 7946   3.858   2.981   4.191  0.1116 -0.6422  0.0071
 2647TIP3    H1 7947   3.767   2.983   4.160  0.4362  1.1272 -0.9746
 2647TIP3    H2 7948   3.871   3.066   4.234  1.0962 -1.1605  0.7719
 2648TIP3   OH2 7949   1.580   1.850   3.293  0.1984  0.4686 -0.1631
 2648TIP3    H1 7950   1.614   1.855   3.204  0.7633  1.8192  0.1032
 2648TIP3    H2 7951   1.488   1.823   3.282  1.1259 -2.8749 -0.9071
 2649TIP3   OH2 7952   4.378   2.890   0.531  0.1579 -0.4389  0.2021
 2649TIP3    H1 7953   4.293   2.917   0.495  0.6782  2.2786  0.8303
 2649TIP3    H2 7954   4.358   2.809   0.579 -2.1948  0.3997  0.7794
 2650TIP3   OH2 7955   5.291   1.073   4.811 -0.3848 -0.0709 -0.1090
 2650TIP3    H1 7956   5.280   1.135   4.884 -1.4834 -1.1134  0.6430
 2650TIP3    H2 7957   5.277   1.126   4.733 -0.4538  0.8053  0.4785
 2651TIP3   OH2 7958   4.562   2.710   1.580 -0.1821 -0.0054 -0.1284
 2651TIP3    H1 7959   4.601   2.624   1.562  2.2351  1.3115 -1.9347
 2651TIP3    H2 7960   4.529   2.739   1.495  0.4861  1.4558  0.0731
 2652TIP3   OH2 7961   3.313   0.522   2.703  0.4497 -0.2835 -0.0188
 2652TIP3    H1 7962   3.272   0.458   2.645  0.8314 -1.2199  0.7248
 2652TIP3    H2 7963   3.243   0.582   2.726  0.1617 -0.2301 -0.9784
 2653TIP3   OH2 7964   4.582   1.251   1.113  0.3371  0.3900  0.2685
 2653TIP3    H1 7965   4.537   1.331   1.085 -0.9939 -0.9195 -1.4828
 2653TIP3    H2 7966   4.514   1.197   1.153  1.2299  0.0862  1.4498
 2654TIP3   OH2 7967   5.513   1.506   4.824  0.3112  0.0070 -0.2911
 2654TIP3    H1 7968   5.542   1.546   4.905  1.5502  1.4555 -1.3940
 2654TIP3    H2 7969   5.420   1.486   4.838  0.6169 -0.2068  1.5986
 2655TIP3   OH2 7970   4.810   4.240   0.386 -0.3920 -0.2215  0.3948
 2655TIP3    H1 7971   4.754   4.317   0.375  0.1771  0.1824  0.2152
 2655TIP3    H2 7972   4.854   4.231   0.301  0.4961  0.0335  0.8135
 2656TIP3   OH2 7973   1.221   3.026   2.574 -0.3239  0.8098 -0.4362
 2656TIP3    H1 7974   1.208   2.955   2.637 -0.0666  1.1967  0.0629
 2656TIP3    H2 7975   1.223   2.983   2.489 -0.2344  0.2274 -0.1415
 2657TIP3   OH2 7976   5.807   4.887   4.343  0.2975 -0.4078 -0.0634
 2657TIP3    H1 7977   5.868   4.960   4.329  0.1858 -0.3671 -0.3343
 2657TIP3    H2 7978   5.751   4.888   4.266 -1.0290  0.5225  0.8718
 2658TIP3   OH2 7979   4.184   4.968   2.049 -0.4416 -0.0792  0.1614
 2658TIP3    H1 7980   4.249   5.011   2.105  1.3073 -1.7221 -0.5319
 2658TIP3    H2 7981   4.190   5.014   1.966 -0.5512  0.1017  0.2522
 2659TIP3   OH2 7982   1.461   1.064   3.487  0.1562 -0.2475 -0.4958
 2659TIP3    H1 7983   1.516   1.053   3.409  0.6625 -0.7473 -0.0775
 2659TIP3    H2 7984   1.405   1.138   3.466  1.1175  0.3959 -0.8735
 2660TIP3   OH2 7985   6.015   3.741   3.415  0.2461  0.5215 -0.0214
 2660TIP3    H1 7986   6.043   3.652   3.435  2.2729  1.3689  1.1742
 2660TIP3    H2 7987   5.946   3.760   3.478 -1.1538 -0.6096 -1.1420
 2661TIP3   OH2 7988   4.574   1.550   1.069 -0.1183 -0.6328 -0.0195
 2661TIP3    H1 7989   4.582   1.635   1.026 -1.0592 -1.2231 -1.4623
 2661TIP3    H2 7990   4.652   1.542   1.123  1.0388  0.2660 -1.4821
 2662TIP3   OH2 7991   5.535   0.160   2.356  0.4867  0.3355  0.1255
 2662TIP3    H1 7992   5.476   0.232   2.332 -0.1726 -0.4321 -0.6156
 2662TIP3    H2 7993   5.616   0.179   2.309 -1.0119 -1.5478 -3.6642
 2663TIP3   OH2 7994   0.812   0.396   3.658  0.3031  0.3987 -0.5150
 2663TIP3    H1 7995   0.821   0.491   3.650  1.9785  0.4705  1.4361
 2663TIP3    H2 7996   0.786   0.381   3.749  0.0644 -1.0159 -0.7813
 2664TIP3   OH2 7997   0.844   1.189   4.483  0.0071 -0.1623  0.2115
 2664TIP3    H1 7998   0.841   1.246   4.406 -1.6991 -1.7197 -0.9642
 2664TIP3    H2 7999   0.760   1.203   4.526  1.0975  0.9927  2.1092
 2665TIP3   OH2 8000   3.348   2.285   2.738  0.7382  0.0124 -0.2779
 2665TIP3    H1 8001   3.303   2.340   2.803  0.2089 -0.5420 -0.1582
 2665TIP3    H2 8002   3.299   2.202   2.739  2.2257 -0.9102  0.4175
 2666TIP3   OH2 8003   6.386   1.249   1.415 -0.4467  0.3342  0.3195
 2666TIP3    H1 8004   6.340   1.191   1.476  1.5478 -2.5945 -0.7681
 2666TIP3    H2 8005   6.329   1.325   1.407 -2.7351 -0.9852  2.6452
 2667TIP3   OH2 8006   1.604   1.093   2.425 -0.2565 -0.3186 -0.1760
 2667TIP3    H1 8007   1.606   1.164   2.489  1.9969  0.6076 -1.1481
 2667TIP3    H2 8008   1.599   1.013   2.478 -2.0110  0.5052  0.9669
 2668TIP3   OH2 8009   6.322   2.738   2.894 -0.4868  0.1182  0.0135
 2668TIP3    H1 8010   6.350   2.647   2.890 -4.5390 -1.2599 -0.7443
 2668TIP3    H2 8011   6.296   2.752   2.985 -0.2387  0.4444  0.0397
 2669TIP3   OH2 8012   1.164   5.818   1.766 -0.3419 -0.3459  0.5050
 2669TIP3    H1 8013   1.134   5.748   1.824  0.2270 -0.2782  0.8904
 2669TIP3    H2 8014   1.127   5.796   1.680 -0.6253 -0.8130  0.7416
 2670TIP3   OH2 8015   5.395   2.169   0.281 -0.4479  0.5156  0.2719
 2670TIP3    H1 8016   5.431   2.249   0.245 -0.9098 -0.1652 -1.8553
 2670TIP3    H2 8017   5.466   2.131   0.334  0.7159  0.9581 -0.9370
 2671TIP3   OH2 8018   2.591   4.092   2.065  0.1256  0.7156 -0.0289
 2671TIP3    H1 8019   2.587   4.187   2.078 -2.4284  0.8403 -1.1979
 2671TIP3    H2 8020   2.565   4.055   2.149  1.5844  0.9953  0.5748
 2672TIP3   OH2 8021   0.475   0.360   2.701 -0.4576  0.0477  0.0218
 2672TIP3    H1 8022   0.412   0.410   2.752 -0.5998  0.3782 -0.4668
 2672TIP3    H2 8023   0.559   0.403   2.719 -0.5605  0.3927 -0.2979
 2673TIP3   OH2 8024   0.125   4.634   4.131 -0.1861  0.7834  0.5819
 2673TIP3    H1 8025   0.048   4.689   4.116 -0.8275 -0.3685 -0.4500
 2673TIP3    H2 8026   0.189   4.664   4.067 -0.7296  0.0069 -0.3565
 2674TIP3   OH2 8027   2.587   0.439   3.008 -0.5943 -0.4768  0.5136
 2674TIP3    H1 8028   2.554   0.495   3.079 -0.6022  0.6238 -0.3170
 2674TIP3    H2 8029   2.554   0.481   2.928  0.5336 -0.9077 -0.2031
 2675TIP3   OH2 8030   5.939   0.511   4.362  0.4702 -0.1585  0.4336
 2675TIP3    H1 8031   5.883   0.446   4.404 -1.4371  0.6986 -0.6754
 2675TIP3    H2 8032   5.954   0.477   4.273 -0.9897  1.1104 -0.3364
 2676TIP3   OH2 8033   6.284   0.351   0.186 -0.2521 -0.1721 -0.1622
 2676TIP3    H1 8034   6.311   0.350   0.094 -1.4755  2.3494 -0.6270
 2676TIP3    H2 8035   6.268   0.443   0.205  1.0904 -0.4565  2.9644
 2677TIP3   OH2 8036   5.147   0.140   0.162 -0.2335  0.6989 -0.3165
 2677TIP3    H1 8037   5.200   0.087   0.103 -0.7111  0.5102 -0.5847
 2677TIP3    H2 8038   5.116   0.212   0.107  0.7398  1.4928  0.1412
 2678TIP3   OH2 8039   4.649   1.098   2.270  0.1194 -0.2220  0.0611
 2678TIP3    H1 8040   4.741   1.118   2.252 -0.3558  0.7623 -1.4629
 2678TIP3    H2 8041   4.606   1.183   2.273 -0.9055 -0.7177 -0.2168
 2679TIP3   OH2 8042   6.180   2.657   2.391  0.1116  0.3288  0.1476
 2679TIP3    H1 8043   6.274   2.667   2.405  0.2005 -0.3158  0.0396
 2679TIP3    H2 8044   6.166   2.679   2.299 -0.0355  1.6496  0.4699
 2680TIP3   OH2 8045   0.967   1.043   2.699 -0.0714 -0.5718 -0.2654
 2680TIP3    H1 8046   1.014   1.103   2.758 -0.7878  0.7494 -0.9863
 2680TIP3    H2 8047   1.026   1.031   2.625  0.7384 -2.0611  0.5757
 2681TIP3   OH2 8048   3.885   3.426   4.818 -0.4173  0.0050 -0.0324
 2681TIP3    H1 8049   3.873   3.487   4.745  2.9248 -0.1961 -0.8857
 2681TIP3    H2 8050   3.920   3.480   4.888  0.3549 -0.5346 -0.0046
 2682TIP3   OH2 8051   3.199   5.768   4.034  0.0573  0.2874  0.2119
 2682TIP3    H1 8052   3.177   5.684   3.996 -1.3693  0.8228 -0.1987
 2682TIP3    H2 8053   3.283   5.791   3.995  0.5662 -1.0224  0.4935
 2683TIP3   OH2 8054   2.647   1.454   0.875  0.0173 -0.2693  0.4461
 2683TIP3    H1 8055   2.590   1.377   0.879 -1.2947  0.6910  0.7733
 2683TIP3    H2 8056   2.587   1.529   0.875  1.2614  0.7641  0.1007
 2684TIP3   OH2 8057   2.214   3.971   1.650  0.0067 -0.3850  0.5529
 2684TIP3    H1 8058   2.185   3.941   1.563  1.4885 -2.6120  0.7272
 2684TIP3    H2 8059   2.234   3.890   1.697  1.2959  0.8499  2.2329
 2685TIP3   OH2 8060   1.999   2.966   5.160  0.3730  0.0645 -0.0121
 2685TIP3    H1 8061   2.082   2.982   5.206  0.6914 -1.8280  0.1485
 2685TIP3    H2 8062   2.002   3.027   5.086  1.5347  0.6025  0.4412
 2686TIP3   OH2 8063   4.643   2.671   1.186 -0.3842  0.2531 -0.1455
 2686TIP3    H1 8064   4.733   2.639   1.187 -0.7750 -0.9934  2.4280
 2686TIP3    H2 8065   4.652   2.766   1.175  1.4833  0.5638  2.8747
 2687TIP3   OH2 8066   3.576   1.040   2.896 -0.2241 -0.4170 -0.2362
 2687TIP3    H1 8067   3.486   1.029   2.925 -0.5989  1.7232 -0.4953
 2687TIP3    H2 8068   3.622   1.076   2.972  0.0058  0.1869 -0.6590
 2688TIP3   OH2 8069   0.972   2.153   1.907 -0.0863 -0.1027  0.2335
 2688TIP3    H1 8070   0.999   2.069   1.943 -0.2234 -0.2542 -0.0170
 2688TIP3    H2 8071   0.939   2.133   1.820  0.4101  0.2891 -0.0519
 2689TIP3   OH2 8072   5.377   3.818   0.396  0.3298  0.5790  0.4281
 2689TIP3    H1 8073   5.447   3.755   0.414 -0.7235 -1.3739 -1.8007
 2689TIP3    H2 8074   5.308   3.796   0.459  0.4780  0.3739  0.5198
 2690TIP3   OH2 8075   0.140   4.131   3.384 -0.2267  0.2578  0.8610
 2690TIP3    H1 8076   0.236   4.138   3.375 -0.3732  0.6576 -0.7664
 2690TIP3    H2 8077   0.114   4.214   3.422  0.0045  0.4873  0.5298
 2691TIP3   OH2 8078   0.773   4.965   2.557 -0.1144 -0.2937  0.0057
 2691TIP3    H1 8079   0.850   4.990   2.609 -0.4663 -2.7214  1.8879
 2691TIP3    H2 8080   0.730   4.898   2.609 -0.9718 -2.3719 -3.0770
 2692TIP3   OH2 8081   5.282   5.851   1.693  0.0697  0.7466 -0.2412
 2692TIP3    H1 8082   5.356   5.857   1.632 -0.4376 -1.8467 -1.2719
 2692TIP3    H2 8083   5.208   5.884   1.642  0.2289  1.8884  0.2476
 2693TIP3   OH2 8084   3.089   4.115   1.037 -0.6207  0.1235  0.2050
 2693TIP3    H1 8085   3.168   4.165   1.017  1.7249 -3.2417  0.3626
 2693TIP3    H2 8086   3.096   4.095   1.131 -2.7873  1.4179  0.7232
 2694TIP3   OH2 8087   3.912   1.507   2.909  0.1385 -0.0902  0.0738
 2694TIP3    H1 8088   3.975   1.502   2.837 -0.7309 -1.3317 -0.6487
 2694TIP3    H2 8089   3.939   1.438   2.969  0.0769  0.0654  0.2825
 2695TIP3   OH2 8090   3.635   4.910   2.231  1.0150 -0.0934  0.0063
 2695TIP3    H1 8091   3.719   4.953   2.214  1.8128 -1.8305 -0.6462
 2695TIP3    H2 8092   3.571   4.980   2.225  2.0885  0.7866 -2.5249
 2696TIP3   OH2 8093   2.351   1.734   3.065  0.1333 -0.1911 -1.0286
 2696TIP3    H1 8094   2.378   1.656   3.114 -1.7063 -0.5897 -0.5726
 2696TIP3    H2 8095   2.415   1.801   3.091  2.2817 -1.6942 -2.0854
 2697TIP3   OH2 8096   2.906   2.504   1.964  0.3902  0.1506 -0.2241
 2697TIP3    H1 8097   2.863   2.459   2.037 -0.8536  0.5764 -0.6669
 2697TIP3    H2 8098   2.874   2.594   1.969  2.4975  0.9049  0.3736
 2698TIP3   OH2 8099   2.841   5.150   2.593  0.8279 -0.1468 -0.0983
 2698TIP3    H1 8100   2.830   5.242   2.617  1.8254  0.3156 -1.3190
 2698TIP3    H2 8101   2.876   5.152   2.504  1.4815 -1.6883  0.0857
 2699TIP3   OH2 8102   2.755   0.427   4.231 -0.1962 -0.1658 -0.1374
 2699TIP3    H1 8103   2.697   0.454   4.302 -0.1240 -1.7007  0.5554
 2699TIP3    H2 8104   2.755   0.331   4.237  0.6518 -0.2643 -1.5451
 2700TIP3   OH2 8105   0.239   5.781   1.324 -0.5702  0.2419 -0.2536
 2700TIP3    H1 8106   0.250   5.861   1.273  1.1738  0.4426  0.3810
 2700TIP3    H2 8107   0.253   5.710   1.261 -1.5410  0.4258 -0.6928
 2701TIP3   OH2 8108   2.406   0.704   0.352 -0.2373 -0.4320 -0.1452
 2701TIP3    H1 8109   2.430   0.663   0.269 -1.1283 -0.5277 -0.3656
 2701TIP3    H2 8110   2.312   0.692   0.359 -0.3928  0.8259  0.2001
 2702TIP3   OH2 8111   5.713   4.003   2.225 -0.2941 -0.4249  0.0487
 2702TIP3    H1 8112   5.669   3.985   2.307  0.2905 -1.4520  0.1519
 2702TIP3    H2 8113   5.788   4.058   2.249  0.2736 -1.3030  0.3025
 2703TIP3   OH2 8114   2.709   2.479   2.986 -0.6870 -0.1895 -0.2658
 2703TIP3    H1 8115   2.756   2.561   3.003 -0.5702 -0.1275 -0.8627
 2703TIP3    H2 8116   2.617   2.501   3.000 -0.5161 -0.4263  1.3452
 2704TIP3   OH2 8117   5.889   0.134   2.224 -0.0274 -0.1744 -0.1160
 2704TIP3    H1 8118   5.924   0.162   2.308 -2.0759  0.7611  0.4879
 2704TIP3    H2 8119   5.965   0.128   2.167  1.0915  2.4744  0.9138
 2705TIP3   OH2 8120   0.205   1.380   2.077  0.3080 -0.6764 -0.0760
 2705TIP3    H1 8121   0.284   1.391   2.131  1.6053 -2.1003 -1.5617
 2705TIP3    H2 8122   0.208   1.453   2.015 -0.3226  0.0615  0.7473
 2706TIP3   OH2 8123   5.537   5.677   0.116  0.1946  0.6367  0.7521
 2706TIP3    H1 8124   5.526   5.771   0.101 -0.6205  0.5178  0.6158
 2706TIP3    H2 8125   5.529   5.667   0.211 -0.2895  0.6287  0.7103
 2707TIP3   OH2 8126   1.549   2.114   4.379 -0.1307 -0.4263 -0.8437
 2707TIP3    H1 8127   1.546   2.209   4.378  0.8941 -0.3948 -1.2161
 2707TIP3    H2 8128   1.585   2.090   4.293 -0.6835 -1.1601 -0.8783
 2708TIP3   OH2 8129   4.067   3.992   2.098 -0.2495  0.1544 -0.0255
 2708TIP3    H1 8130   4.056   3.929   2.169 -1.0549  0.9879  0.6309
 2708TIP3    H2 8131   4.157   4.024   2.108 -0.7073  1.1227  1.4058
 2709TIP3   OH2 8132   0.386   3.877   4.579  0.4331 -0.1218 -0.4480
 2709TIP3    H1 8133   0.474   3.842   4.594  0.9801  2.1194  2.6754
 2709TIP3    H2 8134   0.398   3.946   4.514  0.5815 -1.0887 -1.4746
 2710TIP3   OH2 8135   2.438   2.486   4.243  0.9544 -0.0051 -0.0507
 2710TIP3    H1 8136   2.460   2.476   4.336 -0.6755  2.1772  0.6708
 2710TIP3    H2 8137   2.464   2.576   4.222 -1.7185  0.7203 -0.6962
 2711TIP3   OH2 8138   1.905   5.777   4.446  0.2345  0.7457 -0.0417
 2711TIP3    H1 8139   1.901   5.854   4.389  0.6670  1.0998  0.4048
 2711TIP3    H2 8140   1.986   5.787   4.496  0.3762 -0.0813 -0.0878
 2712TIP3   OH2 8141   1.854   2.544   0.718 -0.2301  0.3818 -0.0172
 2712TIP3    H1 8142   1.921   2.496   0.768 -0.9135  1.3712  1.9423
 2712TIP3    H2 8143   1.899   2.623   0.688 -0.1620  0.4016  0.1372
 2713TIP3   OH2 8144   4.201   0.560   2.494  0.0256 -0.0909 -0.5715
 2713TIP3    H1 8145   4.232   0.470   2.484  0.0264 -0.1419 -0.1288
 2713TIP3    H2 8146   4.130   0.568   2.430 -0.3115 -0.5629 -0.2646
 2714TIP3   OH2 8147   2.704   0.168   2.166 -0.3045 -0.0934  0.0848
 2714TIP3    H1 8148   2.745   0.254   2.161 -0.4768 -0.0683 -1.2473
 2714TIP3    H2 8149   2.652   0.170   2.246  0.1745  0.8248  0.3795
 2715TIP3   OH2 8150   5.885   5.685   0.994  0.2682  0.5409 -0.4533
 2715TIP3    H1 8151   5.951   5.709   0.929 -0.6630 -1.5355 -2.2912
 2715TIP3    H2 8152   5.802   5.690   0.948 -0.5340 -0.0767  0.8465
 2716TIP3   OH2 8153   3.689   5.262   1.454  0.2068  0.2429  0.1262
 2716TIP3    H1 8154   3.671   5.169   1.462  2.0036 -0.2243 -0.8162
 2716TIP3    H2 8155   3.617   5.297   1.402  0.2446 -0.8893 -0.6991
 2717TIP3   OH2 8156   3.640   3.581   3.927  0.1613  0.4995  0.2565
 2717TIP3    H1 8157   3.636   3.677   3.927 -0.9721  0.5249  2.7228
 2717TIP3    H2 8158   3.700   3.559   3.998 -0.1020 -0.6168  0.1519
 2718TIP3   OH2 8159   1.420   5.779   0.075 -0.0468 -0.1526 -0.0878
 2718TIP3    H1 8160   1.391   5.692   0.049  1.7615 -0.9410  0.3952
 2718TIP3    H2 8161   1.357   5.838   0.034 -3.5299 -1.7249  2.4558
 2719TIP3   OH2 8162   6.027   4.275   1.065  0.2628 -0.4359  0.0158
 2719TIP3    H1 8163   5.956   4.319   1.111 -0.6786 -1.2445 -0.6159
 2719TIP3    H2 8164   5.994   4.186   1.049  2.2217 -1.5181  1.5346
 2720TIP3   OH2 8165   5.136   4.988   0.535 -0.0694  0.0423  0.1427
 2720TIP3    H1 8166   5.073   5.031   0.593 -0.7373 -0.8904  0.1335
 2720TIP3    H2 8167   5.083   4.954   0.463  0.6994  0.8193 -0.8224
 2721TIP3   OH2 8168   2.248   3.667   0.833  0.2669 -0.1863 -0.0006
 2721TIP3    H1 8169   2.257   3.649   0.739  0.3520  0.0687 -0.0417
 2721TIP3    H2 8170   2.328   3.713   0.857  0.3064 -0.3714  0.2286
 2722TIP3   OH2 8171   3.995   2.981   2.732 -0.2354 -0.1677  0.3723
 2722TIP3    H1 8172   4.040   2.950   2.811  0.2224  1.1388  0.6498
 2722TIP3    H2 8173   4.037   2.934   2.660 -0.5308 -1.2377  0.8801
 2723TIP3   OH2 8174   4.146   2.197   5.118 -0.3477 -0.5434 -0.4308
 2723TIP3    H1 8175   4.059   2.222   5.147 -0.6226 -1.6088 -0.3200
 2723TIP3    H2 8176   4.132   2.121   5.062  0.7110 -2.2999  1.5916
 2724TIP3   OH2 8177   1.827   4.047   3.622 -0.8420  0.2905  0.0339
 2724TIP3    H1 8178   1.800   4.126   3.668 -0.8760  1.7151 -2.2570
 2724TIP3    H2 8179   1.745   4.004   3.598 -0.8413  0.0228  0.4969
 2725TIP3   OH2 8180   2.926   2.632   3.100  0.3946 -0.0945 -0.0407
 2725TIP3    H1 8181   2.928   2.718   3.058  0.9784 -0.1137 -0.0665
 2725TIP3    H2 8182   3.019   2.607   3.108  0.2249 -0.8374 -0.2707
 2726TIP3   OH2 8183   0.189   2.009   1.545 -0.1164  0.3396  0.0818
 2726TIP3    H1 8184   0.194   1.960   1.462 -0.4826  1.1275 -0.4215
 2726TIP3    H2 8185   0.234   2.091   1.527  0.9362  0.0013  1.0790
 2727TIP3   OH2 8186   3.723   3.822   1.806 -0.0227 -0.5101 -0.1196
 2727TIP3    H1 8187   3.688   3.848   1.721 -1.8218  0.4086  0.8281
 2727TIP3    H2 8188   3.799   3.878   1.818  0.9317 -1.4371 -1.5707
 2728TIP3   OH2 8189   4.681   4.108   1.709  0.3518  0.3361 -0.0456
 2728TIP3    H1 8190   4.734   4.081   1.784  1.0185 -0.1268 -0.6708
 2728TIP3    H2 8191   4.591   4.106   1.741  0.5691 -0.5230  0.5503
 2729TIP3   OH2 8192   5.257   2.849   0.982 -0.4382  0.0361  0.2661
 2729TIP3    H1 8193   5.266   2.815   1.071  1.0649 -3.7086 -1.1075
 2729TIP3    H2 8194   5.167   2.826   0.956  0.0971 -1.7894 -0.1368
 2730TIP3   OH2 8195   6.285   3.422   5.091  0.5179  0.2226  0.1877
 2730TIP3    H1 8196   6.194   3.409   5.119  0.7838 -1.7658  0.2346
 2730TIP3    H2 8197   6.326   3.469   5.164  0.0813 -0.9064  1.1890
 2731TIP3   OH2 8198   1.119   3.146   2.865 -0.4629  0.5754  0.0321
 2731TIP3    H1 8199   1.049   3.203   2.833 -0.8514 -0.2115 -0.5622
 2731TIP3    H2 8200   1.183   3.206   2.904 -0.3363  1.5075 -1.5310
 2732TIP3   OH2 8201   4.427   4.771   3.542 -0.0533  0.5560 -0.1089
 2732TIP3    H1 8202   4.423   4.818   3.459 -1.2170 -0.2837 -0.5509
 2732TIP3    H2 8203   4.515   4.788   3.575  0.1899  1.4668 -1.1745
 2733TIP3   OH2 8204   4.307   3.594   4.643  0.0779 -0.0979 -0.6994
 2733TIP3    H1 8205   4.358   3.582   4.563  1.0122 -0.3424 -0.0873
 2733TIP3    H2 8206   4.329   3.518   4.697 -1.3496 -0.4724 -0.6248
 2734TIP3   OH2 8207   0.398   2.422   1.691  0.2137  0.2860  0.7078
 2734TIP3    H1 8208   0.390   2.387   1.780  0.9755 -1.3202  0.1922
 2734TIP3    H2 8209   0.375   2.348   1.635  0.0042  1.2003 -0.4386
 2735TIP3   OH2 8210   1.504   1.807   4.818 -0.5441  0.7458 -0.5401
 2735TIP3    H1 8211   1.507   1.850   4.732 -2.1724 -0.2520 -1.1401
 2735TIP3    H2 8212   1.416   1.825   4.851 -0.4834 -0.2112  0.1852
 2736TIP3   OH2 8213   1.410   0.930   4.276  0.5369 -0.0713 -0.3624
 2736TIP3    H1 8214   1.488   0.944   4.224 -0.0733 -1.3387 -1.6747
 2736TIP3    H2 8215   1.346   0.991   4.241  1.1653  1.7513  1.4157
 2737TIP3   OH2 8216   2.506   4.456   1.854  0.4202 -0.4777 -0.6691
 2737TIP3    H1 8217   2.530   4.535   1.806 -0.1783  0.5543  0.6422
 2737TIP3    H2 8218   2.431   4.420   1.806  0.1208  0.2708 -0.7779
 2738TIP3   OH2 8219   3.054   0.860   0.717  0.2965  0.2707 -0.1139
 2738TIP3    H1 8220   2.967   0.824   0.732  0.3091 -0.4308 -1.5937
 2738TIP3    H2 8221   3.041   0.930   0.654  0.4461  2.1540  1.8459
 2739TIP3   OH2 8222   4.426   2.791   1.359  0.2669  0.5565 -0.3531
 2739TIP3    H1 8223   4.333   2.810   1.345  0.1791  1.0680  0.8212
 2739TIP3    H2 8224   4.461   2.779   1.270 -1.0255 -0.2300 -0.7810
 2740TIP3   OH2 8225   2.196   5.725   3.192 -0.3409 -0.2220  0.5819
 2740TIP3    H1 8226   2.154   5.690   3.271  0.7081 -1.0413  0.7974
 2740TIP3    H2 8227   2.277   5.765   3.224 -1.2339  2.0083  0.2718
 2741TIP3   OH2 8228   6.260   5.870   5.090  0.6345 -0.3035 -0.2569
 2741TIP3    H1 8229   6.235   5.800   5.029 -1.8376  0.0766  0.1874
 2741TIP3    H2 8230   6.237   5.835   5.176 -0.8050  1.0614 -0.0432
 2742TIP3   OH2 8231   1.697   4.264   3.237  0.0025  0.4728  0.5422
 2742TIP3    H1 8232   1.693   4.359   3.251  1.3489  0.7801 -0.8473
 2742TIP3    H2 8233   1.620   4.230   3.282 -0.6149  2.2496  0.9222
 2743TIP3   OH2 8234   3.411   3.713   1.382 -0.0053 -0.1139 -0.1624
 2743TIP3    H1 8235   3.318   3.732   1.372 -0.3433 -1.7217 -0.3525
 2743TIP3    H2 8236   3.419   3.680   1.472  0.2818 -0.5007 -0.3266
 2744TIP3   OH2 8237   5.443   4.912   1.402 -0.1650 -0.1393 -0.2137
 2744TIP3    H1 8238   5.531   4.894   1.436 -0.2679  1.4553  1.0303
 2744TIP3    H2 8239   5.385   4.895   1.476 -0.4741  2.6448  0.3126
 2745TIP3   OH2 8240   1.830   2.305   2.170  0.3370  0.1034 -0.1322
 2745TIP3    H1 8241   1.865   2.392   2.152  3.0545 -0.6818  0.8485
 2745TIP3    H2 8242   1.827   2.263   2.085  0.0176  0.7927 -0.4716
 2746TIP3   OH2 8243   3.525   3.632   3.239  0.0299 -0.4909 -0.2334
 2746TIP3    H1 8244   3.521   3.663   3.149  3.0055 -1.4312 -0.7833
 2746TIP3    H2 8245   3.609   3.664   3.272 -0.8857 -0.3319  2.1905
 2747TIP3   OH2 8246   5.488   5.820   2.767  0.2716  0.6801  0.1340
 2747TIP3    H1 8247   5.581   5.818   2.745  0.1043 -1.4430 -0.6211
 2747TIP3    H2 8248   5.446   5.771   2.696 -1.2534  0.4032  1.1923
 2748TIP3   OH2 8249   2.416   0.727   3.651  0.0824  0.1701  0.7327
 2748TIP3    H1 8250   2.404   0.632   3.649 -1.3512  0.3408  0.1656
 2748TIP3    H2 8251   2.389   0.753   3.740  0.0204  0.1086  0.7317
 2749TIP3   OH2 8252   3.126   4.750   0.835 -0.4944  0.2102  0.0223
 2749TIP3    H1 8253   3.068   4.805   0.888  0.9144  0.9423  0.8454
 2749TIP3    H2 8254   3.171   4.695   0.899 -0.5662 -0.6440 -0.6460
 2750TIP3   OH2 8255   2.997   2.049   3.272  0.0652 -0.5081  0.1515
 2750TIP3    H1 8256   3.045   2.132   3.273  0.1826 -0.5690 -0.1591
 2750TIP3    H2 8257   3.043   1.996   3.206 -1.1203 -0.1448 -1.0088
 2751TIP3   OH2 8258   2.219   0.036   1.499 -0.1654 -0.1500  0.5879
 2751TIP3    H1 8259   2.297   0.017   1.550  1.1650  1.1655 -0.8368
 2751TIP3    H2 8260   2.146   0.008   1.554  1.3301 -3.3579  1.1305
 2752TIP3   OH2 8261   5.232   5.434   2.663  0.5693  0.4607 -0.4582
 2752TIP3    H1 8262   5.140   5.437   2.688  0.6333  1.0126 -0.2687
 2752TIP3    H2 8263   5.267   5.356   2.705  0.5824  1.1517  0.8706
 2753TIP3   OH2 8264   1.556   4.829   4.833  0.1736  0.0662  0.1563
 2753TIP3    H1 8265   1.467   4.805   4.858  0.6954 -0.3494  1.7369
 2753TIP3    H2 8266   1.545   4.894   4.764 -1.3259 -0.8245 -0.4967
 2754TIP3   OH2 8267   0.384   1.903   3.527 -0.1016 -0.4230 -0.2627
 2754TIP3    H1 8268   0.477   1.890   3.543  0.0939  2.7433  2.1978
 2754TIP3    H2 8269   0.379   1.956   3.448  0.4654  1.4287  0.8730
 2755TIP3   OH2 8270   3.578   5.909   2.254 -0.1222  0.4100 -0.1479
 2755TIP3    H1 8271   3.525   5.924   2.176  0.1289  2.3867  0.0066
 2755TIP3    H2 8272   3.636   5.985   2.259  2.4375 -1.3987 -0.0446
 2756TIP3   OH2 8273   2.102   4.059   1.032 -0.5929 -0.6250 -0.3719
 2756TIP3    H1 8274   2.021   4.100   1.003 -0.0023  0.0990 -1.0582
 2756TIP3    H2 8275   2.171   4.106   0.985  0.2463 -1.0562  0.3870
 2757TIP3   OH2 8276   0.213   1.507   1.808 -0.0966 -0.0468 -0.0753
 2757TIP3    H1 8277   0.192   1.599   1.820  0.2715 -0.1578  1.7200
 2757TIP3    H2 8278   0.183   1.486   1.719 -1.9502  1.2975  0.1921
 2758TIP3   OH2 8279   5.529   4.617   4.675 -0.1063  0.0634 -0.4033
 2758TIP3    H1 8280   5.616   4.606   4.634  1.0484  0.4403  1.8054
 2758TIP3    H2 8281   5.511   4.532   4.715 -1.2817 -0.3387 -1.7189
 2759TIP3   OH2 8282   4.695   5.730   5.107  0.2452 -0.0108  0.2306
 2759TIP3    H1 8283   4.725   5.663   5.045  1.6693  2.1169 -1.5318
 2759TIP3    H2 8284   4.611   5.758   5.072  0.2047 -0.0527  0.2942
 2760TIP3   OH2 8285   4.477   3.837  -0.001  0.2956 -0.1768 -0.3718
 2760TIP3    H1 8286   4.434   3.867   0.080 -1.8251  1.7761 -2.0934
 2760TIP3    H2 8287   4.570   3.845   0.017 -0.0533 -0.9538  2.2628
 2761TIP3   OH2 8288   4.678   2.432   1.570 -0.5567 -0.5793 -0.3535
 2761TIP3    H1 8289   4.758   2.481   1.553 -0.9900 -0.0191 -0.8544
 2761TIP3    H2 8290   4.695   2.344   1.538  0.2022 -0.7414  0.4690
 2762TIP3   OH2 8291   5.202   5.970   0.504  0.4411  0.3920  0.1605
 2762TIP3    H1 8292   5.293   5.947   0.523  0.2093 -2.3734 -1.5423
 2762TIP3    H2 8293   5.207   6.052   0.455  1.9706  0.5105  0.4757
 2763TIP3   OH2 8294   1.033   4.179   0.474  0.1417  0.5998  0.2936
 2763TIP3    H1 8295   1.066   4.090   0.491 -1.0003  0.2461  0.7552
 2763TIP3    H2 8296   0.941   4.175   0.498 -0.1189  1.7051 -0.4606
 2764TIP3   OH2 8297   4.536   1.667   1.646  0.3869 -0.2860 -0.1389
 2764TIP3    H1 8298   4.599   1.654   1.575  0.6661 -1.6368  0.3074
 2764TIP3    H2 8299   4.452   1.678   1.602  0.6032 -0.7715 -0.6987
 2765TIP3   OH2 8300   1.629   4.960   2.170  0.3787 -0.4945 -0.1283
 2765TIP3    H1 8301   1.619   4.866   2.185 -0.5557 -0.3564  0.2364
 2765TIP3    H2 8302   1.566   4.980   2.101 -0.7154  0.1308  0.9929
 2766TIP3   OH2 8303   3.020   1.407   2.712  0.2110  0.3691  0.1135
 2766TIP3    H1 8304   3.070   1.417   2.631 -0.8883 -1.9779 -0.9631
 2766TIP3    H2 8305   3.065   1.338   2.760  0.1666  0.9075  0.9464
 2767TIP3   OH2 8306   2.497   2.537   3.413 -0.3970  0.7114 -0.0480
 2767TIP3    H1 8307   2.590   2.511   3.415 -0.0122  1.7310 -2.2612
 2767TIP3    H2 8308   2.453   2.471   3.466  1.3161 -1.1080 -0.7577
 2768TIP3   OH2 8309   4.866   4.010   1.244 -0.9131 -0.1064  0.3512
 2768TIP3    H1 8310   4.860   4.042   1.334 -0.1322 -1.1595  0.7926
 2768TIP3    H2 8311   4.817   3.928   1.245  0.6514 -1.0764  0.3022
 2769TIP3   OH2 8312   3.297   3.344   2.953 -0.4016 -0.2721  0.2417
 2769TIP3    H1 8313   3.330   3.404   2.886 -0.6986  0.3879  0.6720
 2769TIP3    H2 8314   3.349   3.264   2.942 -2.0490 -1.1027 -2.3572
 2770TIP3   OH2 8315   3.834   5.323   0.263  0.0181  0.5544 -0.1137
 2770TIP3    H1 8316   3.884   5.378   0.202 -0.8105  1.5687  0.0893
 2770TIP3    H2 8317   3.748   5.364   0.266 -0.4776 -0.5058  0.4149
 2771TIP3   OH2 8318   1.585   3.634   0.629 -0.1451 -0.3155 -0.0152
 2771TIP3    H1 8319   1.598   3.555   0.681 -0.5894 -1.6124 -1.7428
 2771TIP3    H2 8320   1.496   3.626   0.595  0.5049 -0.1555 -1.8831
 2772TIP3   OH2 8321   0.599   3.579   4.979 -0.3061 -0.1036  0.1756
 2772TIP3    H1 8322   0.530   3.546   5.036 -2.6502  0.3492 -2.1826
 2772TIP3    H2 8323   0.667   3.612   5.038 -2.0683 -0.6242  2.6136
 2773TIP3   OH2 8324   5.380   0.560   4.181 -0.2101  0.1136 -0.2601
 2773TIP3    H1 8325   5.289   0.587   4.192 -0.5416 -0.9916 -0.0876
 2773TIP3    H2 8326   5.411   0.610   4.106 -1.8931 -1.6240 -2.2687
 2774TIP3   OH2 8327   0.715   3.409   1.513 -0.3889  0.5753  0.5128
 2774TIP3    H1 8328   0.673   3.494   1.527 -0.2782  0.9294 -1.0463
 2774TIP3    H2 8329   0.650   3.358   1.465 -0.0106  0.2032  0.3863
 2775TIP3   OH2 8330   1.527   0.248   0.440 -0.3701 -0.1390 -0.1808
 2775TIP3    H1 8331   1.507   0.337   0.411  3.1572  1.2221  0.9402
 2775TIP3    H2 8332   1.529   0.253   0.535  1.5622 -0.8961 -0.1325
 2776TIP3   OH2 8333   5.976   0.029   4.783 -0.0037 -0.2385  0.6387
 2776TIP3    H1 8334   6.024   0.111   4.770  1.0623 -0.8299  0.7201
 2776TIP3    H2 8335   5.948   0.033   4.875 -0.2363  0.1663  0.5557
 2777TIP3   OH2 8336   4.323   1.638   3.577  0.7476 -0.0239 -0.4714
 2777TIP3    H1 8337   4.298   1.556   3.536  0.6716  0.2888 -1.0639
 2777TIP3    H2 8338   4.400   1.667   3.528 -0.0072  0.9141 -1.1453
 2778TIP3   OH2 8339   4.806   5.326   1.603 -0.0566  0.3272 -0.1611
 2778TIP3    H1 8340   4.808   5.416   1.569  1.2072  0.5503  0.4460
 2778TIP3    H2 8341   4.873   5.280   1.552 -0.1028 -0.0537  0.1219
 2779TIP3   OH2 8342   4.860   5.847   2.950 -0.0422 -0.1503 -0.3178
 2779TIP3    H1 8343   4.944   5.802   2.958 -0.3642 -0.6051  0.8299
 2779TIP3    H2 8344   4.882   5.940   2.952  0.4185 -0.2618  0.4726
 2780TIP3   OH2 8345   4.569   5.191   4.915 -0.3294 -0.1288  0.3769
 2780TIP3    H1 8346   4.518   5.273   4.909  1.2975  0.8184 -2.2352
 2780TIP3    H2 8347   4.504   5.122   4.905 -1.4823  0.9092  0.4441
 2781TIP3   OH2 8348   4.144   1.835   0.809 -0.1017 -0.4983 -0.2912
 2781TIP3    H1 8349   4.160   1.798   0.722  1.1572 -0.0073 -0.2962
 2781TIP3    H2 8350   4.086   1.910   0.793  1.3898  0.5721 -0.9523
 2782TIP3   OH2 8351   2.547   0.087   3.300 -0.2410  0.4516  0.0983
 2782TIP3    H1 8352   2.486   0.024   3.338 -0.7875  1.5563  1.1190
 2782TIP3    H2 8353   2.537   0.077   3.205 -2.1261  0.6906  0.2390
 2783TIP3   OH2 8354   1.619   0.417   3.156  0.2993  0.2582 -0.5336
 2783TIP3    H1 8355   1.686   0.353   3.132  0.9404  1.2073 -1.3415
 2783TIP3    H2 8356   1.538   0.366   3.162  0.6814 -0.5340 -1.7313
 2784TIP3   OH2 8357   1.738   1.057   2.033 -0.1780 -0.0878  0.2082
 2784TIP3    H1 8358   1.796   1.050   2.109  0.1199  0.1254  0.0032
 2784TIP3    H2 8359   1.797   1.057   1.957 -0.2363  2.3679  0.0790
 2785TIP3   OH2 8360   6.092   3.355   0.338 -0.4861  0.0154 -0.0943
 2785TIP3    H1 8361   6.062   3.441   0.369  0.7325  0.6797 -0.6913
 2785TIP3    H2 8362   6.081   3.297   0.414  1.7155  1.4254  1.4141
 2786TIP3   OH2 8363   4.954   1.003   4.134 -0.1765  0.0721 -0.1952
 2786TIP3    H1 8364   5.011   1.065   4.089  1.6534  0.6000  2.5833
 2786TIP3    H2 8365   4.877   1.054   4.158 -0.7388  0.0211 -1.7709
 2787TIP3   OH2 8366   5.252   3.292   1.652 -0.3888  0.1944 -0.2835
 2787TIP3    H1 8367   5.223   3.201   1.665 -0.4921 -0.1163 -2.3800
 2787TIP3    H2 8368   5.197   3.325   1.582 -1.1553  2.3236  1.2276
 2788TIP3   OH2 8369   3.005   3.369   4.245 -0.2821  0.7017 -0.6106
 2788TIP3    H1 8370   2.927   3.365   4.189  0.4154  0.7267 -1.6047
 2788TIP3    H2 8371   3.018   3.462   4.261  1.2745  0.9800 -2.9882
 2789TIP3   OH2 8372   1.714   3.731   4.149  0.6972 -0.4051 -0.0549
 2789TIP3    H1 8373   1.744   3.660   4.091  0.0814  1.2134 -2.5126
 2789TIP3    H2 8374   1.794   3.762   4.192  1.1311 -1.8605  0.2233
 2790TIP3   OH2 8375   2.051   3.503   2.921 -0.0486 -0.1873  0.0259
 2790TIP3    H1 8376   2.100   3.585   2.911 -0.5087  0.3149  1.6232
 2790TIP3    H2 8377   1.963   3.525   2.889 -0.5006  0.3297  1.5325
 2791TIP3   OH2 8378   4.630   5.609   3.983 -0.2943  0.1044  0.3201
 2791TIP3    H1 8379   4.708   5.651   3.948  0.5703 -1.5142  0.2241
 2791TIP3    H2 8380   4.601   5.667   4.054  2.5039 -0.4982  2.1120
 2792TIP3   OH2 8381   5.298   1.077   1.407  0.7009  0.0290  0.8835
 2792TIP3    H1 8382   5.242   1.000   1.396  1.1384 -0.5153  2.2520
 2792TIP3    H2 8383   5.324   1.100   1.318 -2.8855  1.2718 -0.0172
 2793TIP3   OH2 8384   5.774   4.110   0.485  0.1327  0.1226 -0.0293
 2793TIP3    H1 8385   5.679   4.113   0.470 -0.1160  1.7960  1.4697
 2793TIP3    H2 8386   5.805   4.038   0.430 -1.8728  0.1001 -1.2280
 2794TIP3   OH2 8387   4.676   1.993   0.811 -0.2917 -0.0822  0.0360
 2794TIP3    H1 8388   4.581   2.005   0.807 -0.5293 -0.5471  2.8012
 2794TIP3    H2 8389   4.711   2.063   0.755 -2.2191  0.2103 -0.9006
 2795TIP3   OH2 8390   0.486   0.045   1.560 -0.1928 -0.3346  0.2377
 2795TIP3    H1 8391   0.400   0.019   1.595 -0.3232 -0.2531 -0.0176
 2795TIP3    H2 8392   0.517   0.112   1.620  0.4694 -1.5669  1.3283
 2796TIP3   OH2 8393   6.150   4.677   4.596  0.2712 -0.0892 -0.5540
 2796TIP3    H1 8394   6.133   4.614   4.525 -2.7128 -2.1084  1.6392
 2796TIP3    H2 8395   6.082   4.744   4.585  1.7786  1.3821 -1.3239
 2797TIP3   OH2 8396   3.568   5.383   3.493  0.0907  0.2347  0.1822
 2797TIP3    H1 8397   3.576   5.426   3.408  2.5117 -0.8924 -0.2308
 2797TIP3    H2 8398   3.552   5.455   3.555 -0.6933  1.1750 -1.0745
 2798TIP3   OH2 8399   2.426   3.824   0.007 -0.3042 -0.4860  0.6970
 2798TIP3    H1 8400   2.344   3.811  -0.041  0.1846 -0.5063 -0.1324
 2798TIP3    H2 8401   2.398   3.861   0.091 -1.1135  0.2541  0.1241
 2799TIP3   OH2 8402   2.938   1.297   2.153  0.5745 -0.0381  0.1985
 2799TIP3    H1 8403   2.961   1.338   2.069 -0.1522 -0.3787 -0.1723
 2799TIP3    H2 8404   2.864   1.347   2.185  1.8834  1.1782  1.4936
 2800TIP3   OH2 8405   5.047   1.680   1.940  0.1214 -0.2344 -0.1743
 2800TIP3    H1 8406   5.118   1.648   1.885  0.9031 -0.1688  0.7795
 2800TIP3    H2 8407   5.071   1.655   2.029 -1.4330 -0.8959  0.0960
 2801TIP3   OH2 8408   4.313   0.739   3.013  0.4330 -0.0524 -0.4960
 2801TIP3    H1 8409   4.340   0.764   2.925  2.4981  0.5836  0.2420
 2801TIP3    H2 8410   4.340   0.647   3.021 -2.2344 -1.0030 -1.3778
 2802TIP3   OH2 8411   3.301   5.550   2.045  0.3074  0.3048 -0.6235
 2802TIP3    H1 8412   3.221   5.503   2.024  0.9683 -0.7415 -0.8376
 2802TIP3    H2 8413   3.271   5.633   2.083 -0.8637 -0.2258 -0.3639
 2803TIP3   OH2 8414   5.225   2.087   2.456 -0.0203  0.1696 -0.1899
 2803TIP3    H1 8415   5.202   2.102   2.547  0.3919 -0.1623 -0.0294
 2803TIP3    H2 8416   5.162   2.020   2.427  0.7778 -0.8022  0.2749
 2804TIP3   OH2 8417   3.774   5.304   2.118 -0.2212 -0.0238  0.0488
 2804TIP3    H1 8418   3.865   5.276   2.117 -0.6278 -1.4412  0.7334
 2804TIP3    H2 8419   3.770   5.374   2.052  1.4615  0.4545  0.4060
 2805TIP3   OH2 8420   1.018   5.054   2.026  0.5471 -0.0870 -0.0550
 2805TIP3    H1 8421   0.989   5.091   1.943  3.7454  1.5239 -0.6297
 2805TIP3    H2 8422   0.966   5.099   2.092 -0.1054  0.6981 -1.0844
 2806TIP3   OH2 8423   4.860   2.861   1.420  0.0199 -0.2811 -0.2018
 2806TIP3    H1 8424   4.829   2.780   1.459 -0.9460 -0.1660 -0.7134
 2806TIP3    H2 8425   4.799   2.879   1.349 -0.9462  1.8612  1.0540
 2807TIP3   OH2 8426   0.390   1.661   3.698 -0.0230 -0.0644  0.1732
 2807TIP3    H1 8427   0.435   1.618   3.626 -1.2101 -1.4689  0.2296
 2807TIP3    H2 8428   0.303   1.682   3.664 -0.1115  0.5652  0.7572
 2808TIP3   OH2 8429   4.394   4.383   0.586 -0.7316  0.0449  0.5057
 2808TIP3    H1 8430   4.334   4.380   0.660 -3.3343 -0.5525 -1.4455
 2808TIP3    H2 8431   4.377   4.301   0.538 -0.0183  0.9102 -1.3398
 2809TIP3   OH2 8432   4.697   0.046   0.362 -0.2417  0.0170  0.5174
 2809TIP3    H1 8433   4.613   0.022   0.401 -0.8569  2.5219  0.8828
 2809TIP3    H2 8434   4.693   0.011   0.273 -1.7237  0.1700  0.4970
 2810TIP3   OH2 8435   3.742   3.162   4.601  0.2009 -0.4237 -0.2315
 2810TIP3    H1 8436   3.674   3.206   4.652  0.2831  1.2015 -1.4315
 2810TIP3    H2 8437   3.764   3.084   4.651  0.2624  1.0546  2.1927
 2811TIP3   OH2 8438   2.169   3.023   4.648  0.3043 -0.4882 -0.2494
 2811TIP3    H1 8439   2.106   3.048   4.715  0.5111  1.2353 -0.6427
 2811TIP3    H2 8440   2.148   3.078   4.573  1.3533 -0.9304 -0.8964
 2812TIP3   OH2 8441   1.068   1.606   5.020 -0.2777 -0.2215  0.8948
 2812TIP3    H1 8442   1.054   1.603   4.925  2.4544  0.9002  0.3518
 2812TIP3    H2 8443   1.101   1.519   5.041  1.1896  0.1611  0.3448
 2813TIP3   OH2 8444   1.319   4.003   2.876 -0.1592 -0.4151 -0.6513
 2813TIP3    H1 8445   1.356   3.916   2.892 -0.0129 -0.0259  1.3691
 2813TIP3    H2 8446   1.382   4.063   2.916 -0.9555  0.5332 -0.7902
 2814TIP3   OH2 8447   4.452   0.355   1.987 -0.4534  0.3888  0.2815
 2814TIP3    H1 8448   4.443   0.272   2.032 -0.1107 -0.6116 -1.4166
 2814TIP3    H2 8449   4.546   0.373   1.987 -0.2541 -0.4391 -1.3592
 2815TIP3   OH2 8450   1.456   2.017   1.448 -0.3434  0.4027 -0.2847
 2815TIP3    H1 8451   1.397   2.092   1.447 -1.5653 -0.5400 -0.0921
 2815TIP3    H2 8452   1.543   2.056   1.438 -1.0988  1.6831 -2.8302
 2816TIP3   OH2 8453   0.493   0.382   0.698 -0.0046  0.0426  0.3312
 2816TIP3    H1 8454   0.583   0.388   0.666  0.4685  1.2280  1.7844
 2816TIP3    H2 8455   0.440   0.380   0.618  1.2240  0.6555 -0.5371
 2817TIP3   OH2 8456   3.586   2.268   0.824  0.2286 -0.0965  0.5213
 2817TIP3    H1 8457   3.603   2.362   0.816  1.0610 -0.3556 -1.0526
 2817TIP3    H2 8458   3.590   2.251   0.918 -0.4218  1.5195  0.8763
 2818TIP3   OH2 8459   1.586   0.344   0.036 -0.4766  0.0299  0.0045
 2818TIP3    H1 8460   1.553   0.262   0.073 -0.0265 -0.2927 -0.2956
 2818TIP3    H2 8461   1.679   0.328   0.022  0.2027  1.4587  2.3316
 2819TIP3   OH2 8462   5.401   0.205   4.743  0.7441  0.5189 -0.0975
 2819TIP3    H1 8463   5.487   0.206   4.783 -0.3985 -1.4021  2.7600
 2819TIP3    H2 8464   5.368   0.294   4.755  1.2477  0.5246  1.4811
 2820TIP3   OH2 8465   5.243   1.210   1.008  0.2597  0.0631  0.9858
 2820TIP3    H1 8466   5.292   1.134   0.975 -0.0847  0.1594  0.2481
 2820TIP3    H2 8467   5.311   1.268   1.042  0.5325 -0.5416  1.5014
 2821TIP3   OH2 8468   1.726   4.406   0.213 -0.1762  0.1129  0.3644
 2821TIP3    H1 8469   1.797   4.348   0.242 -0.7568  0.1923  2.0718
 2821TIP3    H2 8470   1.646   4.357   0.234 -0.6527  0.9801  0.6117
 2822TIP3   OH2 8471   2.577   2.425   5.155 -0.3996  0.0689 -0.0612
 2822TIP3    H1 8472   2.548   2.339   5.184  0.6429  0.1026  1.1546
 2822TIP3    H2 8473   2.507   2.456   5.098 -0.3599 -1.9800 -1.3153
 2823TIP3   OH2 8474   5.197   0.273   3.426  0.7756 -0.2406  0.0333
 2823TIP3    H1 8475   5.157   0.300   3.344 -1.4567  0.4363  1.2433
 2823TIP3    H2 8476   5.246   0.349   3.455  1.0840 -0.2775 -0.3857
 2824TIP3   OH2 8477   4.337   0.827   1.728  0.5796 -0.2489  0.6233
 2824TIP3    H1 8478   4.246   0.799   1.736  0.3395  0.1853 -0.3885
 2824TIP3    H2 8479   4.376   0.806   1.813 -0.1731 -1.4550  0.6988
 2825TIP3   OH2 8480   2.729   2.401   2.445 -0.6306  0.7135  0.0741
 2825TIP3    H1 8481   2.711   2.377   2.536  1.1976  0.7745  0.4887
 2825TIP3    H2 8482   2.768   2.488   2.450 -1.6814  1.2596 -0.8992
 2826TIP3   OH2 8483   1.263   2.114   2.113  0.0024  0.0798 -0.3823
 2826TIP3    H1 8484   1.197   2.055   2.075  1.6207 -1.6486 -0.6725
 2826TIP3    H2 8485   1.321   2.136   2.040  1.2785 -0.6594  0.3552
 2827TIP3   OH2 8486   2.454   4.530   3.302 -0.1710 -0.3780 -0.5232
 2827TIP3    H1 8487   2.519   4.595   3.275  0.6336 -0.7548  0.4129
 2827TIP3    H2 8488   2.507   4.452   3.322 -0.4920  0.1775  3.1676
 2828TIP3   OH2 8489   1.877   0.872   4.692 -0.5886  0.1477  0.1402
 2828TIP3    H1 8490   1.809   0.815   4.729 -1.1436  1.3903  1.1123
 2828TIP3    H2 8491   1.893   0.938   4.760  0.4951  0.7741 -0.6893
 2829TIP3   OH2 8492   5.249   2.941   0.711  0.2486 -0.4191 -0.7055
 2829TIP3    H1 8493   5.316   2.873   0.703  2.1651  1.1686  0.6370
 2829TIP3    H2 8494   5.264   2.978   0.798 -0.5810  1.8102 -1.4374
 2830TIP3   OH2 8495   0.385   2.038   3.302  0.0235 -0.2544  0.4629
 2830TIP3    H1 8496   0.470   2.082   3.297  0.5145 -1.1474  0.6804
 2830TIP3    H2 8497   0.365   2.014   3.212 -0.5556  0.9453  0.2482
 2831TIP3   OH2 8498   5.203   5.426   4.915 -0.3843 -0.0866  0.2327
 2831TIP3    H1 8499   5.220   5.336   4.942 -0.5098 -0.1478  0.1046
 2831TIP3    H2 8500   5.251   5.479   4.979 -0.6292 -0.2325  0.5365
 2832TIP3   OH2 8501   1.710   0.332   3.693 -0.0170  0.3489  0.5619
 2832TIP3    H1 8502   1.690   0.418   3.656 -0.7287  0.3163  0.8462
 2832TIP3    H2 8503   1.805   0.327   3.692  0.0012  0.6321 -0.6015
 2833TIP3   OH2 8504   5.991   1.358   4.843 -0.4600 -0.0349 -0.4669
 2833TIP3    H1 8505   6.084   1.374   4.863 -0.3733 -0.2151 -0.7276
 2833TIP3    H2 8506   5.953   1.446   4.836  0.1315  0.0999 -2.4333
 2834TIP3   OH2 8507   2.662   0.587   3.443 -0.3474  0.2657 -0.0502
 2834TIP3    H1 8508   2.593   0.525   3.423  1.5280 -1.9869  0.0567
 2834TIP3    H2 8509   2.669   0.641   3.364 -1.8366  0.2211 -0.2437
 2835TIP3   OH2 8510   3.904   5.396   3.163  0.0816 -0.1540 -0.3656
 2835TIP3    H1 8511   3.892   5.378   3.069 -0.3361 -0.2466 -0.2966
 2835TIP3    H2 8512   3.969   5.332   3.191 -0.3067 -0.5878 -0.4439
 2836TIP3   OH2 8513   6.254   5.822   0.942  0.1814 -0.2558 -0.7823
 2836TIP3    H1 8514   6.275   5.729   0.949  1.3986  0.0489  0.1703
 2836TIP3    H2 8515   6.297   5.861   1.019  0.3722  1.1917 -1.5898
 2837TIP3   OH2 8516   5.702   5.217   0.290 -0.0312  0.2341  0.3048
 2837TIP3    H1 8517   5.610   5.240   0.308  0.4143  3.5587 -1.0189
 2837TIP3    H2 8518   5.708   5.214   0.195  1.3997  1.0203  0.3402
 2838TIP3   OH2 8519   4.349   4.945   4.286  0.0566 -0.4460 -0.6828
 2838TIP3    H1 8520   4.266   4.992   4.296  0.9023  0.8407  0.5839
 2838TIP3    H2 8521   4.393   4.954   4.371  1.5380 -1.0372 -1.3474
 2839TIP3   OH2 8522   4.180   6.001   2.467  0.2753  0.5345 -0.3117
 2839TIP3    H1 8523   4.239   5.989   2.393 -0.7164  0.0506 -1.0499
 2839TIP3    H2 8524   4.145   5.913   2.484  1.3470  0.3980  1.4942
 2840TIP3   OH2 8525   5.282   4.526   0.348  0.1253 -0.0400 -0.4219
 2840TIP3    H1 8526   5.240   4.577   0.278 -1.2870  1.0228  1.1355
 2840TIP3    H2 8527   5.211   4.499   0.405  1.0806 -2.2600 -0.1982
 2841TIP3   OH2 8528   3.057   1.469   1.932  1.2951  0.4549 -0.5586
 2841TIP3    H1 8529   3.137   1.465   1.986  1.2793 -1.0769 -0.5922
 2841TIP3    H2 8530   3.006   1.540   1.971  1.1483 -0.7854  1.6974
 2842TIP3   OH2 8531   5.368   1.251   1.613  0.2638  0.3132  0.1870
 2842TIP3    H1 8532   5.331   1.179   1.562  0.8901 -0.8675  1.3291
 2842TIP3    H2 8533   5.397   1.315   1.548  1.1977 -1.2196 -0.9591
 2843TIP3   OH2 8534   6.093   1.879   4.726 -0.3100 -0.1979 -0.5438
 2843TIP3    H1 8535   6.171   1.922   4.691 -1.3413  0.1209 -2.6154
 2843TIP3    H2 8536   6.112   1.868   4.819  1.5150  1.3722 -0.6516
 2844TIP3   OH2 8537   4.263   1.820   1.069  0.5630 -0.3568 -0.3097
 2844TIP3    H1 8538   4.351   1.853   1.055  1.0190 -1.4205 -0.0129
 2844TIP3    H2 8539   4.220   1.830   0.983  0.7241  0.8557 -0.2547
 2845TIP3   OH2 8540   2.604   2.921   0.790 -0.2359  0.0427  0.4212
 2845TIP3    H1 8541   2.697   2.930   0.813 -0.2082  1.7227 -0.2190
 2845TIP3    H2 8542   2.560   2.992   0.836 -0.9835  0.1338 -0.4050
 2846TIP3   OH2 8543   0.079   3.936   2.520  0.0439  0.4193  0.6469
 2846TIP3    H1 8544   0.029   3.854   2.528 -0.2932  0.6612  1.0780
 2846TIP3    H2 8545   0.039   3.994   2.584 -0.4152  1.2740 -0.3776
 2847TIP3   OH2 8546   3.121   3.040   2.904 -0.1307 -0.0026  0.1435
 2847TIP3    H1 8547   3.167   2.980   2.846 -0.2995 -0.1530  0.1649
 2847TIP3    H2 8548   3.072   2.984   2.964 -0.0061  0.1524  0.3922
 2848TIP3   OH2 8549   1.306   3.163   1.746 -0.2436  0.0496 -0.2565
 2848TIP3    H1 8550   1.367   3.221   1.792 -0.6632 -0.7380  1.3916
 2848TIP3    H2 8551   1.344   3.076   1.756 -0.7669 -0.2398 -0.7218
 2849TIP3   OH2 8552   2.293   0.146   3.150  0.2482 -0.0566 -0.0370
 2849TIP3    H1 8553   2.301   0.145   3.245 -1.6618  0.5969  0.1843
 2849TIP3    H2 8554   2.382   0.130   3.118  1.4116  1.9499  1.8487
 2850TIP3   OH2 8555   4.146   0.953   1.922  0.6083  0.7700 -0.0670
 2850TIP3    H1 8556   4.197   0.995   1.853  0.6347  1.2541  0.2366
 2850TIP3    H2 8557   4.189   0.981   2.003 -1.8431  3.6754  0.4083
 2851TIP3   OH2 8558   4.551   0.678   4.886  0.7466 -0.3379 -0.3374
 2851TIP3    H1 8559   4.531   0.761   4.929  1.8997  0.6249 -1.5840
 2851TIP3    H2 8560   4.628   0.645   4.933  0.2875 -0.7235  0.1582
 2852TIP3   OH2 8561   4.514   5.874   2.589 -0.2002  0.4548 -0.1675
 2852TIP3    H1 8562   4.573   5.798   2.588 -1.3564 -0.5116 -2.1405
 2852TIP3    H2 8563   4.427   5.836   2.605 -0.5868  1.5778  0.4637
 2853TIP3   OH2 8564   4.356   1.161   1.201 -0.2389  0.8355 -0.1942
 2853TIP3    H1 8565   4.289   1.178   1.135 -3.4028  2.4925  3.0474
 2853TIP3    H2 8566   4.328   1.081   1.244  3.5003 -2.0416 -2.5222
 2854TIP3   OH2 8567   4.636   3.660   4.355 -0.7611 -0.0913  0.5717
 2854TIP3    H1 8568   4.609   3.670   4.264  2.5788 -1.9108 -0.7750
 2854TIP3    H2 8569   4.697   3.731   4.370  0.1966 -0.9243  0.7119
 2855TIP3   OH2 8570   5.265   2.774   4.289  0.4990  0.2301  0.5847
 2855TIP3    H1 8571   5.175   2.741   4.287 -0.1556  1.5843  3.0758
 2855TIP3    H2 8572   5.316   2.702   4.325  0.5243 -0.6257 -1.0476
 2856TIP3   OH2 8573   6.096   0.689   3.142  0.2589  0.0547 -0.2374
 2856TIP3    H1 8574   6.158   0.630   3.098  0.1817  0.1734 -0.5089
 2856TIP3    H2 8575   6.144   0.723   3.217  0.0819 -0.8687  0.3067
 2857TIP3   OH2 8576   5.580   2.680   4.863  0.0069  0.0253  0.6353
 2857TIP3    H1 8577   5.503   2.696   4.808 -1.1049 -1.6276  1.6054
 2857TIP3    H2 8578   5.630   2.762   4.859 -1.7784  1.1412 -0.0791
 2858TIP3   OH2 8579   4.266   5.733   4.646 -0.0498 -0.1875  0.3526
 2858TIP3    H1 8580   4.315   5.796   4.593 -0.8111 -1.3364 -1.8655
 2858TIP3    H2 8581   4.326   5.659   4.658 -0.2226 -0.3568  0.1874
 2859TIP3   OH2 8582   2.773   1.293   3.248  0.3107 -0.0404 -0.2628
 2859TIP3    H1 8583   2.834   1.270   3.177  1.9893 -0.5743  1.2830
 2859TIP3    H2 8584   2.708   1.223   3.248  2.0012 -1.6688  0.5971
 2860TIP3   OH2 8585   4.468   5.395   4.089  0.2988  0.1861 -0.0261
 2860TIP3    H1 8586   4.515   5.473   4.059  0.1600  0.0515 -0.5956
 2860TIP3    H2 8587   4.534   5.326   4.091  0.0110 -0.1649 -1.4596
 2861TIP3   OH2 8588   2.346   3.626   3.130 -0.2171  0.2735 -0.0263
 2861TIP3    H1 8589   2.361   3.554   3.191  0.4574  0.1436 -0.3427
 2861TIP3    H2 8590   2.275   3.676   3.169 -1.0108 -0.8181 -0.0174
 2862TIP3   OH2 8591   4.626   1.375   2.715  0.1814  0.2306  0.2548
 2862TIP3    H1 8592   4.721   1.367   2.719  0.2755  1.3760  0.7119
 2862TIP3    H2 8593   4.599   1.306   2.654  1.4642  0.9405 -1.1998
 2863TIP3   OH2 8594   4.096   2.998   4.069  0.0866  0.6824  0.3288
 2863TIP3    H1 8595   4.005   3.006   4.097 -0.0939  0.6505 -0.2374
 2863TIP3    H2 8596   4.091   2.987   3.974  0.4870 -2.5784  0.5688
 2864TIP3   OH2 8597   2.383   1.372   1.068 -0.1075  0.2645  0.4864
 2864TIP3    H1 8598   2.395   1.466   1.082  0.8970  0.0485  1.1853
 2864TIP3    H2 8599   2.404   1.333   1.153  1.5776 -0.7595 -0.3678
 2865TIP3   OH2 8600   2.057   3.519   0.059  0.3695  0.0427  0.1049
 2865TIP3    H1 8601   2.048   3.464  -0.019 -1.0029  0.0537  0.2323
 2865TIP3    H2 8602   2.151   3.526   0.072  0.6827  0.6726 -2.0098
 2866TIP3   OH2 8603   0.688   1.857   3.110 -0.0007 -0.3758 -0.2729
 2866TIP3    H1 8604   0.765   1.806   3.136 -0.1902  0.1617  1.5370
 2866TIP3    H2 8605   0.619   1.828   3.170 -0.2064  1.6879  0.5864
 2867TIP3   OH2 8606   5.189   5.543   0.456 -0.0166 -0.1091  0.3534
 2867TIP3    H1 8607   5.147   5.498   0.382  0.0876  1.5538 -0.7601
 2867TIP3    H2 8608   5.125   5.610   0.482  0.5262  0.2143  0.8750
 2868TIP3   OH2 8609   1.047   3.555   1.605 -0.0596  0.2590 -0.5218
 2868TIP3    H1 8610   0.962   3.528   1.570  1.1421 -0.4449 -3.1726
 2868TIP3    H2 8611   1.040   3.651   1.610 -1.3167  0.1520  0.2548
 2869TIP3   OH2 8612   0.927   3.113   1.046 -0.2052  0.2363  0.4990
 2869TIP3    H1 8613   0.840   3.100   1.009  0.0675  0.3376 -0.1892
 2869TIP3    H2 8614   0.951   3.202   1.019  0.3256  0.0171  0.2498
 2870TIP3   OH2 8615   5.684   3.246   0.107 -0.1512 -0.2514 -0.4173
 2870TIP3    H1 8616   5.744   3.321   0.105  1.2722 -1.3474 -1.3839
 2870TIP3    H2 8617   5.603   3.280   0.143 -0.2722  2.2934 -2.7979
 2871TIP3   OH2 8618   6.225   2.148   0.651 -0.1232  0.2952  0.3092
 2871TIP3    H1 8619   6.260   2.237   0.645  0.5377 -0.0452 -2.1377
 2871TIP3    H2 8620   6.274   2.098   0.585 -1.8137 -1.4066  0.2375
 2872TIP3   OH2 8621   5.235   5.572   2.277 -0.6054 -0.1368 -0.1775
 2872TIP3    H1 8622   5.166   5.555   2.340  1.5270  0.6290  2.5636
 2872TIP3    H2 8623   5.253   5.666   2.286  1.7938 -0.5863  0.4029
 2873TIP3   OH2 8624   4.162   1.697   1.296  0.4977  0.0476 -0.8763
 2873TIP3    H1 8625   4.072   1.724   1.310  0.9906  0.3999  2.5844
 2873TIP3    H2 8626   4.177   1.709   1.203 -2.3555  2.0732 -1.1936
 2874TIP3   OH2 8627   3.774   3.858   2.278  0.0891  0.2266  0.4866
 2874TIP3    H1 8628   3.784   3.783   2.218  0.8105 -0.8594  1.9234
 2874TIP3    H2 8629   3.760   3.933   2.220  1.6700 -0.6291 -1.1015
 2875TIP3   OH2 8630   4.166   3.868   2.761  0.2803 -0.2219 -0.1725
 2875TIP3    H1 8631   4.180   3.816   2.682  1.1640  0.6844 -0.6437
 2875TIP3    H2 8632   4.253   3.874   2.801 -0.3254 -1.4487  1.3851
 2876TIP3   OH2 8633   1.796   4.950   4.069 -0.1071  0.7192  0.1612
 2876TIP3    H1 8634   1.721   4.959   4.128  0.6666 -0.0528  1.3046
 2876TIP3    H2 8635   1.802   5.035   4.026 -2.5689  0.3294 -1.1568
 2877TIP3   OH2 8636   5.317   4.900   2.219  0.0733  1.0113  0.1952
 2877TIP3    H1 8637   5.297   4.952   2.297 -2.6416 -0.4407  0.5959
 2877TIP3    H2 8638   5.244   4.917   2.160  2.1713  2.2384 -2.2376
 2878TIP3   OH2 8639   0.284   5.661   4.487  0.0940 -0.2233 -0.3296
 2878TIP3    H1 8640   0.206   5.693   4.444 -1.1010  0.2709  2.0356
 2878TIP3    H2 8641   0.352   5.726   4.467 -0.4435  0.0537 -1.2964
 2879TIP3   OH2 8642   5.517   0.357   0.708 -0.0826 -0.0837 -0.2073
 2879TIP3    H1 8643   5.479   0.443   0.695 -1.4979 -0.1089  2.8209
 2879TIP3    H2 8644   5.611   0.370   0.701 -0.3561  1.1093 -2.3942
 2880TIP3   OH2 8645   2.828   3.704   5.117 -0.5492  0.0653 -0.1003
 2880TIP3    H1 8646   2.779   3.767   5.170 -0.6537 -0.3121  0.2584
 2880TIP3    H2 8647   2.914   3.744   5.106  0.0651 -0.6200  1.8441
 2881TIP3   OH2 8648   2.077   1.434   0.402 -0.0751 -0.2331  0.1576
 2881TIP3    H1 8649   2.163   1.394   0.415 -0.1343 -0.7584 -0.9687
 2881TIP3    H2 8650   2.095   1.526   0.382  0.1306  0.0191  1.4306
 2882TIP3   OH2 8651   0.710   5.882   3.571 -0.0516  0.1647  0.0463
 2882TIP3    H1 8652   0.785   5.876   3.512  0.3309 -2.7608  0.7009
 2882TIP3    H2 8653   0.743   5.853   3.656 -1.5205  0.5216  0.7792
 2883TIP3   OH2 8654   4.995   5.084   1.867  0.5735  0.3781  0.3459
 2883TIP3    H1 8655   5.034   5.116   1.786  1.1752  1.0157  0.8738
 2883TIP3    H2 8656   4.927   5.147   1.888  0.8139  0.5445  0.6419
 2884TIP3   OH2 8657   3.140   0.743   3.742  0.4210 -0.7717  0.4832
 2884TIP3    H1 8658   3.105   0.800   3.673 -1.7597 -0.5172  1.6979
 2884TIP3    H2 8659   3.157   0.660   3.697  1.4700  0.1150 -0.8403
 2885TIP3   OH2 8660   3.568   2.911   3.008 -0.2187  0.0854  0.0995
 2885TIP3    H1 8661   3.519   2.981   3.051 -1.3896  0.3161 -1.5113
 2885TIP3    H2 8662   3.554   2.926   2.915  3.6612  0.6638 -0.5576
 2886TIP3   OH2 8663   0.049   1.760   4.834 -0.0113 -0.4818 -0.2505
 2886TIP3    H1 8664   0.082   1.757   4.924  0.1857  1.0012 -0.2478
 2886TIP3    H2 8665   0.125   1.741   4.780 -0.4744 -3.1186 -0.1107
 2887TIP3   OH2 8666   5.864   1.071   2.590 -0.4961  0.2587  0.7406
 2887TIP3    H1 8667   5.827   0.995   2.635 -1.3129  0.4963  0.4890
 2887TIP3    H2 8668   5.958   1.054   2.587 -0.7628 -1.1998 -0.1377
 2888TIP3   OH2 8669   4.273   0.984   3.125 -0.0302  0.5524  0.1364
 2888TIP3    H1 8670   4.276   0.986   3.221  0.9970 -0.0075  0.1334
 2888TIP3    H2 8671   4.287   0.892   3.103  3.5388  1.1208 -0.5902
 2889TIP3   OH2 8672   5.560   5.512   4.498  0.1168 -0.7147  0.3624
 2889TIP3    H1 8673   5.488   5.462   4.537 -2.1805  0.7345 -1.7340
 2889TIP3    H2 8674   5.542   5.603   4.522  1.4092 -0.3312 -0.0210
 2890TIP3   OH2 8675   1.384   5.520   3.418  0.4587  0.0942  0.6598
 2890TIP3    H1 8676   1.478   5.500   3.412  0.4834  0.5863 -1.4181
 2890TIP3    H2 8677   1.361   5.499   3.508  2.2508 -1.4406  0.8310
 2891TIP3   OH2 8678   5.958   3.697   2.520 -0.8038  0.0903 -0.0827
 2891TIP3    H1 8679   5.900   3.665   2.589 -3.8097  0.1381 -2.3701
 2891TIP3    H2 8680   5.915   3.670   2.439  2.4421  0.1900 -1.9906
 2892TIP3   OH2 8681   1.102   3.944   5.064 -0.3881 -0.0266 -0.1193
 2892TIP3    H1 8682   1.029   4.006   5.068 -1.1206 -0.9209  1.2745
 2892TIP3    H2 8683   1.071   3.875   5.005 -0.5314 -0.2074  0.1613
 2893TIP3   OH2 8684   2.897   0.484   0.690  0.6317  0.2397  0.5342
 2893TIP3    H1 8685   2.854   0.499   0.774  0.2548  0.3836  0.3209
 2893TIP3    H2 8686   2.988   0.464   0.712  0.7120  1.0111  0.9310
 2894TIP3   OH2 8687   5.636   0.785   4.399  0.2947  0.3429 -0.5327
 2894TIP3    H1 8688   5.665   0.833   4.321  0.1137 -0.7747 -1.2999
 2894TIP3    H2 8689   5.541   0.786   4.394  0.2847  0.1551 -0.3835
 2895TIP3   OH2 8690   5.978   4.529   3.609 -0.0822  0.8852  0.6151
 2895TIP3    H1 8691   5.924   4.589   3.557 -0.6609 -0.2693 -0.1634
 2895TIP3    H2 8692   5.995   4.455   3.551 -0.6591 -0.4091  2.0182
 2896TIP3   OH2 8693   3.563   1.040   0.783 -0.8162  0.0600 -0.1511
 2896TIP3    H1 8694   3.476   1.006   0.762 -0.0921 -2.2500  0.3030
 2896TIP3    H2 8695   3.577   1.017   0.875  1.1382 -1.7929 -0.8104
 2897TIP3   OH2 8696   1.501   2.535   4.852 -0.1384 -0.2547  0.2949
 2897TIP3    H1 8697   1.423   2.544   4.907 -0.8586  0.8527 -0.8560
 2897TIP3    H2 8698   1.540   2.452   4.879 -0.4406  0.2527  2.4795
 2898TIP3   OH2 8699   1.214   2.107   0.118 -0.1319  0.6712 -0.0008
 2898TIP3    H1 8700   1.223   2.111   0.213  0.2745  1.2362 -0.0545
 2898TIP3    H2 8701   1.304   2.117   0.086 -0.4512  2.4295 -0.4787
 2899TIP3   OH2 8702   2.006   3.418   3.565 -0.0799  0.1410 -0.3882
 2899TIP3    H1 8703   2.064   3.488   3.594  0.9384 -0.9222  0.2341
 2899TIP3    H2 8704   1.976   3.445   3.478  1.1097  0.8579 -0.5929
 2900TIP3   OH2 8705   3.889   5.030   2.215 -0.2512 -0.1331 -0.4475
 2900TIP3    H1 8706   3.922   4.961   2.158 -2.3328 -0.6676 -1.0979
 2900TIP3    H2 8707   3.962   5.091   2.225  0.7195 -0.9534 -2.2292
 2901TIP3   OH2 8708   5.470   3.438   0.262  0.3359 -0.1342  0.1388
 2901TIP3    H1 8709   5.521   3.490   0.326  0.3681  1.2755 -0.9791
 2901TIP3    H2 8710   5.408   3.389   0.316  3.0977 -2.2957  1.6189
 2902TIP3   OH2 8711   1.431   1.714   4.276  0.3870 -0.5700 -0.3306
 2902TIP3    H1 8712   1.393   1.794   4.239  0.6090  1.1802  2.9035
 2902TIP3    H2 8713   1.522   1.716   4.247  0.2556  0.0610 -0.7375
 2903TIP3   OH2 8714   0.184   3.713   4.668 -0.0285  1.0688  0.1429
 2903TIP3    H1 8715   0.240   3.783   4.634 -0.6163  0.1416 -3.0526
 2903TIP3    H2 8716   0.160   3.662   4.591 -0.5956 -2.0051  2.1907
 2904TIP3   OH2 8717   2.199   1.853   0.647  0.0131 -0.6107  0.1109
 2904TIP3    H1 8718   2.234   1.813   0.726 -0.4908 -1.7291 -0.2069
 2904TIP3    H2 8719   2.264   1.919   0.622 -0.3215  0.4794  2.0004
 2905TIP3   OH2 8720   5.589   1.354   3.458  0.1239  0.0958 -0.1674
 2905TIP3    H1 8721   5.605   1.317   3.371  0.8580 -0.2089  0.0926
 2905TIP3    H2 8722   5.589   1.449   3.444  0.8134  0.0642 -0.4104
 2906TIP3   OH2 8723   1.422   2.581   0.200  0.4236  0.2200  0.2746
 2906TIP3    H1 8724   1.336   2.604   0.235  0.3230  0.8962 -0.3882
 2906TIP3    H2 8725   1.417   2.604   0.107  1.3677  0.4043  0.2565
 2907TIP3   OH2 8726   5.761   4.991   1.859 -0.2705 -0.2304  0.0659
 2907TIP3    H1 8727   5.818   4.925   1.897 -0.6093 -1.6079 -1.6682
 2907TIP3    H2 8728   5.680   4.986   1.910  0.0344 -0.5058  0.5254
 2908TIP3   OH2 8729   1.957   3.621   2.170  0.1115  0.3190  0.1512
 2908TIP3    H1 8730   1.937   3.572   2.090  0.3575 -0.2370  0.4225
 2908TIP3    H2 8731   1.899   3.584   2.236 -1.2035  1.8343 -0.1092
 2909TIP3   OH2 8732   2.136   2.807   2.350  0.4186 -0.7977  0.5556
 2909TIP3    H1 8733   2.076   2.859   2.402  1.0191 -1.8172  2.3413
 2909TIP3    H2 8734   2.080   2.744   2.304 -0.2832  1.1609 -1.4228
 2910TIP3   OH2 8735   4.430   5.385   3.068 -0.4402 -0.2680  0.0953
 2910TIP3    H1 8736   4.364   5.320   3.044  1.0265 -1.2911 -1.4088
 2910TIP3    H2 8737   4.512   5.336   3.072  0.3482  1.0686  1.3278
 2911TIP3   OH2 8738   6.203   0.781   5.168  0.7758 -0.2021 -0.0344
 2911TIP3    H1 8739   6.289   0.786   5.125 -0.3937 -1.4310 -2.7645
 2911TIP3    H2 8740   6.187   0.688   5.179 -1.7112 -0.3066 -3.1401
 2912TIP3   OH2 8741   0.342   2.215   1.488 -0.5549 -0.7340  0.0960
 2912TIP3    H1 8742   0.319   2.267   1.410 -3.2223 -0.4798  0.9508
 2912TIP3    H2 8743   0.437   2.203   1.481 -0.3132  1.4389 -1.8613
 2913TIP3   OH2 8744   0.973   3.958   1.228  0.0662 -0.0297 -0.1299
 2913TIP3    H1 8745   1.011   3.881   1.271  1.8426  0.6158 -0.4837
 2913TIP3    H2 8746   1.046   3.999   1.183 -1.1512  1.0538 -1.1954
 2914TIP3   OH2 8747   5.617   5.769   1.734 -0.2308  0.0287 -0.4320
 2914TIP3    H1 8748   5.697   5.811   1.766  0.1700  0.6880 -2.1790
 2914TIP3    H2 8749   5.627   5.768   1.639 -2.6956  0.9627 -0.7776
 2915TIP3   OH2 8750   1.486   3.602   4.632  0.8205 -0.6585 -0.9800
 2915TIP3    H1 8751   1.566   3.567   4.591  1.5139  0.8024 -0.9213
 2915TIP3    H2 8752   1.510   3.690   4.660 -0.7805 -0.2521 -0.8140
 2916TIP3   OH2 8753   1.654   1.893   0.403 -0.4257 -0.0354 -0.0182
 2916TIP3    H1 8754   1.661   1.988   0.390 -0.5998 -0.2326 -1.8764
 2916TIP3    H2 8755   1.560   1.877   0.417 -0.7163 -0.0908 -1.7279
 2917TIP3   OH2 8756   5.886   5.904   4.311  0.4688 -0.0848  0.3042
 2917TIP3    H1 8757   5.800   5.929   4.275  0.4749 -0.8475 -0.2724
 2917TIP3    H2 8758   5.866   5.870   4.398  0.2730  0.4304  0.4629
 2918TIP3   OH2 8759   0.035   2.067   3.089 -0.2877  0.3767 -0.1837
 2918TIP3    H1 8760   0.067   1.979   3.107 -1.6290  0.0912  0.9836
 2918TIP3    H2 8761   0.114   2.120   3.076  0.5299 -1.0753 -1.4437
 2919TIP3   OH2 8762   4.006   5.084   1.256  0.0937  0.3765 -0.6070
 2919TIP3    H1 8763   4.002   4.989   1.266 -2.5674  0.5361  1.1697
 2919TIP3    H2 8764   4.035   5.116   1.341 -0.1730  1.1711 -0.8037
 2920TIP3   OH2 8765   5.403   1.879   1.797 -0.4498 -0.1604  0.1790
 2920TIP3    H1 8766   5.484   1.833   1.775 -0.0403  0.2437  0.8297
 2920TIP3    H2 8767   5.339   1.844   1.735  0.2474 -0.3849 -0.4328
 2921TIP3   OH2 8768   1.832   4.113   4.593  0.2590 -0.5531 -0.8117
 2921TIP3    H1 8769   1.921   4.138   4.616  0.1709  0.0173 -1.0771
 2921TIP3    H2 8770   1.836   4.018   4.579  0.5827 -0.7191  0.2811
 2922TIP3   OH2 8771   2.584   5.900   2.806 -0.0390 -0.5588 -0.1363
 2922TIP3    H1 8772   2.523   5.957   2.760  0.8811  1.0883  0.5662
 2922TIP3    H2 8773   2.539   5.876   2.887 -0.6580 -1.3316 -0.7011
 2923TIP3   OH2 8774   6.341   2.128   2.689 -0.3886  0.1924 -0.0825
 2923TIP3    H1 8775   6.281   2.108   2.618 -0.6924  0.4852  0.0898
 2923TIP3    H2 8776   6.286   2.130   2.767 -0.4482  2.0300 -0.1295
 2924TIP3   OH2 8777   2.681   4.725   5.072 -0.8577  0.2605 -0.3115
 2924TIP3    H1 8778   2.713   4.652   5.019  1.1210  0.9224 -0.1052
 2924TIP3    H2 8779   2.754   4.747   5.130 -2.0499  1.2342  0.9066
 2925TIP3   OH2 8780   2.243   1.623   3.540 -0.0410  0.2050 -0.4659
 2925TIP3    H1 8781   2.272   1.691   3.478  1.0252 -1.7997 -2.2834
 2925TIP3    H2 8782   2.166   1.585   3.499  1.8134 -2.4870 -1.6893
 2926TIP3   OH2 8783   0.860   5.977   3.845 -0.2635  0.1332 -0.4580
 2926TIP3    H1 8784   0.780   6.030   3.851  0.0656  0.5695  0.2618
 2926TIP3    H2 8785   0.831   5.888   3.863 -0.5672  0.3117 -0.0360
 2927TIP3   OH2 8786   3.688   1.012   2.227 -0.2336  0.5523  0.3052
 2927TIP3    H1 8787   3.596   1.038   2.224 -0.1807  0.8001 -3.0369
 2927TIP3    H2 8788   3.687   0.917   2.229 -0.4926  0.5615  2.1805
 2928TIP3   OH2 8789   3.103   3.058   4.954  0.0831 -0.4211 -0.1179
 2928TIP3    H1 8790   3.149   3.139   4.934  1.2087 -0.4809  1.9899
 2928TIP3    H2 8791   3.041   3.047   4.881 -0.3344  2.4714 -0.3154
 2929TIP3   OH2 8792   4.353   4.155   3.926 -0.1338 -0.1071  0.4602
 2929TIP3    H1 8793   4.432   4.205   3.908  0.4524 -0.1229  2.7628
 2929TIP3    H2 8794   4.305   4.208   3.989 -0.2053 -1.7453  1.8427
 2930TIP3   OH2 8795   0.107   3.368   4.130 -0.0408 -0.1983 -0.4127
 2930TIP3    H1 8796   0.045   3.397   4.063 -0.5657  1.0915  0.5775
 2930TIP3    H2 8797   0.065   3.392   4.213  0.2920 -2.3360  0.4264
 2931TIP3   OH2 8798   5.491   4.094   0.388 -0.2711 -0.3270 -0.6763
 2931TIP3    H1 8799   5.404   4.134   0.380 -0.4880 -0.0501  2.0954
 2931TIP3    H2 8800   5.472   4.001   0.401 -0.2422 -0.1714  0.6243
 2932TIP3   OH2 8801   2.319   2.150   1.198  0.1923 -0.3048  0.0029
 2932TIP3    H1 8802   2.247   2.211   1.182  0.9026  0.3422 -0.8418
 2932TIP3    H2 8803   2.299   2.112   1.283 -0.5944  0.6423  0.2668
 2933TIP3   OH2 8804   2.312   1.826   3.347  0.0338  0.2578 -0.1332
 2933TIP3    H1 8805   2.250   1.851   3.278  1.0067 -0.3194 -1.2508
 2933TIP3    H2 8806   2.395   1.865   3.320  0.7714 -1.2217 -0.0964
 2934TIP3   OH2 8807   2.079   0.708   4.583 -0.1816 -0.9193  0.0941
 2934TIP3    H1 8808   1.993   0.726   4.620 -0.1135 -1.3279  0.4554
 2934TIP3    H2 8809   2.122   0.652   4.647 -0.0000 -1.5069 -0.5265
 2935TIP3   OH2 8810   2.502   4.592   1.185 -0.0879 -0.2266  0.2817
 2935TIP3    H1 8811   2.460   4.537   1.119  0.1541 -2.0961  1.6086
 2935TIP3    H2 8812   2.430   4.637   1.228 -0.3114  0.3559 -0.6787
 2936TIP3   OH2 8813   5.904   5.177   4.560 -0.2108 -0.1547 -0.1408
 2936TIP3    H1 8814   5.875   5.253   4.610  1.3781  0.6651 -0.4013
 2936TIP3    H2 8815   5.930   5.212   4.475  0.9265 -0.9116 -0.1298
 2937TIP3   OH2 8816   0.101   3.077   4.820 -0.2154 -0.2628  0.6128
 2937TIP3    H1 8817   0.083   3.168   4.841  0.0817  0.0022 -0.2604
 2937TIP3    H2 8818   0.086   3.070   4.726  0.8377 -0.8453  0.4668
 2938TIP3   OH2 8819   2.301   2.404   1.960 -0.0972 -0.3831  0.5748
 2938TIP3    H1 8820   2.329   2.319   1.993 -0.0541 -2.1357 -3.3865
 2938TIP3    H2 8821   2.209   2.392   1.937 -0.3388  0.9613  0.7468
 2939TIP3   OH2 8822   0.696   4.857   5.106 -0.3480  0.0164  0.3089
 2939TIP3    H1 8823   0.751   4.845   5.029  0.6519  1.4458  0.7562
 2939TIP3    H2 8824   0.656   4.942   5.094 -0.6808 -0.0241  1.0629
 2940TIP3   OH2 8825   2.218   1.115   2.759  0.2203 -0.6740 -0.2654
 2940TIP3    H1 8826   2.210   1.156   2.845 -0.7164  1.0035 -1.0765
 2940TIP3    H2 8827   2.243   1.187   2.701 -1.9747 -1.0796 -1.8641
 2941TIP3   OH2 8828   5.873   1.714   4.057 -0.0600 -0.3882 -0.3722
 2941TIP3    H1 8829   5.949   1.769   4.077 -0.7811  0.7320 -0.6034
 2941TIP3    H2 8830   5.900   1.661   3.982  0.4989 -0.0163 -0.4352
 2942TIP3   OH2 8831   4.389   4.575   3.349 -0.3841  0.2316  0.4194
 2942TIP3    H1 8832   4.428   4.598   3.433 -0.4474  0.6477  0.3371
 2942TIP3    H2 8833   4.307   4.532   3.371  0.0128 -0.4622  0.5893
 2943TIP3   OH2 8834   5.466   3.154   1.933 -0.4316  0.3972  0.3923
 2943TIP3    H1 8835   5.483   3.103   2.013 -1.1102 -1.6180 -0.6711
 2943TIP3    H2 8836   5.431   3.090   1.871 -0.7931  2.0899 -1.2409
 2944TIP3   OH2 8837   4.817   3.606   2.115  0.1071 -0.7817 -0.2832
 2944TIP3    H1 8838   4.759   3.531   2.116  1.6779 -2.0982 -1.3898
 2944TIP3    H2 8839   4.855   3.609   2.203  0.7762 -1.9445 -0.5081
 2945TIP3   OH2 8840   4.928   0.351   1.136  0.0795 -0.4120 -0.2779
 2945TIP3    H1 8841   4.956   0.339   1.045  1.0796  2.0339 -0.3722
 2945TIP3    H2 8842   5.010   0.355   1.186 -0.4630 -1.8874  0.8058
 2946TIP3   OH2 8843   3.655   4.829   1.089  0.2939  0.0843  0.1294
 2946TIP3    H1 8844   3.634   4.911   1.045 -0.6937  0.1347  0.6767
 2946TIP3    H2 8845   3.587   4.768   1.061  0.5825 -0.3351  0.3256
 2947TIP3   OH2 8846   0.545   1.442   0.960  0.3041 -0.2779 -0.1670
 2947TIP3    H1 8847   0.587   1.423   0.876 -0.6888  0.6336 -0.8862
 2947TIP3    H2 8848   0.599   1.395   1.024  1.3687 -0.5917 -1.2476
 2948TIP3   OH2 8849   3.549   4.774   3.190 -0.5111  0.5780 -0.5220
 2948TIP3    H1 8850   3.522   4.863   3.166 -0.8411  1.1287  1.6882
 2948TIP3    H2 8851   3.468   4.731   3.217 -0.5892 -0.9056 -2.8410
 2949TIP3   OH2 8852   4.755   0.700   1.939  0.0714 -0.4342 -0.2632
 2949TIP3    H1 8853   4.668   0.662   1.952 -1.0737  1.6862 -1.2484
 2949TIP3    H2 8854   4.773   0.747   2.020 -0.9760  1.3704 -1.0059
 2950TIP3   OH2 8855   4.367   1.411   0.954 -0.3384  0.1873  0.0519
 2950TIP3    H1 8856   4.297   1.432   1.017 -1.3246  0.1360 -0.9826
 2950TIP3    H2 8857   4.436   1.474   0.972 -0.2640 -0.3299  1.6922
 2951TIP3   OH2 8858   4.103   1.339   0.314 -0.8710 -0.1839 -0.1430
 2951TIP3    H1 8859   4.176   1.300   0.265  1.0389  2.3658  0.4034
 2951TIP3    H2 8860   4.077   1.414   0.260 -4.4755 -2.0310 -1.2448
 2952TIP3   OH2 8861   5.843   5.390   3.855 -0.6887  0.4957  0.6404
 2952TIP3    H1 8862   5.812   5.300   3.865  0.5293  0.0259  0.4137
 2952TIP3    H2 8863   5.771   5.444   3.885 -2.1921 -0.4849 -1.0174
 2953TIP3   OH2 8864   1.925   0.489   0.140  0.3119  0.2963  0.0948
 2953TIP3    H1 8865   1.898   0.437   0.065  0.9440 -3.5218  2.2430
 2953TIP3    H2 8866   1.843   0.518   0.180 -0.1582 -0.5884 -0.1983
 2954TIP3   OH2 8867   1.824   3.079   3.802 -0.1699 -0.4650  0.1412
 2954TIP3    H1 8868   1.815   3.078   3.897  1.5682  0.4004  0.3553
 2954TIP3    H2 8869   1.890   3.146   3.784 -1.9551  0.9001 -1.8468
 2955TIP3   OH2 8870   6.258   1.139   3.944 -0.4036 -0.4466 -0.2300
 2955TIP3    H1 8871   6.277   1.228   3.972 -0.6740  0.1021 -1.6699
 2955TIP3    H2 8872   6.164   1.137   3.930 -0.3278 -0.7630 -0.7620
 2956TIP3   OH2 8873   5.836   3.252   3.279 -0.4944 -0.1129 -0.0059
 2956TIP3    H1 8874   5.847   3.243   3.374 -0.8312 -1.3370 -0.0733
 2956TIP3    H2 8875   5.741   3.255   3.266 -0.4536 -0.1908 -0.3275
 2957TIP3   OH2 8876   5.364   5.436   1.848  0.0945  0.3390 -0.9098
 2957TIP3    H1 8877   5.296   5.419   1.914  0.6071  2.1362  0.1560
 2957TIP3    H2 8878   5.315   5.458   1.769 -0.5620  0.7345 -0.4060
 2958TIP3   OH2 8879   4.903   5.915   2.287  0.0297 -0.2062  0.0289
 2958TIP3    H1 8880   4.910   6.006   2.317 -0.2437 -0.1897  0.0386
 2958TIP3    H2 8881   4.988   5.877   2.308 -0.4281 -0.4251  1.6011
 2959TIP3   OH2 8882   6.162   1.905   1.830 -0.2192 -0.0935  0.2353
 2959TIP3    H1 8883   6.196   1.852   1.758 -2.8290  0.4947 -1.5566
 2959TIP3    H2 8884   6.180   1.996   1.804 -0.9643  0.1171  0.4316
 2960TIP3   OH2 8885   0.542   4.568   2.885 -0.5814 -0.5987 -0.4117
 2960TIP3    H1 8886   0.448   4.567   2.870 -0.4292  0.7454 -1.7094
 2960TIP3    H2 8887   0.559   4.489   2.937 -2.6251  0.0779  1.4070
 2961TIP3   OH2 8888   1.436   0.348   3.606  0.5294 -0.6015  0.1612
 2961TIP3    H1 8889   1.426   0.382   3.695 -0.0652 -0.9276  0.2263
 2961TIP3    H2 8890   1.529   0.324   3.600  0.7621  0.2142  0.4005
 2962TIP3   OH2 8891   5.800   4.161   1.533  0.0761  0.0458  0.1800
 2962TIP3    H1 8892   5.820   4.167   1.627 -0.4420  2.2927  0.2041
 2962TIP3    H2 8893   5.769   4.248   1.510  0.8910 -0.2405 -2.2729
 2963TIP3   OH2 8894   3.591   3.912   1.599  0.1567 -0.0203 -0.9769
 2963TIP3    H1 8895   3.504   3.930   1.635 -0.0148 -0.1968 -1.3060
 2963TIP3    H2 8896   3.585   3.932   1.506  0.6153  0.4697 -0.9050
 2964TIP3   OH2 8897   2.473   4.016   0.851  0.4166 -0.2426  0.2777
 2964TIP3    H1 8898   2.457   3.993   0.943  0.3415  0.6353  0.4985
 2964TIP3    H2 8899   2.403   4.078   0.829  0.3473 -0.5594 -0.4231
 2965TIP3   OH2 8900   5.558   0.664   4.851 -0.4774 -0.6763  0.6569
 2965TIP3    H1 8901   5.645   0.650   4.889  1.4836  1.4170 -2.4850
 2965TIP3    H2 8902   5.525   0.743   4.895 -0.3927 -0.9830  1.2739
 2966TIP3   OH2 8903   2.403   3.374   4.865 -1.0207  0.5025  0.5955
 2966TIP3    H1 8904   2.433   3.444   4.923 -0.7548  2.3109 -1.5964
 2966TIP3    H2 8905   2.481   3.322   4.847 -0.5458  1.4240 -0.0778
 2967TIP3   OH2 8906   3.974   4.788   2.041  0.3530  0.1273 -0.0111
 2967TIP3    H1 8907   3.998   4.739   2.120  0.4600 -1.6803 -1.0992
 2967TIP3    H2 8908   4.035   4.861   2.039  0.3773  0.1918  1.5357
 2968TIP3   OH2 8909   3.317   1.323   4.153 -0.0738 -0.3989  0.1743
 2968TIP3    H1 8910   3.230   1.359   4.135  0.4175  0.6628 -0.1862
 2968TIP3    H2 8911   3.317   1.307   4.247 -0.2179  0.8537  0.4057
 2969TIP3   OH2 8912   3.461   5.660   4.847  0.8907 -0.7426 -0.4035
 2969TIP3    H1 8913   3.479   5.664   4.941  0.4354 -1.7010 -0.2660
 2969TIP3    H2 8914   3.458   5.751   4.820  0.4070 -0.4359  0.6346
 2970TIP3   OH2 8915   1.762   3.048   0.391  0.9879 -0.3273 -0.4854
 2970TIP3    H1 8916   1.856   3.034   0.384  0.6370 -2.2262 -2.4177
 2970TIP3    H2 8917   1.726   2.962   0.415 -0.2442  0.5091  0.8755
 2971TIP3   OH2 8918   0.924   0.445   2.263  0.5181  0.1394  0.3747
 2971TIP3    H1 8919   0.876   0.517   2.221 -0.7145 -1.3319 -0.8535
 2971TIP3    H2 8920   1.006   0.439   2.213 -0.2788 -0.6131 -0.8964
 2972TIP3   OH2 8921   0.644   4.737   1.745 -0.0140 -0.1979  0.4756
 2972TIP3    H1 8922   0.704   4.753   1.819  0.3107  0.9507 -0.0206
 2972TIP3    H2 8923   0.687   4.777   1.670 -0.9574 -0.2245 -0.0936
 2973TIP3   OH2 8924   4.246   4.926   1.661  0.0635 -0.0412 -0.1364
 2973TIP3    H1 8925   4.339   4.915   1.683  0.4459  0.5598 -1.3921
 2973TIP3    H2 8926   4.200   4.874   1.727  1.2835 -0.2950  0.5470
 2974TIP3   OH2 8927   0.919   1.596   4.176 -0.8019 -0.3813  0.3325
 2974TIP3    H1 8928   0.929   1.575   4.269 -1.2274  2.7458  1.2065
 2974TIP3    H2 8929   0.995   1.650   4.155  0.0184 -2.1562 -1.6015
 2975TIP3   OH2 8930   1.481   1.539   0.568  0.3239 -0.1215  0.4505
 2975TIP3    H1 8931   1.491   1.531   0.663  1.4810  0.6096  0.4039
 2975TIP3    H2 8932   1.551   1.598   0.541 -0.4985  0.3280 -0.7637
 2976TIP3   OH2 8933   3.405   3.393   3.968  0.0865 -0.2523 -0.0889
 2976TIP3    H1 8934   3.339   3.460   3.984  0.2039  0.1915 -1.3762
 2976TIP3    H2 8935   3.489   3.439   3.977  0.2074 -0.5676  0.4611
 2977TIP3   OH2 8936   1.768   3.366   0.591  0.1791  0.0279 -0.2257
 2977TIP3    H1 8937   1.839   3.430   0.591 -2.8100  3.7758 -0.9829
 2977TIP3    H2 8938   1.751   3.350   0.498 -1.4107  1.1903 -0.1861
 2978TIP3   OH2 8939   2.855   4.521   1.839  0.0828  0.0900  0.8275
 2978TIP3    H1 8940   2.802   4.442   1.832 -0.8487  0.5826  1.8693
 2978TIP3    H2 8941   2.804   4.578   1.898 -0.9948  2.8691 -2.4700
 2979TIP3   OH2 8942   4.190   1.096   2.165 -0.0577 -0.0239  0.0100
 2979TIP3    H1 8943   4.207   1.183   2.202  1.1372 -0.8092  1.4010
 2979TIP3    H2 8944   4.272   1.073   2.122  0.2528 -1.1619  1.1542
 2980TIP3   OH2 8945   1.942   2.417   4.530 -0.1790 -0.1960 -0.4562
 2980TIP3    H1 8946   1.970   2.456   4.613 -0.8025  0.0902 -0.3723
 2980TIP3    H2 8947   1.880   2.481   4.494 -0.9273 -0.9236 -0.5032
 2981TIP3   OH2 8948   4.426   2.109   4.160  0.2961  0.1920  0.2473
 2981TIP3    H1 8949   4.464   2.146   4.240  0.3621  0.4739  0.0876
 2981TIP3    H2 8950   4.478   2.030   4.143 -1.1450 -1.1639  1.7355
 2982TIP3   OH2 8951   3.824   5.747   1.180  0.4289 -0.7175  0.0375
 2982TIP3    H1 8952   3.789   5.661   1.154 -1.0996 -0.7589  1.9868
 2982TIP3    H2 8953   3.757   5.809   1.152  0.5127 -0.3920  0.5462
 2983TIP3   OH2 8954   4.519   4.123   0.507  0.4562  0.2624  0.4103
 2983TIP3    H1 8955   4.436   4.137   0.462 -1.3293 -3.9808  1.8469
 2983TIP3    H2 8956   4.573   4.074   0.444  0.6979  0.4334  0.4822
 2984TIP3   OH2 8957   1.107   1.784   4.168  0.1869  0.1271 -0.1062
 2984TIP3    H1 8958   1.169   1.712   4.177  1.2507  0.9628 -0.4501
 2984TIP3    H2 8959   1.110   1.829   4.252 -0.1873 -0.0025 -0.0222
 2985TIP3   OH2 8960   1.336   5.774   0.352 -0.3343  0.2013  0.0286
 2985TIP3    H1 8961   1.390   5.769   0.274 -0.0511  1.4968  0.1106
 2985TIP3    H2 8962   1.355   5.694   0.401 -2.0901 -1.6769 -2.1757
 2986TIP3   OH2 8963   4.606   5.266   5.177 -0.0735 -0.5297 -0.0719
 2986TIP3    H1 8964   4.556   5.343   5.199  0.2705 -0.2891 -0.1203
 2986TIP3    H2 8965   4.596   5.257   5.082 -1.0077 -1.1813  0.0706
 2987TIP3   OH2 8966   0.714   0.213   3.436  0.5777  0.1095 -0.1531
 2987TIP3    H1 8967   0.736   0.286   3.379 -0.9267  0.4385 -0.3518
 2987TIP3    H2 8968   0.744   0.240   3.523 -0.1947  1.1113 -0.1726
 2988TIP3   OH2 8969   0.883   2.163   3.694 -0.0564 -0.7993 -0.2023
 2988TIP3    H1 8970   0.840   2.102   3.754  1.5028 -1.1577  0.5878
 2988TIP3    H2 8971   0.971   2.175   3.730  0.0154  1.1389 -0.8990
 2989TIP3   OH2 8972   1.233   4.375  -0.011  0.4261 -0.4664  0.1746
 2989TIP3    H1 8973   1.306   4.431   0.016  1.4438 -2.1030  0.9777
 2989TIP3    H2 8974   1.177   4.369   0.066  0.6395 -1.0140  0.2954
 2990TIP3   OH2 8975   4.485   4.771   0.871  0.1590 -0.2399 -0.1611
 2990TIP3    H1 8976   4.542   4.763   0.947  1.5222  3.0338 -0.6958
 2990TIP3    H2 8977   4.438   4.854   0.883  0.8090  0.6749 -3.0456
 2991TIP3   OH2 8978   1.348   1.304   0.789 -0.1843 -0.3719  0.0038
 2991TIP3    H1 8979   1.314   1.225   0.746  0.8466 -0.5518 -0.5089
 2991TIP3    H2 8980   1.335   1.287   0.882 -1.3471 -0.4942 -0.1656
 2992TIP3   OH2 8981   2.373   4.974   3.727  0.0488 -0.3797 -0.2762
 2992TIP3    H1 8982   2.369   4.936   3.815  1.0092  1.1960  0.5075
 2992TIP3    H2 8983   2.467   4.975   3.705 -0.1258 -0.1690 -1.0494
 2993TIP3   OH2 8984   0.396   2.037   0.324 -0.5937 -0.8086 -0.3642
 2993TIP3    H1 8985   0.314   2.076   0.354 -0.7221  0.3297 -2.0453
 2993TIP3    H2 8986   0.369   1.970   0.261 -0.3026 -2.6971  1.3828
 2994TIP3   OH2 8987   3.852   4.397   1.766  0.1201 -0.6486  0.6706
 2994TIP3    H1 8988   3.918   4.407   1.835  1.2883 -0.0012 -0.4958
 2994TIP3    H2 8989   3.792   4.470   1.779  0.8078 -0.0466  0.5111
 2995TIP3   OH2 8990   1.388   2.895   4.729  0.2322  0.4381  0.2074
 2995TIP3    H1 8991   1.370   2.949   4.806 -0.0805 -0.1750  0.5688
 2995TIP3    H2 8992   1.464   2.842   4.754 -0.0979 -0.0297  0.2406
 2996TIP3   OH2 8993   3.125   3.609   4.385  0.3933  0.0797 -0.0191
 2996TIP3    H1 8994   3.037   3.644   4.402 -0.4236 -1.7938 -0.1631
 2996TIP3    H2 8995   3.168   3.612   4.471 -0.1143  0.2065  0.2380
 2997TIP3   OH2 8996   5.309   4.248   0.018 -0.1035 -0.2638  0.5926
 2997TIP3    H1 8997   5.251   4.178  -0.010 -0.7426  0.2714  0.5411
 2997TIP3    H2 8998   5.287   4.262   0.110  1.4465 -1.4901  1.1891
 2998TIP3   OH2 8999   1.827   0.093   1.440  0.4292 -0.7324 -0.0363
 2998TIP3    H1 9000   1.852   0.118   1.351  1.6469 -0.4111  0.3661
 2998TIP3    H2 9001   1.752   0.149   1.461  0.0903 -0.8635 -0.8768
 2999TIP3   OH2 9002   2.909   5.394   0.802  0.0458 -0.1964 -0.1202
 2999TIP3    H1 9003   2.869   5.468   0.846 -0.5419  0.4359 -1.6565
 2999TIP3    H2 9004   2.893   5.319   0.860  1.1568  0.9348  1.7429
 3000TIP3   OH2 9005   4.855   5.755   3.924 -0.5581  0.2076  0.4002
 3000TIP3    H1 9006   4.917   5.716   3.862 -0.5893  1.6006 -0.5756
 3000TIP3    H2 9007   4.882   5.722   4.009 -0.2186 -1.4084 -0.3007
 3001TIP3   OH2 9008   3.609   4.064   1.142 -0.2223  0.2383 -0.3059
 3001TIP3    H1 9009   3.619   4.126   1.215  4.8013  0.1993 -0.6338
 3001TIP3    H2 9010   3.621   3.978   1.182 -1.3924 -0.1217 -0.6921
 3002TIP3   OH2 9011   5.102   1.857   1.164 -0.0749  0.2690  0.0328
 3002TIP3    H1 9012   5.152   1.935   1.189  1.7533 -0.8284 -0.1054
 3002TIP3    H2 9013   5.079   1.872   1.072  0.6850  0.4367 -0.1344
 3003TIP3   OH2 9014   3.527   4.741   4.118 -0.1978  0.1983  0.5426
 3003TIP3    H1 9015   3.528   4.730   4.023 -0.6130 -0.7553  0.6322
 3003TIP3    H2 9016   3.595   4.806   4.136  1.2318 -1.0242 -0.2347
 3004TIP3   OH2 9017   0.779   3.443   4.578  0.5563  0.1370 -0.5470
 3004TIP3    H1 9018   0.701   3.468   4.629  0.1487  2.1308 -1.9977
 3004TIP3    H2 9019   0.764   3.351   4.555 -0.6798  0.0709  0.3866
 3005TIP3   OH2 9020   4.309   0.861   0.398 -0.2917 -0.1773 -0.1759
 3005TIP3    H1 9021   4.402   0.843   0.380 -0.1898  0.6547 -0.5313
 3005TIP3    H2 9022   4.271   0.878   0.312 -0.6655 -0.0129  0.0220
 3006TIP3   OH2 9023   4.029   1.902   0.040 -0.2103 -0.3534 -0.1641
 3006TIP3    H1 9024   4.005   1.991   0.013 -0.8240 -0.4004  0.2214
 3006TIP3    H2 9025   3.973   1.845  -0.012 -1.3413 -0.4456  1.1216
 3007TIP3   OH2 9026   4.814   1.296   0.601  0.3495 -0.3913  0.1705
 3007TIP3    H1 9027   4.757   1.341   0.664 -1.2051 -0.4807 -1.0916
 3007TIP3    H2 9028   4.782   1.206   0.600 -1.7313  0.2412 -2.8634
 3008TIP3   OH2 9029   5.736   0.421   2.464 -0.7713 -0.2257  0.2179
 3008TIP3    H1 9030   5.812   0.405   2.408 -0.6884  0.1562  0.2198
 3008TIP3    H2 9031   5.750   0.364   2.540 -0.5559 -0.2583  0.1550
 3009TIP3   OH2 9032   5.264   1.257   5.008 -0.1593  0.1698 -0.0000
 3009TIP3    H1 9033   5.247   1.337   4.957  1.8801  0.4537 -0.3242
 3009TIP3    H2 9034   5.335   1.282   5.067  1.9958 -1.9222 -1.5367
 3010TIP3   OH2 9035   4.152   3.704   2.236  0.1844  0.4841  0.1885
 3010TIP3    H1 9036   4.196   3.643   2.295  1.4676  1.0452 -0.1695
 3010TIP3    H2 9037   4.086   3.747   2.291 -0.7875 -1.2109  0.4461
 3011TIP3   OH2 9038   0.634   3.250   4.940  0.2651 -0.4757 -0.4984
 3011TIP3    H1 9039   0.658   3.188   4.871 -4.0577 -2.1671 -0.8337
 3011TIP3    H2 9040   0.652   3.336   4.902  1.9367 -1.4285 -2.0023
 3012TIP3   OH2 9041   0.589   2.090   2.808 -0.2234 -0.2959  0.3928
 3012TIP3    H1 9042   0.610   2.148   2.882 -1.0968  0.2745  0.2212
 3012TIP3    H2 9043   0.673   2.054   2.781  0.5497  1.8827 -0.3010
 3013TIP3   OH2 9044   2.749   4.874   0.895 -0.3950 -0.2505  0.0001
 3013TIP3    H1 9045   2.705   4.926   0.962  1.1532 -0.9210  1.6364
 3013TIP3    H2 9046   2.825   4.927   0.870 -0.2421 -0.5860 -0.2541
 3014TIP3   OH2 9047   6.364   0.083   0.765 -0.2985 -0.1722  0.2030
 3014TIP3    H1 9048   6.337   0.100   0.855  0.5759  0.2638  0.4001
 3014TIP3    H2 9049   6.317   0.003   0.740 -2.1649  0.8374  0.3072
 3015TIP3   OH2 9050   2.417   0.066   3.628 -0.4656  0.0778  0.1604
 3015TIP3    H1 9051   2.479   0.132   3.658  0.8618 -0.3379 -1.4965
 3015TIP3    H2 9052   2.390   0.020   3.708  0.9590  0.6103  0.9780
 3016TIP3   OH2 9053   3.568   0.181   1.539  0.3255 -0.1006 -0.1508
 3016TIP3    H1 9054   3.620   0.247   1.584  1.3815 -1.4444  0.6675
 3016TIP3    H2 9055   3.567   0.106   1.598 -1.2035 -0.6955 -0.8621
 3017TIP3   OH2 9056   3.418   2.739   1.437 -0.4236  0.3938 -0.1935
 3017TIP3    H1 9057   3.341   2.716   1.488 -0.0862 -1.0121 -0.2730
 3017TIP3    H2 9058   3.470   2.795   1.494 -0.9065  0.3152  0.3247
 3018TIP3   OH2 9059   5.183   1.446   4.237  0.3760 -0.4818  0.4349
 3018TIP3    H1 9060   5.261   1.447   4.181  0.6028 -0.9900  0.7343
 3018TIP3    H2 9061   5.153   1.537   4.238 -0.5315 -0.6999 -1.7665
 3019TIP3   OH2 9062   4.489   5.438   2.517 -0.3460 -0.0068  0.2544
 3019TIP3    H1 9063   4.489   5.407   2.608 -0.8615  1.5049  0.7983
 3019TIP3    H2 9064   4.400   5.468   2.502 -0.5041 -1.0451 -1.0702
 3020TIP3   OH2 9065   3.582   2.956   1.042  0.0517  0.6210 -0.4997
 3020TIP3    H1 9066   3.536   2.915   1.115  1.8108 -0.0192  0.2955
 3020TIP3    H2 9067   3.526   2.938   0.966 -1.0326 -0.0561  0.4265
 3021TIP3   OH2 9068   4.608   2.767   3.528 -0.2560 -0.0492  0.1692
 3021TIP3    H1 9069   4.515   2.764   3.551 -0.1940 -0.5219  0.3704
 3021TIP3    H2 9070   4.622   2.856   3.496 -0.5073  0.4212  1.3106
 3022TIP3   OH2 9071   0.119   5.398   4.740 -0.3474  0.0234  0.2309
 3022TIP3    H1 9072   0.190   5.462   4.731 -0.7393  0.4128 -0.1253
 3022TIP3    H2 9073   0.161   5.313   4.728  0.1128  0.2343  0.3341
 3023TIP3   OH2 9074   1.058   5.293   4.080 -0.3568 -0.5226  0.0120
 3023TIP3    H1 9075   1.052   5.299   4.175 -0.4454 -2.1014  0.1288
 3023TIP3    H2 9076   0.992   5.228   4.056  0.5345 -1.0780 -0.9967
 3024TIP3   OH2 9077   3.069   1.094   2.508 -0.4582  0.4857 -0.8379
 3024TIP3    H1 9078   3.034   1.072   2.421  1.6654 -1.3101 -1.3462
 3024TIP3    H2 9079   3.079   1.010   2.552  0.2151  1.2101  0.4521
 3025TIP3   OH2 9080   5.810   3.338   4.989  0.0192  0.5894 -0.2881
 3025TIP3    H1 9081   5.773   3.414   4.945 -0.3678  0.1048 -0.8136
 3025TIP3    H2 9082   5.784   3.347   5.081 -0.4315  0.8389 -0.4410
 3026TIP3   OH2 9083   0.769   5.723   3.893  0.7084 -0.6212  0.3348
 3026TIP3    H1 9084   0.816   5.642   3.874 -0.6234 -0.9670 -1.7095
 3026TIP3    H2 9085   0.721   5.705   3.973  0.9229 -1.6321  0.2464
 3027TIP3   OH2 9086   1.378   2.406   1.795  0.2109  0.3557  0.7157
 3027TIP3    H1 9087   1.313   2.455   1.845  0.3344 -0.1669  1.4057
 3027TIP3    H2 9088   1.328   2.344   1.743  0.1458  0.0278  1.1653
 3028TIP3   OH2 9089   4.253   0.529   1.205  0.5651  0.7257 -0.1975
 3028TIP3    H1 9090   4.316   0.472   1.248 -0.1926 -0.4902 -0.6657
 3028TIP3    H2 9091   4.172   0.517   1.253  0.2281  0.9001 -0.7096
 3029TIP3   OH2 9092   0.854   5.088   4.603  0.0184 -0.3194  0.5542
 3029TIP3    H1 9093   0.882   5.061   4.515  0.7987 -1.7783  1.2184
 3029TIP3    H2 9094   0.906   5.166   4.622  0.3730 -0.4197  0.0246
 3030TIP3   OH2 9095   4.755   1.727   2.705  0.4032  0.5170 -0.0273
 3030TIP3    H1 9096   4.702   1.729   2.625  0.3352  1.3152  0.0275
 3030TIP3    H2 9097   4.839   1.763   2.679  0.2823  1.0753  0.3178
 3031TIP3   OH2 9098   1.818   2.447   0.128  0.5220  0.1461 -0.7068
 3031TIP3    H1 9099   1.834   2.413   0.216  0.0642 -1.3080 -1.1536
 3031TIP3    H2 9100   1.817   2.369   0.073 -1.4431  0.8058 -1.6750
 3032TIP3   OH2 9101   5.942   0.751   2.131 -0.3856  0.5194  0.3488
 3032TIP3    H1 9102   6.000   0.794   2.194  1.8949  0.1345 -1.3782
 3032TIP3    H2 9103   5.959   0.657   2.143 -0.3123  0.4203 -0.4582
 3033TIP3   OH2 9104   6.156   2.097   0.283 -0.5087 -0.2958 -0.0278
 3033TIP3    H1 9105   6.208   2.062   0.356 -0.6562 -0.0155  0.2116
 3033TIP3    H2 9106   6.089   2.151   0.325 -0.2709  0.2952 -0.4009
 3034TIP3   OH2 9107   3.860   3.599   4.605  0.9301  0.2871  0.2028
 3034TIP3    H1 9108   3.815   3.564   4.529 -1.0283  0.2562  1.3178
 3034TIP3    H2 9109   3.926   3.658   4.569 -1.6794  2.3704 -1.5150
 3035TIP3   OH2 9110   6.102   2.816   1.391 -0.1771 -0.4490 -0.1239
 3035TIP3    H1 9111   6.130   2.892   1.442 -0.1193 -0.1365 -0.6152
 3035TIP3    H2 9112   6.007   2.818   1.395 -0.2335  0.4732 -1.2998
 3036TIP3   OH2 9113   1.699   4.376   1.397  0.3196  0.7316  0.1941
 3036TIP3    H1 9114   1.616   4.423   1.385 -1.3891 -2.1147 -0.0821
 3036TIP3    H2 9115   1.719   4.387   1.490 -0.7813  0.9029  0.4275
 3037TIP3   OH2 9116   0.264   4.520   1.625  0.4633  0.0703  0.0495
 3037TIP3    H1 9117   0.359   4.528   1.633  0.4192  2.2625 -0.7327
 3037TIP3    H2 9118   0.251   4.485   1.537  0.5350 -1.5375  0.6506
 3038TIP3   OH2 9119   0.754   1.336   3.270  0.4954  0.8609 -0.6178
 3038TIP3    H1 9120   0.698   1.387   3.329 -0.1321  1.2865 -1.5498
 3038TIP3    H2 9121   0.761   1.250   3.311  0.3772  1.2635  0.2599
 3039TIP3   OH2 9122   3.155   2.756   1.564 -0.2992 -0.0320 -0.2743
 3039TIP3    H1 9123   3.099   2.688   1.527  0.8274 -0.4763 -1.2341
 3039TIP3    H2 9124   3.097   2.809   1.619 -0.9003 -2.7327  1.9002
 3040TIP3   OH2 9125   3.933   2.144   4.198 -0.0060 -0.0638  0.0676
 3040TIP3    H1 9126   3.949   2.197   4.276 -0.9101  0.3476 -0.0133
 3040TIP3    H2 9127   3.852   2.178   4.162  0.0360 -0.7120 -0.6724
 3041TIP3   OH2 9128   2.489   3.229   3.191  0.4584 -0.2657 -0.7559
 3041TIP3    H1 9129   2.408   3.182   3.171 -0.5035  0.4703  1.1759
 3041TIP3    H2 9130   2.475   3.317   3.156  0.0564  0.1060  0.3085
 3042TIP3   OH2 9131   2.137   0.155   0.709  0.1468  0.2895 -0.3003
 3042TIP3    H1 9132   2.188   0.105   0.644  1.1702 -0.0156  0.6957
 3042TIP3    H2 9133   2.099   0.227   0.659 -0.0042 -0.5554 -1.4560
 3043TIP3   OH2 9134   4.293   0.230   4.691  0.6045  0.0924  0.4763
 3043TIP3    H1 9135   4.291   0.153   4.634  1.4384  0.0404  0.5141
 3043TIP3    H2 9136   4.242   0.296   4.644  0.5631 -0.2262  0.0715
 3044TIP3   OH2 9137   4.969   2.994   2.936  0.4110  0.9914  0.3310
 3044TIP3    H1 9138   4.969   3.085   2.907  2.0178  1.8386  2.6465
 3044TIP3    H2 9139   4.883   2.981   2.975 -0.1377  1.2085 -0.7590
 3045TIP3   OH2 9140   0.278   1.232   2.374  0.1903 -0.3888 -0.3706
 3045TIP3    H1 9141   0.295   1.257   2.465 -1.1792 -0.7207  0.0078
 3045TIP3    H2 9142   0.314   1.144   2.365  0.6886 -0.1947 -0.2663
 3046TIP3   OH2 9143   3.184   2.080   2.760  0.1099 -0.2629 -0.0680
 3046TIP3    H1 9144   3.138   2.014   2.811 -2.4404  2.0794  0.8921
 3046TIP3    H2 9145   3.138   2.081   2.676  0.7411 -0.3259 -0.4207
 3047TIP3   OH2 9146   3.208   1.775   3.608  0.3068 -0.3435  0.4990
 3047TIP3    H1 9147   3.131   1.816   3.649  1.2680  0.4722  1.5402
 3047TIP3    H2 9148   3.177   1.748   3.522 -0.6129  1.8045  0.0911
 3048TIP3   OH2 9149   3.596   5.430   0.238  0.5656  0.0411 -0.3528
 3048TIP3    H1 9150   3.515   5.433   0.289  0.7682 -0.1715 -0.0159
 3048TIP3    H2 9151   3.622   5.522   0.229  1.6191 -0.0016  1.6914
 3049TIP3   OH2 9152   4.905   2.841   4.761 -0.1548 -0.1209 -0.1356
 3049TIP3    H1 9153   4.838   2.901   4.793 -0.2483 -0.1245 -0.3214
 3049TIP3    H2 9154   4.979   2.897   4.740  0.6644 -0.3191  2.0017
 3050TIP3   OH2 9155   5.139   5.758   2.952 -0.2785  0.0080  0.1682
 3050TIP3    H1 9156   5.165   5.698   2.882  0.1686 -0.3983  0.6757
 3050TIP3    H2 9157   5.202   5.830   2.947 -1.5079  1.0687 -1.2000
 3051TIP3   OH2 9158   2.117   3.381   2.655  0.7419  0.0760  0.0245
 3051TIP3    H1 9159   2.061   3.307   2.633  1.3537 -0.4542  0.2288
 3051TIP3    H2 9160   2.149   3.361   2.743  1.8235  0.0164 -0.3715
 3052TIP3   OH2 9161   1.292   3.179   4.469  0.0715  0.2323 -0.0948
 3052TIP3    H1 9162   1.303   3.090   4.437  3.5298  0.8678 -1.1308
 3052TIP3    H2 9163   1.199   3.197   4.460 -0.4425 -2.6306 -1.5968
 3053TIP3   OH2 9164   3.147   3.691   4.806 -0.3907 -0.4061  0.2014
 3053TIP3    H1 9165   3.071   3.635   4.819 -1.4777  0.4265 -2.0831
 3053TIP3    H2 9166   3.155   3.741   4.887 -2.0443 -0.7786  0.6232
 3054TIP3   OH2 9167   5.124   5.805   0.789 -0.1827 -0.2428 -0.2781
 3054TIP3    H1 9168   5.066   5.839   0.856  1.4767  1.8884  0.2197
 3054TIP3    H2 9169   5.201   5.774   0.837  0.7088  0.6162 -1.0896
 3055TIP3   OH2 9170   3.220   5.971   3.166 -0.2982 -0.6877  0.0201
 3055TIP3    H1 9171   3.190   5.892   3.120  1.2488  0.2811 -2.9135
 3055TIP3    H2 9172   3.203   6.042   3.104  0.5046  0.9811  1.6261
 3056TIP3   OH2 9173   2.987   5.698   0.957 -0.3678 -0.3575 -0.1320
 3056TIP3    H1 9174   2.994   5.709   0.863 -2.6735  1.0082 -0.2073
 3056TIP3    H2 9175   3.077   5.712   0.989 -0.1434  3.0958 -1.8002
 3057TIP3   OH2 9176   0.384   2.087   2.074 -0.5484 -0.2670  0.0097
 3057TIP3    H1 9177   0.468   2.060   2.110 -0.6688  1.0082  1.3518
 3057TIP3    H2 9178   0.321   2.073   2.145 -1.2940 -0.2297 -0.6244
 3058TIP3   OH2 9179   3.750   0.642   3.841 -0.1970  0.6114  0.0961
 3058TIP3    H1 9180   3.813   0.607   3.778 -2.0759 -2.0605 -0.4772
 3058TIP3    H2 9181   3.803   0.691   3.903  2.6383 -2.2376  0.1739
 3059TIP3   OH2 9182   4.478   5.286   0.552  0.0076  0.8019  0.0123
 3059TIP3    H1 9183   4.552   5.332   0.591  0.0875 -0.2801  1.2191
 3059TIP3    H2 9184   4.401   5.324   0.595  0.1313 -0.8800  1.8920
 3060TIP3   OH2 9185   6.106   4.806   2.555 -0.3380  0.0504  0.7034
 3060TIP3    H1 9186   6.069   4.718   2.549 -0.5006  0.0538  1.5738
 3060TIP3    H2 9187   6.180   4.797   2.615 -1.3174  0.8048  2.0692
 3061TIP3   OH2 9188   0.029   4.386   4.218 -0.8969  0.4925 -0.0011
 3061TIP3    H1 9189   0.040   4.472   4.179 -0.6366  0.2606 -0.4496
 3061TIP3    H2 9190   0.092   4.330   4.172 -1.1185  0.0451  0.2266
 3062TIP3   OH2 9191   1.433   2.731   4.291  0.5555  0.1031  0.7472
 3062TIP3    H1 9192   1.378   2.670   4.242  0.2478  0.6556  0.3929
 3062TIP3    H2 9193   1.460   2.682   4.369 -0.0696 -0.3242  0.7021
 3063TIP3   OH2 9194   5.339   5.176   2.135  0.3177  0.4883 -0.4949
 3063TIP3    H1 9195   5.244   5.179   2.146  0.1422  1.0912 -1.9916
 3063TIP3    H2 9196   5.372   5.243   2.196 -0.1396 -0.1425  0.4789
 3064TIP3   OH2 9197   2.535   5.332   1.517 -0.5286 -0.1877  0.6088
 3064TIP3    H1 9198   2.603   5.371   1.572 -0.9990  2.2542 -0.4008
 3064TIP3    H2 9199   2.512   5.401   1.455 -1.0100 -2.3354 -1.7749
 3065TIP3   OH2 9200   0.471   1.412   2.573 -0.1986 -0.1702 -0.9630
 3065TIP3    H1 9201   0.496   1.320   2.581  1.0244  0.2525  0.4889
 3065TIP3    H2 9202   0.499   1.451   2.655 -0.0093  1.6657 -1.8660
 3066TIP3   OH2 9203   2.145   4.803   3.605  0.7291  0.2647 -0.1418
 3066TIP3    H1 9204   2.143   4.765   3.693  0.7316 -0.3840 -0.4151
 3066TIP3    H2 9205   2.211   4.873   3.610  1.1376 -0.1421  0.2246
 3067TIP3   OH2 9206   1.010   5.525   4.307 -0.6709  0.5982 -0.5345
 3067TIP3    H1 9207   0.945   5.455   4.295 -1.6182  1.3335  0.2428
 3067TIP3    H2 9208   1.013   5.540   4.401  0.1097  1.0793 -0.6253
 3068TIP3   OH2 9209   6.180   3.623   1.451 -0.1077  0.3023  0.4727
 3068TIP3    H1 9210   6.203   3.702   1.401 -2.4630 -0.8531 -2.8012
 3068TIP3    H2 9211   6.251   3.562   1.432 -0.1853  0.4142 -0.2298
 3069TIP3   OH2 9212   2.432   2.643   2.956  0.5027 -0.6450  0.6776
 3069TIP3    H1 9213   2.412   2.716   3.015  0.5271 -0.4127  0.4003
 3069TIP3    H2 9214   2.347   2.605   2.934  0.6092 -2.1847  2.6748
 3070TIP3   OH2 9215   0.811   1.739   4.788 -0.8688  0.6465 -0.2254
 3070TIP3    H1 9216   0.778   1.652   4.812 -0.8372  0.9448  0.9451
 3070TIP3    H2 9217   0.906   1.727   4.782 -0.1961  1.4906  4.5170
 3071TIP3   OH2 9218   5.534   0.203   3.270  0.3175 -0.3230  1.1100
 3071TIP3    H1 9219   5.474   0.271   3.301  0.8900  0.4111  0.6148
 3071TIP3    H2 9220   5.477   0.127   3.257 -0.3544  0.0888  1.5356
 3072TIP3   OH2 9221   0.052   5.133   5.186  0.3415  0.0242 -0.0737
 3072TIP3    H1 9222   0.139   5.158   5.155 -0.8502  0.4242 -3.4342
 3072TIP3    H2 9223  -0.009   5.178   5.128 -2.2395  0.6572  2.8172
 3073TIP3   OH2 9224   3.439   5.604   0.676 -0.5877 -0.3107 -0.6028
 3073TIP3    H1 9225   3.390   5.669   0.726 -0.1968 -0.0782 -0.5256
 3073TIP3    H2 9226   3.513   5.651   0.640 -1.0679 -0.3945 -1.7217
 3074TIP3   OH2 9227   1.190   1.420   2.603  0.2138  0.5953  0.1849
 3074TIP3    H1 9228   1.125   1.489   2.596 -1.2607 -0.8363 -0.9732
 3074TIP3    H2 9229   1.172   1.378   2.687  0.1888  0.7268  0.2447
 3075TIP3   OH2 9230   3.778   3.666   3.305  0.1801  0.5075  0.2415
 3075TIP3    H1 9231   3.860   3.685   3.261 -0.4789  0.2607 -1.1270
 3075TIP3    H2 9232   3.804   3.625   3.388  1.4172 -1.2622 -0.9738
 3076TIP3   OH2 9233   6.138   4.872   0.427 -0.1862 -0.2111  0.7214
 3076TIP3    H1 9234   6.059   4.829   0.461  0.9041 -1.9334  1.2381
 3076TIP3    H2 9235   6.112   4.907   0.343 -1.0657 -2.4137  0.0046
 3077TIP3   OH2 9236   4.839   4.580   2.564 -0.1178 -0.2864 -0.0333
 3077TIP3    H1 9237   4.750   4.545   2.576 -1.2223  1.4548 -2.3824
 3077TIP3    H2 9238   4.856   4.571   2.470  2.1625 -0.4380  0.3399
 3078TIP3   OH2 9239   5.167   5.382   4.048 -0.5312  0.4946  0.3128
 3078TIP3    H1 9240   5.189   5.326   3.973  1.6884  0.7299  0.7091
 3078TIP3    H2 9241   5.071   5.383   4.050 -0.6522 -2.1431 -0.5346
 3079TIP3   OH2 9242   0.080   2.515   2.793 -0.3003 -0.2506 -0.3883
 3079TIP3    H1 9243   0.052   2.492   2.705  2.2653 -1.2004 -1.0328
 3079TIP3    H2 9244   0.122   2.436   2.827  1.4332  0.9954  0.5023
 3080TIP3   OH2 9245   1.088   3.902   3.348 -0.7425  0.0525  0.7775
 3080TIP3    H1 9246   0.998   3.874   3.334 -0.7343  0.1172  0.5838
 3080TIP3    H2 9247   1.136   3.863   3.275 -1.0302  2.0326 -0.5723
 3081TIP3   OH2 9248   3.942   1.992   3.679  0.2343  0.3739 -0.3706
 3081TIP3    H1 9249   3.893   1.973   3.599 -0.5346 -1.9487  0.5656
 3081TIP3    H2 9250   4.000   1.916   3.690  0.1435  0.5190  1.3909
 3082TIP3   OH2 9251   0.522   3.731   3.475  0.4032  0.0844 -0.1536
 3082TIP3    H1 9252   0.470   3.738   3.555  0.7644  0.4591  0.0493
 3082TIP3    H2 9253   0.577   3.655   3.489  1.0051  0.5870  0.2738
 3083TIP3   OH2 9254   2.324   0.054   4.874  0.8052  0.1695 -0.3470
 3083TIP3    H1 9255   2.372  -0.021   4.839  1.9420  0.8835 -0.3435
 3083TIP3    H2 9256   2.372   0.079   4.953  1.1948  1.6557 -1.0077
 3084TIP3   OH2 9257   3.334   5.162   0.216 -0.0575  0.1813 -0.1897
 3084TIP3    H1 9258   3.265   5.195   0.274  0.2979 -2.1230  1.6936
 3084TIP3    H2 9259   3.416   5.179   0.264  0.5169  0.7846 -1.3483
 3085TIP3   OH2 9260   4.861   2.992   3.376  0.2561 -0.2871  0.1454
 3085TIP3    H1 9261   4.826   3.019   3.461 -0.1563  0.6249 -0.2937
 3085TIP3    H2 9262   4.924   2.923   3.396 -0.3738 -0.5944  1.1207
 3086TIP3   OH2 9263   3.193   3.625   3.970  0.4130  0.3442 -0.0478
 3086TIP3    H1 9264   3.190   3.609   3.875 -1.3933 -1.1877  0.2120
 3086TIP3    H2 9265   3.106   3.657   3.991  0.2509 -0.9567  1.3504
 3087TIP3   OH2 9266   3.361   3.125   3.979  0.5288 -0.1800 -0.4183
 3087TIP3    H1 9267   3.318   3.125   4.064  0.9050  0.9905 -0.2063
 3087TIP3    H2 9268   3.367   3.218   3.955  2.4858 -0.3305 -0.6632
 3088TIP3   OH2 9269   4.725   0.658   0.278  0.6255  0.1073  0.1487
 3088TIP3    H1 9270   4.780   0.625   0.349  1.5119 -1.0155 -0.9903
 3088TIP3    H2 9271   4.706   0.580   0.225  0.0030  0.9098 -0.8450
 3089TIP3   OH2 9272   0.929   5.054   1.451  0.0697  0.4494  0.2452
 3089TIP3    H1 9273   1.013   5.048   1.494 -0.3507  0.4567  1.0805
 3089TIP3    H2 9274   0.944   5.114   1.377  1.4686 -1.6611 -1.3109
 3090TIP3   OH2 9275   0.941   2.076   5.076  0.2584  0.2981 -0.3576
 3090TIP3    H1 9276   0.875   2.103   5.140  0.1966 -0.3630 -0.1286
 3090TIP3    H2 9277   0.998   2.015   5.125  2.2562  2.3545  0.0377
 3091TIP3   OH2 9278   6.321   3.855   2.799  0.5937  0.5860 -0.2654
 3091TIP3    H1 9279   6.297   3.780   2.744 -0.1007 -0.3055  1.1844
 3091TIP3    H2 9280   6.264   3.926   2.770 -1.6591 -0.6051  0.9774
 3092TIP3   OH2 9281   4.146   3.628   1.887 -0.6077 -0.4247 -0.0930
 3092TIP3    H1 9282   4.219   3.580   1.850 -1.1197 -1.3554  0.0757
 3092TIP3    H2 9283   4.162   3.719   1.862  0.2685 -0.7057 -0.5914
 3093TIP3   OH2 9284   0.255   3.393   1.519  0.5502 -0.1780 -1.0402
 3093TIP3    H1 9285   0.297   3.308   1.537  1.1649 -0.1301 -2.2028
 3093TIP3    H2 9286   0.215   3.417   1.603  4.6629  0.8395  0.8669
 3094TIP3   OH2 9287   1.897   5.636   1.460 -0.0956  0.0933  0.4509
 3094TIP3    H1 9288   1.816   5.657   1.509 -0.6239  1.8668 -1.0693
 3094TIP3    H2 9289   1.967   5.663   1.519 -0.5707 -1.2385  1.7002
 3095TIP3   OH2 9290   3.289   0.929   4.651  0.0095 -0.0669  0.0877
 3095TIP3    H1 9291   3.292   0.977   4.568 -0.6932 -0.3976 -0.1374
 3095TIP3    H2 9292   3.318   0.841   4.629 -1.6339 -0.5877 -0.1445
 3096TIP3   OH2 9293   0.765   4.200   0.473 -0.0516  0.6304  0.3382
 3096TIP3    H1 9294   0.781   4.226   0.382  0.6105 -0.5122  0.1026
 3096TIP3    H2 9295   0.688   4.144   0.469  0.9017 -0.7267  0.2127
 3097TIP3   OH2 9296   6.088   2.979   5.126  0.7378 -0.3105  0.1373
 3097TIP3    H1 9297   6.092   3.074   5.125  0.5135 -0.3019 -0.0261
 3097TIP3    H2 9298   6.113   2.955   5.215  0.9370 -0.1067  0.1369
 3098TIP3   OH2 9299   3.033   0.862   0.052 -0.4090 -0.0583 -0.1681
 3098TIP3    H1 9300   3.037   0.927  -0.018  0.6291 -0.3520 -0.4069
 3098TIP3    H2 9301   3.065   0.908   0.129 -1.3574  0.2066  0.0767
 3099TIP3   OH2 9302   5.109   3.154   3.333 -0.5328  0.1245  0.1354
 3099TIP3    H1 9303   5.020   3.121   3.336 -0.1766 -0.8191  1.7266
 3099TIP3    H2 9304   5.158   3.097   3.394  1.5573 -0.5585 -2.0227
 3100TIP3   OH2 9305   3.548   3.027   2.476 -0.0208 -0.2424  0.1434
 3100TIP3    H1 9306   3.566   3.090   2.406 -1.0429  3.5885  3.0096
 3100TIP3    H2 9307   3.634   3.009   2.514  0.2570 -0.4227 -0.5483
 3101TIP3   OH2 9308   4.057   5.661   3.211  0.0589 -0.9678 -0.0855
 3101TIP3    H1 9309   4.023   5.572   3.213 -0.1524 -0.8946 -0.4156
 3101TIP3    H2 9310   4.070   5.684   3.303  0.8219 -1.6102 -0.0163
 3102TIP3   OH2 9311   0.570   2.632   0.262  0.5170  0.2054  0.0553
 3102TIP3    H1 9312   0.616   2.575   0.324  0.5044 -0.1235 -0.2341
 3102TIP3    H2 9313   0.640   2.678   0.216  0.5458  0.0073 -0.1006
 3103TIP3   OH2 9314   6.158   5.701   2.807 -0.3461  0.3340  0.5796
 3103TIP3    H1 9315   6.252   5.706   2.793 -0.3078 -0.8518  0.2839
 3103TIP3    H2 9316   6.126   5.648   2.734 -1.0498 -0.4173  1.4122
 3104TIP3   OH2 9317   6.281   2.387   3.935 -0.4197 -0.3759  0.1497
 3104TIP3    H1 9318   6.342   2.458   3.912  0.7531 -1.9915 -2.1346
 3104TIP3    H2 9319   6.261   2.402   4.027  0.8849  2.1020  0.1215
 3105TIP3   OH2 9320   3.065   3.635   0.842  0.9451 -0.1647 -0.1172
 3105TIP3    H1 9321   3.120   3.650   0.764  2.5456 -3.6119  0.1915
 3105TIP3    H2 9322   3.121   3.662   0.915  0.2628  0.9950  0.0026
 3106TIP3   OH2 9323   3.864   0.500   4.093 -0.2589  0.1051 -0.1647
 3106TIP3    H1 9324   3.916   0.510   4.014 -0.1880 -2.7357 -0.5571
 3106TIP3    H2 9325   3.796   0.436   4.070  0.7658 -2.1144  2.4441
 3107TIP3   OH2 9326   2.823   2.999   1.433  0.2826 -0.2534 -0.1686
 3107TIP3    H1 9327   2.773   3.078   1.414  1.2665  0.2812 -0.6558
 3107TIP3    H2 9328   2.762   2.927   1.420 -0.7942  0.4504  0.8646
 3108TIP3   OH2 9329   5.921   3.051   0.134 -0.4478  0.2170  0.1317
 3108TIP3    H1 9330   5.853   3.116   0.151 -1.3730 -0.5966 -0.3803
 3108TIP3    H2 9331   5.976   3.090   0.066 -1.9527 -0.1791 -1.3691
 3109TIP3   OH2 9332   1.751   0.376   1.755 -0.2529  0.1555  0.0518
 3109TIP3    H1 9333   1.841   0.355   1.783 -0.8795 -1.8973  0.7047
 3109TIP3    H2 9334   1.698   0.361   1.833 -1.0955  2.4525  0.0012
 3110TIP3   OH2 9335   1.575   3.218   4.430 -0.5596 -0.2135  0.4492
 3110TIP3    H1 9336   1.568   3.260   4.344 -0.7979 -4.3283 -1.8273
 3110TIP3    H2 9337   1.486   3.191   4.451 -0.1887 -1.2269  0.7991
 3111TIP3   OH2 9338   4.017   2.021   4.957 -0.0881 -0.1445 -0.1354
 3111TIP3    H1 9339   3.982   1.942   4.918 -0.5912  0.0320 -0.0479
 3111TIP3    H2 9340   4.097   2.040   4.907  0.7934 -1.4540  0.7188
 3112TIP3   OH2 9341   0.905   5.705   2.209 -0.2028 -0.3239 -0.6234
 3112TIP3    H1 9342   0.861   5.781   2.247  0.4467 -0.1584 -0.1721
 3112TIP3    H2 9343   0.878   5.632   2.264 -2.5795 -0.8457 -2.3634
 3113TIP3   OH2 9344   0.126   2.500   4.925  0.5835  0.8227  0.4638
 3113TIP3    H1 9345   0.053   2.502   4.864  0.9734 -1.9123 -0.2007
 3113TIP3    H2 9346   0.090   2.534   5.007 -0.3708  3.0298 -0.7958
 3114TIP3   OH2 9347   3.464   3.409   4.500 -0.2620 -0.0564  0.4785
 3114TIP3    H1 9348   3.378   3.448   4.480  0.8030  1.9982 -0.4387
 3114TIP3    H2 9349   3.481   3.433   4.591 -0.2688  0.3109  0.3828
 3115TIP3   OH2 9350   5.195   0.385   1.239  0.4749 -0.0474 -0.0826
 3115TIP3    H1 9351   5.216   0.436   1.160 -0.9352 -0.6482 -0.8831
 3115TIP3    H2 9352   5.233   0.435   1.310  1.7753  0.5332 -1.1348
 3116TIP3   OH2 9353   0.500   0.444   4.999  0.4533 -0.0633 -0.0763
 3116TIP3    H1 9354   0.515   0.463   4.906 -1.3060 -0.8779 -0.5710
 3116TIP3    H2 9355   0.552   0.509   5.045  3.1139 -0.9517 -1.5821
 3117TIP3   OH2 9356   3.979   3.640   4.987  0.3007 -0.0257 -0.2075
 3117TIP3    H1 9357   4.026   3.708   4.939  1.3199 -1.5607 -1.4919
 3117TIP3    H2 9358   4.047   3.577   5.012 -0.6876 -0.8510  0.4861
 3118TIP3   OH2 9359   3.432   1.300   3.884  0.2477  0.4736 -0.0570
 3118TIP3    H1 9360   3.475   1.377   3.844  0.9131  0.4009  0.4969
 3118TIP3    H2 9361   3.398   1.332   3.967 -3.2277  1.2402 -1.5946
 3119TIP3   OH2 9362   5.907   4.867   3.154  0.3299  0.5944  0.5446
 3119TIP3    H1 9363   5.901   4.959   3.180 -1.4863  0.6190  0.1648
 3119TIP3    H2 9364   5.915   4.819   3.237  1.0671  1.0583  0.7536
 3120TIP3   OH2 9365   2.872   3.938   2.725  0.1911 -0.5608 -0.0098
 3120TIP3    H1 9366   2.880   3.924   2.631  1.3910 -0.4913  0.0627
 3120TIP3    H2 9367   2.940   4.001   2.746 -2.1373  1.9818  0.4205
 3121TIP3   OH2 9368   1.716   4.858   0.161 -0.6579  0.4612  0.2382
 3121TIP3    H1 9369   1.683   4.800   0.229 -0.1354  0.0649  0.1646
 3121TIP3    H2 9370   1.811   4.855   0.170 -0.4405 -1.2542 -1.8082
 3122TIP3   OH2 9371   5.850   3.882   4.478 -0.0086 -0.2760 -0.4105
 3122TIP3    H1 9372   5.810   3.949   4.423 -1.5603 -1.6467 -1.0516
 3122TIP3    H2 9373   5.779   3.852   4.535  0.7659 -1.0357  0.1887
 3123TIP3   OH2 9374   4.164   3.524   3.804  0.2696  0.1460  0.0252
 3123TIP3    H1 9375   4.239   3.492   3.754  0.0910 -0.9971  0.4793
 3123TIP3    H2 9376   4.127   3.447   3.846 -1.1391  0.7020 -0.1397
 3124TIP3   OH2 9377   3.738   1.209   2.745  0.5708  0.5274 -0.1448
 3124TIP3    H1 9378   3.701   1.132   2.789  2.2431  0.4446  1.1893
 3124TIP3    H2 9379   3.714   1.283   2.801  3.2693  0.3478  1.3986
 3125TIP3   OH2 9380   2.849   1.873   1.054  0.1223  0.2465 -0.3389
 3125TIP3    H1 9381   2.928   1.826   1.082 -0.6003  0.1279  1.6718
 3125TIP3    H2 9382   2.875   1.966   1.056 -0.2825  0.4176  2.5140
 3126TIP3   OH2 9383   0.631   3.215   3.045 -0.1733  0.7015 -0.0467
 3126TIP3    H1 9384   0.565   3.146   3.057  0.8784 -0.4387 -0.5824
 3126TIP3    H2 9385   0.674   3.192   2.963  0.5917  1.6936  0.0638
 3127TIP3   OH2 9386   2.404   0.783   1.289 -0.1782  0.0403 -0.6892
 3127TIP3    H1 9387   2.339   0.853   1.286  0.5352  0.7028 -1.1340
 3127TIP3    H2 9388   2.489   0.828   1.283  0.4229 -0.6740  1.6227
 3128TIP3   OH2 9389   1.759   0.066   3.741  0.6402  0.4139 -0.5228
 3128TIP3    H1 9390   1.729   0.156   3.728  0.8992  0.7956  1.2267
 3128TIP3    H2 9391   1.682   0.019   3.774 -0.0410 -0.5499 -3.2582
 3129TIP3   OH2 9392   6.092   3.085   2.915 -0.0080 -0.1724  0.3622
 3129TIP3    H1 9393   6.168   3.052   2.963 -1.0470 -2.3829  0.5987
 3129TIP3    H2 9394   6.083   3.025   2.840 -0.5529  1.0591 -0.6003
 3130TIP3   OH2 9395   2.835   4.870   3.011  0.0428  0.5609  0.3259
 3130TIP3    H1 9396   2.925   4.890   3.038  0.4999  1.2924 -1.6212
 3130TIP3    H2 9397   2.836   4.777   2.988 -0.2189  0.0659  2.1357
 3131TIP3   OH2 9398   1.820   1.547   3.615  0.2059  0.7309 -0.4063
 3131TIP3    H1 9399   1.817   1.454   3.590 -0.1630  1.1078 -1.8632
 3131TIP3    H2 9400   1.814   1.594   3.532  1.7004  2.0648  0.1952
 3132TIP3   OH2 9401   2.792   5.019   4.456  0.0386 -0.1372 -0.1903
 3132TIP3    H1 9402   2.767   4.986   4.543 -0.2317 -0.3368 -0.3413
 3132TIP3    H2 9403   2.851   4.953   4.422 -0.6776 -0.5901 -0.5844
 3133TIP3   OH2 9404   2.259   4.477   3.724 -0.4130  0.1748 -0.0216
 3133TIP3    H1 9405   2.177   4.455   3.680 -0.4963 -1.2044  0.7590
 3133TIP3    H2 9406   2.239   4.555   3.775 -0.8526  0.6390 -0.8929
 3134TIP3   OH2 9407   4.363   4.161   2.744  0.2479  0.3527  0.0044
 3134TIP3    H1 9408   4.442   4.117   2.714  1.7728  2.0636  1.2704
 3134TIP3    H2 9409   4.316   4.183   2.664  1.0730 -0.6361 -0.7811
 3135TIP3   OH2 9410   5.576   1.710   2.424 -0.3815  0.6662  0.3897
 3135TIP3    H1 9411   5.559   1.616   2.432 -2.4377  1.0222  0.7280
 3135TIP3    H2 9412   5.528   1.749   2.497  1.4248  1.9087  0.9779
 3136TIP3   OH2 9413   2.054   2.439   1.896  0.6773 -0.0807 -0.3497
 3136TIP3    H1 9414   2.012   2.490   1.826 -0.6408  2.1959  1.9215
 3136TIP3    H2 9415   2.043   2.493   1.974  2.0448 -2.5180  1.6570
 3137TIP3   OH2 9416   3.409   5.173   0.574  0.0446 -0.2066  0.0953
 3137TIP3    H1 9417   3.458   5.209   0.648  0.2422  0.8609 -0.5214
 3137TIP3    H2 9418   3.476   5.150   0.510 -0.2008  0.7050 -0.5155
 3138TIP3   OH2 9419  -0.012   4.298   1.522  0.2008  0.1430  0.4832
 3138TIP3    H1 9420   0.044   4.376   1.519 -0.0497  0.3103 -0.9643
 3138TIP3    H2 9421  -0.013   4.267   1.431 -0.8793 -0.7029  0.7665
 3139TIP3   OH2 9422   1.035   5.695   3.096  0.3064  0.3404 -0.1475
 3139TIP3    H1 9423   1.085   5.693   3.015  0.2560 -0.5062 -0.1708
 3139TIP3    H2 9424   1.100   5.711   3.165  0.5853 -0.5378 -0.1977
 3140TIP3   OH2 9425   4.003   4.742   4.195 -0.5535 -0.5186 -0.0486
 3140TIP3    H1 9426   4.072   4.718   4.257 -0.2687  0.6343  0.1132
 3140TIP3    H2 9427   4.027   4.830   4.166 -0.7052 -1.0316 -1.7900
 3141TIP3   OH2 9428   3.158   5.030   4.919 -0.4161 -0.1823  0.3622
 3141TIP3    H1 9429   3.088   5.094   4.933  0.9346  1.4177  0.0874
 3141TIP3    H2 9430   3.126   4.975   4.848 -1.6831  0.0763  0.7046
 3142TIP3   OH2 9431   1.332   1.420   0.057  0.0795  0.0320 -0.3231
 3142TIP3    H1 9432   1.366   1.446  -0.028 -0.0493 -1.7991 -0.9860
 3142TIP3    H2 9433   1.390   1.463   0.120  1.9083 -0.7305 -1.3893
 3143TIP3   OH2 9434   2.901   4.663   4.690 -0.0581  0.2379  0.2886
 3143TIP3    H1 9435   2.990   4.654   4.722 -0.3106  0.0492  0.9453
 3143TIP3    H2 9436   2.910   4.667   4.595  0.6276 -0.0061  0.3417
 3144TIP3   OH2 9437   0.140   4.380   0.188 -0.4381  0.2879 -0.4639
 3144TIP3    H1 9438   0.102   4.423   0.111 -0.0653 -1.5476 -1.7398
 3144TIP3    H2 9439   0.132   4.286   0.170  1.4830 -0.1861  0.8294
 3145TIP3   OH2 9440   2.308   4.898   2.162 -0.1354  1.0581 -0.0300
 3145TIP3    H1 9441   2.268   4.936   2.084  0.0334  1.1348 -0.0808
 3145TIP3    H2 9442   2.368   4.966   2.193  0.1278  0.8531 -0.0877
 3146TIP3   OH2 9443   3.484   5.928   4.829  0.4574 -0.1680  1.1399
 3146TIP3    H1 9444   3.571   5.899   4.858  0.5241 -1.6562 -0.3771
 3146TIP3    H2 9445   3.461   5.999   4.889  2.2163 -0.5108  2.2998
 3147TIP3   OH2 9446   3.178   5.036   2.324  0.4480  1.1523 -0.0647
 3147TIP3    H1 9447   3.131   5.089   2.389  1.6295  1.1467  0.8513
 3147TIP3    H2 9448   3.114   5.016   2.257 -0.8783  1.0295  1.1970
 3148TIP3   OH2 9449   2.205   5.767   4.496  0.6586 -0.2143 -0.1248
 3148TIP3    H1 9450   2.249   5.685   4.472 -0.6571 -1.2424  0.8640
 3148TIP3    H2 9451   2.175   5.753   4.586 -1.9706  0.2886 -0.8530
 3149TIP3   OH2 9452   3.177   4.753   0.314  0.3855 -0.5518 -0.2658
 3149TIP3    H1 9453   3.226   4.828   0.348  1.1240 -0.2988 -1.7970
 3149TIP3    H2 9454   3.139   4.712   0.392  2.0498 -0.0660  0.8675
 3150TIP3   OH2 9455   0.129   5.083   1.930  0.3087  0.6500 -0.4663
 3150TIP3    H1 9456   0.150   5.083   1.837  1.4646  0.1312 -0.2234
 3150TIP3    H2 9457   0.140   5.175   1.957  2.9373  0.3531 -0.2503
 3151TIP3   OH2 9458   2.831   0.187   3.052 -0.7693  0.2058 -0.0033
 3151TIP3    H1 9459   2.762   0.132   3.015 -0.6163 -0.1746  0.2801
 3151TIP3    H2 9460   2.790   0.230   3.127 -0.4472 -0.7102  0.7148
 3152TIP3   OH2 9461   0.535   1.843   1.572  0.2856 -0.2905 -0.2710
 3152TIP3    H1 9462   0.544   1.772   1.635 -0.3898 -0.2757 -0.1477
 3152TIP3    H2 9463   0.504   1.917   1.623 -2.6173 -0.9207 -0.9281
 3153TIP3   OH2 9464   2.949   0.933   5.098 -0.8650  0.6057 -0.3275
 3153TIP3    H1 9465   2.855   0.930   5.114 -0.8310  0.1450 -0.2015
 3153TIP3    H2 9466   2.957   0.933   5.002 -0.9927  0.6561 -0.3385
 3154TIP3   OH2 9467   4.672   1.440   3.877 -0.0228  0.4626  0.4456
 3154TIP3    H1 9468   4.709   1.452   3.790 -1.1794  1.8314  0.1052
 3154TIP3    H2 9469   4.679   1.346   3.894  0.2670  0.1862 -1.0990
 3155TIP3   OH2 9470   0.454   2.578   2.445 -0.2245 -0.2657 -0.4029
 3155TIP3    H1 9471   0.410   2.638   2.505  4.5334  1.7698  1.5093
 3155TIP3    H2 9472   0.498   2.635   2.381  4.2234 -1.4085  1.3062
 3156TIP3   OH2 9473   0.901   1.566   4.438  0.0031 -0.3832 -0.3455
 3156TIP3    H1 9474   0.821   1.515   4.455  1.1847 -1.9887  0.6638
 3156TIP3    H2 9475   0.887   1.648   4.484 -0.9253 -0.7942  0.1437
 3157TIP3   OH2 9476   5.522   4.160   1.604 -0.2437  0.0267 -0.0054
 3157TIP3    H1 9477   5.588   4.115   1.551 -1.5762 -0.6508 -1.1833
 3157TIP3    H2 9478   5.473   4.089   1.645 -1.0168  0.4505 -0.1647
 3158TIP3   OH2 9479   3.265   0.344   2.489  0.5115 -0.2094 -0.5146
 3158TIP3    H1 9480   3.209   0.361   2.412  1.5971  0.6290 -1.1458
 3158TIP3    H2 9481   3.266   0.248   2.497 -0.1317 -0.2799 -1.1561
 3159TIP3   OH2 9482   5.834   4.616   1.568  0.5806  0.2013 -0.1616
 3159TIP3    H1 9483   5.788   4.699   1.576 -0.5681 -0.5762  2.9378
 3159TIP3    H2 9484   5.764   4.551   1.557  1.4180 -0.4518 -2.0026
 3160TIP3   OH2 9485   2.466   3.794   2.578 -0.0438  0.4418  0.3045
 3160TIP3    H1 9486   2.389   3.763   2.532 -0.2630 -0.1200  1.0483
 3160TIP3    H2 9487   2.432   3.850   2.647  0.2000 -0.0210  0.8019
 3161TIP3   OH2 9488   3.512   0.538   1.131  0.3679  0.1275  0.0975
 3161TIP3    H1 9489   3.576   0.522   1.199 -0.5233 -0.5800  0.7855
 3161TIP3    H2 9490   3.562   0.579   1.060  1.6040 -0.6068  0.5273
 3162TIP3   OH2 9491   5.027   3.160   2.402 -0.3136 -0.4952 -0.2289
 3162TIP3    H1 9492   5.051   3.070   2.424 -0.2642 -0.3769  0.2065
 3162TIP3    H2 9493   4.974   3.152   2.323 -0.4358 -0.9216 -0.1063
 3163TIP3   OH2 9494   0.451   5.313   0.328  0.0801 -0.3261 -0.1420
 3163TIP3    H1 9495   0.440   5.218   0.325  1.2701 -0.5109  0.6031
 3163TIP3    H2 9496   0.520   5.331   0.264  1.5559 -0.2868  1.3835
 3164TIP3   OH2 9497   2.946   5.641   0.383 -0.1900 -0.0984  0.2113
 3164TIP3    H1 9498   3.024   5.587   0.370 -0.3260  0.0426 -1.3379
 3164TIP3    H2 9499   2.875   5.591   0.343 -0.9584 -0.3139  1.7652
 3165TIP3   OH2 9500   5.014   4.309   4.010  0.3056 -0.3761  0.2050
 3165TIP3    H1 9501   4.979   4.353   3.932 -0.5302  0.5128  1.0608
 3165TIP3    H2 9502   5.094   4.265   3.978 -0.3462 -0.5545 -1.2753
 3166TIP3   OH2 9503   5.151   3.770   3.604 -0.2464  0.0235  0.4158
 3166TIP3    H1 9504   5.209   3.732   3.539  1.6739  0.8392  1.5565
 3166TIP3    H2 9505   5.128   3.697   3.662  0.3064 -0.1666  0.4016
 3167TIP3   OH2 9506   2.404   3.028   4.947  0.2587 -0.6571  0.2589
 3167TIP3    H1 9507   2.424   3.122   4.939 -0.1473 -0.5867  0.0175
 3167TIP3    H2 9508   2.436   2.990   4.866  0.3480 -0.7163  0.3211
 3168TIP3   OH2 9509   2.736   5.538   4.283  0.2842 -0.0683  0.1932
 3168TIP3    H1 9510   2.726   5.506   4.372  0.5941  0.9379  0.5990
 3168TIP3    H2 9511   2.827   5.520   4.261  0.1685 -0.4546  0.0151
 3169TIP3   OH2 9512   1.324   5.434   3.698 -0.0953 -0.2747 -0.2288
 3169TIP3    H1 9513   1.281   5.516   3.723  2.2867  1.0549 -0.2103
 3169TIP3    H2 9514   1.304   5.374   3.769 -1.8030  0.2706 -0.1911
 3170TIP3   OH2 9515   1.298   4.377   2.699 -0.5343  0.2763  0.2771
 3170TIP3    H1 9516   1.235   4.396   2.769  0.4137 -0.8234  1.4905
 3170TIP3    H2 9517   1.244   4.348   2.626 -1.4780 -0.4618  1.2293
 3171TIP3   OH2 9518   5.074   2.804   3.447  0.2287 -0.2627 -0.2530
 3171TIP3    H1 9519   5.114   2.842   3.525  1.0784 -1.3532 -0.1438
 3171TIP3    H2 9520   5.139   2.816   3.378  0.0783 -0.5957 -0.4563
 3172TIP3   OH2 9521   4.982   4.626   4.012  0.3499 -0.4230  0.1183
 3172TIP3    H1 9522   5.062   4.627   3.959  0.2093 -1.5599 -0.1456
 3172TIP3    H2 9523   4.975   4.715   4.046 -0.5165  0.9626 -3.2302
 3173TIP3   OH2 9524   3.175   0.172   1.773  0.3635 -0.6158 -0.0577
 3173TIP3    H1 9525   3.081   0.172   1.792  0.4969  1.9946  0.9750
 3173TIP3    H2 9526   3.208   0.092   1.814 -1.0019 -0.1819  2.0264
 3174TIP3   OH2 9527   3.694   1.668   2.045 -0.0507 -0.0477  0.0598
 3174TIP3    H1 9528   3.770   1.677   1.987  0.4914 -0.1462  0.7352
 3174TIP3    H2 9529   3.648   1.751   2.037  1.6746  1.1862  1.7531
 3175TIP3   OH2 9530   0.858   5.561   2.835 -0.3831  0.0727 -0.6730
 3175TIP3    H1 9531   0.894   5.643   2.869 -0.8267  0.6884 -1.6434
 3175TIP3    H2 9532   0.932   5.517   2.793  0.1433 -0.6374  0.9091
 3176TIP3   OH2 9533   5.645   2.946   3.958  1.0163 -0.1793  0.7234
 3176TIP3    H1 9534   5.591   2.881   3.913 -0.5503  0.9760  0.8539
 3176TIP3    H2 9535   5.698   2.895   4.019  0.6304 -1.4269  0.0541
 3177TIP3   OH2 9536   4.082   1.587   4.143 -0.0612 -0.0828  0.2193
 3177TIP3    H1 9537   4.170   1.585   4.180  0.6462 -0.7946 -1.4163
 3177TIP3    H2 9538   4.027   1.548   4.211  1.1401 -1.1719  0.6047
 3178TIP3   OH2 9539   4.746   3.153   4.428 -0.0149 -0.2257  1.0101
 3178TIP3    H1 9540   4.680   3.107   4.376 -0.7464  0.2185  1.5179
 3178TIP3    H2 9541   4.822   3.095   4.428 -0.7947 -1.2708  1.3411
 3179TIP3   OH2 9542   5.617   5.359   1.698 -0.3942  0.3930 -0.6029
 3179TIP3    H1 9543   5.611   5.420   1.624 -1.1048  1.7906  0.5384
 3179TIP3    H2 9544   5.535   5.372   1.746 -0.0450 -0.6469  0.3076
 3180TIP3   OH2 9545   6.180   5.815   4.297 -0.3075 -0.3182 -0.2203
 3180TIP3    H1 9546   6.145   5.822   4.386 -0.6502  0.5859 -0.4142
 3180TIP3    H2 9547   6.271   5.790   4.309 -0.2241  0.2610  0.4013
 3181TIP3   OH2 9548   4.869   5.488   1.957  0.0514 -0.6314 -0.3333
 3181TIP3    H1 9549   4.874   5.584   1.956 -2.1227 -0.4289  1.0005
 3181TIP3    H2 9550   4.873   5.465   2.050 -0.2652 -1.7651 -0.5862
 3182TIP3   OH2 9551   2.817   3.398   4.579 -0.2545  0.0903 -0.4762
 3182TIP3    H1 9552   2.722   3.410   4.587 -0.2150  0.9500 -1.1273
 3182TIP3    H2 9553   2.853   3.439   4.657 -0.4229 -0.3784 -0.1480
 3183TIP3   OH2 9554   0.210   2.258   2.738 -0.0449  0.6135  0.0902
 3183TIP3    H1 9555   0.132   2.207   2.720  0.5382 -0.4319  0.4281
 3183TIP3    H2 9556   0.271   2.234   2.668  0.7839 -0.3658  1.1049
 3184TIP3   OH2 9557   5.345   1.653   0.267  0.8615  0.0460 -0.4614
 3184TIP3    H1 9558   5.346   1.586   0.336  1.5312  0.0080 -0.5000
 3184TIP3    H2 9559   5.428   1.700   0.278  0.7906  0.3022 -0.9913
 3185TIP3   OH2 9560   0.513   2.427   0.694 -0.2855  0.5627 -0.6382
 3185TIP3    H1 9561   0.598   2.461   0.722 -0.3935  0.4409 -0.1557
 3185TIP3    H2 9562   0.449   2.490   0.726 -0.7353 -1.3418  2.6461
 3186TIP3   OH2 9563   4.186   1.781   0.469 -0.5628 -0.1347  0.1477
 3186TIP3    H1 9564   4.105   1.825   0.447  0.9444  2.2823 -0.9229
 3186TIP3    H2 9565   4.255   1.835   0.431  1.5230 -2.8740 -0.3195
 3187TIP3   OH2 9566   2.020   4.730   4.293  0.1036 -0.0360  0.2194
 3187TIP3    H1 9567   2.064   4.651   4.324 -1.4273 -0.8129  0.5647
 3187TIP3    H2 9568   1.929   4.702   4.280 -0.3781  1.5737 -0.0794
 3188TIP3   OH2 9569   5.516   4.352   2.923  0.1611 -0.0618  0.2277
 3188TIP3    H1 9570   5.423   4.352   2.946 -0.0319  2.1472 -0.3329
 3188TIP3    H2 9571   5.518   4.347   2.828  0.5945  0.0939  0.2238
 3189TIP3   OH2 9572   0.566   5.358   1.702  0.1796 -0.4916 -0.4439
 3189TIP3    H1 9573   0.624   5.304   1.648  1.6094 -0.5338  1.0820
 3189TIP3    H2 9574   0.490   5.373   1.646  1.5438 -0.6200 -2.4313
 3190TIP3   OH2 9575   2.004   2.213   2.887  0.3284  0.2549 -0.1585
 3190TIP3    H1 9576   1.979   2.295   2.928  0.2219  0.3251 -0.3645
 3190TIP3    H2 9577   1.980   2.146   2.951  0.0226  0.3536 -0.1709
 3191TIP3   OH2 9578   5.000   2.424   4.415 -0.0360  0.0409  0.4790
 3191TIP3    H1 9579   5.078   2.394   4.463 -0.9514 -0.2547  1.8374
 3191TIP3    H2 9580   4.983   2.511   4.450 -0.3330  0.0999  0.1914
 3192TIP3   OH2 9581   2.688   0.216   2.463 -0.3802 -0.5236  0.0510
 3192TIP3    H1 9582   2.667   0.152   2.531  2.7389 -2.0819 -0.2717
 3192TIP3    H2 9583   2.739   0.283   2.509 -0.7355 -0.0447 -0.2454
 3193TIP3   OH2 9584   6.010   4.718   4.228 -0.5944 -0.1978 -0.2769
 3193TIP3    H1 9585   6.002   4.758   4.141  0.5309  2.8081  0.8806
 3193TIP3    H2 9586   5.955   4.773   4.284  0.8350 -0.3954  1.3841
 3194TIP3   OH2 9587   5.022   1.740   3.771 -0.1576  0.0779  0.2143
 3194TIP3    H1 9588   5.033   1.682   3.695  2.6235  0.6592  0.0478
 3194TIP3    H2 9589   4.991   1.823   3.734 -4.0202 -1.0611  0.4368
 3195TIP3   OH2 9590   1.658   1.517   2.762  0.3213  0.1598 -0.0578
 3195TIP3    H1 9591   1.746   1.555   2.768 -0.1621  1.2839  0.2416
 3195TIP3    H2 9592   1.620   1.531   2.849 -0.5951  0.8180 -0.5556
 3196TIP3   OH2 9593   1.027   4.246   1.196 -0.4772  0.3363  0.1720
 3196TIP3    H1 9594   1.063   4.241   1.107 -0.6712 -1.8442  0.1668
 3196TIP3    H2 9595   1.103   4.233   1.253 -0.5374  0.5503  0.3010
 3197TIP3   OH2 9596   0.718   0.272   1.142 -0.4895 -0.6304 -0.0509
 3197TIP3    H1 9597   0.799   0.225   1.163 -0.2874 -0.1821  0.2155
 3197TIP3    H2 9598   0.686   0.302   1.227 -1.2495 -1.2962 -0.0972
 3198TIP3   OH2 9599   5.785   1.174   0.889 -0.3299  0.3795  0.1473
 3198TIP3    H1 9600   5.799   1.237   0.819 -1.5164 -0.1241 -0.5903
 3198TIP3    H2 9601   5.781   1.089   0.844 -0.1232 -0.0655  0.9473
 3199TIP3   OH2 9602   5.839   3.575   0.618  0.0256  0.4824 -0.0921
 3199TIP3    H1 9603   5.864   3.604   0.531  2.0210 -0.6889  0.0049
 3199TIP3    H2 9604   5.782   3.500   0.603 -1.7487  1.8243 -0.3363
 3200TIP3   OH2 9605   4.086   2.241   3.960 -0.1462  0.1443 -0.3756
 3200TIP3    H1 9606   4.053   2.242   4.050  1.5261 -3.7793  0.4551
 3200TIP3    H2 9607   4.178   2.268   3.968  0.2364 -1.0220 -0.7527
 3201TIP3   OH2 9608   3.537   4.869   3.598 -0.0301 -0.3064 -0.1406
 3201TIP3    H1 9609   3.623   4.872   3.555 -0.6471  0.2743 -1.3925
 3201TIP3    H2 9610   3.492   4.795   3.557  0.5844 -1.9631  2.0064
 3202TIP3   OH2 9611   2.765   3.417   3.266  0.1732  0.0847  0.1356
 3202TIP3    H1 9612   2.771   3.343   3.327 -0.2575  0.9407  1.2484
 3202TIP3    H2 9613   2.774   3.494   3.321  2.6354  0.8799 -1.2380
 3203TIP3   OH2 9614   0.562   0.214   2.944 -0.4013  0.4465  0.2100
 3203TIP3    H1 9615   0.647   0.195   2.984  0.1771 -0.6304 -1.4489
 3203TIP3    H2 9616   0.533   0.295   2.987  0.4556 -0.2985  2.3109
 3204TIP3   OH2 9617   2.166   0.980   1.725 -0.4345  0.4032  0.3749
 3204TIP3    H1 9618   2.200   0.894   1.749 -0.6455  0.0897 -0.4097
 3204TIP3    H2 9619   2.231   1.042   1.758 -0.2924 -0.0522  0.9668
 3205TIP3   OH2 9620   5.369   1.632   1.969 -0.0009 -1.0054 -0.0417
 3205TIP3    H1 9621   5.361   1.722   1.935  0.7293 -1.0700 -0.4075
 3205TIP3    H2 9622   5.397   1.580   1.894 -4.3087 -2.3897 -0.9582
 3206TIP3   OH2 9623   5.344   3.022   4.255 -0.1909  0.5656 -0.9260
 3206TIP3    H1 9624   5.353   3.011   4.160  0.8482  1.8476 -0.9971
 3206TIP3    H2 9625   5.292   2.946   4.283  0.1883 -0.2674 -2.3925
 3207TIP3   OH2 9626   5.249   3.679   0.840  0.0602  0.5388 -0.1487
 3207TIP3    H1 9627   5.287   3.704   0.924  0.8159 -1.6214  0.2084
 3207TIP3    H2 9628   5.252   3.583   0.839 -1.4013  0.4486 -1.9783
 3208TIP3   OH2 9629   3.606   2.267   5.206 -0.1508 -0.5386  0.3958
 3208TIP3    H1 9630   3.619   2.355   5.242  0.3811 -0.8193  0.8955
 3208TIP3    H2 9631   3.572   2.283   5.118  3.3954  0.2930 -0.9849
 3209TIP3   OH2 9632   4.317   1.040   4.766 -0.0710 -0.2404 -0.0354
 3209TIP3    H1 9633   4.320   0.951   4.802  1.0628  0.7422  2.5777
 3209TIP3    H2 9634   4.227   1.051   4.737 -0.5111 -1.8775  0.6000
 3210TIP3   OH2 9635   3.394   5.246   1.612 -0.3741 -0.4646 -0.6521
 3210TIP3    H1 9636   3.343   5.309   1.662  1.7359  0.2934  0.7106
 3210TIP3    H2 9637   3.482   5.250   1.651  0.5212 -2.3106 -2.2783
 3211TIP3   OH2 9638   0.420   2.598   3.741  0.4077  0.1997 -0.0702
 3211TIP3    H1 9639   0.470   2.623   3.818 -0.4221  1.9855 -0.0606
 3211TIP3    H2 9640   0.339   2.561   3.776  0.8228 -0.7913 -0.1067
 3212TIP3   OH2 9641   3.984   5.727   3.505 -0.3435  0.4023  0.1192
 3212TIP3    H1 9642   4.059   5.784   3.520  0.5637 -1.2172  2.1936
 3212TIP3    H2 9643   3.924   5.746   3.577 -0.9380  0.1191 -0.2870
 3213TIP3   OH2 9644   5.011   5.566   2.486 -0.2476  0.0604  0.0239
 3213TIP3    H1 9645   4.922   5.547   2.457 -0.1510  0.0163 -0.2417
 3213TIP3    H2 9646   5.004   5.569   2.582 -0.3771 -0.7272  0.0426
 3214TIP3   OH2 9647   3.648   1.916   2.982 -0.7139 -0.1659 -0.7497
 3214TIP3    H1 9648   3.717   1.852   2.964 -1.1499 -0.6077 -0.8601
 3214TIP3    H2 9649   3.655   1.979   2.910 -0.7110 -0.4509 -0.9995
 3215TIP3   OH2 9650   1.344   2.329   4.666 -0.2855 -0.1739  0.5001
 3215TIP3    H1 9651   1.427   2.294   4.698 -1.0122 -0.4837  2.1605
 3215TIP3    H2 9652   1.336   2.415   4.707  0.2803  0.9112 -1.5289
 3216TIP3   OH2 9653   1.560   5.539   2.068  0.1004 -0.0983  0.0100
 3216TIP3    H1 9654   1.537   5.479   1.997 -2.2299  0.3309  0.3288
 3216TIP3    H2 9655   1.560   5.626   2.027 -1.6877  0.2027  0.5372
 3217TIP3   OH2 9656   2.821   2.224   1.971 -0.3035 -0.0399  0.2532
 3217TIP3    H1 9657   2.875   2.149   1.994 -0.9715 -0.9178 -0.9001
 3217TIP3    H2 9658   2.808   2.215   1.876 -0.2931  1.6087  0.0685
 3218TIP3   OH2 9659   1.510   0.162   5.085  0.2852  0.4241  0.2413
 3218TIP3    H1 9660   1.414   0.166   5.090  0.3212  0.7535  0.6896
 3218TIP3    H2 9661   1.534   0.091   5.144  0.3203  0.3266  0.1116
 3219TIP3   OH2 9662   4.186   0.981   0.629 -0.3473  0.0679 -0.9611
 3219TIP3    H1 9663   4.146   1.067   0.615  0.0394  0.1788 -1.3718
 3219TIP3    H2 9664   4.217   0.954   0.543  1.8074  0.6357 -0.4212
 3220TIP3   OH2 9665   3.057   3.562   3.233 -0.6779 -0.8154 -0.0975
 3220TIP3    H1 9666   3.123   3.539   3.299 -0.1803 -0.9689 -0.6379
 3220TIP3    H2 9667   2.976   3.575   3.283 -0.0817  0.0799  0.6591
 3221TIP3   OH2 9668   1.807   5.973   0.450 -1.0954 -0.3439  0.5641
 3221TIP3    H1 9669   1.780   5.882   0.434 -2.8061  0.3619 -0.8231
 3221TIP3    H2 9670   1.902   5.967   0.461 -0.9239 -2.1113 -1.2238
 3222TIP3   OH2 9671   4.137   5.328   2.708  0.2052  0.1931 -0.3248
 3222TIP3    H1 9672   4.227   5.295   2.708  0.0549 -0.2457 -0.8381
 3222TIP3    H2 9673   4.138   5.400   2.645  0.6102  1.4217  1.0479
 3223TIP3   OH2 9674   1.981   4.542   5.076 -0.8255 -0.6783  0.6491
 3223TIP3    H1 9675   1.916   4.488   5.121 -2.5430  0.1621 -0.7271
 3223TIP3    H2 9676   1.933   4.583   5.005  1.0772  0.5334  0.0008
 3224TIP3   OH2 9677   2.296   5.292   4.818  0.2219 -0.0939  0.4098
 3224TIP3    H1 9678   2.253   5.213   4.786  0.8585 -0.5990  0.7855
 3224TIP3    H2 9679   2.367   5.308   4.756 -0.3701  0.6398 -0.1085
 3225TIP3   OH2 9680   3.970   3.385   2.275 -0.1381 -0.2359  0.6014
 3225TIP3    H1 9681   3.897   3.424   2.227  0.6021  0.0652 -0.3321
 3225TIP3    H2 9682   3.931   3.312   2.323 -1.0514 -0.0680  0.1450
 3226TIP3   OH2 9683   1.029   3.296   0.471  0.4918  0.3353  0.0683
 3226TIP3    H1 9684   1.100   3.303   0.536  1.0779 -0.3312 -0.4834
 3226TIP3    H2 9685   0.958   3.252   0.518  0.5585  0.7058  0.5288
 3227TIP3   OH2 9686   0.173   2.683   3.337 -0.8826  0.0813  0.0984
 3227TIP3    H1 9687   0.199   2.624   3.407 -0.7188  0.0836  0.0408
 3227TIP3    H2 9688   0.195   2.770   3.369 -1.7170  0.1675  0.4458
 3228TIP3   OH2 9689   5.651   5.692   0.824  0.0355  0.0803 -0.4227
 3228TIP3    H1 9690   5.655   5.613   0.771 -0.1509  0.6402 -1.2864
 3228TIP3    H2 9691   5.665   5.764   0.762 -0.7077  0.7775  0.1932
 3229TIP3   OH2 9692   0.649   2.501   1.833  0.0075 -0.3250 -0.2382
 3229TIP3    H1 9693   0.567   2.499   1.784 -0.3654  0.5724  0.3277
 3229TIP3    H2 9694   0.624   2.480   1.923  0.2693  0.7053  0.0867
 3230TIP3   OH2 9695   0.594   0.391   1.365 -0.8251  0.1692  0.5487
 3230TIP3    H1 9696   0.618   0.376   1.457  0.3023  0.8665  0.3963
 3230TIP3    H2 9697   0.532   0.464   1.369 -0.4379  0.4950  0.7332
 3231TIP3   OH2 9698   2.139   0.474   2.285 -0.0583  0.5078 -0.2114
 3231TIP3    H1 9699   2.168   0.429   2.364 -1.5491  1.2534  0.8259
 3231TIP3    H2 9700   2.216   0.523   2.256  0.7594 -0.4605  0.2769
 3232TIP3   OH2 9701   4.170   3.200   2.543 -0.1310  0.6893  0.0440
 3232TIP3    H1 9702   4.174   3.105   2.535 -0.2338  0.6348  0.6071
 3232TIP3    H2 9703   4.183   3.217   2.636 -1.7440  1.1258  0.2230
 3233TIP3   OH2 9704   1.821   3.458   4.248  0.0626  0.1491 -0.4461
 3233TIP3    H1 9705   1.848   3.503   4.168  0.7868 -1.2841 -1.0481
 3233TIP3    H2 9706   1.902   3.422   4.284  0.1725  2.7990  2.3206
 3234TIP3   OH2 9707   0.883   0.434   1.929  0.2404 -0.5834 -0.0345
 3234TIP3    H1 9708   0.958   0.385   1.896 -0.1154 -1.3551  0.2883
 3234TIP3    H2 9709   0.830   0.453   1.851  0.1672 -1.0839 -0.1087
 3235TIP3   OH2 9710   2.162   5.653   3.861  0.0345  0.3825 -0.4602
 3235TIP3    H1 9711   2.082   5.649   3.913 -0.0439 -0.4069 -0.6239
 3235TIP3    H2 9712   2.132   5.637   3.771  0.4393 -0.5383 -0.4428
 3236TIP3   OH2 9713   6.090   5.309   1.941  0.9080 -0.2572  0.1538
 3236TIP3    H1 9714   6.119   5.305   1.850  0.7277  2.7975 -0.1527
 3236TIP3    H2 9715   5.994   5.308   1.936  0.8712  1.1157  0.1528
 3237TIP3   OH2 9716   4.174   3.764   4.833  0.6031 -0.0546 -0.0542
 3237TIP3    H1 9717   4.206   3.682   4.796  4.1135  0.2300  1.9140
 3237TIP3    H2 9718   4.227   3.832   4.792 -1.6628  1.2621 -1.0102
 3238TIP3   OH2 9719   2.577   5.835   2.476 -0.2982  0.3560  0.1686
 3238TIP3    H1 9720   2.597   5.861   2.566  0.8577  2.9518 -0.7216
 3238TIP3    H2 9721   2.496   5.881   2.455 -1.3178 -1.3280  0.2651
 3239TIP3   OH2 9722   2.472   1.178   0.101 -0.1584  0.2038  0.2861
 3239TIP3    H1 9723   2.465   1.231   0.021  0.5430 -0.8421 -0.4965
 3239TIP3    H2 9724   2.401   1.114   0.093  1.0108 -1.0663 -0.4405
 3240TIP3   OH2 9725   3.981   0.432   4.333  0.5564  0.2946 -0.3074
 3240TIP3    H1 9726   3.939   0.429   4.247 -0.2708 -2.1171  0.1048
 3240TIP3    H2 9727   3.945   0.356   4.380  4.5895 -1.3699  0.4613
 3241TIP3   OH2 9728   4.256   3.887   3.977  0.1046 -0.0591 -0.1953
 3241TIP3    H1 9729   4.195   3.925   4.040 -1.8278 -0.1382 -1.8868
 3241TIP3    H2 9730   4.324   3.954   3.966 -0.0197  0.3377  1.2520
 3242TIP3   OH2 9731   2.034   5.230   4.606  0.4352  0.3603  0.4227
 3242TIP3    H1 9732   2.016   5.243   4.699 -2.1446 -0.9134  0.1951
 3242TIP3    H2 9733   2.024   5.136   4.592 -0.2628  0.6483 -1.3305
 3243TIP3   OH2 9734   5.687   1.366   4.233  0.4479 -0.6244 -0.0214
 3243TIP3    H1 9735   5.648   1.413   4.159  1.1096 -0.0019  0.0115
 3243TIP3    H2 9736   5.680   1.427   4.307 -1.3259 -1.7091  0.7674
 3244TIP3   OH2 9737   3.381   4.764   1.877  0.3556 -0.0274 -0.0931
 3244TIP3    H1 9738   3.402   4.837   1.820 -0.5331 -0.7040 -1.3139
 3244TIP3    H2 9739   3.308   4.795   1.931  0.0646  0.0285 -0.5183
 3245TIP3   OH2 9740   3.127   2.230   3.592  0.1609  0.0944 -0.5778
 3245TIP3    H1 9741   3.107   2.311   3.544 -1.1660  0.5779  0.7075
 3245TIP3    H2 9742   3.163   2.261   3.676  0.5600 -0.6877 -0.4550
 3246TIP3   OH2 9743   1.688   3.677   3.107  0.0600  0.0407  0.6804
 3246TIP3    H1 9744   1.706   3.747   3.170 -1.1374  0.0356  1.0550
 3246TIP3    H2 9745   1.714   3.714   3.023 -0.9768  1.1464  0.8048
 3247TIP3   OH2 9746   2.466   3.447   1.552  0.0157  0.0192 -0.2759
 3247TIP3    H1 9747   2.542   3.403   1.515 -0.4080 -1.1913  0.2389
 3247TIP3    H2 9748   2.393   3.387   1.534 -0.5798  0.5143  0.4357
 3248TIP3   OH2 9749   4.638   3.668   1.867 -0.2423 -0.0313  0.6550
 3248TIP3    H1 9750   4.699   3.691   1.796  1.1768 -1.6693  1.2659
 3248TIP3    H2 9751   4.692   3.670   1.946 -1.5292  0.6011  1.5590
 3249TIP3   OH2 9752   2.843   2.372   4.613 -0.2170 -0.4336 -0.2096
 3249TIP3    H1 9753   2.791   2.347   4.537 -1.2714  0.1330  0.3116
 3249TIP3    H2 9754   2.925   2.324   4.602  0.4877  1.0862 -2.7358
 3250TIP3   OH2 9755   4.114   5.190   1.512 -0.3152  0.6294 -0.2563
 3250TIP3    H1 9756   4.151   5.273   1.541  2.3019 -0.3066 -0.6999
 3250TIP3    H2 9757   4.104   5.138   1.592  1.0542  0.2744 -0.2913
 3251TIP3   OH2 9758   5.699   4.104   4.434  0.2803 -0.3604 -0.2819
 3251TIP3    H1 9759   5.608   4.134   4.443  0.6886  1.4113 -1.5508
 3251TIP3    H2 9760   5.732   4.150   4.357  1.3035 -3.4411 -1.8858
 3252TIP3   OH2 9761   4.517   4.591   2.538 -0.3208 -0.2130  0.1727
 3252TIP3    H1 9762   4.500   4.626   2.626  2.6989 -1.3260  1.3207
 3252TIP3    H2 9763   4.515   4.668   2.482 -3.0861  0.4347  0.9798
 3253TIP3   OH2 9764   2.376   0.375   2.425 -0.5401 -0.3031 -0.3601
 3253TIP3    H1 9765   2.374   0.464   2.460 -1.8895  0.5940 -2.4608
 3253TIP3    H2 9766   2.468   0.350   2.428 -0.2259  0.8767  0.9056
 3254TIP3   OH2 9767   0.607   5.038   4.703  0.1900 -0.1742  0.3968
 3254TIP3    H1 9768   0.559   5.000   4.629  0.4821  0.3045 -0.0377
 3254TIP3    H2 9769   0.692   5.062   4.667  0.3543  0.0091  0.9028
 3255TIP3   OH2 9770   4.222   2.038   2.388 -0.2590  0.0939 -0.2951
 3255TIP3    H1 9771   4.147   1.989   2.421  0.0807 -0.9018 -0.9764
 3255TIP3    H2 9772   4.297   2.005   2.439  0.3584 -1.8294 -2.3282
 3256TIP3   OH2 9773   1.406   1.987   4.088 -0.2853  0.2445 -0.1670
 3256TIP3    H1 9774   1.361   1.939   4.018 -0.2086 -0.5318  0.3029
 3256TIP3    H2 9775   1.497   1.994   4.058  1.1888 -4.8354  2.0403
 3257TIP3   OH2 9776   0.359   0.992   4.093  0.7802  0.1336  0.1708
 3257TIP3    H1 9777   0.339   1.014   4.185 -2.4773 -0.9588 -0.1392
 3257TIP3    H2 9778   0.292   1.039   4.043  3.6079  2.2149 -1.9253
 3258TIP3   OH2 9779   5.481   3.342   1.226  0.3524  0.2993 -0.5513
 3258TIP3    H1 9780   5.569   3.360   1.258  0.8930 -0.7535 -1.4223
 3258TIP3    H2 9781   5.458   3.419   1.173  1.1314  0.1627 -1.0993
 3259TIP3   OH2 9782   4.431   0.968   1.501  0.3855 -0.9462 -0.3466
 3259TIP3    H1 9783   4.513   1.017   1.505  0.4685 -1.1051 -0.0706
 3259TIP3    H2 9784   4.424   0.925   1.586 -1.3083  1.1468  0.6693
 3260TIP3   OH2 9785   4.004   3.851   2.404  0.0164 -0.7267 -0.2466
 3260TIP3    H1 9786   3.989   3.801   2.484  2.4847  0.4303  1.0461
 3260TIP3    H2 9787   3.918   3.886   2.381 -1.0611 -2.4611  0.9014
 3261TIP3   OH2 9788   3.544   1.657   4.222  0.1555  0.3746 -0.1776
 3261TIP3    H1 9789   3.603   1.582   4.217 -0.5315 -0.2638  0.9908
 3261TIP3    H2 9790   3.603   1.733   4.224  0.8435 -0.0550 -1.9551
 3262TIP3   OH2 9791   4.033   1.769   2.600 -0.0129 -0.3767 -0.4049
 3262TIP3    H1 9792   4.026   1.813   2.685 -0.6765 -0.7488 -0.2649
 3262TIP3    H2 9793   4.089   1.693   2.617 -0.7311 -0.8524 -0.1328
 3263TIP3   OH2 9794   2.406   5.582   0.386  0.4926 -0.3140 -0.3428
 3263TIP3    H1 9795   2.486   5.633   0.372  0.6085 -0.4527 -0.1898
 3263TIP3    H2 9796   2.436   5.500   0.425  0.3468 -0.6852 -1.0089
 3264TIP3   OH2 9797   0.437   3.268   4.647 -0.2351  0.4673  0.5984
 3264TIP3    H1 9798   0.476   3.229   4.726  0.9681  0.2627 -0.0637
 3264TIP3    H2 9799   0.464   3.360   4.651 -1.2525  0.7583  1.0604
 3265TIP3   OH2 9800   5.540   1.339   2.092 -0.1768  0.4713 -0.4462
 3265TIP3    H1 9801   5.604   1.399   2.054  2.5887 -0.8651  1.7196
 3265TIP3    H2 9802   5.550   1.258   2.042  0.3244  0.0737  0.2737
 3266TIP3   OH2 9803   0.271   4.749   0.470 -0.5618 -0.5347  0.2536
 3266TIP3    H1 9804   0.257   4.660   0.502 -0.5244 -0.4648  0.4661
 3266TIP3    H2 9805   0.316   4.738   0.387 -1.0932 -0.7378 -0.0113
 3267TIP3   OH2 9806   3.529   1.821   2.429 -0.0982 -0.0639  0.2417
 3267TIP3    H1 9807   3.570   1.735   2.425  1.7615  0.7771  0.2080
 3267TIP3    H2 9808   3.497   1.836   2.340  1.4146  0.1187 -0.2879
 3268TIP3   OH2 9809   2.000   1.372   2.757 -0.3622  0.3118 -0.0655
 3268TIP3    H1 9810   1.970   1.443   2.700 -0.1571  0.1480 -0.3817
 3268TIP3    H2 9811   2.089   1.397   2.782 -0.4733  0.4136  0.2372
 3269TIP3   OH2 9812   2.820   0.691   4.163  0.3517 -0.0729  0.1982
 3269TIP3    H1 9813   2.773   0.609   4.173 -0.2315  0.3267  0.9172
 3269TIP3    H2 9814   2.891   0.686   4.228 -0.5472  0.5588  1.2685
 3270TIP3   OH2 9815   5.434   4.016   0.768 -0.3519  0.0355 -0.2373
 3270TIP3    H1 9816   5.488   3.945   0.734  0.6520  0.6526  0.0182
 3270TIP3    H2 9817   5.466   4.030   0.857 -2.1762 -0.7946  0.6009
 3271TIP3   OH2 9818   4.802   1.837   4.788 -0.1545 -0.1112 -0.9908
 3271TIP3    H1 9819   4.716   1.869   4.761 -0.3684  0.7761  0.6334
 3271TIP3    H2 9820   4.864   1.887   4.735 -0.6035  0.1293 -1.2956
 3272TIP3   OH2 9821   1.218   3.972   0.455 -0.3571 -0.0524  0.0936
 3272TIP3    H1 9822   1.296   3.963   0.508 -0.2301 -0.4028 -0.1489
 3272TIP3    H2 9823   1.187   3.882   0.442  0.1170 -0.0473 -1.1626
 3273TIP3   OH2 9824   1.580   5.591   0.643  0.1928 -0.2205 -0.9831
 3273TIP3    H1 9825   1.653   5.530   0.655  0.6241 -0.0682 -2.5881
 3273TIP3    H2 9826   1.596   5.660   0.706  0.9227 -0.6583 -0.6707
 3274TIP3   OH2 9827   5.422   2.650   0.060  0.0664 -0.1323 -0.3427
 3274TIP3    H1 9828   5.420   2.667  -0.034  1.0865 -0.2914 -0.4004
 3274TIP3    H2 9829   5.366   2.718   0.098 -0.9167 -0.4780 -1.1119
 3275TIP3   OH2 9830   4.980   1.062   2.492 -0.0899 -0.0630 -0.3354
 3275TIP3    H1 9831   5.034   1.070   2.571 -0.4886 -0.2943 -0.0352
 3275TIP3    H2 9832   4.991   1.146   2.447  0.7555 -0.2220 -0.4327
 3276TIP3   OH2 9833   1.044   0.251   4.985  0.2208 -0.0705  0.1131
 3276TIP3    H1 9834   0.991   0.309   5.040 -0.7056 -0.5135 -0.2816
 3276TIP3    H2 9835   0.999   0.167   4.989  1.6491 -0.8339  0.8335
 3277TIP3   OH2 9836   3.577   1.361   1.637  0.3655 -0.6103  0.0399
 3277TIP3    H1 9837   3.630   1.407   1.572 -0.6968 -0.4614 -0.7545
 3277TIP3    H2 9838   3.536   1.431   1.688  1.3273 -0.7261  1.0174
 3278TIP3   OH2 9839   2.464   4.787   1.893 -0.4095  0.2567 -0.3290
 3278TIP3    H1 9840   2.370   4.784   1.909 -0.3078  2.2226  0.9391
 3278TIP3    H2 9841   2.503   4.737   1.965 -0.3869  1.7826  0.7606
 3279TIP3   OH2 9842   3.678   1.255   1.977  0.1029 -0.2298 -0.3387
 3279TIP3    H1 9843   3.712   1.272   1.890 -0.3042  1.5301 -0.1896
 3279TIP3    H2 9844   3.740   1.193   2.016  2.5791  1.9888 -0.4764
 3280TIP3   OH2 9845   0.841   2.803   0.400  0.1959  0.5593  0.3699
 3280TIP3    H1 9846   0.918   2.843   0.440  1.0060 -0.2796 -0.3068
 3280TIP3    H2 9847   0.778   2.794   0.472  1.0970  0.3672  1.1534
 3281TIP3   OH2 9848   3.251   4.375   5.015 -0.0908  0.0801  0.4183
 3281TIP3    H1 9849   3.342   4.366   5.042 -0.2061  0.8566  1.0873
 3281TIP3    H2 9850   3.243   4.465   4.985 -0.0453 -0.6450 -2.0009
 3282TIP3   OH2 9851   0.695   1.114   3.859  0.6042 -0.8402 -0.2034
 3282TIP3    H1 9852   0.664   1.167   3.786 -1.1241  0.1061  1.1179
 3282TIP3    H2 9853   0.664   1.026   3.841 -0.2319 -0.5124 -0.4055
 3283TIP3   OH2 9854   1.066   5.030   0.325 -0.3153 -0.3562 -0.2630
 3283TIP3    H1 9855   0.973   5.019   0.307 -0.3023  0.0560 -0.6117
 3283TIP3    H2 9856   1.102   5.064   0.243  0.1311 -0.4528 -0.1109
 3284TIP3   OH2 9857   2.764   5.398   1.305 -0.1199  0.0548 -0.2874
 3284TIP3    H1 9858   2.736   5.434   1.221 -1.1910  2.1873  0.9115
 3284TIP3    H2 9859   2.798   5.473   1.354  2.9719 -1.5274  0.3099
 3285TIP3   OH2 9860   4.026   2.779   0.986  0.1055 -0.0575  0.0679
 3285TIP3    H1 9861   3.968   2.854   0.969  1.1300  0.6322 -0.5371
 3285TIP3    H2 9862   3.969   2.703   0.982 -1.0615  0.7291  1.2483
 3286TIP3   OH2 9863   4.208   0.958   0.139  0.3524  0.2877  0.1022
 3286TIP3    H1 9864   4.130   1.002   0.172  0.5907  0.6985  0.1251
 3286TIP3    H2 9865   4.176   0.899   0.071 -0.1177 -0.3972  0.8955
 3287TIP3   OH2 9866   2.615   0.249   3.669  0.0872  0.5752  0.7269
 3287TIP3    H1 9867   2.662   0.229   3.589 -1.0600  0.1598  0.1231
 3287TIP3    H2 9868   2.677   0.230   3.740  0.6421 -0.4774 -0.0121
 3288TIP3   OH2 9869   2.189   3.308   2.244 -0.2717  0.2906 -0.2592
 3288TIP3    H1 9870   2.103   3.293   2.284 -0.5431  0.2021 -0.8551
 3288TIP3    H2 9871   2.176   3.385   2.187  0.4320  1.2059  0.7764
 3289TIP3   OH2 9872   2.299   2.940   2.570  0.5162  0.5894  0.2267
 3289TIP3    H1 9873   2.227   2.941   2.634  1.2104  0.9991  1.0248
 3289TIP3    H2 9874   2.357   3.010   2.599 -0.3969  2.5895 -2.3640
 3290TIP3   OH2 9875   4.780   4.385   4.814  0.2903 -0.0802 -0.2747
 3290TIP3    H1 9876   4.715   4.315   4.822 -0.6732  0.6480 -1.2663
 3290TIP3    H2 9877   4.747   4.455   4.871  0.4650  0.1134 -0.4081
 3291TIP3   OH2 9878   0.378   4.233   2.752  0.6072 -0.3058 -0.1435
 3291TIP3    H1 9879   0.322   4.226   2.675  0.4623 -0.0997 -0.0587
 3291TIP3    H2 9880   0.355   4.158   2.806 -0.5353  0.4783  0.5060
 3292TIP3   OH2 9881   2.021   0.082   3.663  0.2135 -0.1072 -0.5212
 3292TIP3    H1 9882   2.079   0.089   3.739 -0.0456 -1.5587 -0.1683
 3292TIP3    H2 9883   1.933   0.089   3.699  0.1168  0.5535 -0.8685
 3293TIP3   OH2 9884   3.174   3.047   0.902 -0.4587  0.5439 -0.2358
 3293TIP3    H1 9885   3.127   2.966   0.919 -1.9490  1.0663 -1.6526
 3293TIP3    H2 9886   3.108   3.116   0.910  1.0056  1.8240  2.2052
 3294TIP3   OH2 9887   4.140   5.864   0.651  0.0724 -0.4553  0.4977
 3294TIP3    H1 9888   4.060   5.884   0.604  0.1650  1.0886  0.9523
 3294TIP3    H2 9889   4.112   5.804   0.721  0.0256 -3.2359 -1.7161
 3295TIP3   OH2 9890   1.177   2.242   1.711  0.1333 -0.3841 -0.3027
 3295TIP3    H1 9891   1.129   2.221   1.791 -1.1878  0.8552 -0.7363
 3295TIP3    H2 9892   1.166   2.165   1.656 -0.5886 -0.4778 -0.0384
 3296TIP3   OH2 9893   0.059   4.161   0.912  0.1036  0.1329 -0.3323
 3296TIP3    H1 9894   0.151   4.142   0.931 -0.3007 -1.3226  0.3621
 3296TIP3    H2 9895   0.014   4.080   0.935 -1.7630  1.7815  2.3009
 3297TIP3   OH2 9896   0.255   2.116   2.341  0.3976  0.3662 -0.0117
 3297TIP3    H1 9897   0.202   2.052   2.389 -1.4282  2.2542  0.6407
 3297TIP3    H2 9898   0.308   2.159   2.409  2.0723 -0.7662 -0.5227
 3298TIP3   OH2 9899   1.645   1.302   4.339  0.3601 -0.0170 -0.8301
 3298TIP3    H1 9900   1.695   1.383   4.354  1.8180 -1.1391  0.7057
 3298TIP3    H2 9901   1.575   1.305   4.405  0.1418  0.1923 -1.0686
 3299TIP3   OH2 9902   3.783   0.832   0.306  0.4047  0.1539  0.1826
 3299TIP3    H1 9903   3.779   0.746   0.264 -3.1511  0.9684 -1.5569
 3299TIP3    H2 9904   3.727   0.824   0.383 -0.8722  1.1212 -0.6070
 3300TIP3   OH2 9905   1.993   0.401   1.921  0.0483 -0.0886 -0.2961
 3300TIP3    H1 9906   2.046   0.329   1.887  0.8618  0.8562 -1.0742
 3300TIP3    H2 9907   1.951   0.365   1.999  0.1957 -1.4971 -0.8427
 3301TIP3   OH2 9908   2.722   0.861   3.490 -0.2910 -0.4291 -0.6787
 3301TIP3    H1 9909   2.703   0.782   3.540 -1.3877  0.5539  0.5335
 3301TIP3    H2 9910   2.726   0.832   3.399 -0.4057 -1.9096 -0.2291
 3302TIP3   OH2 9911   5.929   4.227   4.917  0.1758 -0.0392 -0.0414
 3302TIP3    H1 9912   5.928   4.218   4.821 -2.3628 -0.3060 -0.0600
 3302TIP3    H2 9913   5.879   4.307   4.934  2.5068  1.2881  1.0426
 3303TIP3   OH2 9914   1.954   5.395   4.389  0.2024 -0.8252  0.2248
 3303TIP3    H1 9915   1.984   5.329   4.452  1.8010  0.0362  0.4141
 3303TIP3    H2 9916   1.881   5.439   4.433  1.0188 -0.5211  1.3279
 3304TIP3   OH2 9917   5.364   3.994   2.464 -0.3904 -0.3387  0.3363
 3304TIP3    H1 9918   5.436   3.935   2.484 -0.9115 -0.2778  2.6563
 3304TIP3    H2 9919   5.406   4.074   2.433  0.3809 -1.3117 -1.2307
 3305TIP3   OH2 9920   4.692   5.532   4.400 -0.5172  0.1181 -0.0900
 3305TIP3    H1 9921   4.773   5.559   4.357  0.4030 -2.3263 -0.0502
 3305TIP3    H2 9922   4.625   5.544   4.332 -0.2269  2.3652 -0.0531
 3306TIP3   OH2 9923   3.081   2.097   2.227  0.1806 -0.6417  0.0325
 3306TIP3    H1 9924   3.136   2.021   2.246  0.8289 -0.5444 -1.3149
 3306TIP3    H2 9925   2.996   2.059   2.202  0.5302 -0.9566 -0.7330
 3307TIP3   OH2 9926   4.249   3.747   0.713 -0.3709 -0.4103  0.5059
 3307TIP3    H1 9927   4.204   3.768   0.795 -0.2207  3.8297 -0.2915
 3307TIP3    H2 9928   4.334   3.788   0.721  0.8985 -2.6331 -0.6440
 3308TIP3   OH2 9929   2.850   4.590   3.003  0.1055  0.3225 -0.0855
 3308TIP3    H1 9930   2.892   4.541   2.932 -0.0047  0.2443 -0.0972
 3308TIP3    H2 9931   2.783   4.530   3.037  0.6851  0.0546  0.6095
 3309TIP3   OH2 9932   5.985   0.864   4.123 -0.2237  0.7187 -1.1499
 3309TIP3    H1 9933   5.916   0.899   4.179 -1.4870 -0.1359 -2.1104
 3309TIP3    H2 9934   6.034   0.804   4.180 -2.1805 -1.0237 -1.1492
 3310TIP3   OH2 9935   2.555   1.886   1.439 -0.0316  0.5368 -0.4424
 3310TIP3    H1 9936   2.572   1.811   1.495 -2.1065  1.4500  1.5283
 3310TIP3    H2 9937   2.464   1.877   1.412  0.5344  0.8064 -2.7164
 3311TIP3   OH2 9938   3.927   1.619   1.912 -0.1923  0.4446  0.4381
 3311TIP3    H1 9939   3.980   1.579   1.844  2.3887  1.4769  1.6979
 3311TIP3    H2 9940   3.919   1.552   1.979 -0.5337  0.2686  0.2214
 3312TIP3   OH2 9941   4.565   5.439   0.230  0.5030 -0.1359 -0.0298
 3312TIP3    H1 9942   4.579   5.488   0.311 -0.6363  1.6884 -0.8497
 3312TIP3    H2 9943   4.605   5.494   0.162 -0.6358 -0.4322 -0.9652
 3313TIP3   OH2 9944   5.383   5.708   3.155 -0.2713 -0.0014  0.1053
 3313TIP3    H1 9945   5.377   5.685   3.248  0.2033 -1.2001 -0.1561
 3313TIP3    H2 9946   5.451   5.775   3.151 -1.6591  1.5529  0.8622
 3314TIP3   OH2 9947   2.989   4.804   2.478 -0.2576 -0.4812  0.3257
 3314TIP3    H1 9948   2.954   4.887   2.509  0.1447  0.2279 -1.0345
 3314TIP3    H2 9949   2.929   4.738   2.514 -2.3010  0.5949 -0.8996
 3315TIP3   OH2 9950   2.120   5.885   1.351  0.0661  0.2340  0.3509
 3315TIP3    H1 9951   2.047   5.845   1.398  0.7251 -0.3706  0.8856
 3315TIP3    H2 9952   2.144   5.819   1.285 -1.2336  1.3115 -1.2786
 3316TIP3   OH2 9953   4.232   3.436   2.116 -0.6115 -0.2881 -0.1763
 3316TIP3    H1 9954   4.178   3.487   2.055 -1.1195 -1.4420 -0.7303
 3316TIP3    H2 9955   4.183   3.438   2.198 -0.6243  0.1199 -0.1910
 3317TIP3   OH2 9956   0.099   3.527   0.404  0.1802 -0.4299 -0.1905
 3317TIP3    H1 9957   0.070   3.446   0.446  1.4157 -0.8124 -0.0549
 3317TIP3    H2 9958   0.053   3.527   0.320 -1.0080 -0.4938  0.4319
 3318TIP3   OH2 9959   5.134   3.907   4.533  0.7401 -0.0696  0.0611
 3318TIP3    H1 9960   5.098   3.960   4.463  2.5493  1.6136  0.3282
 3318TIP3    H2 9961   5.154   3.823   4.492  0.3658  0.3709 -1.0519
 3319TIP3   OH2 9962   3.201   2.162   4.329  0.0349  0.1783  0.1954
 3319TIP3    H1 9963   3.282   2.153   4.279  0.8442  0.2215  1.4642
 3319TIP3    H2 9964   3.132   2.139   4.267  0.8735  1.7076 -1.3983
 3320TIP3   OH2 9965   3.675   0.207   4.299  0.4581 -0.1904 -0.1478
 3320TIP3    H1 9966   3.730   0.235   4.372 -0.3883  3.3714 -0.6650
 3320TIP3    H2 9967   3.591   0.184   4.340  0.5421  0.0255  0.1474
 3321TIP3   OH2 9968   3.822   2.364   4.614  0.3331  0.4115  0.5587
 3321TIP3    H1 9969   3.730   2.355   4.639  0.0683 -0.3767 -0.6093
 3321TIP3    H2 9970   3.869   2.368   4.697 -0.6549 -0.3754  1.1808
 3322TIP3   OH2 9971   1.802   2.818   2.297 -0.7257  0.2360 -0.6238
 3322TIP3    H1 9972   1.768   2.870   2.224  0.4176 -1.0975 -2.1832
 3322TIP3    H2 9973   1.873   2.768   2.259  0.0475 -0.3670  1.4985
 3323TIP3   OH2 9974   1.466   3.854   0.327  0.3401  0.1990  0.3094
 3323TIP3    H1 9975   1.476   3.925   0.263  1.2767  0.4313  0.6956
 3323TIP3    H2 9976   1.525   3.879   0.399 -0.8734  0.0697  1.3785
 3324TIP3   OH2 9977   3.797   0.363   4.972  0.3144  0.0984 -0.3007
 3324TIP3    H1 9978   3.823   0.288   5.026  1.3521  0.9656  0.4373
 3324TIP3    H2 9979   3.746   0.418   5.031  0.6615  0.5918 -0.4521
 3325TIP3   OH2 9980   2.701   0.226   4.690 -0.7960  0.6935  0.3576
 3325TIP3    H1 9981   2.610   0.252   4.704 -0.2880  1.8787  1.7041
 3325TIP3    H2 9982   2.731   0.195   4.776  0.2549  0.9097  0.0864
 3326TIP3   OH2 9983   4.459   3.480   1.830 -1.3790  0.3007 -0.0930
 3326TIP3    H1 9984   4.448   3.418   1.901  0.2266  0.1500  0.0482
 3326TIP3    H2 9985   4.513   3.550   1.866  1.9054 -1.1123 -1.8248
 3327TIP3   OH2 9986   3.691   0.374   2.152 -0.1036 -0.1248 -0.7022
 3327TIP3    H1 9987   3.636   0.301   2.124 -0.3583  0.5747 -2.1572
 3327TIP3    H2 9988   3.778   0.352   2.120  0.4979 -1.1730  1.4938
 3328TIP3   OH2 9989   1.259   0.106   1.904  0.0699  0.4144 -0.9775
 3328TIP3    H1 9990   1.255   0.011   1.898 -0.8698  0.4035 -0.3938
 3328TIP3    H2 9991   1.332   0.123   1.965 -1.0392 -0.0241  0.5377
 3329TIP3   OH2 9992   1.285   5.005   1.422  0.1528 -0.1620  0.1576
 3329TIP3    H1 9993   1.225   5.078   1.441 -0.0188 -0.6029  1.3988
 3329TIP3    H2 9994   1.342   5.001   1.499 -1.7371 -3.2175  1.5795
 3330TIP3   OH2 9995   0.997   3.191   2.120  0.0439 -0.1015  0.3361
 3330TIP3    H1 9996   0.903   3.202   2.105 -0.7330 -2.2831  2.7375
 3330TIP3    H2 9997   1.009   3.096   2.121  2.2270  0.1399  0.4409
 3331TIP3   OH2 9998   4.305   1.567   5.172 -0.1310  0.5088 -0.3281
 3331TIP3    H1 9999   4.234   1.609   5.221  1.8367  1.8947  1.5646
 3331TIP3    H210000   4.315   1.620   5.093 -2.3454 -0.8337 -1.6059
 3332TIP3   OH210001   4.231   3.470   3.157  0.1077 -0.3072 -0.7646
 3332TIP3    H110002   4.321   3.448   3.133  0.6965 -0.7278  1.5602
 3332TIP3    H210003   4.179   3.395   3.130  0.7138 -0.7230 -0.7849
 3333TIP3   OH210004   4.025   3.584   0.623  0.2323  0.2223 -0.6836
 3333TIP3    H110005   4.083   3.640   0.673 -2.1748  0.9820  1.5011
 3333TIP3    H210006   4.064   3.496   0.630  0.2616  0.3745  2.2595
 3334TIP3   OH210007   1.079   0.487   3.371 -0.0606 -0.2390 -0.3263
 3334TIP3    H110008   1.044   0.425   3.435  1.0612 -0.7364 -0.1726
 3334TIP3    H210009   1.167   0.506   3.402  0.3823 -0.2386 -1.5405
 3335TIP3   OH210010   1.775   0.427   4.738  0.2642  0.4985  0.1912
 3335TIP3    H110011   1.751   0.392   4.823  2.0915  0.0965  0.6015
 3335TIP3    H210012   1.833   0.501   4.758 -0.8383  1.6428 -0.7042
 3336TIP3   OH210013   3.853   5.880   3.680 -0.5544 -0.3861  0.1207
 3336TIP3    H110014   3.930   5.925   3.716 -0.1053 -0.1482 -1.0768
 3336TIP3    H210015   3.782   5.902   3.741  0.3568 -0.8276  1.3956
 3337TIP3   OH210016   0.421   0.149   3.396  0.3529 -0.1019 -0.3504
 3337TIP3    H110017   0.512   0.175   3.383  0.0198  0.4519 -1.7467
 3337TIP3    H210018   0.386   0.140   3.308 -1.0311  0.0015  0.1670
 3338TIP3   OH210019   2.022   3.088   1.637 -0.2148 -0.3258 -0.0624
 3338TIP3    H110020   1.929   3.072   1.621 -0.2661  0.6887 -0.9349
 3338TIP3    H210021   2.061   3.001   1.646 -1.1287 -0.7781 -0.3997
 3339TIP3   OH210022   2.388   2.582   1.771 -0.2402  0.7568 -0.3134
 3339TIP3    H110023   2.462   2.521   1.774 -0.2316  0.7358 -0.7563
 3339TIP3    H210024   2.320   2.541   1.824  0.2980  1.0939  0.6495
 3340TIP3   OH210025   4.360   4.923   0.549  0.0619  0.1419  0.3969
 3340TIP3    H110026   4.274   4.931   0.590 -0.7410  0.1978 -1.2341
 3340TIP3    H210027   4.386   4.832   0.565 -0.5170 -0.0080  0.4927
 3341TIP3   OH210028   5.420   0.049   3.683  1.0312  0.2039 -0.3516
 3341TIP3    H110029   5.395   0.073   3.593 -0.4388  0.6754  0.1580
 3341TIP3    H210030   5.337   0.042   3.730  1.7755 -0.1577  0.9578
 3342TIP3   OH210031   3.843   5.778   1.470  0.2825 -0.3390  0.1355
 3342TIP3    H110032   3.808   5.866   1.481 -0.4746 -0.6307  0.0685
 3342TIP3    H210033   3.820   5.753   1.381  0.0496 -0.8034  0.3231
 3343TIP3   OH210034   2.005   4.598   1.191  0.2102 -0.8152 -0.1121
 3343TIP3    H110035   2.036   4.578   1.103  1.4594 -0.4002  0.2099
 3343TIP3    H210036   2.000   4.513   1.235 -0.6297 -1.0465 -0.6383
 3344TIP3   OH210037   2.026   0.897   2.028 -0.1183  0.2210 -0.0420
 3344TIP3    H110038   2.030   0.940   1.942  0.2281 -0.4703 -0.3789
 3344TIP3    H210039   2.030   0.804   2.008  1.5602  0.0816  0.8034
 3345TIP3   OH210040   4.957   2.673   0.112 -0.5688 -0.0499  0.3697
 3345TIP3    H110041   4.994   2.607   0.170 -1.2962 -0.1139  0.7825
 3345TIP3    H210042   5.010   2.668   0.032 -0.0407 -0.4913  0.7395
 3346TIP3   OH210043   1.946   3.790   4.267  0.3933 -0.3038  0.3855
 3346TIP3    H110044   1.990   3.734   4.203  0.5551  0.0334  0.1999
 3346TIP3    H210045   2.007   3.862   4.282  0.2904 -0.3018  0.8048
 3347TIP3   OH210046   4.871   4.584   0.270 -0.1306  0.0942 -0.3263
 3347TIP3    H110047   4.785   4.596   0.312 -0.2843  0.1778 -0.6633
 3347TIP3    H210048   4.868   4.495   0.236  0.2288 -0.1940  0.3676
 3348TIP3   OH210049   6.262   2.493   1.061  0.2466 -0.1638  0.6667
 3348TIP3    H110050   6.174   2.480   1.097  0.1027  0.6770  0.6382
 3348TIP3    H210051   6.286   2.582   1.087  0.7592 -0.0921 -0.0135
 3349TIP3   OH210052   5.472   3.902   3.424 -0.2562  0.1514 -0.1056
 3349TIP3    H110053   5.536   3.836   3.397  0.2818  0.5406  0.1860
 3349TIP3    H210054   5.417   3.917   3.347 -1.5267 -1.9200  0.3299
 3350TIP3   OH210055   3.308   5.916   2.470  0.0427 -0.4275 -0.1141
 3350TIP3    H110056   3.343   5.835   2.434  1.5540  0.2854 -0.3365
 3350TIP3    H210057   3.336   5.984   2.408  1.2252  0.6073  1.4741
 3351TIP3   OH210058   4.491   3.695   3.154 -0.2411 -0.7395  0.3752
 3351TIP3    H110059   4.584   3.693   3.178  0.4918  0.6679 -2.0509
 3351TIP3    H210060   4.454   3.766   3.206  1.1217  1.6962 -1.7917
 3352TIP3   OH210061   4.515   1.425   4.150  0.2352  0.3543 -0.2179
 3352TIP3    H110062   4.491   1.336   4.176 -2.1579  1.4798  1.8223
 3352TIP3    H210063   4.510   1.423   4.054 -0.1456 -1.6100 -0.2154
 3353TIP3   OH210064   4.438   4.196   4.618 -0.8602 -0.1409  0.0694
 3353TIP3    H110065   4.362   4.254   4.615 -2.2832 -1.8920  0.5328
 3353TIP3    H210066   4.490   4.228   4.692 -0.5718  1.7050 -0.8828
 3354TIP3   OH210067   4.348   3.907   1.362  0.0316  0.1225  0.7594
 3354TIP3    H110068   4.348   4.002   1.359 -0.4560  0.1426  1.2320
 3354TIP3    H210069   4.339   3.886   1.454 -2.5900 -0.3607  0.4744
 3355TIP3   OH210070   1.286   2.015   3.568 -0.2579  0.7691 -0.2543
 3355TIP3    H110071   1.342   1.938   3.577 -0.1917  0.6678 -1.3799
 3355TIP3    H210072   1.231   1.996   3.492 -0.5057  1.6710 -0.3111
 3356TIP3   OH210073   4.098   4.715   1.786 -0.7194  0.0099  0.6837
 3356TIP3    H110074   4.123   4.623   1.796 -0.0197  0.0874 -0.2559
 3356TIP3    H210075   4.050   4.735   1.866  1.0462 -0.5308  1.9400
 3357TIP3   OH210076   0.411   3.765   2.255  0.4996 -0.4015  0.1195
 3357TIP3    H110077   0.448   3.798   2.337  3.0517 -1.7487 -0.4068
 3357TIP3    H210078   0.377   3.844   2.212  2.5750  0.9569  0.7756
 3358TIP3   OH210079   4.345   5.285   1.761 -0.0695  0.5292 -0.1057
 3358TIP3    H110080   4.356   5.367   1.810  0.8630  0.1064  0.4002
 3358TIP3    H210081   4.410   5.290   1.691 -1.7721  1.3947 -1.7168
 3359TIP3   OH210082   3.893   2.592   2.204  0.3832  0.1444  0.1185
 3359TIP3    H110083   3.849   2.676   2.191  0.8475  0.3294 -0.3382
 3359TIP3    H210084   3.823   2.528   2.207  0.1021 -0.0017 -3.8110
 3360TIP3   OH210085   0.790   5.469   1.919  0.3308  0.2311  0.5219
 3360TIP3    H110086   0.871   5.506   1.883  0.3282 -0.8092 -0.6432
 3360TIP3    H210087   0.772   5.393   1.863 -1.7772  0.7877  0.3683
 3361TIP3   OH210088   6.276  -0.025   4.401 -0.1525 -0.8393  0.2561
 3361TIP3    H110089   6.206   0.021   4.355  1.0302  1.3013  0.4815
 3361TIP3    H210090   6.286   0.022   4.483  1.5936 -1.0399  0.2019
 3362TIP3   OH210091   2.610   5.655   4.860 -0.2103 -0.2277 -0.0570
 3362TIP3    H110092   2.681   5.591   4.859 -0.8673 -0.9687  0.0665
 3362TIP3    H210093   2.579   5.654   4.951  0.3770  0.9659  0.1873
 3363TIP3   OH210094   6.181   3.402   0.026  0.3457 -0.3443  0.4265
 3363TIP3    H110095   6.169   3.327  -0.032 -1.8775  0.8364 -0.7385
 3363TIP3    H210096   6.149   3.372   0.111  1.3807 -1.3245  0.4928
 3364TIP3   OH210097   2.154   5.748   3.597  0.5566  0.1135  0.4489
 3364TIP3    H110098   2.194   5.825   3.637  3.1364  0.0757 -1.7415
 3364TIP3    H210099   2.071   5.780   3.562  0.7190  1.4288  1.1965
 3365TIP3   OH210100   0.172   3.321   4.989  0.6495 -0.4179  0.1279
 3365TIP3    H110101   0.101   3.368   5.034 -0.2700 -0.9265 -0.7489
 3365TIP3    H210102   0.214   3.388   4.935  0.7611 -0.1344  0.5659
 3366TIP3   OH210103   4.644   2.964   2.277  0.4034 -0.5756  0.9088
 3366TIP3    H110104   4.637   2.998   2.187 -3.0495 -0.6810  1.0124
 3366TIP3    H210105   4.696   3.030   2.322  0.8980  0.2933 -0.8193
 3367TIP3   OH210106   5.496   3.512   4.938  0.2823 -0.7673  0.5616
 3367TIP3    H110107   5.468   3.495   5.028  1.4187  2.5410  1.6945
 3367TIP3    H210108   5.417   3.499   4.885 -1.3911  0.5499  2.5493
 3368TIP3   OH210109   1.016   5.223   1.251  0.1721  0.5796  0.2414
 3368TIP3    H110110   0.949   5.287   1.275  0.6669  0.9227  0.7296
 3368TIP3    H210111   1.090   5.275   1.220  0.0928  0.1935 -0.6569
 3369TIP3   OH210112   4.120   3.938   3.094  0.5975  0.1457  0.1755
 3369TIP3    H110113   4.035   3.971   3.122  1.7001  1.2813  2.3683
 3369TIP3    H210114   4.099   3.857   3.046 -1.6421 -0.1861  1.5646
 3370TIP3   OH210115   2.974   2.115   1.115 -0.1481 -0.0334  0.4879
 3370TIP3    H110116   2.973   2.156   1.029  3.5967 -1.1974 -0.2865
 3370TIP3    H210117   3.016   2.180   1.172  1.3129 -0.8645  0.3938
 3371TIP3   OH210118   4.089   3.397   4.431  0.2774 -0.1623  0.7508
 3371TIP3    H110119   4.174   3.386   4.472  1.9996  2.6348 -1.7007
 3371TIP3    H210120   4.066   3.489   4.446 -0.9111 -0.1104 -1.0313
 3372TIP3   OH210121   5.355   5.306   3.238  0.4136 -0.1884  0.2612
 3372TIP3    H110122   5.355   5.371   3.168 -0.5404  0.1617  0.5779
 3372TIP3    H210123   5.268   5.266   3.234  0.0497  0.3953  1.7559
 3373TIP3   OH210124   3.676   3.283   4.907 -0.3687  0.0829  0.4683
 3373TIP3    H110125   3.766   3.303   4.883 -0.8457 -0.1078 -1.6500
 3373TIP3    H210126   3.669   3.311   4.999  1.2153  2.1303  0.0344
 3374TIP3   OH210127   1.330   4.641   4.118  0.1409  0.5294 -0.1421
 3374TIP3    H110128   1.285   4.589   4.052  1.0200 -2.7457  1.6299
 3374TIP3    H210129   1.265   4.654   4.187  0.1732  1.0646 -0.2085
 3375TIP3   OH210130   2.218   5.939   0.052 -0.1253  0.0754  0.6282
 3375TIP3    H110131   2.204   5.919  -0.040 -0.5324  1.1031  0.4454
 3375TIP3    H210132   2.195   6.032   0.060 -1.5561 -0.3478  2.0499
 3376TIP3   OH210133   1.244   5.266   2.555 -0.6959 -0.1932 -0.0876
 3376TIP3    H110134   1.235   5.349   2.509  0.3762 -0.4659 -0.8294
 3376TIP3    H210135   1.284   5.207   2.491 -0.7181 -1.0595  0.6711
 3377TIP3   OH210136   1.272   0.820   2.264 -0.7469 -0.3976 -0.0883
 3377TIP3    H110137   1.334   0.800   2.334 -0.0530 -1.6678 -1.0157
 3377TIP3    H210138   1.200   0.865   2.308  0.2040 -0.1039  1.2382
 3378TIP3   OH210139   4.232   0.437   0.617  0.5298 -0.2714  0.5780
 3378TIP3    H110140   4.258   0.490   0.692  2.4633 -0.4151  0.0722
 3378TIP3    H210141   4.279   0.354   0.629 -1.3484 -1.3768  0.6361
 3379TIP3   OH210142   2.394   3.030   0.326  0.4931  0.2727  0.7740
 3379TIP3    H110143   2.384   3.119   0.291 -0.3017  0.2739  0.9954
 3379TIP3    H210144   2.400   2.975   0.248 -0.0648  0.4105  0.6299
 3380TIP3   OH210145   4.227   1.035   2.630  0.2016 -0.3622  0.0765
 3380TIP3    H110146   4.202   0.960   2.683 -1.9514  0.4382  0.2742
 3380TIP3    H210147   4.173   1.107   2.664  1.3797  1.0114 -0.8544
 3381TIP3   OH210148   5.163   1.462   4.504 -0.2941  0.1333  0.2829
 3381TIP3    H110149   5.099   1.532   4.519 -0.6455 -0.1288  0.0354
 3381TIP3    H210150   5.165   1.452   4.409  0.5041  0.4906  0.2603
 3382TIP3   OH210151   3.110   4.054   1.312 -0.3648  0.0810 -0.2399
 3382TIP3    H110152   3.157   4.093   1.386  2.6541  0.1413 -2.0160
 3382TIP3    H210153   3.019   4.082   1.323 -0.1100 -0.1447  3.5320
 3383TIP3   OH210154   5.050   3.367   0.301  0.5641  0.0912  0.0114
 3383TIP3    H110155   5.126   3.320   0.335  1.0890  2.0187  1.7125
 3383TIP3    H210156   5.081   3.456   0.287 -1.3630  0.9437  0.7967
 3384TIP3   OH210157   0.891   5.927   1.797 -0.1973 -0.2971  0.5231
 3384TIP3    H110158   0.863   5.836   1.784  1.8546 -1.0173  0.8416
 3384TIP3    H210159   0.942   5.948   1.719 -0.6493  0.6090  0.4583
 3385TIP3   OH210160   3.831   3.391   3.529 -0.2899 -0.1079 -0.1247
 3385TIP3    H110161   3.918   3.432   3.533 -1.0338  1.4707  2.0643
 3385TIP3    H210162   3.816   3.376   3.436  1.9457  0.4106 -0.6320
 3386TIP3   OH210163   3.009   4.993   0.939  0.1393  0.4761 -0.2510
 3386TIP3    H110164   3.022   5.087   0.953  0.4782  0.6884 -1.7788
 3386TIP3    H210165   3.013   4.955   1.027  0.4596  1.8320  0.3518
 3387TIP3   OH210166   3.053   1.336   1.375  0.4839  0.2108 -0.0347
 3387TIP3    H110167   3.079   1.323   1.466  1.6143 -1.3801 -0.5426
 3387TIP3    H210168   2.989   1.267   1.358  1.6449 -0.7055 -0.9172
 3388TIP3   OH210169   1.083   5.725   0.232  0.0847  0.2206  0.0424
 3388TIP3    H110170   1.132   5.734   0.314  2.9595 -0.6460 -1.4424
 3388TIP3    H210171   1.123   5.789   0.173 -1.2467  0.1237 -1.0049
 3389TIP3   OH210172   3.034   2.488   0.982 -0.0657 -0.3296 -0.1577
 3389TIP3    H110173   3.085   2.433   0.923  0.8428  0.0903  0.2149
 3389TIP3    H210174   3.034   2.441   1.066 -0.1180 -0.2359 -0.1047
 3390TIP3   OH210175   5.666   2.303   5.079 -0.3446  0.2910  0.5349
 3390TIP3    H110176   5.644   2.384   5.124  0.7602  0.5795  0.5640
 3390TIP3    H210177   5.760   2.291   5.093 -0.0670  0.0945 -1.1797
 3391TIP3   OH210178   3.463   5.328   2.986  0.2109  0.2120  1.0551
 3391TIP3    H110179   3.478   5.237   2.960 -2.3755 -0.2889  0.9657
 3391TIP3    H210180   3.462   5.377   2.904 -0.1400  0.0003  0.9304
 3392TIP3   OH210181   4.405   0.264   0.310 -0.0139 -0.1522  0.1767
 3392TIP3    H110182   4.329   0.242   0.256  0.0742 -1.2834  0.4789
 3392TIP3    H210183   4.446   0.338   0.265 -0.0834 -0.9107 -1.1811
 3393TIP3   OH210184   4.756   4.772   3.884 -0.0634 -0.1443 -0.4910
 3393TIP3    H110185   4.686   4.818   3.932  0.1151 -0.1543 -0.2178
 3393TIP3    H210186   4.732   4.781   3.792  0.2752  0.9810 -0.4723
 3394TIP3   OH210187   4.658   3.091   0.977  0.2359  0.3896 -0.7552
 3394TIP3    H110188   4.563   3.098   0.969 -0.1404 -1.3185  1.3726
 3394TIP3    H210189   4.688   3.071   0.888 -1.4849  0.2270 -1.3360
 3395TIP3   OH210190   1.779   3.777   4.944  0.0526  0.6474  0.2423
 3395TIP3    H110191   1.838   3.832   4.891 -1.2779  0.2818 -1.7021
 3395TIP3    H210192   1.828   3.695   4.956  1.4115  1.6237  1.8388
 3396TIP3   OH210193   3.788   4.955   3.479 -0.2517  0.0206 -0.3011
 3396TIP3    H110194   3.800   4.982   3.388 -0.2811  1.0311 -0.0129
 3396TIP3    H210195   3.744   5.029   3.521 -1.3210 -0.9140  0.2680
 3397TIP3   OH210196   3.082   0.822   1.527  0.2466 -0.0696 -0.1514
 3397TIP3    H110197   3.124   0.779   1.452  2.7771 -0.7566  1.4945
 3397TIP3    H210198   3.091   0.758   1.599 -2.2782  0.4586  0.7373
 3398TIP3   OH210199   5.194   4.655   3.282 -0.0982  0.1792 -0.1786
 3398TIP3    H110200   5.280   4.615   3.291  0.4514  1.0282 -1.3276
 3398TIP3    H210201   5.133   4.592   3.322  0.9311 -0.9315 -0.3150
 3399TIP3   OH210202   3.132   2.559   4.712  0.3848  0.1478  0.0428
 3399TIP3    H110203   3.079   2.515   4.645  2.7622  0.7123 -2.3961
 3399TIP3    H210204   3.171   2.487   4.762 -0.6586 -0.3232  0.1998
 3400TIP3   OH210205   4.669   1.832   5.142  0.6921 -0.2409 -0.3660
 3400TIP3    H110206   4.754   1.825   5.100 -0.2150  0.1052 -2.3491
 3400TIP3    H210207   4.649   1.926   5.142  0.6388 -0.2367  0.7972
 3401TIP3   OH210208   0.200   4.980   3.011 -0.5113 -0.0519 -0.1691
 3401TIP3    H110209   0.140   5.051   3.033 -0.0833  0.3620 -0.3117
 3401TIP3    H210210   0.246   4.962   3.094  0.1999  0.6378 -0.4010
 3402TIP3   OH210211   2.806   3.883   2.134  0.2685  0.1106  0.7201
 3402TIP3    H110212   2.880   3.944   2.126  1.5046 -1.0594  2.3826
 3402TIP3    H210213   2.729   3.939   2.143  1.2169  1.4133  1.0676
 3403TIP3   OH210214   2.215   2.168   4.222  0.0217 -0.6227 -0.1970
 3403TIP3    H110215   2.135   2.218   4.238  0.7927  1.1184 -1.4924
 3403TIP3    H210216   2.246   2.198   4.136  2.4091 -0.7647  0.5372
 3404TIP3   OH210217   1.353   1.861   2.205  0.3993  0.3713 -0.2194
 3404TIP3    H110218   1.377   1.799   2.136  1.0615  0.8193 -0.4006
 3404TIP3    H210219   1.297   1.925   2.162 -0.3977 -0.1627 -0.0018
 3405TIP3   OH210220   0.594   1.247   4.652 -0.2520  0.0983 -0.1508
 3405TIP3    H110221   0.611   1.153   4.658  1.4817  0.4585  1.4914
 3405TIP3    H210222   0.511   1.259   4.698 -0.1705 -0.5621  0.1740
 3406TIP3   OH210223   4.828   5.967   5.170 -0.4268  0.8816  0.2753
 3406TIP3    H110224   4.789   5.908   5.106  0.0651  1.6811 -0.7779
 3406TIP3    H210225   4.753   6.001   5.219 -0.7370 -0.4516  0.7887
 3407TIP3   OH210226   2.636   5.543   1.090 -0.2040  0.1875  0.1755
 3407TIP3    H110227   2.646   5.638   1.085  0.8415  0.0072 -2.0284
 3407TIP3    H210228   2.619   5.516   1.000  2.2369 -1.9923  0.2851
 3408TIP3   OH210229   5.564   1.450   0.137 -0.4524  0.5198 -0.0742
 3408TIP3    H110230   5.569   1.429   0.230  0.2905 -0.1721 -0.2562
 3408TIP3    H210231   5.575   1.545   0.133  1.4059  0.3580  0.4309
 3409TIP3   OH210232   3.577   2.298   4.886 -0.1237 -0.6193  0.3686
 3409TIP3    H110233   3.483   2.299   4.904 -0.0934 -1.6836  0.7034
 3409TIP3    H210234   3.597   2.205   4.874  1.3742 -0.7733  3.1674
 3410TIP3   OH210235   5.886   3.645   0.347 -0.2108  0.2500 -0.1441
 3410TIP3    H110236   5.839   3.617   0.269 -2.0259  0.6253  0.7410
 3410TIP3    H210237   5.865   3.738   0.355 -1.6181 -0.1678  1.7564
 3411TIP3   OH210238   5.237   3.397   0.919 -0.1380 -0.1273 -0.2337
 3411TIP3    H110239   5.182   3.454   0.972  1.4514 -0.6136  2.1092
 3411TIP3    H210240   5.208   3.308   0.941  1.2985 -0.3783  0.8133
 3412TIP3   OH210241   1.256   0.793   5.142 -0.1996 -0.0049 -0.4609
 3412TIP3    H110242   1.346   0.798   5.174 -0.7308  0.4328  1.0533
 3412TIP3    H210243   1.206   0.848   5.203 -1.8685 -2.1146  0.1866
 3413TIP3   OH210244   1.916   4.828   3.485 -0.1157 -0.7123 -0.1851
 3413TIP3    H110245   1.998   4.804   3.529  0.6027  1.8414  0.0288
 3413TIP3    H210246   1.852   4.833   3.556  0.1568 -0.2975  0.0392
 3414TIP3   OH210247   2.402   0.143   4.489  0.1847  0.5485 -0.5748
 3414TIP3    H110248   2.437   0.175   4.572  0.2052 -2.9389  0.8870
 3414TIP3    H210249   2.308   0.136   4.504  0.1305  0.3334 -1.0090
 3415TIP3   OH210250   4.437   5.098   2.482 -0.0930 -0.4420  0.2034
 3415TIP3    H110251   4.402   5.097   2.571  0.3663 -2.6083  0.4085
 3415TIP3    H210252   4.529   5.123   2.493 -0.2163  0.0249  0.2287
 3416TIP3   OH210253   4.090   3.301   0.754 -0.3092 -0.0687 -0.2106
 3416TIP3    H110254   4.164   3.310   0.815 -0.2150  1.4989 -0.5151
 3416TIP3    H210255   4.013   3.321   0.807 -0.6396 -2.3985  0.2846
 3417TIP3   OH210256   5.962   0.557   0.301  0.0777  0.0207  0.1918
 3417TIP3    H110257   5.942   0.592   0.388  0.3705 -1.6852  0.9892
 3417TIP3    H210258   5.878   0.528   0.266  0.1638 -0.8169  0.6386
 3418TIP3   OH210259   1.673   5.921   4.732  0.1545  0.4664  0.4415
 3418TIP3    H110260   1.607   5.961   4.789 -0.5191 -0.0185  0.0208
 3418TIP3    H210261   1.639   5.936   4.644 -0.2795 -1.2797  0.2800
 3419TIP3   OH210262   2.236   2.127   1.443  0.0681  0.4089  0.2224
 3419TIP3    H110263   2.169   2.103   1.507 -0.4839  0.1220 -0.4489
 3419TIP3    H210264   2.293   2.188   1.490  2.0272 -2.7213  2.3126
 3420TIP3   OH210265   5.835   2.831   4.429 -0.3190 -0.2223 -0.5472
 3420TIP3    H110266   5.764   2.840   4.365  0.0180  0.5608 -0.8223
 3420TIP3    H210267   5.854   2.921   4.456  0.9563 -0.3702 -0.9018
 3421TIP3   OH210268   6.115   5.982   1.953  0.2060 -0.3141 -0.6414
 3421TIP3    H110269   6.108   5.992   1.858  0.2125  0.5479 -0.5599
 3421TIP3    H210270   6.209   5.992   1.971  0.0561  0.9833 -0.4150
 3422TIP3   OH210271   4.123   1.249   2.790  0.7363 -0.2447  0.5209
 3422TIP3    H110272   4.062   1.204   2.849  1.1833 -0.0551  1.1428
 3422TIP3    H210273   4.202   1.261   2.843  0.8759  0.6274  0.1226
 3423TIP3   OH210274   0.538   2.279   3.055  0.0107  0.4036 -0.0370
 3423TIP3    H110275   0.592   2.358   3.048  0.8426 -0.0807  0.7855
 3423TIP3    H210276   0.596   2.213   3.094 -1.1664 -0.1469  0.8322
 3424TIP3   OH210277   4.545   0.254   2.379 -0.4316  0.5998  0.5004
 3424TIP3    H110278   4.604   0.326   2.358 -1.3387  2.1007  2.6504
 3424TIP3    H210279   4.587   0.209   2.453 -0.0498 -0.9061 -0.5916
 3425TIP3   OH210280   2.843   0.496   4.616  0.1467 -0.4152  0.0019
 3425TIP3    H110281   2.786   0.443   4.560 -0.1126 -1.7244  1.4427
 3425TIP3    H210282   2.907   0.433   4.651  0.1628  0.3110  1.3360
 3426TIP3   OH210283   3.148   1.453   3.111  0.5609  0.1476  0.2116
 3426TIP3    H110284   3.208   1.492   3.047  0.7010 -0.0086  0.2476
 3426TIP3    H210285   3.198   1.451   3.192  1.0954 -1.4743 -0.1189
 3427TIP3   OH210286   2.253   0.130   3.420  0.4432 -0.0567  0.3764
 3427TIP3    H110287   2.298   0.111   3.502 -0.3778  0.9182  1.0652
 3427TIP3    H210288   2.176   0.180   3.445 -0.5967 -0.9639 -0.8574
 3428TIP3   OH210289   5.706   2.915   3.636  0.0327 -0.5429 -0.7231
 3428TIP3    H110290   5.641   2.845   3.643 -0.4959 -0.0751 -0.8375
 3428TIP3    H210291   5.778   2.887   3.693 -0.5576 -0.7711 -0.0658
 3429TIP3   OH210292   2.120   2.746   4.567  0.6154 -0.2380  0.5446
 3429TIP3    H110293   2.175   2.809   4.611  0.4008  1.0970 -0.9995
 3429TIP3    H210294   2.032   2.761   4.602  0.6794 -0.1343  0.6576
 3430TIP3   OH210295   1.840   0.990   3.465 -0.0959 -0.4568  0.1753
 3430TIP3    H110296   1.912   0.946   3.420  0.4204  0.7945 -0.2865
 3430TIP3    H210297   1.773   1.002   3.398 -0.3877 -0.8729  0.3919
 3431TIP3   OH210298   6.274   4.625   3.534  0.1983 -0.0132 -0.2065
 3431TIP3    H110299   6.323   4.641   3.615  0.0389  0.4924 -0.2062
 3431TIP3    H210300   6.183   4.645   3.557 -0.2720 -2.3359  0.2078
 3432TIP3   OH210301   4.325   0.879   1.044  0.2895 -0.0614  0.4016
 3432TIP3    H110302   4.271   0.952   1.012 -0.2440 -0.2308  0.8982
 3432TIP3    H210303   4.297   0.868   1.135  0.8458 -0.4511  0.5237
 3433TIP3   OH210304   5.066   2.213   0.757  0.5798  0.3500  0.0106
 3433TIP3    H110305   5.052   2.306   0.740 -1.6738  0.0671 -0.0520
 3433TIP3    H210306   5.108   2.180   0.678 -0.5287  0.9418 -0.8540
 3434TIP3   OH210307   4.091   2.564   2.423  0.6375 -0.0799  0.0722
 3434TIP3    H110308   4.056   2.475   2.421  1.3580 -0.4040  0.7705
 3434TIP3    H210309   4.045   2.610   2.354  1.0199 -1.2943 -1.0358
 3435TIP3   OH210310   3.891   1.300   4.392  0.7802 -0.2393 -0.2623
 3435TIP3    H110311   3.803   1.263   4.381  1.8832 -2.8676 -0.8677
 3435TIP3    H210312   3.876   1.395   4.396 -2.3014 -0.6716  2.2041
 3436TIP3   OH210313   5.704   3.776   0.072  0.0947 -0.5573  0.3398
 3436TIP3    H110314   5.694   3.778  -0.024  2.7169 -1.7084 -0.0469
 3436TIP3    H210315   5.686   3.866   0.099 -2.4353 -0.5696 -0.9572
 3437TIP3   OH210316   6.028   4.396   3.831 -1.0668 -0.2152 -0.2438
 3437TIP3    H110317   6.012   4.305   3.806  0.6597 -0.0869 -2.0004
 3437TIP3    H210318   6.003   4.447   3.754 -0.3097  0.6459  0.0691
 3438TIP3   OH210319   0.863   5.973   1.198 -0.0111  0.2789  0.7480
 3438TIP3    H110320   0.896   5.928   1.120 -0.2996 -0.4165  1.0181
 3438TIP3    H210321   0.940   5.990   1.252 -0.0763 -1.3678  1.3946
 3439TIP3   OH210322   4.689   3.014   4.873 -0.2759 -0.3296  0.4939
 3439TIP3    H110323   4.655   3.101   4.892  1.4037  1.0622 -2.2103
 3439TIP3    H210324   4.648   2.989   4.790 -1.0453 -2.3698  1.4144
 3440TIP3   OH210325   1.448   3.641   1.169  0.1666 -0.0118 -0.1126
 3440TIP3    H110326   1.415   3.633   1.079  0.7140  1.2808 -0.4640
 3440TIP3    H210327   1.468   3.734   1.178 -2.5296  0.4588  2.3040
 3441TIP3   OH210328   6.138   3.031   0.291 -0.0124 -0.4286 -0.5166
 3441TIP3    H110329   6.132   2.936   0.297 -0.1914 -0.4641 -1.1607
 3441TIP3    H210330   6.065   3.056   0.234 -1.5548  0.3354  1.6645
 3442TIP3   OH210331   3.703   3.971   3.406  0.0855 -0.2207 -0.4258
 3442TIP3    H110332   3.687   3.879   3.426 -1.6101  0.1157 -0.0646
 3442TIP3    H210333   3.773   3.997   3.466 -0.6035 -0.8482  0.6735
 3443TIP3   OH210334   0.638   3.990   2.287  0.0114 -0.4029  0.9673
 3443TIP3    H110335   0.723   4.021   2.258  1.0852 -1.9274  2.3295
 3443TIP3    H210336   0.575   4.049   2.245  1.5840 -0.4557 -1.6812
 3444TIP3   OH210337   4.992   2.511   0.338  0.1446 -0.3209  0.3586
 3444TIP3    H110338   5.081   2.509   0.372 -0.0336 -0.5792  0.8246
 3444TIP3    H210339   4.937   2.513   0.417 -0.2703 -0.6678  0.0777
 3445TIP3   OH210340   6.330   1.368   4.049  0.3491 -0.2917 -1.1104
 3445TIP3    H110341   6.383   1.446   4.037  1.2312 -0.6323  0.3475
 3445TIP3    H210342   6.346   1.341   4.140 -0.5226 -1.7255 -1.3442
 3446TIP3   OH210343   6.015   4.936   4.640  0.0053  0.1332  0.1544
 3446TIP3    H110344   5.987   5.020   4.602  1.6837  1.0922  0.9433
 3446TIP3    H210345   5.957   4.925   4.716 -0.3174  0.5131 -0.0278
 3447TIP3   OH210346   5.055   2.560   0.711  0.2388 -0.4235 -0.2407
 3447TIP3    H110347   5.141   2.534   0.743 -0.1467 -1.6945 -0.1870
 3447TIP3    H210348   5.072   2.636   0.656  1.2868 -0.1453  0.4506
 3448TIP3   OH210349   4.979   0.744   4.082  0.0431 -0.1954  0.0455
 3448TIP3    H110350   4.986   0.839   4.093 -1.5241 -0.0787  0.2957
 3448TIP3    H210351   5.013   0.728   3.994  2.0752  0.3245  0.6828
 3449TIP3   OH210352   5.595   1.634   3.467  0.6261  0.3307  0.1619
 3449TIP3    H110353   5.629   1.719   3.496  0.3743  0.4663  0.0623
 3449TIP3    H210354   5.536   1.656   3.395  0.7473  0.0510 -0.0232
 3450TIP3   OH210355   0.203   1.187   0.251 -0.1216  0.2705  0.0031
 3450TIP3    H110356   0.237   1.239   0.324  0.1608 -0.4373  0.3942
 3450TIP3    H210357   0.119   1.154   0.283 -0.3132  0.5045 -0.2545
 3451TIP3   OH210358   1.380   4.916   0.407  0.6586  0.0144  0.3564
 3451TIP3    H110359   1.371   5.003   0.370  0.6050  0.5535  1.5788
 3451TIP3    H210360   1.431   4.929   0.487 -1.6869 -0.6214  2.0667
 3452TIP3   OH210361   5.394   0.019   1.640  0.2236  0.1884 -0.0844
 3452TIP3    H110362   5.413   0.048   1.551 -0.5833 -0.7235 -0.5679
 3452TIP3    H210363   5.462   0.061   1.694  1.7112 -0.5221 -1.3337
 3453TIP3   OH210364   5.735   0.155   3.881 -0.1638  0.7088  0.2024
 3453TIP3    H110365   5.677   0.159   3.804 -0.9112 -1.5538  0.5676
 3453TIP3    H210366   5.699   0.221   3.941 -2.1986 -0.3674  0.2567
 3454TIP3   OH210367   0.216   3.058   1.008 -0.1031  0.0824  0.0965
 3454TIP3    H110368   0.240   3.085   0.919  2.2094  1.4531  1.0309
 3454TIP3    H210369   0.182   3.138   1.049 -0.3303 -0.3179  0.6986
 3455TIP3   OH210370   5.243   5.056   4.131  0.1282 -0.8496  0.1231
 3455TIP3    H110371   5.323   5.095   4.096 -1.4823  0.6732 -2.1403
 3455TIP3    H210372   5.212   5.120   4.196 -0.4673 -0.2411 -0.7427
 3456TIP3   OH210373   5.451   5.527   2.835  0.2660  0.3975 -0.6580
 3456TIP3    H110374   5.482   5.616   2.819 -1.4381  0.9650 -1.0767
 3456TIP3    H210375   5.395   5.508   2.760 -1.5696  0.0413  0.7348
 3457TIP3   OH210376   3.047   4.316   3.376  0.1269 -0.1037 -0.3153
 3457TIP3    H110377   2.972   4.261   3.355  0.1759 -0.2971  0.0146
 3457TIP3    H210378   3.024   4.402   3.340 -0.5592  0.0188  0.3941
 3458TIP3   OH210379   1.339   2.492   3.917 -0.0541 -0.0846  0.5042
 3458TIP3    H110380   1.369   2.403   3.896  0.3753  0.3824 -0.9927
 3458TIP3    H210381   1.408   2.549   3.885 -1.1999  0.8715 -0.3429
 3459TIP3   OH210382   2.790   2.537   3.310 -0.0240  0.1230  0.0730
 3459TIP3    H110383   2.839   2.577   3.238 -0.8266  0.4696 -0.2880
 3459TIP3    H210384   2.819   2.585   3.387  0.0384  0.4785 -0.1691
 3460TIP3   OH210385   2.261   2.501   2.229 -0.0013  0.2763  0.2776
 3460TIP3    H110386   2.167   2.516   2.216  0.1686  1.5674  0.4596
 3460TIP3    H210387   2.302   2.540   2.152  0.4203  0.1323  0.4266
 3461TIP3   OH210388   3.540   2.525   2.725  0.3106 -0.1748 -0.2174
 3461TIP3    H110389   3.488   2.445   2.716  0.9029 -0.6708  0.5920
 3461TIP3    H210390   3.574   2.543   2.637 -2.4129  1.0269 -1.1375
 3462TIP3   OH210391   2.250   2.204   4.669 -0.2135  0.0367 -0.5865
 3462TIP3    H110392   2.173   2.148   4.679 -0.1411  0.0334 -0.0178
 3462TIP3    H210393   2.293   2.173   4.589 -0.4823 -0.3488 -0.5799
 3463TIP3   OH210394   1.903   3.874   2.543  0.7806  0.4630 -0.7061
 3463TIP3    H110395   1.965   3.801   2.543  1.0564  0.6766 -1.7724
 3463TIP3    H210396   1.858   3.867   2.627  0.9801 -0.7825 -0.6797
 3464TIP3   OH210397   0.093   1.388   4.511 -0.0323  0.4535  0.2677
 3464TIP3    H110398   0.101   1.316   4.574  0.2940  0.4483  0.2245
 3464TIP3    H210399   0.096   1.345   4.425 -0.2957  0.4770  0.2466
 3465TIP3   OH210400   1.896   0.574   1.269 -0.4538 -0.0377 -0.0500
 3465TIP3    H110401   1.853   0.563   1.353  0.0512 -0.5350  0.1482
 3465TIP3    H210402   1.828   0.553   1.204 -0.5076 -0.8516  0.2586
 3466TIP3   OH210403   0.403   1.946   4.483 -0.2581 -0.0755 -0.0491
 3466TIP3    H110404   0.324   1.964   4.432  1.2109  0.4046 -2.2636
 3466TIP3    H210405   0.438   1.865   4.446  1.1708  0.6116 -0.2517
 3467TIP3   OH210406   0.313   3.721   1.419  0.1698 -0.3473  0.4379
 3467TIP3    H110407   0.299   3.737   1.325 -0.5953 -0.5822  0.5041
 3467TIP3    H210408   0.320   3.808   1.457  1.6144 -0.2461  0.0178
 3468TIP3   OH210409   0.154   1.819   3.170 -0.3804  0.4567 -0.5994
 3468TIP3    H110410   0.216   1.779   3.109  0.3347 -0.6856  0.8219
 3468TIP3    H210411   0.094   1.748   3.193 -2.2907  1.5332 -1.9441
 3469TIP3   OH210412   4.391   0.514   4.728  0.3722 -0.5375 -0.1043
 3469TIP3    H110413   4.370   0.572   4.655 -1.4037  0.5215  1.1593
 3469TIP3    H210414   4.431   0.571   4.793  0.9229 -1.2386  0.1778
 3470TIP3   OH210415   3.874   1.579   4.325 -0.2564  0.0566 -0.8841
 3470TIP3    H110416   3.828   1.662   4.326 -1.2818 -0.4943  0.5823
 3470TIP3    H210417   3.951   1.593   4.380 -0.1971  0.1410 -0.9864
 3471TIP3   OH210418   0.630   0.973   0.113  0.0295 -0.4543  0.2173
 3471TIP3    H110419   0.603   1.065   0.111 -1.1376 -0.7879 -0.3016
 3471TIP3    H210420   0.580   0.935   0.186 -0.0143 -0.8267 -0.0032
 3472TIP3   OH210421   1.764   1.233   0.760 -0.5556  0.0421 -0.4438
 3472TIP3    H110422   1.824   1.211   0.688  0.3627 -0.3454  0.4197
 3472TIP3    H210423   1.810   1.205   0.839 -2.3502 -1.3270  0.1850
 3473TIP3   OH210424   4.508   5.453   4.917  0.0005 -0.4776 -0.1530
 3473TIP3    H110425   4.503   5.495   4.831  0.1448  1.4144  0.6894
 3473TIP3    H210426   4.599   5.468   4.945  0.1582 -1.7211  0.0285
 3474TIP3   OH210427   1.344   4.907   1.173  0.1522 -0.2135  0.1272
 3474TIP3    H110428   1.328   4.814   1.189 -0.0794 -0.3343 -0.7669
 3474TIP3    H210429   1.300   4.952   1.245 -2.9187 -0.6004 -1.3686
 3475TIP3   OH210430   4.683   2.201   1.380  0.2439  0.3836 -0.1975
 3475TIP3    H110431   4.645   2.266   1.321  0.2544 -1.2779 -2.1496
 3475TIP3    H210432   4.741   2.149   1.325 -0.4878 -1.8765  1.0215
 3476TIP3   OH210433   2.504   1.947   3.209 -0.1208  0.3693  0.0019
 3476TIP3    H110434   2.497   2.039   3.187 -1.2945 -0.0914 -1.7738
 3476TIP3    H210435   2.597   1.927   3.201  0.0083  1.1758 -0.5888
 3477TIP3   OH210436   4.609   5.117   3.981  0.0175 -0.4513  0.3359
 3477TIP3    H110437   4.619   5.130   3.887 -3.0968  1.5350  0.1266
 3477TIP3    H210438   4.577   5.028   3.990  0.1337 -0.5812 -0.4881
 3478TIP3   OH210439   2.996   3.264   0.952  0.5940  0.2809 -0.0296
 3478TIP3    H110440   3.033   3.309   0.875  0.4723  1.6318  0.6678
 3478TIP3    H210441   3.013   3.324   1.025  0.4954 -0.8728  0.9652
 3479TIP3   OH210442   1.773   3.499   2.801 -0.3290  0.0645 -0.1591
 3479TIP3    H110443   1.752   3.593   2.796  1.3229  0.4108 -1.2539
 3479TIP3    H210444   1.719   3.459   2.732  2.0400  0.8999 -2.7035
 3480TIP3   OH210445   1.449   5.161   0.335 -0.3905 -0.0948  0.3865
 3480TIP3    H110446   1.504   5.173   0.413 -0.9942 -0.4572  0.8720
 3480TIP3    H210447   1.464   5.241   0.283 -0.4791  0.4454  1.1722
 3481TIP3   OH210448   2.256   1.099   0.991 -0.3271  0.7847  0.0406
 3481TIP3    H110449   2.297   1.166   1.046 -2.0557  0.9200  1.2475
 3481TIP3    H210450   2.235   1.028   1.051  0.2630 -0.2976 -0.9889
 3482TIP3   OH210451   2.552   5.798   3.078  0.0824  0.4680  0.0199
 3482TIP3    H110452   2.582   5.707   3.090  0.4683  0.3992 -1.3534
 3482TIP3    H210453   2.511   5.820   3.162  1.3482 -0.4442  0.9239
 3483TIP3   OH210454   2.407   5.642   1.730  0.1268  0.2131  0.0721
 3483TIP3    H110455   2.395   5.713   1.793 -0.8287  0.2169 -0.1032
 3483TIP3    H210456   2.496   5.655   1.696  0.0015  1.2664  0.1139
 3484TIP3   OH210457   4.286   3.927   2.409 -0.3968  0.3074 -0.8364
 3484TIP3    H110458   4.271   3.894   2.321 -0.8283  1.2652 -1.1339
 3484TIP3    H210459   4.199   3.939   2.446 -0.2763 -3.0538  0.9133
 3485TIP3   OH210460   3.103   5.118   2.785  0.1964 -0.0214  0.6476
 3485TIP3    H110461   3.086   5.102   2.693  0.2307  0.1138  0.6184
 3485TIP3    H210462   3.132   5.033   2.819 -0.1648 -0.1574  0.6145
 3486TIP3   OH210463   2.979   2.785   4.038 -0.3547  0.0146  0.1273
 3486TIP3    H110464   2.932   2.868   4.038 -0.1290  0.1552  0.9457
 3486TIP3    H210465   2.983   2.760   4.130 -0.1897 -0.7778 -0.0847
 3487TIP3   OH210466   6.196   4.160   0.429  0.5200  0.6001 -0.2226
 3487TIP3    H110467   6.277   4.202   0.458 -0.4134  0.8615  2.2369
 3487TIP3    H210468   6.166   4.110   0.505 -0.7758 -0.8444 -1.6160
 3488TIP3   OH210469   1.776   1.595   2.379 -0.0858  0.4096  0.3948
 3488TIP3    H110470   1.689   1.591   2.418  0.1289  0.3768  0.8819
 3488TIP3    H210471   1.819   1.513   2.407 -0.1595  0.0580 -0.4779
 3489TIP3   OH210472   2.965   4.594   2.291  0.7372 -0.0692 -0.4727
 3489TIP3    H110473   2.927   4.609   2.378  2.6703 -2.1076  0.8369
 3489TIP3    H210474   3.031   4.663   2.282  0.5958  0.0930 -0.2781
 3490TIP3   OH210475   0.911   1.235   0.120  0.3137  0.4533  0.6035
 3490TIP3    H110476   0.996   1.270   0.145  1.0665 -1.3180  0.7300
 3490TIP3    H210477   0.904   1.153   0.170 -1.1233  0.1818  0.0110
 3491TIP3   OH210478   2.641   1.705   4.948  0.0388  0.1596  0.5008
 3491TIP3    H110479   2.690   1.770   4.999 -0.9687  0.7306  0.7874
 3491TIP3    H210480   2.640   1.741   4.859 -3.3185  2.4150  1.2119
 3492TIP3   OH210481   2.285   3.088   1.342  0.0451  0.7582  0.1932
 3492TIP3    H110482   2.263   2.995   1.329 -1.4084  1.1633 -0.4580
 3492TIP3    H210483   2.364   3.101   1.290 -0.0953  0.0271 -0.2208
 3493TIP3   OH210484   1.515   1.560   5.005 -0.1852  0.4976 -0.4283
 3493TIP3    H110485   1.500   1.640   4.955 -0.4818  1.2429  0.8259
 3493TIP3    H210486   1.498   1.584   5.096 -0.1223 -0.9497 -0.0037
 3494TIP3   OH210487   0.384   3.049   2.770 -0.1635  0.1705  0.7587
 3494TIP3    H110488   0.393   3.059   2.865  0.1179 -1.5354  0.9509
 3494TIP3    H210489   0.289   3.049   2.755 -0.2023  0.8035  0.9874
 3495TIP3   OH210490   4.836   0.006   0.906 -0.1171  0.3512  0.0923
 3495TIP3    H110491   4.781   0.002   0.828  0.0044 -0.5585  0.0458
 3495TIP3    H210492   4.892   0.082   0.892 -0.0158  0.1238 -0.7667
 3496TIP3   OH210493   5.432   3.463   1.824 -0.3920  0.0183  0.3951
 3496TIP3    H110494   5.411   3.370   1.820 -0.9591  0.1851 -1.6893
 3496TIP3    H210495   5.448   3.480   1.917 -1.7708 -1.8191  1.0254
 3497TIP3   OH210496   3.607   1.379   4.909 -0.2734 -0.4912 -0.2441
 3497TIP3    H110497   3.522   1.373   4.954 -1.2784  1.2571 -1.7925
 3497TIP3    H210498   3.586   1.414   4.823  2.0670  0.1163 -0.6272
 3498TIP3   OH210499   1.553   3.552   5.219 -0.5994  0.2447  0.1447
 3498TIP3    H110500   1.644   3.528   5.202 -0.4948 -0.0393  1.0409
 3498TIP3    H210501   1.506   3.527   5.139 -0.0473 -0.4733  0.0350
 3499TIP3   OH210502   3.059   0.298   4.112  0.3381  0.7339 -0.2058
 3499TIP3    H110503   2.966   0.281   4.127  0.3098  0.5512 -0.5784
 3499TIP3    H210504   3.074   0.386   4.147 -0.2380  1.2434 -1.2142
 3500TIP3   OH210505   4.804   3.221   2.245  0.3842 -0.3992  0.1379
 3500TIP3    H110506   4.874   3.268   2.199  0.6024 -1.5046 -0.6863
 3500TIP3    H210507   4.724   3.269   2.221  0.7110  0.1621  0.1409
 3501TIP3   OH210508   4.110   5.148   1.845 -0.1280 -0.3860  0.3200
 3501TIP3    H110509   4.196   5.160   1.806  1.0431 -1.3697  2.4379
 3501TIP3    H210510   4.091   5.232   1.887 -0.6236  0.1118 -0.8594
 3502TIP3   OH210511   5.609   4.467   3.526 -0.1676  0.0790 -0.3741
 3502TIP3    H110512   5.596   4.374   3.506  3.0169 -0.9642  1.6865
 3502TIP3    H210513   5.663   4.500   3.454  2.3337 -0.8846  0.9684
 3503TIP3   OH210514   2.599   3.699   1.012 -0.2246  0.1620 -0.6312
 3503TIP3    H110515   2.612   3.719   0.919  1.9305 -0.2695 -0.4840
 3503TIP3    H210516   2.538   3.625   1.012 -1.0596  0.8093 -1.6260
 3504TIP3   OH210517   2.062   0.533   0.603  0.0058  0.1611 -0.3741
 3504TIP3    H110518   2.060   0.622   0.637 -0.5687  0.3078 -0.7742
 3504TIP3    H210519   2.153   0.505   0.613  0.4056  1.1418 -1.1067
 3505TIP3   OH210520   4.341   1.585   3.858 -0.3282 -0.6566  0.2185
 3505TIP3    H110521   4.346   1.670   3.901  0.5378 -1.4115  1.6705
 3505TIP3    H210522   4.355   1.605   3.765 -1.5404  0.9238  0.3236
 3506TIP3   OH210523   0.961   3.068   0.060 -0.5017  0.1836 -0.2711
 3506TIP3    H110524   1.017   3.016   0.003  0.2574  0.2358  0.4156
 3506TIP3    H210525   0.934   3.142   0.006 -0.6838 -0.3371 -0.9016
 3507TIP3   OH210526   3.814   4.843   4.366  0.3042 -0.6600  0.7156
 3507TIP3    H110527   3.899   4.803   4.348  0.2900 -0.6993  0.7347
 3507TIP3    H210528   3.779   4.864   4.280  0.7930  0.3291  0.7496
 3508TIP3   OH210529   2.989   5.506   1.132  0.0091 -0.3862 -0.0266
 3508TIP3    H110530   2.966   5.568   1.201  1.8227 -0.7138  0.9315
 3508TIP3    H210531   2.986   5.558   1.052  0.0116  0.5641  0.5772
 3509TIP3   OH210532   2.413   2.277   1.611 -0.2319 -0.0024  0.0201
 3509TIP3    H110533   2.424   2.369   1.586  1.8775 -0.0911  0.3769
 3509TIP3    H210534   2.485   2.232   1.567  0.9346 -0.8753  2.5881
 3510TIP3   OH210535   0.320   3.018   1.818  0.0926  0.4945 -0.1641
 3510TIP3    H110536   0.289   3.091   1.871  0.7700  0.0829  0.8397
 3510TIP3    H210537   0.330   3.054   1.730 -0.9847  1.2125 -0.0065
 3511TIP3   OH210538   3.255   2.041   3.446 -0.0374 -0.0087 -0.3247
 3511TIP3    H110539   3.243   1.984   3.522  3.0497  0.3730  0.5668
 3511TIP3    H210540   3.230   2.128   3.477  0.4914  0.0153  0.0509
 3512TIP3   OH210541   5.784   4.986   0.464  0.3646 -0.1349  0.3677
 3512TIP3    H110542   5.717   4.918   0.472  0.7978 -0.4549  1.4660
 3512TIP3    H210543   5.747   5.048   0.402 -1.9843  0.8528  2.5304
 3513TIP3   OH210544   1.671   2.124   4.071 -0.0345 -0.6016 -0.5072
 3513TIP3    H110545   1.727   2.192   4.109 -0.4072 -1.8737  2.6516
 3513TIP3    H210546   1.599   2.172   4.031  0.2249  0.9363  0.7617
 3514TIP3   OH210547   1.945   0.298   0.912  0.2431 -0.3266  0.0343
 3514TIP3    H110548   1.995   0.255   0.842 -0.5366  2.3415 -2.3334
 3514TIP3    H210549   1.996   0.375   0.934 -2.0157  1.7910 -1.5741
 3515TIP3   OH210550   4.005   0.047   1.567  0.3239 -0.1310 -0.5904
 3515TIP3    H110551   3.967   0.113   1.509  1.8980  0.5417 -0.8985
 3515TIP3    H210552   3.938  -0.022   1.572 -0.0636  0.0172 -2.7860
 3516TIP3   OH210553   3.095   3.828   3.270  0.4613  0.0639 -0.0526
 3516TIP3    H110554   3.117   3.736   3.251  0.3707 -0.2274  1.1712
 3516TIP3    H210555   3.017   3.845   3.218  0.6721 -0.4585 -0.5463
 3517TIP3   OH210556   5.411   0.461   3.347 -0.6606 -0.2192 -0.6043
 3517TIP3    H110557   5.458   0.467   3.264 -2.9092 -1.2110 -2.0635
 3517TIP3    H210558   5.375   0.548   3.360  0.1621  0.0886 -0.3714
 3518TIP3   OH210559   5.536   3.074   4.467  0.1686  0.2073 -0.0271
 3518TIP3    H110560   5.512   3.022   4.543 -1.4855  0.5166 -0.2947
 3518TIP3    H210561   5.482   3.040   4.396 -0.3382  1.7138 -0.4015
 3519TIP3   OH210562   0.101   5.081   0.154 -0.7717  0.7610  0.1251
 3519TIP3    H110563   0.040   5.072   0.081 -1.8025 -0.1706  1.0646
 3519TIP3    H210564   0.153   5.159   0.133  1.2965 -1.2625 -3.2632
 3520TIP3   OH210565   4.674   0.261   1.290  0.3357 -0.5817  0.4376
 3520TIP3    H110566   4.768   0.277   1.299  0.3132 -0.7312  0.9797
 3520TIP3    H210567   4.666   0.168   1.273  0.2458 -0.7102  1.1544
 3521TIP3   OH210568   3.504   5.413   2.724  0.3646  0.1449  0.1378
 3521TIP3    H110569   3.509   5.509   2.725  3.2671  0.0692  0.6889
 3521TIP3    H210570   3.524   5.390   2.633 -0.4778  0.0155 -0.0290
 3522TIP3   OH210571   1.041   1.743   3.657  0.5983 -0.1533 -0.1097
 3522TIP3    H110572   0.997   1.792   3.726 -0.3289 -1.1569  0.0494
 3522TIP3    H210573   0.970   1.698   3.610  1.4023 -1.4982 -0.1112
 3523TIP3   OH210574   2.645   2.146   1.436 -0.0075  0.2219 -0.2967
 3523TIP3    H110575   2.628   2.052   1.441  1.8894 -0.1123  0.9514
 3523TIP3    H210576   2.636   2.167   1.343 -1.1002 -1.0314 -0.5072
 3524TIP3   OH210577   6.125   5.966   2.755  0.0787  0.4939 -0.0109
 3524TIP3    H110578   6.047   5.953   2.701  0.0349  0.6879  0.0062
 3524TIP3    H210579   6.153   5.877   2.777  0.7641  0.3508 -1.3006
 3525TIP3   OH210580   0.411   0.222   4.481  0.4995 -0.0147 -0.0633
 3525TIP3    H110581   0.365   0.259   4.406 -0.1301  0.3301  0.4781
 3525TIP3    H210582   0.477   0.164   4.443 -1.4292 -1.8148 -0.8601
 3526TIP3   OH210583   2.547   1.749   3.651 -0.0551 -0.2492 -0.5187
 3526TIP3    H110584   2.609   1.773   3.720 -0.6629  1.3228 -0.4967
 3526TIP3    H210585   2.602   1.723   3.577  0.6540  1.0656 -0.4803
 3527TIP3   OH210586   5.462   2.240   1.191 -0.0632  0.5728  0.4005
 3527TIP3    H110587   5.484   2.247   1.284  0.3231 -0.3295  0.3925
 3527TIP3    H210588   5.433   2.327   1.166  0.5379  1.0087  1.1921
 3528TIP3   OH210589   5.518   3.026   2.167  0.2260  1.1552 -0.6043
 3528TIP3    H110590   5.496   2.951   2.222 -1.7760  1.6750 -0.6308
 3528TIP3    H210591   5.558   3.088   2.228  0.2528  0.7732 -0.2261
 3529TIP3   OH210592   2.358   1.143   1.840  0.8373  0.5152  0.2092
 3529TIP3    H110593   2.344   1.237   1.827  1.0082  0.5125 -0.0122
 3529TIP3    H210594   2.450   1.129   1.819  0.8470  0.3212  0.3784
 3530TIP3   OH210595   0.943   3.042   3.318 -0.5592 -0.0005 -0.2228
 3530TIP3    H110596   1.007   3.012   3.254 -0.4631 -2.2307  0.8182
 3530TIP3    H210597   0.882   2.969   3.327 -0.6586  0.2863  2.0694
 3531TIP3   OH210598   3.380   1.753   4.039  0.6055 -0.2862  0.6122
 3531TIP3    H110599   3.439   1.717   4.106  0.8232 -1.5255 -0.2175
 3531TIP3    H210600   3.422   1.835   4.013  1.3642 -0.5835  0.8523
 3532TIP3   OH210601   3.015   4.649   0.072  0.0566  0.0731  0.1528
 3532TIP3    H110602   3.080   4.683   0.134  1.4583 -1.4082 -0.4284
 3532TIP3    H210603   3.061   4.646  -0.012 -1.4932  1.0666 -0.7796
 3533TIP3   OH210604   6.218   4.976   2.346 -0.0718  0.3547  0.3988
 3533TIP3    H110605   6.169   5.034   2.289 -0.6963  0.8874  1.4398
 3533TIP3    H210606   6.152   4.939   2.405  0.5195 -0.3384  0.6480
 3534TIP3   OH210607   0.953   0.139   3.881  0.0547  0.0821 -0.1975
 3534TIP3    H110608   1.014   0.210   3.864 -0.8093  0.5379 -1.5906
 3534TIP3    H210609   0.918   0.116   3.795 -0.9461 -0.8692  0.4319
 3535TIP3   OH210610   3.106   3.244   2.041 -0.1850 -0.4028 -0.2735
 3535TIP3    H110611   3.023   3.200   2.027  0.0382 -0.8510 -0.1987
 3535TIP3    H210612   3.133   3.218   2.129 -1.2627  1.8594  0.8241
 3536TIP3   OH210613   3.137   4.298   0.734 -0.2869  0.2580  0.9769
 3536TIP3    H110614   3.072   4.330   0.671 -1.8217 -1.9213  1.3421
 3536TIP3    H210615   3.173   4.219   0.694 -0.4523 -0.5203  2.3072
 3537TIP3   OH210616   1.227   0.140   1.515  0.4262 -0.2356 -0.2625
 3537TIP3    H110617   1.288   0.111   1.447  0.4794  0.4029 -0.4909
 3537TIP3    H210618   1.282   0.186   1.578  0.5758 -1.8691  0.8609
 3538TIP3   OH210619   2.042   4.703   0.664  0.1896 -0.7527  0.0273
 3538TIP3    H110620   1.986   4.706   0.742 -1.2748 -2.5854 -0.8810
 3538TIP3    H210621   2.002   4.766   0.604  0.2884 -0.6173  0.1018
 3539TIP3   OH210622   3.550   0.025   4.837  0.4658  0.6047 -0.2400
 3539TIP3    H110623   3.537   0.045   4.930  1.4056 -1.0576  0.2877
 3539TIP3    H210624   3.465  -0.009   4.809  1.2059 -2.7068  1.1219
 3540TIP3   OH210625   4.257   4.033   0.217 -0.4269 -0.3765  0.7049
 3540TIP3    H110626   4.332   4.088   0.195 -1.1509  0.2004 -0.4340
 3540TIP3    H210627   4.293   3.963   0.272  0.6922  0.6500  1.3097
 3541TIP3   OH210628   0.662   5.804   0.867 -0.6198 -0.1050 -0.1654
 3541TIP3    H110629   0.747   5.825   0.908 -0.1881 -2.1787  0.1168
 3541TIP3    H210630   0.664   5.849   0.783  0.5123  0.3716  0.0993
 3542TIP3   OH210631   2.436   4.626   4.917 -0.2855  0.1305  0.2621
 3542TIP3    H110632   2.446   4.676   4.998  0.5541 -0.2683  0.4154
 3542TIP3    H210633   2.352   4.580   4.928  0.4775 -1.0422  1.5446
 3543TIP3   OH210634   5.812   5.937   3.093 -0.4763  0.6982 -0.2160
 3543TIP3    H110635   5.897   5.953   3.133 -0.2415 -1.7915  0.4424
 3543TIP3    H210636   5.774   5.866   3.145 -2.2002  0.5544 -1.5791
 3544TIP3   OH210637   3.733   1.884   0.819 -0.6649 -0.5892 -0.4085
 3544TIP3    H110638   3.801   1.948   0.801 -1.1205  0.7303  2.0388
 3544TIP3    H210639   3.765   1.835   0.895 -1.4168 -1.5673 -0.6996
 3545TIP3   OH210640   2.959   4.371   0.527  0.5567  0.7171 -0.9423
 3545TIP3    H110641   2.893   4.307   0.554  0.4566  0.9081 -0.7305
 3545TIP3    H210642   2.932   4.396   0.439  0.0269  1.2057 -0.6488
 3546TIP3   OH210643   4.226   0.125   3.288 -0.2651 -0.4790  0.3990
 3546TIP3    H110644   4.171   0.148   3.363  1.2026 -1.8600  1.9779
 3546TIP3    H210645   4.315   0.136   3.320  0.4273  0.2866 -1.6385
 3547TIP3   OH210646   0.016   2.178   3.466  0.2329 -0.4847 -0.2461
 3547TIP3    H110647   0.108   2.192   3.488 -0.6557  2.6089  2.1255
 3547TIP3    H210648  -0.014   2.264   3.434 -1.8261 -1.4740 -1.1450
 3548TIP3   OH210649   5.268   3.537   3.022 -0.1990  0.3324 -0.5974
 3548TIP3    H110650   5.264   3.470   3.091 -0.5007  0.4510 -0.5019
 3548TIP3    H210651   5.267   3.487   2.940 -0.2257  0.2119 -0.5238
 3549TIP3   OH210652   5.718   5.750   1.462 -0.2383  0.1305  0.0540
 3549TIP3    H110653   5.768   5.711   1.390 -0.5114 -0.6419  0.2717
 3549TIP3    H210654   5.686   5.833   1.427 -0.0839 -0.0802 -0.6013
 3550TIP3   OH210655   4.608   1.156   4.407  0.2699  0.3335 -0.2522
 3550TIP3    H110656   4.518   1.157   4.374  0.4731  1.1742 -0.8156
 3550TIP3    H210657   4.661   1.149   4.328  0.6947 -1.1899  0.1291
 3551TIP3   OH210658   4.631   2.838   0.619 -0.2749 -0.4053  0.6310
 3551TIP3    H110659   4.632   2.749   0.655 -1.0593 -1.2530 -1.2754
 3551TIP3    H210660   4.538   2.860   0.613 -0.0771  1.4891  3.1020
 3552TIP3   OH210661   3.708   4.844   2.607 -0.1441 -0.0083 -0.2615
 3552TIP3    H110662   3.646   4.773   2.624 -1.0591  0.9978  0.7287
 3552TIP3    H210663   3.662   4.923   2.633  0.6560  1.0390 -1.8809
 3553TIP3   OH210664   5.954   2.302   0.954 -0.6721  0.1716 -0.5136
 3553TIP3    H110665   5.970   2.257   1.037  1.1161 -1.6712 -1.7821
 3553TIP3    H210666   5.866   2.274   0.928 -0.8985  0.0826  0.3195
 3554TIP3   OH210667   0.402   0.076   1.285  0.0094  0.4665  0.0489
 3554TIP3    H110668   0.343   0.151   1.281  0.6419  1.1429  2.0768
 3554TIP3    H210669   0.463   0.097   1.356  0.3811 -1.8376  0.5027
 3555TIP3   OH210670   1.150   5.756   0.902  0.0767  0.3692  0.1830
 3555TIP3    H110671   1.192   5.690   0.847  0.3600  0.3929  0.3719
 3555TIP3    H210672   1.174   5.733   0.991 -1.7318 -0.6350  0.4500
 3556TIP3   OH210673   1.674   0.533   0.216 -0.1176  0.0979 -0.6516
 3556TIP3    H110674   1.610   0.466   0.189 -1.0186  0.3312  0.8104
 3556TIP3    H210675   1.621   0.609   0.239  0.7455  0.5785 -0.1920
 3557TIP3   OH210676   1.116   5.058   0.583  0.0156  0.4169 -0.7179
 3557TIP3    H110677   1.101   5.046   0.489 -0.9220  1.5546 -0.7361
 3557TIP3    H210678   1.031   5.037   0.623 -0.0621  1.5003 -0.2895
 3558TIP3   OH210679   3.800   4.693   3.922 -0.0459  0.4384 -0.5142
 3558TIP3    H110680   3.828   4.738   3.843  1.2221 -0.1845 -0.4482
 3558TIP3    H210681   3.795   4.762   3.989  1.6451  0.5467 -0.4656
 3559TIP3   OH210682   6.075   5.493   3.309  0.1215 -0.0417  0.2177
 3559TIP3    H110683   6.141   5.434   3.272  0.3708 -0.2237  0.9421
 3559TIP3    H210684   6.037   5.537   3.232 -1.8655 -2.9489 -0.6396
 3560TIP3   OH210685   1.902   0.955   1.300 -0.4472  0.3652  0.1382
 3560TIP3    H110686   1.894   0.919   1.388  0.1520  1.4675  0.6771
 3560TIP3    H210687   1.822   0.928   1.255 -0.4197 -0.8327  0.7864
 3561TIP3   OH210688   3.579   3.846   2.774  0.0655  0.2666 -0.2630
 3561TIP3    H110689   3.599   3.870   2.683  2.9055  1.6237  0.6049
 3561TIP3    H210690   3.664   3.829   2.814 -1.2643 -3.1658  1.4965
 3562TIP3   OH210691   0.630   2.448   0.449 -0.4394 -0.5462 -0.0707
 3562TIP3    H110692   0.573   2.449   0.526 -1.8713  1.9253 -1.0242
 3562TIP3    H210693   0.596   2.376   0.396  0.5528 -2.2613  1.5261
 3563TIP3   OH210694   5.491   1.480   0.850  0.0800 -0.3211  0.3420
 3563TIP3    H110695   5.432   1.428   0.796 -0.3339 -0.3121  0.7781
 3563TIP3    H210696   5.559   1.418   0.877  0.1883 -0.3687 -0.0357
 3564TIP3   OH210697   1.985   5.663   3.348 -0.5931 -0.2828 -0.3328
 3564TIP3    H110698   1.907   5.611   3.326 -0.6064 -0.1926 -0.5028
 3564TIP3    H210699   1.953   5.753   3.353 -0.7796 -0.3968  0.9778
 3565TIP3   OH210700   0.833   5.619   0.100  0.0032 -0.0401 -0.7004
 3565TIP3    H110701   0.908   5.650   0.151 -0.9823 -0.2279  0.8968
 3565TIP3    H210702   0.756   5.649   0.148 -0.9774  0.0472 -2.2463
 3566TIP3   OH210703   3.005   1.769   2.640 -0.3790 -0.7849  0.1804
 3566TIP3    H110704   3.081   1.718   2.614 -1.7366 -3.2545  0.7409
 3566TIP3    H210705   3.023   1.795   2.730  1.5739  2.4089 -0.9466
 3567TIP3   OH210706   4.385   1.934   3.292  0.0713 -0.5257 -0.1581
 3567TIP3    H110707   4.445   1.888   3.234  1.1405  0.3393  0.2376
 3567TIP3    H210708   4.370   2.019   3.249 -0.0024 -0.3087  0.2927
 3568TIP3   OH210709   3.915   3.293   0.249 -0.0088  0.5241 -0.2395
 3568TIP3    H110710   3.835   3.244   0.234  0.5778 -0.4617 -0.2114
 3568TIP3    H210711   3.922   3.300   0.344  0.0368  0.4297 -0.2352
 3569TIP3   OH210712   5.853   3.722   3.661 -0.9412 -0.5103  0.0396
 3569TIP3    H110713   5.901   3.668   3.724  0.4829  0.7506  0.0872
 3569TIP3    H210714   5.819   3.795   3.713 -3.5762 -1.7038  0.1435
 3570TIP3   OH210715   3.943   0.812   3.080  0.4771  0.0777  0.3276
 3570TIP3    H110716   3.937   0.816   3.176 -1.4287 -1.7604  0.3728
 3570TIP3    H210717   3.990   0.731   3.062 -1.9430 -1.3161 -0.2084
 3571TIP3   OH210718   4.626   3.411   2.149  0.6587 -0.0551  0.0631
 3571TIP3    H110719   4.570   3.362   2.089  1.4825  0.1266 -0.8793
 3571TIP3    H210720   4.566   3.466   2.199 -0.0799 -0.5296 -0.2911
 3572TIP3   OH210721   3.311   4.028   2.611 -0.1313 -0.4391 -0.1316
 3572TIP3    H110722   3.406   4.025   2.621 -0.1319 -0.0888 -0.0313
 3572TIP3    H210723   3.288   3.940   2.580  0.1391 -0.7498  0.5264
 3573TIP3   OH210724   4.621   5.081   4.355 -0.2033  0.3331 -0.3702
 3573TIP3    H110725   4.543   5.131   4.374 -1.1261 -0.6395 -1.3894
 3573TIP3    H210726   4.611   5.056   4.263  0.7900 -0.6901 -0.2242
 3574TIP3   OH210727   0.989   0.211   4.698 -0.1522 -0.1814  0.0728
 3574TIP3    H110728   0.996   0.280   4.632 -1.3356 -0.7025 -0.6445
 3574TIP3    H210729   0.982   0.257   4.781  1.0891  0.4989 -0.1810
 3575TIP3   OH210730   1.213   2.927   2.016 -0.0989 -0.2291  0.4106
 3575TIP3    H110731   1.267   2.849   2.001  1.0154  0.2367  1.8669
 3575TIP3    H210732   1.135   2.912   1.962  0.6632 -1.7546 -0.3285
 3576TIP3   OH210733   4.374   5.822   2.293 -0.1002 -0.1002  0.0963
 3576TIP3    H110734   4.432   5.845   2.365  0.2026 -1.9714  0.4884
 3576TIP3    H210735   4.431   5.782   2.227 -0.6271  0.0644 -0.4741
 3577TIP3   OH210736   3.963   3.920   1.093 -0.2376 -0.0844  0.1514
 3577TIP3    H110737   3.888   3.972   1.063 -1.1095 -0.9330  0.7951
 3577TIP3    H210738   3.960   3.926   1.188 -0.3717 -1.3104  0.2445
 3578TIP3   OH210739   3.158   4.577   4.714 -0.0903  0.2454  0.3577
 3578TIP3    H110740   3.239   4.535   4.688  0.2792  0.6360  0.8631
 3578TIP3    H210741   3.185   4.647   4.773 -0.7968  0.3517  0.5640
 3579TIP3   OH210742   4.133   0.124   0.801  0.4012 -0.0458 -0.3753
 3579TIP3    H110743   4.133   0.211   0.839 -0.7022 -0.6307  1.0330
 3579TIP3    H210744   4.201   0.128   0.733  2.0739  1.2111  1.2474
 3580TIP3   OH210745   0.671   1.927   3.538 -0.1308  0.1809 -0.2374
 3580TIP3    H110746   0.732   1.868   3.495 -0.4516 -0.5814  0.3361
 3580TIP3    H210747   0.693   1.921   3.631 -0.6736  0.3614 -0.0924
 3581TIP3   OH210748   3.146   1.063   4.007  0.1019  0.2361 -0.0285
 3581TIP3    H110749   3.191   1.147   4.014  0.8660 -0.2560  1.6686
 3581TIP3    H210750   3.209   1.000   4.042 -1.6846 -0.5621  1.9235
 3582TIP3   OH210751   2.929   4.134   4.220 -0.5667 -0.7471 -0.0023
 3582TIP3    H110752   2.856   4.097   4.171  0.1320 -1.6028 -0.4323
 3582TIP3    H210753   3.003   4.076   4.201 -0.3786 -1.4509  2.4943
 3583TIP3   OH210754   4.403   3.761   1.123 -0.3290 -0.3903  0.0139
 3583TIP3    H110755   4.325   3.730   1.076 -0.7179 -1.5678  1.3454
 3583TIP3    H210756   4.370   3.829   1.181  0.0898  0.8170 -1.1148
 3584TIP3   OH210757   1.870   2.490   1.677  0.3056 -0.3428  0.0049
 3584TIP3    H110758   1.791   2.436   1.675 -0.9023  1.3473 -0.0823
 3584TIP3    H210759   1.860   2.552   1.605  0.4444  1.5550  1.5149
 3585TIP3   OH210760   1.105   5.643   4.593  0.1149  0.1947  0.0323
 3585TIP3    H110761   1.171   5.700   4.554  0.0716  0.6359  0.5928
 3585TIP3    H210762   1.155   5.586   4.652  0.0500  0.2484  0.1392
 3586TIP3   OH210763   3.408   1.783   0.387 -0.2907  0.3209 -0.0959
 3586TIP3    H110764   3.477   1.815   0.446  1.0804  1.2018 -2.0530
 3586TIP3    H210765   3.412   1.688   0.396  1.0710  0.3634 -0.0217
 3587TIP3   OH210766   6.210   4.568   0.648  0.2266  0.3026  0.0273
 3587TIP3    H110767   6.232   4.485   0.692 -0.2655  0.2443  0.1785
 3587TIP3    H210768   6.213   4.547   0.555  0.6692  0.2620  0.0520
 3588TIP3   OH210769   4.448   5.881   5.061  0.1572  0.4004 -0.5114
 3588TIP3    H110770   4.502   5.915   4.989 -0.9571 -0.7636 -1.9817
 3588TIP3    H210771   4.358   5.898   5.033 -0.2840  0.5051  0.9334
 3589TIP3   OH210772   1.615   2.729   2.509  0.2668  0.5329 -0.4648
 3589TIP3    H110773   1.626   2.814   2.466 -0.7316  0.5459 -0.7311
 3589TIP3    H210774   1.636   2.665   2.441  1.5584  0.5542 -0.1063
 3590TIP3   OH210775   2.121   2.805   4.264 -0.0944  0.4569 -0.4674
 3590TIP3    H110776   2.088   2.723   4.228  0.1234  0.1040  0.1157
 3590TIP3    H210777   2.165   2.779   4.346  2.6030  0.7037 -1.7166
 3591TIP3   OH210778   5.991   1.584   1.393  0.0064 -0.0420  0.3421
 3591TIP3    H110779   5.989   1.677   1.373 -0.3416  0.3676  2.1349
 3591TIP3    H210780   6.002   1.579   1.488 -1.5933 -1.7921  0.5017
 3592TIP3   OH210781   2.247   3.910   2.727 -0.1251  0.6964  0.1161
 3592TIP3    H110782   2.259   3.841   2.792 -0.4157  0.3361 -0.2125
 3592TIP3    H210783   2.156   3.937   2.737 -0.2673  0.3976 -0.3844
 3593TIP3   OH210784   0.750   2.952   1.469  0.0754  0.8057  0.0450
 3593TIP3    H110785   0.825   2.985   1.517  0.2128  0.6139 -0.0348
 3593TIP3    H210786   0.700   3.030   1.445 -0.3842  0.8497  1.1324
 3594TIP3   OH210787   3.339   1.307   4.421 -0.4514 -0.2895 -0.2489
 3594TIP3    H110788   3.279   1.317   4.495  0.4577 -1.0645  0.6214
 3594TIP3    H210789   3.348   1.396   4.385 -0.7580  0.1338  0.6858
 3595TIP3   OH210790   2.667   1.647   1.547  0.0822 -0.8105 -0.2254
 3595TIP3    H110791   2.621   1.564   1.531 -0.8454 -0.4660  0.5084
 3595TIP3    H210792   2.758   1.629   1.525 -0.0823 -2.0691  0.0405
 3596TIP3   OH210793   4.398   3.767   2.893  0.1859 -0.4606 -0.6622
 3596TIP3    H110794   4.407   3.755   2.988  0.7498 -1.9214 -0.8885
 3596TIP3    H210795   4.463   3.834   2.871  0.6784 -0.7691 -0.1601
 3597TIP3   OH210796   5.083   3.903   3.862  0.7233  0.3185 -0.9314
 3597TIP3    H110797   5.170   3.872   3.887  0.0715 -2.4958 -1.7713
 3597TIP3    H210798   5.060   3.850   3.786 -2.3268 -0.1345  0.1631
 3598TIP3   OH210799   0.217   0.967   2.438 -0.1709  0.4031 -1.0640
 3598TIP3    H110800   0.300   0.936   2.474 -0.9441 -1.2926 -0.6559
 3598TIP3    H210801   0.214   0.930   2.349 -0.5063  0.4265 -1.0652
 3599TIP3   OH210802   2.939   0.964   4.168  0.4186  0.1835  0.0002
 3599TIP3    H110803   2.903   1.053   4.159 -0.7005 -0.3622 -1.3694
 3599TIP3    H210804   3.017   0.965   4.113  0.6869  0.4652  0.3859
 3600TIP3   OH210805   5.416   4.819   0.752 -0.6760 -0.5419  0.6275
 3600TIP3    H110806   5.439   4.834   0.661 -0.9936  2.2805  0.9371
 3600TIP3    H210807   5.473   4.746   0.779  1.3330  0.2944 -1.0863
 3601TIP3   OH210808   0.534   3.366   0.499 -0.8016  0.0243  0.3697
 3601TIP3    H110809   0.462   3.383   0.439 -0.5963  0.4870  0.2569
 3601TIP3    H210810   0.612   3.393   0.452 -0.6707  0.7638  0.9843
 3602TIP3   OH210811   2.853   0.064   2.756  0.3011  0.0085 -0.0343
 3602TIP3    H110812   2.867   0.010   2.834 -0.0377 -0.7879 -0.5090
 3602TIP3    H210813   2.759   0.080   2.755  0.4210  0.7262  0.1773
 3603TIP3   OH210814   5.968   3.157   2.110 -0.2899 -0.0910  0.3945
 3603TIP3    H110815   5.904   3.086   2.106 -0.9128  0.4859 -0.2911
 3603TIP3    H210816   6.046   3.117   2.148 -0.4927 -1.2363 -0.3515
 3604TIP3   OH210817   3.383   5.722   3.436  0.3500  0.3457  0.0394
 3604TIP3    H110818   3.449   5.790   3.423  0.5856  0.3529  1.1469
 3604TIP3    H210819   3.352   5.736   3.526  0.4458 -1.0366  0.3155
 3605TIP3   OH210820   3.556   0.389   0.320 -0.2983  0.2574 -0.2084
 3605TIP3    H110821   3.585   0.375   0.410 -1.3218  2.8721  0.6547
 3605TIP3    H210822   3.462   0.369   0.322  0.0466 -1.6783 -1.2736
 3606TIP3   OH210823   2.129   5.832   2.932 -0.5165  0.6234 -0.2637
 3606TIP3    H110824   2.132   5.922   2.962  0.6312  0.6200 -0.3497
 3606TIP3    H210825   2.152   5.779   3.008 -0.5635  0.4400 -0.3745
 3607TIP3   OH210826   5.637   1.652   5.027  0.0658  0.0931  0.6278
 3607TIP3    H110827   5.621   1.617   5.115  1.2848  0.7536  1.1387
 3607TIP3    H210828   5.723   1.693   5.033  0.3696 -0.2326 -1.0087
 3608TIP3   OH210829   0.203   2.451   3.833  0.2499  0.6766  0.0579
 3608TIP3    H110830   0.223   2.361   3.859 -0.2454  0.9164  1.3281
 3608TIP3    H210831   0.130   2.442   3.772 -1.3773  0.3205  1.9513
 3609TIP3   OH210832   6.213   4.488   2.316  0.0136 -0.6420 -0.1738
 3609TIP3    H110833   6.268   4.566   2.320 -0.7794  0.0197 -1.4370
 3609TIP3    H210834   6.144   4.502   2.381 -0.6407  0.1496 -1.0138
 3610TIP3   OH210835   4.302   5.251   3.605  0.3036  0.0358  0.1574
 3610TIP3    H110836   4.289   5.318   3.673  0.5413 -0.9417  1.2015
 3610TIP3    H210837   4.360   5.292   3.541  0.9848  0.6016  1.1192
 3611TIP3   OH210838   4.551   3.043   1.423 -0.3378 -0.6826 -0.1269
 3611TIP3    H110839   4.556   3.056   1.518 -2.6314  1.6421 -0.2229
 3611TIP3    H210840   4.517   2.955   1.412  2.3955 -2.0281  1.0452
 3612TIP3   OH210841   5.299   0.834   4.637 -0.1611 -0.1291  0.0346
 3612TIP3    H110842   5.290   0.910   4.695  1.4445  1.4352 -1.6835
 3612TIP3    H210843   5.377   0.789   4.669  0.8302  0.8335 -0.9377
 3613TIP3   OH210844   3.031   2.748   0.452 -0.0645 -0.6974 -0.1721
 3613TIP3    H110845   3.042   2.673   0.394 -0.8103 -0.3304 -0.8026
 3613TIP3    H210846   2.963   2.801   0.410 -0.2100 -0.1419  0.7473
 3614TIP3   OH210847   5.086   2.154   1.968  0.1592  0.5598  0.1073
 3614TIP3    H110848   5.025   2.153   2.042  0.2025  1.5496  0.1665
 3614TIP3    H210849   5.144   2.080   1.985 -0.7153 -0.1010  0.3054
 3615TIP3   OH210850   2.534   2.853   4.396 -0.4144 -0.0722  0.4851
 3615TIP3    H110851   2.608   2.820   4.447  1.8134  0.1789 -2.3525
 3615TIP3    H210852   2.570   2.924   4.343 -3.1537  1.3084  0.2585
 3616TIP3   OH210853   0.935   1.589   0.350  0.4998  0.1799 -0.4740
 3616TIP3    H110854   0.944   1.632   0.435 -0.2586  2.1669 -1.3553
 3616TIP3    H210855   1.008   1.527   0.347 -0.1144 -0.8171  2.0830
 3617TIP3   OH210856   4.373   4.984   4.913  0.2163 -0.7838  0.4569
 3617TIP3    H110857   4.301   4.987   4.850  0.8734 -0.8186 -0.3140
 3617TIP3    H210858   4.389   4.891   4.927 -0.2464 -0.7796  1.0595
 3618TIP3   OH210859   5.838   4.422   4.480  0.1399 -0.2127  0.3165
 3618TIP3    H110860   5.851   4.387   4.391  0.4338  0.9286 -0.1017
 3618TIP3    H210861   5.921   4.464   4.502 -0.3013  0.4921  0.6686
 3619TIP3   OH210862   4.484   5.067   0.739  0.0401 -0.3148 -0.9638
 3619TIP3    H110863   4.445   5.006   0.676 -1.2224  0.4149 -0.9170
 3619TIP3    H210864   4.491   5.150   0.691  0.5223 -0.1501 -0.6165
 3620TIP3   OH210865   2.504   0.423   0.387 -0.2133  0.3195 -0.3955
 3620TIP3    H110866   2.547   0.338   0.374 -1.7220 -0.8405  1.6031
 3620TIP3    H210867   2.493   0.458   0.298 -0.0510 -1.8462 -1.3413
 3621TIP3   OH210868   4.771   4.607   1.708 -0.3508 -0.2976 -0.0218
 3621TIP3    H110869   4.732   4.622   1.795 -0.5931 -0.4470 -0.1051
 3621TIP3    H210870   4.844   4.669   1.704 -0.4223 -0.1942  0.2353
 3622TIP3   OH210871   2.456   3.034   3.640  0.2671  0.0688  0.1853
 3622TIP3    H110872   2.404   3.061   3.565  0.3966 -0.0721  0.0461
 3622TIP3    H210873   2.475   2.941   3.625 -0.7430 -0.2980  0.9862
 3623TIP3   OH210874   6.071   0.475   4.925  0.5513 -0.4778 -0.2744
 3623TIP3    H110875   6.013   0.488   5.000 -0.0990 -0.4951 -0.7624
 3623TIP3    H210876   6.159   0.475   4.962  0.2795  0.2547  0.3932
 3624TIP3   OH210877   5.418   3.864   4.811  0.0668 -0.4310 -0.6107
 3624TIP3    H110878   5.410   3.802   4.884  0.2328  0.2509 -0.0117
 3624TIP3    H210879   5.328   3.880   4.784  0.0486 -1.4323 -1.2034
 3625TIP3   OH210880   2.655   4.365   3.559 -0.2958  0.4318 -0.1332
 3625TIP3    H110881   2.703   4.376   3.477 -0.5800 -1.3668 -0.5969
 3625TIP3    H210882   2.613   4.450   3.574  0.7222  1.1628 -1.2050
 3626TIP3   OH210883   4.732   4.554   0.576 -0.0001  0.3337  0.0572
 3626TIP3    H110884   4.740   4.649   0.587 -0.6262  0.5137 -0.9611
 3626TIP3    H210885   4.801   4.531   0.514 -0.4804  0.2857 -0.4699
 3627TIP3   OH210886   3.156   1.811   4.208 -1.0929 -0.5060  0.1263
 3627TIP3    H110887   3.173   1.755   4.284 -1.5712  0.6117  1.0730
 3627TIP3    H210888   3.233   1.798   4.152  0.3382  0.2798  1.7909
 3628TIP3   OH210889   1.945   0.851   5.074  0.7358  0.6102 -0.1088
 3628TIP3    H110890   1.913   0.919   5.015 -2.9660 -2.2425 -1.7758
 3628TIP3    H210891   1.942   0.891   5.161 -1.3487  2.5998 -1.0069
 3629TIP3   OH210892   1.070   0.982   2.393 -0.2790 -0.2587  0.0265
 3629TIP3    H110893   1.134   1.050   2.373  0.7073 -0.2609  2.6883
 3629TIP3    H210894   1.111   0.932   2.464 -1.0476 -3.5317 -1.6288
 3630TIP3   OH210895   2.065   2.910   3.914 -0.7566 -0.0127  0.1100
 3630TIP3    H110896   2.118   2.896   3.836 -0.7805 -1.7814  0.3740
 3630TIP3    H210897   2.004   2.979   3.890  0.3164  0.6369 -0.8688
 3631TIP3   OH210898   0.154   1.516   1.211  0.3911  0.6448  0.4243
 3631TIP3    H110899   0.185   1.497   1.123  1.6177  0.0952  0.9584
 3631TIP3    H210900   0.230   1.551   1.257 -0.0041  0.1080  1.5224
 3632TIP3   OH210901   3.483   3.138   3.164 -0.3060 -0.1282 -0.2744
 3632TIP3    H110902   3.497   3.230   3.187 -0.8639  0.2374 -1.3181
 3632TIP3    H210903   3.390   3.123   3.177 -0.5420 -0.0561 -1.6823
 3633TIP3   OH210904   1.006   3.148   1.842 -0.0605  0.3136  0.0608
 3633TIP3    H110905   1.088   3.142   1.791 -0.3432  0.9755 -0.4898
 3633TIP3    H210906   1.003   3.239   1.871 -1.2984  0.7004 -1.1481
 3634TIP3   OH210907   5.324   2.771   2.122  0.0353  0.5612  0.0385
 3634TIP3    H110908   5.407   2.773   2.073  0.4786 -3.1277  0.3610
 3634TIP3    H210909   5.350   2.783   2.213 -0.1641  2.1707 -0.0969
 3635TIP3   OH210910   3.637   5.980   1.913  0.3134  0.5536 -0.3096
 3635TIP3    H110911   3.711   5.986   1.973 -0.1323  0.2889  0.2801
 3635TIP3    H210912   3.562   6.010   1.965  0.2079  2.1991 -1.3133
 3636TIP3   OH210913   0.529   0.791   1.098  0.1659  0.0302 -0.3795
 3636TIP3    H110914   0.510   0.884   1.088  0.6733 -0.0293 -2.4073
 3636TIP3    H210915   0.452   0.746   1.064 -0.1993 -0.3196  0.8600
 3637TIP3   OH210916   0.687   5.496   0.706 -0.4638  0.2020  0.0082
 3637TIP3    H110917   0.623   5.479   0.775 -0.8571 -1.9870 -0.8378
 3637TIP3    H210918   0.762   5.536   0.753 -1.5636  0.8178  1.3162
 3638TIP3   OH210919   3.761   1.681   0.168 -0.0480  0.4384 -0.0321
 3638TIP3    H110920   3.762   1.726   0.083 -1.9687  1.0258  0.2018
 3638TIP3    H210921   3.803   1.597   0.151 -0.5866  0.4491 -1.6370
 3639TIP3   OH210922   5.796   2.283   0.099 -0.6967 -0.2349  0.1028
 3639TIP3    H110923   5.736   2.342   0.054  0.5873 -0.1525 -1.6327
 3639TIP3    H210924   5.833   2.336   0.170 -1.5963  0.1517  0.2922
 3640TIP3   OH210925   0.916   2.668   1.230 -0.3136  0.4611 -0.2978
 3640TIP3    H110926   0.932   2.633   1.318 -3.5735 -0.0547  0.2166
 3640TIP3    H210927   0.883   2.756   1.244 -0.4329  0.5430 -1.0337
 3641TIP3   OH210928   2.416   3.089   0.915 -0.1911 -0.2235  0.2411
 3641TIP3    H110929   2.328   3.065   0.886 -0.6627  1.0025  0.5877
 3641TIP3    H210930   2.425   3.181   0.890  0.4822  0.0436  1.3930
 3642TIP3   OH210931   1.919   1.460   4.018  0.0123  0.2037  0.3466
 3642TIP3    H110932   1.969   1.439   3.940  2.2606  2.8514  0.9298
 3642TIP3    H210933   1.917   1.378   4.068 -1.0300 -1.3869 -2.1547
 3643TIP3   OH210934   1.447   5.545   2.707  0.8151  0.1803  0.0118
 3643TIP3    H110935   1.409   5.501   2.783 -0.2875  0.2954 -0.4492
 3643TIP3    H210936   1.380   5.537   2.638  2.1957 -0.8225 -1.2817
 3644TIP3   OH210937   0.586   3.634   0.631  0.5309  0.0322  0.4712
 3644TIP3    H110938   0.515   3.606   0.573 -0.8715  0.8254  1.7220
 3644TIP3    H210939   0.565   3.594   0.715  1.8807 -0.1356  0.7577
 3645TIP3   OH210940   0.632   1.617   4.188  0.3689  0.2938 -0.7393
 3645TIP3    H110941   0.601   1.567   4.112 -0.1262 -0.7138  0.0972
 3645TIP3    H210942   0.720   1.645   4.164  1.3247 -2.3700 -0.6609
 3646TIP3   OH210943   4.693   2.369   4.642 -0.4532  0.4147  0.3901
 3646TIP3    H110944   4.786   2.386   4.658 -0.5996  0.7439  0.9145
 3646TIP3    H210945   4.668   2.435   4.577 -0.2323  0.0734 -0.0508
 3647TIP3   OH210946   1.263   3.269   0.627  0.6275  0.1118 -0.5806
 3647TIP3    H110947   1.339   3.248   0.573  0.7484 -1.1756  0.0532
 3647TIP3    H210948   1.299   3.319   0.700  0.9609 -0.8854 -0.0409
 3648TIP3   OH210949   4.167   2.923   2.517  0.4916  0.1331 -0.2149
 3648TIP3    H110950   4.198   2.895   2.603 -0.6060  0.2903  0.2469
 3648TIP3    H210951   4.247   2.939   2.467  1.1458 -0.2565  0.6738
 3649TIP3   OH210952   0.443   2.248   4.992 -0.2097  0.0773 -0.7274
 3649TIP3    H110953   0.443   2.294   4.908 -0.9309  0.3873 -0.5719
 3649TIP3    H210954   0.388   2.171   4.977  0.9569 -0.7322 -0.9747
 3650TIP3   OH210955   0.077   5.067   1.264 -0.4256 -0.1448 -0.2079
 3650TIP3    H110956   0.051   4.981   1.230 -0.1578 -0.2322 -0.1924
 3650TIP3    H210957   0.062   5.060   1.359 -1.1353  0.0854 -0.2964
 3651TIP3   OH210958   4.977   1.098   1.930  0.0397 -0.5323  0.2625
 3651TIP3    H110959   5.052   1.040   1.940 -0.2398 -1.0175 -0.4113
 3651TIP3    H210960   4.915   1.049   1.877 -0.9399 -0.3033  1.1456
 3652TIP3   OH210961   1.211   1.549   3.633  0.2929 -0.6892  0.0712
 3652TIP3    H110962   1.248   1.569   3.547  0.6238  0.6707  0.5107
 3652TIP3    H210963   1.145   1.617   3.647 -0.6636 -1.6429  0.3668
 3653TIP3   OH210964   1.808   1.270   3.580  0.3847  0.4236  0.0984
 3653TIP3    H110965   1.786   1.256   3.673 -2.8424 -0.2235 -0.6143
 3653TIP3    H210966   1.825   1.182   3.546  0.7126  0.5597 -0.0889
 3654TIP3   OH210967   5.834   0.222   5.036 -0.1814 -0.7067 -0.1985
 3654TIP3    H110968   5.754   0.219   5.089  0.2596 -1.8555  0.4355
 3654TIP3    H210969   5.806   0.256   4.951 -1.1971 -0.3965  0.2495
 3655TIP3   OH210970   3.740   2.740   4.759 -0.2587 -0.0013 -0.1065
 3655TIP3    H110971   3.800   2.728   4.685 -1.2975  0.2536 -1.0198
 3655TIP3    H210972   3.748   2.833   4.781  0.6825 -0.2484  0.6911
 3656TIP3   OH210973   2.627   2.073   4.562 -0.2773 -0.1719  0.2634
 3656TIP3    H110974   2.651   2.149   4.615  0.3470  1.1137 -1.7445
 3656TIP3    H210975   2.536   2.089   4.536 -1.1056 -1.5440  2.0671
 3657TIP3   OH210976   0.201   0.203   3.133 -0.2916 -0.5735 -0.0223
 3657TIP3    H110977   0.271   0.165   3.081  0.8992  0.6832  0.6045
 3657TIP3    H210978   0.137   0.234   3.069 -1.2737 -3.3825 -0.5698
 3658TIP3   OH210979   4.745   2.230   4.906 -0.1189 -0.3447 -0.3051
 3658TIP3    H110980   4.783   2.210   4.821 -1.2461 -0.1019 -0.8907
 3658TIP3    H210981   4.739   2.326   4.909 -1.3859 -0.3959 -0.5707
 3659TIP3   OH210982   2.048   4.506   0.349 -0.1138 -0.2908 -0.2574
 3659TIP3    H110983   2.112   4.577   0.352 -0.5397  0.1654 -1.3853
 3659TIP3    H210984   2.016   4.499   0.439  1.1747 -0.2201  0.2304
 3660TIP3   OH210985   2.830   0.113   1.470  0.2687 -0.5839 -0.4430
 3660TIP3    H110986   2.901   0.050   1.464  0.5737 -0.3545  0.5470
 3660TIP3    H210987   2.752   0.065   1.442  0.3943 -1.5828  0.8162
 3661TIP3   OH210988   3.116   1.668   0.564  0.6867  0.0184  0.5974
 3661TIP3    H110989   3.129   1.580   0.528  0.8079 -0.2006  1.1586
 3661TIP3    H210990   3.186   1.677   0.629 -0.0012  0.1034  1.3305
 3662TIP3   OH210991   0.964   4.296   4.314  0.6548  0.0773  0.2795
 3662TIP3    H110992   0.925   4.333   4.393  0.1297 -2.0223  1.0731
 3662TIP3    H210993   1.054   4.329   4.315  0.2791  1.1586  1.0050
 3663TIP3   OH210994   3.597   0.486   3.517  0.1052 -0.3143  0.5413
 3663TIP3    H110995   3.539   0.554   3.550 -0.8302 -0.3190 -0.9733
 3663TIP3    H210996   3.545   0.440   3.450  1.4038 -1.1831  0.0759
 3664TIP3   OH210997   3.059   0.876   1.006 -0.1679 -0.1740 -0.1514
 3664TIP3    H110998   3.141   0.907   1.046 -0.7414  1.7887 -0.4111
 3664TIP3    H210999   3.079   0.870   0.913 -0.0354 -0.7031 -0.0926
 3665TIP3   OH211000   0.299   4.963   5.153 -0.3590  0.5861 -1.0772
 3665TIP3    H111001   0.371   5.026   5.159  0.2965 -0.1422 -1.0355
 3665TIP3    H211002   0.244   4.995   5.081  0.5780  0.6004 -1.8062
 3666TIP3   OH211003   2.445   5.665   2.748  0.0577  0.7727 -0.3145
 3666TIP3    H111004   2.520   5.721   2.770 -0.2087  0.7813  0.6397
 3666TIP3    H211005   2.368   5.717   2.774 -0.1675 -0.3093  1.3488
 3667TIP3   OH211006   2.933   1.354   0.832  0.1111  0.4963  0.6256
 3667TIP3    H111007   3.027   1.336   0.833 -0.0127 -0.2054  0.5053
 3667TIP3    H211008   2.892   1.269   0.850 -0.4794  0.9712  1.6069
 3668TIP3   OH211009   0.845   0.076   4.191  0.0774  0.0382 -0.2653
 3668TIP3    H111010   0.786   0.072   4.116  0.8458  2.4750 -1.0994
 3668TIP3    H211011   0.924   0.029   4.162 -0.2823 -0.5483 -0.3034
 3669TIP3   OH211012   5.902   3.563   1.473  0.0066  0.4903  0.3563
 3669TIP3    H111013   5.966   3.634   1.476  0.1643  0.5211 -2.0400
 3669TIP3    H211014   5.817   3.606   1.465 -0.0085  0.4380  0.2216
 3670TIP3   OH211015   3.850   4.513   3.021  0.3464 -0.4159 -0.2945
 3670TIP3    H111016   3.903   4.448   3.067  0.2400 -0.3878 -0.1324
 3670TIP3    H211017   3.900   4.594   3.029  0.3178 -0.4064 -0.2106
 3671TIP3   OH211018   2.997   3.212   4.510  0.2089  0.0363 -0.0173
 3671TIP3    H111019   2.998   3.216   4.414  0.5541  0.5046 -0.0014
 3671TIP3    H211020   2.942   3.285   4.536 -0.3227 -0.4149  0.1336
 3672TIP3   OH211021   4.191   3.243   0.483  0.6618  0.1323 -0.0253
 3672TIP3    H111022   4.164   3.319   0.432  0.1429  0.8250  1.2231
 3672TIP3    H211023   4.147   3.255   0.568 -0.6325 -2.3118 -0.2802
 3673TIP3   OH211024   4.330   2.621   2.529  0.0695 -0.4092  0.1548
 3673TIP3    H111025   4.241   2.621   2.495  0.2853  1.1824 -0.4783
 3673TIP3    H211026   4.382   2.664   2.461  0.8774  0.9370  1.5668
 3674TIP3   OH211027   4.731   4.965   5.080  0.1455  0.4650  0.1367
 3674TIP3    H111028   4.646   4.921   5.079  0.2934  0.1600  0.6013
 3674TIP3    H211029   4.727   5.026   5.007 -0.1321 -0.1961 -0.4063
 3675TIP3   OH211030   3.577   2.543   1.801 -0.3963  0.2811  0.0941
 3675TIP3    H111031   3.490   2.582   1.798 -0.5898 -0.1715 -0.3512
 3675TIP3    H211032   3.563   2.451   1.774  0.4192  0.5896 -1.5257
 3676TIP3   OH211033   3.393   2.151   3.044  0.1391 -0.0303  0.2252
 3676TIP3    H111034   3.400   2.084   3.112 -1.5695 -0.0625  0.4113
 3676TIP3    H211035   3.307   2.136   3.004  0.3496  1.1244 -0.7175
 3677TIP3   OH211036   5.930   3.840   1.592 -0.2477  0.3351 -0.4109
 3677TIP3    H111037   5.845   3.843   1.637 -1.2171 -0.0961 -2.1437
 3677TIP3    H211038   5.928   3.915   1.532 -0.5810 -1.2356 -2.4321
 3678TIP3   OH211039   1.578   4.936   1.619 -0.1981 -0.5359 -0.2466
 3678TIP3    H111040   1.673   4.940   1.634 -0.3614  0.7542  0.6280
 3678TIP3    H211041   1.568   4.872   1.549  1.2493 -1.3466  0.2368
 3679TIP3   OH211042   6.154   3.490   3.535 -0.4479 -0.0831 -0.1079
 3679TIP3    H111043   6.225   3.427   3.532  0.8865  1.2334  1.6897
 3679TIP3    H211044   6.084   3.446   3.583 -0.0587 -0.6701 -0.0814
 3680TIP3   OH211045   1.377   0.151   2.363 -0.0621 -0.3628 -0.2225
 3680TIP3    H111046   1.467   0.162   2.397  0.0605 -0.6875 -0.4481
 3680TIP3    H211047   1.377   0.065   2.323 -0.8353 -0.8918  0.8851
 3681TIP3   OH211048   5.425   1.461   1.423  0.0807 -0.1474  0.3673
 3681TIP3    H111049   5.373   1.530   1.381 -0.8959 -2.2028 -2.0627
 3681TIP3    H211050   5.516   1.489   1.411 -0.2945  0.7701 -0.4554
 3682TIP3   OH211051   2.998   0.899   3.555 -0.0838  0.0388 -0.4432
 3682TIP3    H111052   3.030   0.986   3.580  1.3944 -0.3539 -0.8621
 3682TIP3    H211053   2.903   0.909   3.551 -0.2343  0.8205  2.5639
 3683TIP3   OH211054   1.101   2.520   3.294 -0.3836  0.5884 -0.0641
 3683TIP3    H111055   1.067   2.512   3.205  1.9368 -0.0554 -0.9566
 3683TIP3    H211056   1.109   2.614   3.309  0.0360  0.6799 -0.8596
 3684TIP3   OH211057   4.791   5.678   2.348 -0.2247  0.0485  0.0177
 3684TIP3    H111058   4.838   5.759   2.329  0.0010 -0.1413 -0.2377
 3684TIP3    H211059   4.737   5.663   2.271  0.3434 -0.4748 -0.2867
 3685TIP3   OH211060   4.367   4.858   2.798 -0.2295  0.1633 -0.4114
 3685TIP3    H111061   4.315   4.826   2.724  1.3222  1.9150 -2.3802
 3685TIP3    H211062   4.402   4.779   2.839  1.2759 -0.8838 -3.4010
 3686TIP3   OH211063   5.277   1.551   3.120  0.0429  0.1417 -0.0257
 3686TIP3    H111064   5.205   1.567   3.181 -0.2483  1.1176 -0.6020
 3686TIP3    H211065   5.298   1.458   3.132 -2.7294 -0.7877 -1.3180
 3687TIP3   OH211066   0.815   3.299   3.265 -0.3222 -0.1244  0.4637
 3687TIP3    H111067   0.771   3.284   3.181 -0.2022 -1.2219  0.5868
 3687TIP3    H211068   0.841   3.212   3.295  2.3713  0.4882  0.1710
 3688TIP3   OH211069   4.432   1.579   2.438 -0.0433 -0.1884 -0.4182
 3688TIP3    H111070   4.427   1.563   2.533 -0.4988 -0.1926 -0.4404
 3688TIP3    H211071   4.343   1.564   2.407 -0.1650  1.0069 -0.6675
 3689TIP3   OH211072   6.114   1.684   0.163 -0.2198  0.6191  0.0635
 3689TIP3    H111073   6.050   1.699   0.093  0.3438  0.9145 -0.4002
 3689TIP3    H211074   6.169   1.763   0.163  0.4725  0.1478  0.0914
 3690TIP3   OH211075   2.321   0.925   4.545 -0.0712 -0.0904 -0.0950
 3690TIP3    H111076   2.286   0.851   4.497  1.9743 -0.7825 -0.6481
 3690TIP3    H211077   2.248   0.958   4.597 -1.1236 -2.2737 -0.1066
 3691TIP3   OH211078   6.289   0.324   2.351  0.5540  0.2860 -0.4433
 3691TIP3    H111079   6.213   0.269   2.369 -0.4381  0.8798 -2.5190
 3691TIP3    H211080   6.355   0.263   2.316  0.4585  0.0178 -0.1609
 3692TIP3   OH211081   1.360   2.723   1.956  0.1453 -0.1893  0.2504
 3692TIP3    H111082   1.454   2.718   1.942  0.0813  0.0696 -0.3218
 3692TIP3    H211083   1.322   2.706   1.870 -0.3044  0.3867  0.3257
 3693TIP3   OH211084   3.970   2.577   3.791 -0.4509 -0.1843 -0.0145
 3693TIP3    H111085   3.899   2.551   3.850 -0.4892 -1.4146 -0.5806
 3693TIP3    H211086   3.941   2.660   3.754 -1.8526 -0.9032 -0.6111
 3694TIP3   OH211087   3.238   1.900   5.079  0.0881  0.6533  0.2727
 3694TIP3    H111088   3.327   1.903   5.114  0.2138  0.9907 -0.0664
 3694TIP3    H211089   3.187   1.853   5.145  0.8519 -0.9739 -0.2382
 3695TIP3   OH211090   5.899   1.793   1.680  0.4169 -0.1554 -0.2947
 3695TIP3    H111091   5.940   1.806   1.594 -1.6309 -0.5132 -1.3840
 3695TIP3    H211092   5.955   1.842   1.740  0.5182  2.3299 -2.2256
 3696TIP3   OH211093   0.586   3.698   0.110  0.1320 -0.0589 -0.1650
 3696TIP3    H111094   0.679   3.723   0.113  0.3308 -0.8132  0.4667
 3696TIP3    H211095   0.575   3.655   0.026  0.5798 -0.7514  0.1191
 3697TIP3   OH211096   2.868   1.043   1.166  0.0646  0.2832  0.0036
 3697TIP3    H111097   2.927   0.983   1.119  0.3077 -0.0687  0.7450
 3697TIP3    H211098   2.900   1.041   1.256 -0.8798  0.3505  0.3459
 3698TIP3   OH211099   1.255   0.566   2.898 -0.2768  0.1710  0.0799
 3698TIP3    H111100   1.181   0.538   2.844  0.2483  0.7149 -0.9603
 3698TIP3    H211101   1.238   0.528   2.984 -1.7276  0.2411 -0.1551
 3699TIP3   OH211102   4.424   4.363   3.565  0.1142 -0.4401  0.5658
 3699TIP3    H111103   4.356   4.345   3.500  1.1393  0.0731 -0.6957
 3699TIP3    H211104   4.388   4.330   3.647 -1.0972 -1.3796 -0.3046
 3700TIP3   OH211105   4.444   3.270   0.342 -0.2689 -0.2406 -0.4348
 3700TIP3    H111106   4.354   3.252   0.371  0.4856 -1.4056  1.3949
 3700TIP3    H211107   4.435   3.340   0.278 -2.4727 -0.2767 -0.2484
 3701TIP3   OH211108   5.165   0.390   4.372 -0.3279 -0.5606 -0.2901
 3701TIP3    H111109   5.147   0.480   4.346  2.7502  0.1809 -0.2286
 3701TIP3    H211110   5.108   0.375   4.448 -0.5374  1.5272  0.0251
 3702TIP3   OH211111   0.091   5.814   4.297  0.6476 -0.2448 -0.1349
 3702TIP3    H111112   0.175   5.822   4.253  0.9171  0.2435  0.4597
 3702TIP3    H211113   0.057   5.904   4.301 -0.7893 -0.6281 -2.0579
 3703TIP3   OH211114   1.203   4.438   0.515 -0.0273 -0.2918  0.2640
 3703TIP3    H111115   1.269   4.502   0.541 -0.1409 -0.7448  1.8092
 3703TIP3    H211116   1.121   4.474   0.547 -0.4620  0.0010 -1.1547
 3704TIP3   OH211117   2.612   4.130   3.349 -0.2137 -0.0726 -0.0575
 3704TIP3    H111118   2.536   4.122   3.292  0.5722 -0.8702 -1.0417
 3704TIP3    H211119   2.600   4.062   3.415 -1.0060  0.6965  0.6272
 3705TIP3   OH211120   2.988   4.402   4.158  0.1026  0.0899 -0.0658
 3705TIP3    H111121   2.971   4.310   4.180 -0.7219  0.5743  1.4615
 3705TIP3    H211122   3.076   4.419   4.190  0.4035 -0.2450 -0.6854
 3706TIP3   OH211123   0.774   2.309   1.172 -0.9312  0.0181 -0.2565
 3706TIP3    H111124   0.718   2.370   1.220  0.2235 -0.2767  1.5345
 3706TIP3    H211125   0.848   2.362   1.144 -1.2313  0.0151 -1.0885
 3707TIP3   OH211126   4.995   0.224   2.019 -0.2204 -0.0123 -0.3276
 3707TIP3    H111127   4.950   0.272   1.949 -1.3375  0.3747  0.6286
 3707TIP3    H211128   4.997   0.133   1.987 -0.7333  0.1546 -0.8643
 3708TIP3   OH211129   4.376   5.045   5.197 -0.0427 -0.1538 -0.4997
 3708TIP3    H111130   4.357   5.007   5.111 -0.3523 -0.2012 -0.4105
 3708TIP3    H211131   4.435   5.118   5.178  1.6781 -1.4992 -0.5493
 3709TIP3   OH211132   1.818   0.589   0.819  0.2614 -0.3072 -0.0771
 3709TIP3    H111133   1.771   0.552   0.745 -0.2365 -2.1716  1.1002
 3709TIP3    H211134   1.899   0.624   0.781 -0.2397 -0.6897 -1.5569
 3710TIP3   OH211135   5.033   4.533   0.593 -0.2172 -0.0682 -0.4534
 3710TIP3    H111136   5.056   4.623   0.615  2.9854 -1.0578  0.8207
 3710TIP3    H211137   4.971   4.506   0.660 -0.9073  1.0350 -0.6304
 3711TIP3   OH211138   4.610   5.955   4.866 -0.5373  1.0345  0.0389
 3711TIP3    H111139   4.647   6.037   4.832 -0.3173  1.1912  0.6517
 3711TIP3    H211140   4.599   5.901   4.788  1.1265  0.9254 -0.1737
 3712TIP3   OH211141   5.971   0.456   2.321  0.1254  0.0090 -0.1861
 3712TIP3    H111142   6.060   0.473   2.351  0.0695  1.1606 -0.6265
 3712TIP3    H211143   5.981   0.426   2.231 -0.0120  1.7078 -0.7859
 3713TIP3   OH211144   2.376   4.428   2.303  0.0584  0.0708  0.1848
 3713TIP3    H111145   2.321   4.492   2.258 -1.2782 -0.3514  1.1294
 3713TIP3    H211146   2.451   4.478   2.335 -0.1992  0.8426 -0.3864
 3714TIP3   OH211147   2.428   5.819   3.343  0.3816 -0.1366 -0.1543
 3714TIP3    H111148   2.418   5.895   3.400  0.2224  0.4244 -0.9018
 3714TIP3    H211149   2.495   5.765   3.386 -1.1960 -0.7749  1.6044
 3715TIP3   OH211150   0.678   3.716   2.007  0.6138  0.2143 -0.4371
 3715TIP3    H111151   0.773   3.719   1.995  0.8788 -1.8569  0.7398
 3715TIP3    H211152   0.662   3.770   2.084  0.7468  1.0085 -0.9521
 3716TIP3   OH211153   5.850   2.249   1.959  0.0314 -0.1928  0.8713
 3716TIP3    H111154   5.901   2.303   1.899  0.9874 -0.8033  1.1189
 3716TIP3    H211155   5.794   2.197   1.902  0.1879 -0.0260  0.5614
 3717TIP3   OH211156   4.887   3.231   0.077  0.3311  0.2568 -0.2176
 3717TIP3    H111157   4.815   3.225   0.140  0.5565  0.7510  0.0938
 3717TIP3    H211158   4.956   3.277   0.124  1.2994 -1.2261 -0.1239
 3718TIP3   OH211159   1.078   1.680   4.729  0.4330 -0.1952  0.6640
 3718TIP3    H111160   1.165   1.717   4.738  0.2419  0.7265 -0.9609
 3718TIP3    H211161   1.092   1.586   4.716  1.2629  0.0832 -0.6073
 3719TIP3   OH211162   6.172   0.320   3.122  0.1646 -0.1158  0.1307
 3719TIP3    H111163   6.231   0.390   3.149  0.0618 -0.0138  0.0943
 3719TIP3    H211164   6.217   0.279   3.047 -0.3655  0.7537 -0.6893
 3720TIP3   OH211165   1.913   3.405   0.303  0.0839  0.5598  0.3157
 3720TIP3    H111166   1.841   3.459   0.336 -0.9737 -0.6577  0.1141
 3720TIP3    H211167   1.927   3.435   0.213 -1.8947 -0.7770 -0.5160
 3721TIP3   OH211168   0.668   4.074   3.424 -0.4641 -0.0112  0.1399
 3721TIP3    H111169   0.698   4.037   3.507  1.6298 -0.6734 -0.8383
 3721TIP3    H211170   0.710   4.161   3.421 -0.5842  0.0337 -0.1947
 3722TIP3   OH211171   0.843   3.191   1.581 -0.1004 -0.0253  0.3077
 3722TIP3    H111172   0.895   3.223   1.654 -0.5904  1.3748  0.0747
 3722TIP3    H211173   0.791   3.267   1.553 -0.9788 -0.9183 -0.5696
 3723TIP3   OH211174   3.062   0.722   3.338 -0.2390 -0.1224  0.7151
 3723TIP3    H111175   3.054   0.774   3.417 -1.6901 -0.6399  0.9535
 3723TIP3    H211176   3.070   0.632   3.369  1.2161 -0.1599  0.2921
 3724TIP3   OH211177   5.800   5.707   3.858 -0.0525  0.3560  0.1855
 3724TIP3    H111178   5.765   5.790   3.890 -1.2020  0.0836 -0.3112
 3724TIP3    H211179   5.878   5.732   3.809 -0.4401  1.1677 -0.0454
 3725TIP3   OH211180   2.455   4.817   0.251 -0.7437  0.2893 -0.5502
 3725TIP3    H111181   2.430   4.889   0.194  0.3985  0.2222 -1.1432
 3725TIP3    H211182   2.547   4.801   0.233 -0.0106  0.9783  2.0812
 3726TIP3   OH211183   0.295   5.782   4.091  0.3656 -0.7261  0.2773
 3726TIP3    H111184   0.382   5.788   4.130  1.0317  0.5874 -1.2620
 3726TIP3    H211185   0.301   5.707   4.032  1.0513  0.3396 -1.0750
 3727TIP3   OH211186   3.056   5.229   4.571 -0.4737  0.1653 -0.4998
 3727TIP3    H111187   3.078   5.137   4.555 -0.3757 -0.1260  1.1263
 3727TIP3    H211188   3.062   5.271   4.485 -1.2512 -1.4922 -1.4031
 3728TIP3   OH211189   2.609   3.216   4.801  0.1299 -0.1274  0.4048
 3728TIP3    H111190   2.594   3.176   4.715 -0.0987  0.6296  0.0830
 3728TIP3    H211191   2.686   3.169   4.835  0.4010 -0.2476 -0.3357
 3729TIP3   OH211192   1.627   3.233   0.175  0.5421  0.3013 -0.3841
 3729TIP3    H111193   1.532   3.229   0.185  0.5841  1.8703  1.1086
 3729TIP3    H211194   1.660   3.166   0.235  0.3886  0.2017 -0.4107
 3730TIP3   OH211195   1.966   1.943   2.815  0.5551 -0.2447  0.7414
 3730TIP3    H111196   1.987   2.032   2.788  0.8798 -1.1391 -2.3506
 3730TIP3    H211197   2.044   1.912   2.861  0.4967  0.9555  1.7002
 3731TIP3   OH211198   4.858   2.656   3.987  0.3724  0.9482 -0.1975
 3731TIP3    H111199   4.893   2.702   3.911 -1.7922  0.7285 -1.3983
 3731TIP3    H211200   4.848   2.565   3.957 -0.0349  0.7515  0.5153
 3732TIP3   OH211201   5.256   2.534   5.103 -0.1578 -0.4455 -0.0190
 3732TIP3    H111202   5.191   2.508   5.038  0.3095 -0.7461 -0.3768
 3732TIP3    H211203   5.205   2.567   5.177 -0.7181 -0.9334 -0.1807
 3733TIP3   OH211204   3.064   0.232   2.697 -1.1220 -0.5615 -0.2651
 3733TIP3    H111205   3.116   0.188   2.630 -1.8193 -0.6090 -0.7842
 3733TIP3    H211206   2.989   0.174   2.711 -1.4247 -0.1293 -0.0674
 3734TIP3   OH211207   4.197   4.130   4.828 -0.3207  0.1422  0.3765
 3734TIP3    H111208   4.161   4.079   4.901 -0.5044  0.8539  0.7833
 3734TIP3    H211209   4.231   4.063   4.768  1.8671 -0.4366  2.1077
 3735TIP3   OH211210   0.957   1.028   1.294  0.4010  0.7899 -0.3617
 3735TIP3    H111211   0.960   1.112   1.340  0.2057  1.1141 -0.9328
 3735TIP3    H211212   0.930   0.965   1.362 -0.7453  1.3972 -0.2174
 3736TIP3   OH211213   5.003   0.130   3.565 -0.2460 -0.7029 -0.6065
 3736TIP3    H111214   5.059   0.100   3.636 -1.6538  0.7869  1.2497
 3736TIP3    H211215   5.053   0.200   3.523 -0.9354  1.2853  1.6486
 3737TIP3   OH211216   3.685   2.706   0.146 -0.3073 -0.5482 -0.0004
 3737TIP3    H111217   3.712   2.635   0.089  0.0894 -2.0834  1.9829
 3737TIP3    H211218   3.625   2.665   0.209  1.5347  0.3280  2.4977
 3738TIP3   OH211219   0.426   0.374   1.058  0.4134 -0.1319 -0.1189
 3738TIP3    H111220   0.364   0.338   1.122  1.1111 -0.6287  0.2872
 3738TIP3    H211221   0.489   0.423   1.110  0.7165 -0.1428 -0.4714
 3739TIP3   OH211222   3.305   0.973   0.711  0.2794  0.3264 -0.5932
 3739TIP3    H111223   3.288   1.025   0.790 -0.3448  1.4319 -1.4406
 3739TIP3    H211224   3.223   0.927   0.695  0.7322 -0.7079 -0.0243
 3740TIP3   OH211225   6.200   4.595   5.063  0.0010 -0.5458 -0.3565
 3740TIP3    H111226   6.157   4.649   4.997 -0.9408 -0.8555 -0.0010
 3740TIP3    H211227   6.293   4.602   5.042 -0.0841  1.2138 -0.3208
 3741TIP3   OH211228   2.047   1.216   1.595 -0.2561  0.1847  0.1990
 3741TIP3    H111229   2.055   1.213   1.690  0.4391  0.0633  0.1389
 3741TIP3    H211230   2.036   1.125   1.569 -1.4403  0.3014  0.2374
 3742TIP3   OH211231   1.210   5.281   3.490  0.5824  0.1322  0.1160
 3742TIP3    H111232   1.194   5.214   3.556 -0.0869 -0.4580 -0.6276
 3742TIP3    H211233   1.249   5.354   3.539  1.2863 -0.7752  0.9416
 3743TIP3   OH211234   3.220   4.097   3.328 -0.1208  0.3095  0.0515
 3743TIP3    H111235   3.176   4.014   3.309  0.9513 -0.4283  0.6871
 3743TIP3    H211236   3.149   4.158   3.343 -0.9632 -0.0723 -2.0339
 3744TIP3   OH211237   2.684   3.705   0.261 -0.0376 -0.3591  0.8164
 3744TIP3    H111238   2.597   3.737   0.286  0.1301 -1.2684  2.8261
 3744TIP3    H211239   2.710   3.650   0.335  2.7977  0.8845  0.8471
 3745TIP3   OH211240   3.703   1.207   2.416 -0.3666 -0.6410 -0.2345
 3745TIP3    H111241   3.717   1.155   2.336 -2.0635 -0.3254 -0.7692
 3745TIP3    H211242   3.788   1.248   2.432 -0.5318  1.2513 -3.3031
 3746TIP3   OH211243   0.190   1.122   3.903 -0.6436 -0.3080 -0.0253
 3746TIP3    H111244   0.209   1.061   3.831 -0.2336 -0.5465  0.2793
 3746TIP3    H211245   0.095   1.118   3.913 -0.6990 -0.2958 -0.5342
 3747TIP3   OH211246   0.695   3.502   0.271 -0.1455 -0.4072  0.2028
 3747TIP3    H111247   0.685   3.415   0.234  0.2142 -0.3270 -0.0895
 3747TIP3    H211248   0.637   3.557   0.218 -0.8085 -0.5687  0.7539
 3748TIP3   OH211249   1.896   2.180   3.673 -0.8877  0.0443  0.4291
 3748TIP3    H111250   1.966   2.115   3.664 -1.1629 -0.3984  1.3243
 3748TIP3    H211251   1.940   2.258   3.706 -0.4628  0.5201 -1.1795
 3749TIP3   OH211252   2.287   2.545   3.966 -0.3083  0.3470  0.4576
 3749TIP3    H111253   2.332   2.592   4.036  0.2881  0.9168 -0.2885
 3749TIP3    H211254   2.325   2.457   3.969  0.3459  0.6155  0.3094
 3750TIP3   OH211255   2.252   3.152   4.414 -0.0584 -0.0136  0.3539
 3750TIP3    H111256   2.179   3.138   4.353 -0.4928  1.5463  0.4744
 3750TIP3    H211257   2.324   3.101   4.377 -0.2611  1.0126 -1.5792
 3751TIP3   OH211258   2.034   0.227   0.464  0.0237 -0.3360 -0.6086
 3751TIP3    H111259   2.073   0.245   0.379  0.1065 -1.1050 -0.7329
 3751TIP3    H211260   1.946   0.196   0.444 -0.0120 -0.3700 -0.4018
 3752TIP3   OH211261   5.984   3.600   4.994 -0.5548  0.3537  0.2329
 3752TIP3    H111262   6.018   3.565   4.912 -2.2691 -1.5819  0.2782
 3752TIP3    H211263   5.893   3.623   4.975 -1.1055 -0.5188  1.6486
 3753TIP3   OH211264   5.547   2.081   2.113  0.8346 -0.1360  0.1603
 3753TIP3    H111265   5.512   2.000   2.151 -0.0129 -0.0736 -0.4673
 3753TIP3    H211266   5.616   2.052   2.055  0.2174 -0.4570 -0.4242
 3754TIP3   OH211267   4.521   5.095   3.038 -0.0175 -0.0219 -0.2534
 3754TIP3    H111268   4.598   5.113   3.092 -0.7094 -1.8745  1.4789
 3754TIP3    H211269   4.555   5.056   2.958  0.8830 -0.5312  0.3615
 3755TIP3   OH211270   2.797   5.504   4.551  0.5090  0.3408  0.5464
 3755TIP3    H111271   2.828   5.592   4.571 -1.2805  0.7737  1.5407
 3755TIP3    H211272   2.780   5.464   4.636  0.1290 -0.5309  0.0720
 3756TIP3   OH211273   3.319   2.112   4.583 -0.4626 -0.1196 -0.2525
 3756TIP3    H111274   3.253   2.051   4.617  0.3229 -0.6070  0.4226
 3756TIP3    H211275   3.291   2.128   4.493 -1.0954 -0.8989 -0.2161
 3757TIP3   OH211276   4.320   1.251   2.982  0.0212  0.3230  0.0420
 3757TIP3    H111277   4.415   1.240   2.971 -0.0288  0.3642 -0.4991
 3757TIP3    H211278   4.288   1.165   3.006 -0.0619 -0.2110 -1.8089
 3758TIP3   OH211279   0.905   4.164   0.888  0.1050  0.1252  0.3203
 3758TIP3    H111280   0.830   4.212   0.852 -0.5947 -1.4936 -0.5011
 3758TIP3    H211281   0.874   4.131   0.973  0.7904  1.5652  1.1671
 3759TIP3   OH211282   2.947   5.702   0.674  0.3835 -0.3296 -0.2909
 3759TIP3    H111283   2.962   5.662   0.588  2.3824 -0.3984  0.0466
 3759TIP3    H211284   3.023   5.757   0.688  0.0375 -0.2557  1.4186
 3760TIP3   OH211285   5.939   4.518   2.779 -0.2958  0.2777 -0.6669
 3760TIP3    H111286   5.911   4.595   2.828 -0.0465 -0.8147  1.2855
 3760TIP3    H211287   5.909   4.444   2.831  2.2282 -0.9401 -0.7754
 3761TIP3   OH211288   3.615   1.015   1.531 -0.5798 -0.0474  0.1293
 3761TIP3    H111289   3.575   1.094   1.567  0.5428  0.0402  1.2660
 3761TIP3    H211290   3.609   1.026   1.437  1.3052  2.3734  0.1807
 3762TIP3   OH211291   0.972   4.037   2.405  0.0854  0.1501  0.0154
 3762TIP3    H111292   0.962   4.062   2.497 -0.0937  1.1395 -0.2639
 3762TIP3    H211293   1.056   4.074   2.379 -0.2500  0.5878 -0.4446
 3763TIP3   OH211294   3.465   3.176   4.371  0.1737 -0.0758 -0.0675
 3763TIP3    H111295   3.439   3.114   4.440 -1.1373 -0.1531 -0.5984
 3763TIP3    H211296   3.471   3.260   4.415 -0.5098 -0.1536  0.1861
 3764TIP3   OH211297  -0.012   3.864   4.796  0.2049  0.2733 -0.0878
 3764TIP3    H111298   0.040   3.817   4.862  0.3358  0.5979  0.0413
 3764TIP3    H211299   0.006   3.818   4.714 -0.2234 -0.3457  0.1592
 3765TIP3   OH211300   3.701   5.034   4.515 -0.3837  0.0581  0.1257
 3765TIP3    H111301   3.649   5.097   4.465 -0.0774  0.5082  0.3716
 3765TIP3    H211302   3.750   4.985   4.449  1.0035  1.5121  0.0427
 3766TIP3   OH211303   1.324   1.478   1.261 -0.2429 -0.5323  0.1366
 3766TIP3    H111304   1.253   1.485   1.324 -1.3343 -1.0966 -0.9790
 3766TIP3    H211305   1.335   1.384   1.247 -0.0774 -0.4203 -0.5646
 3767TIP3   OH211306   2.261   5.238   3.393 -0.2267  0.4624 -0.1493
 3767TIP3    H111307   2.259   5.331   3.419 -0.2532  0.7890 -1.2732
 3767TIP3    H211308   2.171   5.209   3.403  0.0035  0.1753  1.4492
 3768TIP3   OH211309   4.497   5.364   2.789  0.1682  0.1686  0.2076
 3768TIP3    H111310   4.448   5.414   2.854 -0.9206 -1.0580  0.3875
 3768TIP3    H211311   4.585   5.355   2.826 -0.5485 -0.9001  1.7800
 3769TIP3   OH211312   2.881   4.664   4.118  0.2097  0.5001 -0.0971
 3769TIP3    H111313   2.923   4.580   4.100 -1.7267 -0.2745 -1.3708
 3769TIP3    H211314   2.805   4.641   4.173 -0.8925  1.2457 -1.2493
 3770TIP3   OH211315   5.747   0.918   0.731  0.8286 -0.2912  0.4669
 3770TIP3    H111316   5.836   0.882   0.723  1.0166  0.0837  0.8201
 3770TIP3    H211317   5.733   0.964   0.648  0.2576 -1.8687 -0.3458
 3771TIP3   OH211318   1.520   5.393   0.175 -0.0716  0.2621  0.2832
 3771TIP3    H111319   1.518   5.473   0.228  1.6669 -0.0885  0.9699
 3771TIP3    H211320   1.547   5.422   0.088  0.0554  0.4912  0.3975
 3772TIP3   OH211321   6.223   3.801   0.050  0.0498 -0.2408 -0.4064
 3772TIP3    H111322   6.260   3.748   0.120  0.3510  0.8830  0.3145
 3772TIP3    H211323   6.290   3.866   0.031 -1.1399  1.2505  0.2772
 3773TIP3   OH211324   0.611   2.855   0.584 -0.0606  0.4073 -0.0887
 3773TIP3    H111325   0.545   2.791   0.557  0.8667 -1.1227  1.0972
 3773TIP3    H211326   0.601   2.861   0.679  2.1538 -0.6895  0.2720
 3774TIP3   OH211327   3.731   1.470   3.242 -0.6161  0.0148 -0.0594
 3774TIP3    H111328   3.802   1.406   3.240 -0.4820  0.1842 -0.6941
 3774TIP3    H211329   3.697   1.464   3.331 -0.0033 -0.2826  0.1625
 3775TIP3   OH211330   0.848   3.295   2.635 -0.2592  0.0101 -0.1275
 3775TIP3    H111331   0.843   3.367   2.571 -0.2052 -0.6434 -0.8811
 3775TIP3    H211332   0.851   3.216   2.581 -0.2362 -0.5542  0.6962
 3776TIP3   OH211333   3.668   0.610   0.912 -0.4234 -0.5820  0.2609
 3776TIP3    H111334   3.728   0.679   0.885 -1.3555 -0.0061 -0.3992
 3776TIP3    H211335   3.722   0.531   0.916  0.3611 -0.0946 -0.3726
 3777TIP3   OH211336   4.400   0.921   4.183  0.1300  0.4690  0.8387
 3777TIP3    H111337   4.365   0.834   4.201  0.0805  0.3319  0.1035
 3777TIP3    H211338   4.472   0.906   4.121  1.3191  0.7663  2.1047
 3778TIP3   OH211339   0.178   5.052   2.309  0.5906  0.4734  0.5676
 3778TIP3    H111340   0.222   5.021   2.230  0.3045  0.0390  0.5754
 3778TIP3    H211341   0.086   5.030   2.295  0.6030  0.0028  1.2103
 3779TIP3   OH211342   4.228   4.452   2.138  0.5971 -0.1335 -0.4983
 3779TIP3    H111343   4.164   4.506   2.184  0.3237 -1.3423  0.5851
 3779TIP3    H211344   4.246   4.380   2.198  1.7315 -0.7002 -1.4848
 3780TIP3   OH211345   4.862   1.534   5.177  0.2372 -0.2089 -0.0621
 3780TIP3    H111346   4.838   1.501   5.091  0.0405 -0.4261  0.0761
 3780TIP3    H211347   4.876   1.628   5.163  1.9079 -0.5187 -0.6922
 3781TIP3   OH211348   1.690   0.685   2.376 -0.2360  0.5769  0.8482
 3781TIP3    H111349   1.651   0.621   2.316 -0.8484  1.0903  0.6958
 3781TIP3    H211350   1.727   0.752   2.319 -0.4147  0.8339  1.0325
 3782TIP3   OH211351   0.700   2.080   0.977 -0.4916 -0.0050  0.1332
 3782TIP3    H111352   0.722   2.090   1.070  0.7949  0.0590 -0.1494
 3782TIP3    H211353   0.679   1.987   0.967  1.0660 -0.3943  0.1865
 3783TIP3   OH211354   2.072   3.823   3.973  0.7023  0.1083  0.2083
 3783TIP3    H111355   1.980   3.828   3.947  0.1455  0.3011  2.0682
 3783TIP3    H211356   2.083   3.735   4.009  0.7458  0.6581  1.6238
 3784TIP3   OH211357   4.711   4.808   0.680  0.1900  0.1584  0.6176
 3784TIP3    H111358   4.640   4.831   0.740  0.4991  0.0128  1.0438
 3784TIP3    H211359   4.726   4.888   0.629 -1.7068 -0.4059 -0.9642
 3785TIP3   OH211360   5.753   5.214   4.113 -0.0425  0.0542  0.7176
 3785TIP3    H111361   5.799   5.255   4.186  2.0057 -1.7204  0.5344
 3785TIP3    H211362   5.668   5.189   4.148  0.2481  0.7621  1.9846
 3786TIP3   OH211363   6.126   3.033   1.709 -1.1061  0.0469 -0.0739
 3786TIP3    H111364   6.179   3.051   1.787 -0.4901 -1.5518 -0.0863
 3786TIP3    H211365   6.129   3.115   1.659  0.9233  0.1888  0.1798
 3787TIP3   OH211366   1.930   4.334   4.865  0.5742 -0.2042  0.4547
 3787TIP3    H111367   1.983   4.332   4.945  1.0331  1.7218  0.2464
 3787TIP3    H211368   1.840   4.324   4.897  0.6265  1.8141  1.4053
 3788TIP3   OH211369   0.276   0.114   0.972  0.4261  0.4195 -0.1275
 3788TIP3    H111370   0.256   0.184   0.909 -0.6539  0.5973  0.3947
 3788TIP3    H211371   0.219   0.132   1.047 -0.0628 -1.1794 -0.0887
 3789TIP3   OH211372   5.956   3.228   4.806  0.7407  0.1777 -0.2836
 3789TIP3    H111373   5.897   3.249   4.878 -0.7599  1.2060 -1.7376
 3789TIP3    H211374   6.022   3.297   4.808  3.9188 -2.5128  3.1775
 3790TIP3   OH211375   3.939   0.283   0.011  0.3909 -0.2247  0.5312
 3790TIP3    H111376   3.917   0.241   0.094  1.0483  1.2207  1.4577
 3790TIP3    H211377   3.854   0.296  -0.032 -0.0937  0.3932  1.6564
 3791TIP3   OH211378   6.055   0.324   2.659 -0.2963 -0.7333  0.5708
 3791TIP3    H111379   6.038   0.340   2.752 -0.0184 -1.2855  0.7245
 3791TIP3    H211380   6.096   0.404   2.628 -0.6781 -0.4280  0.8490
 3792TIP3   OH211381   5.990   1.614   4.343  0.3254  0.1258 -0.0580
 3792TIP3    H111382   6.026   1.584   4.426  0.7893  1.3359  0.1985
 3792TIP3    H211383   5.898   1.587   4.345  0.6523 -1.0267  0.2510
 3793TIP3   OH211384   2.914   0.040   0.155 -0.2054  0.5399 -0.1907
 3793TIP3    H111385   2.875  -0.042   0.184 -0.3126  0.1413 -1.3901
 3793TIP3    H211386   3.002   0.040   0.191 -0.6908  0.6080  1.0523
 3794TIP3   OH211387   0.965   3.970   3.838 -0.4442  0.2315 -0.4365
 3794TIP3    H111388   0.992   3.888   3.798 -0.1837 -0.0807  0.3691
 3794TIP3    H211389   0.998   3.966   3.927 -0.5908  1.1328 -0.3285
 3795TIP3   OH211390   2.110   5.119   3.684  0.2449 -0.5802  0.3967
 3795TIP3    H111391   2.171   5.045   3.686  0.4178 -0.4483  0.1121
 3795TIP3    H211392   2.164   5.195   3.705  0.1026 -0.5085  0.5104
 3796TIP3   OH211393   1.833   4.202   2.401 -0.4268  0.3659 -0.1860
 3796TIP3    H111394   1.894   4.213   2.474 -0.9835  1.5917  0.1191
 3796TIP3    H211395   1.781   4.125   2.425  0.3609 -0.1168  0.0039
 3797TIP3   OH211396   2.202   5.411   0.246  0.0074  0.2793 -0.3767
 3797TIP3    H111397   2.247   5.393   0.328 -0.2179 -1.4434 -0.5993
 3797TIP3    H211398   2.225   5.502   0.225  1.8116  0.0518  0.4736
 3798TIP3   OH211399   1.107   2.139   0.518  0.0929 -0.6183 -0.0355
 3798TIP3    H111400   1.165   2.192   0.464  1.2703 -1.5619  0.2685
 3798TIP3    H211401   1.019   2.168   0.494  0.6934  1.4453  0.1215
 3799TIP3   OH211402   3.360   4.695   0.060  0.7358 -0.0527  0.2167
 3799TIP3    H111403   3.292   4.662   0.001  0.8187  1.1071 -0.5746
 3799TIP3    H211404   3.316   4.705   0.144  0.7643 -2.3013  0.5542
 3800TIP3   OH211405   3.283   4.565   2.934 -0.5973 -0.3771 -0.3954
 3800TIP3    H111406   3.377   4.586   2.932 -0.5937  0.0703  1.8767
 3800TIP3    H211407   3.277   4.477   2.897  0.3160  0.6694 -3.2713
 3801TIP3   OH211408   5.150   1.054   2.725 -0.2889  0.4016 -0.5458
 3801TIP3    H111409   5.138   1.033   2.818  1.2782  0.3198 -0.3455
 3801TIP3    H211410   5.185   1.143   2.725 -1.5413  0.9257 -1.1488
 3802TIP3   OH211411   3.781   1.698   0.443  0.2284  0.4420  0.0541
 3802TIP3    H111412   3.733   1.686   0.361  1.7390  0.7174 -0.9081
 3802TIP3    H211413   3.801   1.609   0.472 -0.4581  0.3395  0.2096
 3803TIP3   OH211414   5.146   1.752   4.003 -0.3751 -0.1421  0.0701
 3803TIP3    H111415   5.125   1.761   3.910 -0.1578  2.2186  0.1752
 3803TIP3    H211416   5.235   1.719   4.005 -0.0750  0.5999 -0.6092
 3804TIP3   OH211417   5.552   4.829   1.056  0.0274  0.5342  0.1505
 3804TIP3    H111418   5.472   4.803   1.101  1.4389 -0.4020  2.3079
 3804TIP3    H211419   5.548   4.787   0.971 -2.3296  1.5705 -0.3109
 3805TIP3   OH211420   1.622   5.332   4.836 -0.4862 -0.1211 -0.2496
 3805TIP3    H111421   1.540   5.354   4.882  0.0772  1.3788  0.0967
 3805TIP3    H211422   1.602   5.348   4.743 -0.7052 -0.1918 -0.2171
 3806TIP3   OH211423   5.105   1.643   3.523  0.1441 -0.0653 -0.9064
 3806TIP3    H111424   5.148   1.709   3.469 -0.5021  0.1474 -1.1710
 3806TIP3    H211425   5.089   1.570   3.462 -0.5546  0.1605 -0.9930
 3807TIP3   OH211426   3.387   2.980   4.570  0.3855 -0.5751 -0.1576
 3807TIP3    H111427   3.450   2.953   4.636 -1.1706 -1.4517  1.0192
 3807TIP3    H211428   3.322   3.032   4.617  0.4107  0.6709 -1.4141
 3808TIP3   OH211429   6.210   5.956   3.432 -0.0873 -0.1137  0.5064
 3808TIP3    H111430   6.289   5.951   3.379 -1.3222  0.3925 -1.4646
 3808TIP3    H211431   6.233   6.014   3.505  0.8791  1.4262 -0.9514
 3809TIP3   OH211432   1.450   1.539   3.743  0.0443 -0.1103 -0.4837
 3809TIP3    H111433   1.360   1.548   3.712 -0.1787 -0.1684  0.1324
 3809TIP3    H211434   1.465   1.444   3.744 -0.2982 -0.1650  0.5394
 3810TIP3   OH211435   6.090   0.731   4.323  0.2235  0.1783  0.6515
 3810TIP3    H111436   6.056   0.654   4.368  2.4182 -0.8063  0.7785
 3810TIP3    H211437   6.130   0.784   4.392 -0.0128  0.7313  0.3749
 3811TIP3   OH211438   4.473   1.637   0.160 -0.4200 -0.2222  0.1904
 3811TIP3    H111439   4.451   1.556   0.113  0.4705 -0.4306  0.1193
 3811TIP3    H211440   4.405   1.699   0.134 -0.7524 -0.7630 -0.2473
 3812TIP3   OH211441   3.850   2.572   0.961 -0.4072 -0.7967  0.1392
 3812TIP3    H111442   3.759   2.599   0.968 -0.3983  0.1012 -2.1988
 3812TIP3    H211443   3.847   2.483   0.926 -0.4105 -0.5714 -0.4502
 3813TIP3   OH211444   0.950   5.023   4.345 -0.3072  0.1403  0.3576
 3813TIP3    H111445   1.040   5.033   4.377 -0.0747 -0.7265 -0.0129
 3813TIP3    H211446   0.939   4.929   4.332 -0.9851  0.3160 -0.4197
 3814TIP3   OH211447   1.325   1.457   3.123  0.3253 -1.0151  0.2835
 3814TIP3    H111448   1.336   1.362   3.124  0.5857 -0.9826  0.7922
 3814TIP3    H211449   1.412   1.491   3.099  0.9529 -0.8229  2.5890
 3815TIP3   OH211450   2.783   3.903   0.101  0.3431 -0.6349  0.0797
 3815TIP3    H111451   2.824   3.963   0.163  3.8145  0.2161 -2.7136
 3815TIP3    H211452   2.734   3.842   0.156 -2.2738  3.7171  3.2243
 3816TIP3   OH211453   2.449   1.167   4.639  0.6399 -0.0623 -0.1447
 3816TIP3    H111454   2.445   1.112   4.561  0.0711  1.4946 -1.2780
 3816TIP3    H211455   2.380   1.232   4.626  0.2640 -0.0089  1.8756
 3817TIP3   OH211456   4.976   5.173   2.676 -0.2765 -0.5427  0.0803
 3817TIP3    H111457   5.047   5.155   2.615 -0.2318 -0.3835  0.0862
 3817TIP3    H211458   5.017   5.222   2.747 -0.1877 -1.2828  0.5606
 3818TIP3   OH211459   5.252   0.579   2.448  0.3811 -0.5926 -0.1151
 3818TIP3    H111460   5.333   0.538   2.478  0.4176 -0.9559 -0.7025
 3818TIP3    H211461   5.249   0.662   2.497  2.2840  0.5177 -1.7236
 3819TIP3   OH211462   4.641   0.083   5.076  0.0570  0.0270  0.6094
 3819TIP3    H111463   4.729   0.051   5.057  0.4549  1.0989  0.5410
 3819TIP3    H211464   4.597   0.085   4.990  0.6903  1.5148  0.2888
 3820TIP3   OH211465   3.725   5.562   1.597  0.1601  0.4104 -0.0920
 3820TIP3    H111466   3.749   5.639   1.546  0.2626  0.1812 -0.3945
 3820TIP3    H211467   3.672   5.596   1.669 -0.4208  0.6827 -0.6442
 3821TIP3   OH211468   2.604   5.399   0.709  0.5753  0.6394 -0.2589
 3821TIP3    H111469   2.518   5.410   0.670  0.1547  0.9122  0.7144
 3821TIP3    H211470   2.597   5.320   0.763  0.7668  0.9624  0.2495
 3822TIP3   OH211471   3.194   1.136   4.882  0.3107 -0.4486 -0.5670
 3822TIP3    H111472   3.115   1.189   4.870 -0.5466 -1.2134  1.2219
 3822TIP3    H211473   3.216   1.106   4.795 -0.6464  0.8052 -1.2774
 3823TIP3   OH211474   1.008   0.693   0.207 -0.2017 -0.6259  0.1702
 3823TIP3    H111475   1.080   0.630   0.214  0.4224 -0.1748 -1.6586
 3823TIP3    H211476   0.981   0.708   0.298  2.3578 -0.4304  0.9844
 3824TIP3   OH211477   1.419   0.483   0.409 -0.1432  0.2063 -0.4478
 3824TIP3    H111478   1.460   0.561   0.369 -2.6463  2.1089  0.4348
 3824TIP3    H211479   1.412   0.505   0.502 -1.2125 -0.9298 -0.2412
 3825TIP3   OH211480   3.943   3.698   2.624  0.2967  0.0311  0.1249
 3825TIP3    H111481   3.934   3.606   2.650  1.2282  0.0313  0.4793
 3825TIP3    H211482   3.873   3.743   2.671  0.9901 -0.2140  1.4385
 3826TIP3   OH211483   5.621   4.607   1.350  0.0060 -0.1007  0.2855
 3826TIP3    H111484   5.564   4.618   1.427  1.4177 -1.1726  1.5443
 3826TIP3    H211485   5.682   4.680   1.355 -1.0383  0.8851 -0.9031
 3827TIP3   OH211486   3.858   0.398   3.388 -0.2816 -0.4388 -0.1740
 3827TIP3    H111487   3.805   0.434   3.459 -0.1819 -0.0382 -0.3022
 3827TIP3    H211488   3.798   0.392   3.314 -0.6251 -1.7088  0.1906
 3828TIP3   OH211489   1.113   2.437   1.523  0.3150 -0.2177  0.0507
 3828TIP3    H111490   1.063   2.518   1.532  1.4033  0.7731 -1.9610
 3828TIP3    H211491   1.108   2.395   1.608 -0.3478  1.9425  1.1401
 3829TIP3   OH211492   5.781   1.299   2.717  0.0737  0.3806 -0.6638
 3829TIP3    H111493   5.820   1.269   2.635  1.5708 -0.1668  0.1985
 3829TIP3    H211494   5.803   1.230   2.780  0.0647  1.3844  0.4712
 3830TIP3   OH211495   2.100   3.150  -0.019 -0.6288 -0.6062  0.4799
 3830TIP3    H111496   2.028   3.204  -0.052  0.0267  0.8276  1.2992
 3830TIP3    H211497   2.096   3.160   0.076  1.5808  0.8634  0.5039
 3831TIP3   OH211498   0.651   5.533   3.477 -0.0018  0.3630  0.3571
 3831TIP3    H111499   0.626   5.624   3.496  1.3553  1.3745 -2.1957
 3831TIP3    H211500   0.568   5.485   3.476 -0.8039  1.6645  1.1575
 3832TIP3   OH211501   0.501   0.193   4.738  0.1717 -0.2997  0.0266
 3832TIP3    H111502   0.550   0.270   4.766 -0.6834  0.0985  0.4683
 3832TIP3    H211503   0.465   0.218   4.652  0.8443 -0.6431 -0.3618
 3833TIP3   OH211504   0.907   3.966   4.809 -0.3237 -0.2388  0.1420
 3833TIP3    H111505   0.813   3.957   4.801 -0.5700  2.8880 -3.6358
 3833TIP3    H211506   0.935   4.002   4.724  3.8347  1.6625  2.0102
 3834TIP3   OH211507   4.985   1.103   4.447 -0.1192  0.5825  0.3219
 3834TIP3    H111508   5.070   1.081   4.408  0.8923  0.0933  2.6787
 3834TIP3    H211509   4.982   1.198   4.446  1.2690  0.6718  1.7985
 3835TIP3   OH211510   4.007   3.162   3.396 -0.1283 -0.4246  0.3868
 3835TIP3    H111511   3.920   3.189   3.368 -0.0726 -0.7186 -0.0888
 3835TIP3    H211512   4.007   3.066   3.388  0.8102 -0.3264 -1.4137
 3836TIP3   OH211513   0.049   1.228   4.297 -0.2389  0.2599 -0.0414
 3836TIP3    H111514   0.038   1.135   4.278 -0.3134 -0.0963  1.5799
 3836TIP3    H211515   0.131   1.252   4.254  0.4316 -0.8724  0.5688
 3837TIP3   OH211516   5.917   4.664   0.113  0.2631  0.7347  0.5151
 3837TIP3    H111517   5.858   4.733   0.144 -1.4873 -0.4075 -0.1223
 3837TIP3    H211518   5.884   4.584   0.153  1.0621 -0.0222 -0.2847
 3838TIP3   OH211519   1.788   5.715   1.190  0.2729 -0.2441 -0.3316
 3838TIP3    H111520   1.848   5.698   1.262 -1.8652 -1.6537  1.2716
 3838TIP3    H211521   1.759   5.628   1.161  1.2028  0.2659 -3.0953
 3839TIP3   OH211522   2.340   3.866   4.029  0.1210  0.5980 -0.2654
 3839TIP3    H111523   2.252   3.847   3.996  0.8738  0.4637 -2.2671
 3839TIP3    H211524   2.347   3.813   4.108 -1.5266  0.4924 -0.1385
 3840TIP3   OH211525   4.853   4.418   4.429  0.6089 -0.1251  0.3020
 3840TIP3    H111526   4.823   4.472   4.356 -0.2525  0.4113  1.0306
 3840TIP3    H211527   4.876   4.480   4.498 -1.4121 -0.6658  1.5474
 3841TIP3   OH211528   5.244   4.354   2.941 -0.2678 -0.4921  0.4456
 3841TIP3    H111529   5.191   4.333   2.864 -1.0986 -0.2749  0.9487
 3841TIP3    H211530   5.192   4.322   3.015  0.9324 -1.5318  0.8722
 3842TIP3   OH211531   4.747   5.397   2.462 -0.0838  0.2981 -0.2282
 3842TIP3    H111532   4.659   5.424   2.490  0.5057  0.1203  1.9579
 3842TIP3    H211533   4.751   5.303   2.483  0.3450  0.1070 -1.1170
 3843TIP3   OH211534   4.351   4.186   1.375 -0.4756  0.1722  0.3837
 3843TIP3    H111535   4.262   4.210   1.350 -0.2023  1.4939  0.6277
 3843TIP3    H211536   4.358   4.210   1.467  0.1155  0.0194  0.3860
 3844TIP3   OH211537   3.394   4.589   0.571 -0.2600  0.0800 -0.0384
 3844TIP3    H111538   3.417   4.668   0.523 -1.4327  0.5597  0.1573
 3844TIP3    H211539   3.299   4.588   0.572 -0.4802 -3.3292 -3.3055
 3845TIP3   OH211540   6.228   4.404   2.039 -0.3133  0.3039  0.2463
 3845TIP3    H111541   6.242   4.459   2.117  0.8864 -0.5784  0.6934
 3845TIP3    H211542   6.287   4.441   1.974 -0.7272  0.5473  0.0057
 3846TIP3   OH211543   2.414   0.685   4.137 -0.1327  0.1288  0.6775
 3846TIP3    H111544   2.505   0.710   4.151 -0.2616  1.0473 -0.0244
 3846TIP3    H211545   2.389   0.730   4.056 -1.1264 -0.3399  0.7066
 3847TIP3   OH211546   4.567   4.419   3.166  0.1737 -0.1007  0.6119
 3847TIP3    H111547   4.536   4.337   3.128  0.4899 -0.4717  1.1406
 3847TIP3    H211548   4.490   4.458   3.207 -0.0211 -0.0262  0.1815
 3848TIP3   OH211549   0.570   0.238   0.412  0.3111 -0.2232 -0.5075
 3848TIP3    H111550   0.514   0.310   0.441  0.6932  0.3942 -1.2792
 3848TIP3    H211551   0.529   0.160   0.449 -1.1320  0.1976 -1.1544
 3849TIP3   OH211552   1.100   4.760   2.632 -0.2313  0.0283  0.0754
 3849TIP3    H111553   1.131   4.848   2.651  0.7897 -0.5611  1.2873
 3849TIP3    H211554   1.057   4.732   2.712 -1.4803 -0.2051 -0.6536
 3850TIP3   OH211555   4.683   1.144   1.943  0.1008  0.7735 -0.0812
 3850TIP3    H111556   4.731   1.216   1.903  0.0709  0.8058 -0.0590
 3850TIP3    H211557   4.699   1.069   1.885  1.4191  0.4013  0.7354
 3851TIP3   OH211558   1.034   3.560   4.154 -0.7132  0.0476 -0.2280
 3851TIP3    H111559   1.044   3.466   4.145  0.2726  0.1375 -0.2356
 3851TIP3    H211560   1.016   3.574   4.247 -0.8175 -0.1483 -0.2198
 3852TIP3   OH211561   4.453   5.634   1.565 -0.0362 -0.2091 -0.8627
 3852TIP3    H111562   4.427   5.715   1.521  0.3013  1.0196  1.0570
 3852TIP3    H211563   4.533   5.658   1.613  0.1700 -1.7317 -0.4089
 3853TIP3   OH211564   4.813   1.847   4.461 -0.4126  0.3847 -0.1503
 3853TIP3    H111565   4.872   1.795   4.517 -0.3147  0.0896 -0.5214
 3853TIP3    H211566   4.821   1.936   4.495 -1.2454  0.0301  1.0672
 3854TIP3   OH211567   1.821   2.074   2.321  0.6491 -0.2572 -0.3205
 3854TIP3    H111568   1.857   2.002   2.271 -0.0068 -1.2798  0.6254
 3854TIP3    H211569   1.820   2.148   2.261  2.1392 -0.8048 -1.0438
 3855TIP3   OH211570   0.853   5.704   4.537  0.6813  0.5174 -0.0592
 3855TIP3    H111571   0.946   5.697   4.559  0.4559 -1.8175  0.4575
 3855TIP3    H211572   0.821   5.613   4.541 -1.8951  1.3877  1.0589
 3856TIP3   OH211573   1.251   2.701   1.697 -0.1526 -0.5546 -0.4328
 3856TIP3    H111574   1.266   2.619   1.650  0.0178 -1.5905  1.3567
 3856TIP3    H211575   1.173   2.685   1.749 -0.6153  0.7300 -0.7038
 3857TIP3   OH211576   5.554   5.045   0.110 -0.2997 -0.5441  0.2635
 3857TIP3    H111577   5.539   5.112   0.043  0.6841 -0.2184  0.3634
 3857TIP3    H211578   5.491   5.067   0.179 -0.3066 -0.0046  0.0931
 3858TIP3   OH211579   4.447   5.882   0.833 -0.2739 -0.3048  0.2417
 3858TIP3    H111580   4.496   5.956   0.868  0.9825 -0.8755 -0.2301
 3858TIP3    H211581   4.384   5.921   0.773 -0.3016  0.4488  0.7491
 3859TIP3   OH211582   4.118   2.732   1.257 -0.0276  0.1260 -0.0745
 3859TIP3    H111583   4.051   2.670   1.285 -3.5036  3.7190  0.3713
 3859TIP3    H211584   4.098   2.750   1.165  1.0477  0.4535 -0.2593
 3860TIP3   OH211585   4.504   4.012   3.567 -0.2177  0.8181 -0.6572
 3860TIP3    H111586   4.416   4.051   3.571 -0.2750  0.6453 -0.1549
 3860TIP3    H211587   4.488   3.918   3.578 -0.1599  0.5189 -2.6340
 3861TIP3   OH211588   0.554   2.191   3.617 -0.7853  0.1116 -0.1298
 3861TIP3    H111589   0.588   2.109   3.584  0.2853  0.3847  0.2568
 3861TIP3    H211590   0.543   2.177   3.712  0.4045  0.7264  0.1159
 3862TIP3   OH211591   4.468   3.424   3.052  0.0281 -0.5373 -0.0134
 3862TIP3    H111592   4.546   3.405   3.000  0.0618 -1.4175  0.3392
 3862TIP3    H211593   4.484   3.510   3.090  0.8319 -0.7123  0.0564
 3863TIP3   OH211594   0.125   4.087   2.241  0.8911 -0.0017 -0.0383
 3863TIP3    H111595   0.042   4.093   2.288  1.4433 -0.0318  0.9645
 3863TIP3    H211596   0.169   4.171   2.259  1.6657 -0.5297  0.5898
 3864TIP3   OH211597   1.540   5.428   4.079 -0.3151 -0.1610  0.2357
 3864TIP3    H111598   1.620   5.456   4.123  0.3085  0.2468 -1.1118
 3864TIP3    H211599   1.504   5.508   4.041 -0.7196 -0.5317 -0.1716
 3865TIP3   OH211600   3.838   1.203   4.822  0.2658  0.1248  0.2065
 3865TIP3    H111601   3.778   1.205   4.747  0.4624  0.6612  0.0568
 3865TIP3    H211602   3.829   1.289   4.862  0.7818  0.1348  0.3075
 3866TIP3   OH211603   1.253   4.795   0.798 -0.0441  0.2214 -0.7679
 3866TIP3    H111604   1.231   4.795   0.705 -0.2418 -0.6172 -0.7312
 3866TIP3    H211605   1.180   4.749   0.839  0.5393 -0.3206 -0.3267
 3867TIP3   OH211606   2.345   0.788   0.733 -0.0421  0.2271 -0.0567
 3867TIP3    H111607   2.251   0.771   0.742  0.0292  0.4876  1.4046
 3867TIP3    H211608   2.386   0.724   0.791  0.6031  0.9526  0.2989
 3868TIP3   OH211609   3.051   1.833   4.569 -0.0396  0.1672 -0.2930
 3868TIP3    H111610   3.032   1.742   4.589  0.3980 -0.7145 -3.3165
 3868TIP3    H211611   3.109   1.862   4.639  1.9637 -2.7545 -0.5624
 3869TIP3   OH211612   3.804   3.536   4.136  0.0537  0.0510  0.6941
 3869TIP3    H111613   3.896   3.510   4.142 -0.2324 -1.6689 -1.0352
 3869TIP3    H211614   3.760   3.485   4.204  0.3273  0.6471  1.3246
 3870TIP3   OH211615   4.475   4.168   0.108 -0.0725  0.1187 -0.0682
 3870TIP3    H111616   4.566   4.144   0.128 -0.3284  0.0391  1.0314
 3870TIP3    H211617   4.476   4.264   0.103  0.3211  0.0677 -1.3675
 3871TIP3   OH211618   6.099   4.725   4.865 -0.2187  0.1452  0.1820
 3871TIP3    H111619   6.148   4.807   4.859 -1.7718  1.0339 -1.5264
 3871TIP3    H211620   6.093   4.695   4.774 -0.6754 -1.2626  0.6592
 3872TIP3   OH211621   6.222   1.009   1.984 -0.4703 -0.2500  0.7849
 3872TIP3    H111622   6.276   1.081   2.017  1.3085 -0.7174 -0.8994
 3872TIP3    H211623   6.276   0.932   1.995 -0.9074 -0.7955 -0.6747
 3873TIP3   OH211624   4.592   4.351   2.794  0.4323 -0.1373 -0.2126
 3873TIP3    H111625   4.516   4.295   2.778  0.3413  0.2401 -1.1426
 3873TIP3    H211626   4.654   4.295   2.841 -0.1981 -0.6135  0.0638
 3874TIP3   OH211627   0.434   4.395   3.090  0.0209 -0.2651  0.1230
 3874TIP3    H111628   0.370   4.464   3.073  0.7073  0.0010 -1.4979
 3874TIP3    H211629   0.385   4.313   3.077 -0.4025 -0.0817  0.5332
 3875TIP3   OH211630   5.248   1.787   1.595  0.0435 -0.1866 -0.1626
 3875TIP3    H111631   5.209   1.790   1.508  0.3322  0.2570 -0.2799
 3875TIP3    H211632   5.221   1.702   1.630  0.5197 -0.6930 -0.9729
 3876TIP3   OH211633   5.707   5.174   1.192 -0.4026 -0.1601  0.8319
 3876TIP3    H111634   5.615   5.179   1.168  0.2967 -0.2215 -2.1860
 3876TIP3    H211635   5.740   5.096   1.146  1.8201  1.6741 -0.9071
 3877TIP3   OH211636   2.554   5.273   3.407 -0.6821  0.0024  0.0457
 3877TIP3    H111637   2.479   5.310   3.359 -0.8086 -2.3284 -1.7405
 3877TIP3    H211638   2.630   5.303   3.357 -0.5924  0.1315  0.2587
 3878TIP3   OH211639   2.264   0.058   2.440 -0.0980  0.0811  0.2460
 3878TIP3    H111640   2.286   0.123   2.506 -0.0236  1.2610 -0.8927
 3878TIP3    H211641   2.183   0.091   2.400 -0.3697 -0.8278  0.0212
 3879TIP3   OH211642   0.987   4.535   1.278  0.0382  0.2913 -0.4973
 3879TIP3    H111643   0.901   4.575   1.287  0.5806  1.0298  1.9938
 3879TIP3    H211644   0.969   4.442   1.260 -1.3600 -0.0384  2.1514
 3880TIP3   OH211645   2.520   0.393   2.702  0.6784 -0.2847 -0.1774
 3880TIP3    H111646   2.566   0.476   2.716 -1.1089  1.0000 -1.4854
 3880TIP3    H211647   2.428   0.418   2.696  0.2006 -2.2332 -1.6421
 3881TIP3   OH211648   0.304   3.545   4.894 -0.2385  0.1821  0.5188
 3881TIP3    H111649   0.308   3.605   4.968  1.4793 -1.0461  1.4615
 3881TIP3    H211650   0.273   3.600   4.821 -0.2265  1.8243  1.6961
 3882TIP3   OH211651   1.670   4.683   2.215 -1.1649  0.4514  0.3465
 3882TIP3    H111652   1.626   4.697   2.299 -0.2408  1.3152  0.7015
 3882TIP3    H211653   1.748   4.633   2.237 -0.8888  0.7335  0.0005
 3883TIP3   OH211654   3.668   1.549   2.474  0.6097  0.0253 -0.0924
 3883TIP3    H111655   3.678   1.566   2.568 -2.3186 -0.7397  0.4825
 3883TIP3    H211656   3.650   1.455   2.468  0.6271  0.0831 -1.4133
 3884TIP3   OH211657   4.821   1.846   3.449  0.1768 -0.2575 -0.1153
 3884TIP3    H111658   4.896   1.866   3.393 -0.7898 -0.4865 -1.5551
 3884TIP3    H211659   4.800   1.755   3.429  0.3601 -0.6351  1.3215
 3885TIP3   OH211660   1.114   4.271   0.741  0.3840  0.2082 -0.1551
 3885TIP3    H111661   1.025   4.247   0.767 -0.1089  1.2581 -0.8284
 3885TIP3    H211662   1.106   4.296   0.649  1.4983 -0.2761 -0.4017
 3886TIP3   OH211663   3.636   0.497   1.388 -0.1864  0.2920 -0.9393
 3886TIP3    H111664   3.708   0.525   1.444  0.0116 -0.1683 -0.9520
 3886TIP3    H211665   3.557   0.513   1.440 -0.0567  0.5564 -0.8217
 3887TIP3   OH211666   3.604   4.212   1.496  0.0629  0.3936  0.8387
 3887TIP3    H111667   3.660   4.248   1.427  0.0418  0.2767  0.7608
 3887TIP3    H211668   3.660   4.148   1.541  0.6457  1.6646  2.0142
 3888TIP3   OH211669   4.267   3.022   1.733  0.8079 -0.3980 -0.0038
 3888TIP3    H111670   4.302   3.053   1.816  1.1533 -0.6249 -0.0622
 3888TIP3    H211671   4.231   2.935   1.752  0.9601 -0.4851 -0.1050
 3889TIP3   OH211672   2.721   5.472   1.722 -0.2054 -0.2027 -0.1717
 3889TIP3    H111673   2.696   5.416   1.796  0.9954 -0.2888  0.1989
 3889TIP3    H211674   2.720   5.560   1.758 -0.9163 -0.1045 -0.4243
 3890TIP3   OH211675  -0.010   3.042   2.969  0.3671  0.1618  0.1929
 3890TIP3    H111676   0.040   3.023   2.889  3.1327  0.0036  1.8484
 3890TIP3    H211677   0.040   3.112   3.012 -3.9977  4.4013 -0.7213
 3891TIP3   OH211678   2.260   1.291   3.330  0.3064 -0.3186  0.1482
 3891TIP3    H111679   2.165   1.289   3.334  0.2981 -1.7263 -0.1075
 3891TIP3    H211680   2.287   1.207   3.368  1.4903  0.5057  1.2051
 3892TIP3   OH211681   2.901   5.204   0.182 -0.3390 -0.0404 -0.3410
 3892TIP3    H111682   2.835   5.249   0.236 -2.2521 -1.7302 -1.1219
 3892TIP3    H211683   2.874   5.113   0.183  1.9655 -0.7889 -0.8495
 3893TIP3   OH211684   4.618   0.011   0.101 -0.1530  0.4104  0.5657
 3893TIP3    H111685   4.546  -0.043   0.067 -1.0148  1.5641  0.5121
 3893TIP3    H211686   4.615   0.091   0.049  0.5526  0.8835  1.2302
 3894TIP3   OH211687   3.202   0.113   5.167  0.8067  0.6050 -0.0044
 3894TIP3    H111688   3.179   0.177   5.100  1.0629  1.2444  0.5064
 3894TIP3    H211689   3.124   0.059   5.176  1.0958 -0.0957 -1.4861
 3895TIP3   OH211690   1.776   3.435   3.694 -0.0091  0.0326  0.0870
 3895TIP3    H111691   1.725   3.375   3.639  1.4949 -0.9709 -0.2763
 3895TIP3    H211692   1.867   3.418   3.670  0.5317  1.6041  0.8810
 3896TIP3   OH211693   1.697   2.910   5.051 -0.3953 -0.4647 -0.1111
 3896TIP3    H111694   1.674   3.000   5.030  0.3189 -0.2004  0.2279
 3896TIP3    H211695   1.789   2.913   5.078  0.1287 -1.5379 -1.6551
 3897TIP3   OH211696   0.256   4.543   2.566  0.0037 -0.2567 -0.0246
 3897TIP3    H111697   0.262   4.448   2.566  1.2204 -0.2051 -1.1724
 3897TIP3    H211698   0.294   4.570   2.650  1.5335 -0.7131 -0.5357
 3898TIP3   OH211699   3.214   1.420   3.394 -0.3670  0.2617  0.0673
 3898TIP3    H111700   3.284   1.459   3.448  0.0282  0.1929 -0.3848
 3898TIP3    H211701   3.242   1.330   3.381 -0.7313  0.1312  0.1963
 3899TIP3   OH211702   2.943   1.289   2.999  0.7362  0.1526 -0.2493
 3899TIP3    H111703   2.992   1.237   2.936  0.6403 -0.6804  0.3383
 3899TIP3    H211704   3.009   1.344   3.041  0.7501  0.9368 -1.2755
 3900TIP3   OH211705   0.877   1.209   4.017  0.2074 -0.2682 -0.2327
 3900TIP3    H111706   0.914   1.285   3.971  1.8311 -0.6305  0.4373
 3900TIP3    H211707   0.801   1.184   3.963  1.5512 -0.1834 -2.2717
 3901TIP3   OH211708   2.393   0.434   3.697  0.4305  0.2741 -0.2133
 3901TIP3    H111709   2.323   0.393   3.645 -0.1357 -1.4671  1.8060
 3901TIP3    H211710   2.453   0.363   3.717  0.5282  0.8358  1.6329
 3902TIP3   OH211711   3.269   5.788   2.982 -0.4258  0.2832 -0.0475
 3902TIP3    H111712   3.344   5.840   2.952  0.3840 -0.7000  0.1796
 3902TIP3    H211713   3.282   5.703   2.939 -1.6502  0.2243 -0.3273
 3903TIP3   OH211714   2.323   3.329   2.480  0.1086 -0.2913  0.6810
 3903TIP3    H111715   2.288   3.330   2.391  0.6123  2.0763  0.4334
 3903TIP3    H211716   2.246   3.327   2.537 -0.2195 -1.5164  0.2259
 3904TIP3   OH211717   4.310   0.830   1.313  0.0482 -0.4760 -0.0699
 3904TIP3    H111718   4.364   0.752   1.306 -0.8425 -1.1897  0.7940
 3904TIP3    H211719   4.341   0.874   1.392  0.2838 -0.1634 -0.3349
 3905TIP3   OH211720   1.812   3.870   1.568 -0.9969 -0.7114 -0.4770
 3905TIP3    H111721   1.781   3.788   1.530 -1.6057 -0.3505 -0.7843
 3905TIP3    H211722   1.772   3.938   1.514  1.7924 -0.1902 -2.0488
 3906TIP3   OH211723   1.011   5.397   0.926 -0.0584  0.2924  0.0260
 3906TIP3    H111724   0.944   5.465   0.935  0.3771  0.8185 -0.5537
 3906TIP3    H211725   0.969   5.328   0.875 -0.8268 -0.3435  1.4769
 3907TIP3   OH211726   6.133   3.987   3.381 -0.3394  0.1345  0.2996
 3907TIP3    H111727   6.109   3.894   3.375 -0.4531  0.1034  1.1739
 3907TIP3    H211728   6.050   4.034   3.368 -0.2125  0.1424 -0.5939
 3908TIP3   OH211729   2.614   0.596   4.811  0.3734  0.0472  0.7592
 3908TIP3    H111730   2.656   0.553   4.737 -2.5590  1.1509 -1.7247
 3908TIP3    H211731   2.641   0.688   4.803  0.0070  0.1789  1.0399
 3909TIP3   OH211732   2.933   5.952   1.990 -0.0005 -0.7780  0.3517
 3909TIP3    H111733   2.889   5.944   2.074 -2.2209 -1.4686 -0.7993
 3909TIP3    H211734   2.950   5.862   1.962  0.4398 -0.5651 -0.0977
 3910TIP3   OH211735   2.034   4.320   3.768 -0.1287 -0.1502  0.2720
 3910TIP3    H111736   1.974   4.309   3.842  1.3902 -0.4871  1.4882
 3910TIP3    H211737   2.093   4.245   3.772  1.5340  1.1016  0.2244
 3911TIP3   OH211738   2.915   5.119   3.323  0.2215  0.0322 -0.6295
 3911TIP3    H111739   2.911   5.030   3.357 -1.0616  0.0548 -0.7015
 3911TIP3    H211740   2.890   5.174   3.397  3.1816  0.5482  0.1076
 3912TIP3   OH211741   1.501   2.180   3.394  0.0733 -0.5206 -0.1383
 3912TIP3    H111742   1.421   2.229   3.414  0.7291 -0.4263  2.8323
 3912TIP3    H211743   1.505   2.113   3.463  1.6346 -1.6832 -1.3071
 3913TIP3   OH211744   1.100   1.386   4.438  0.0734  0.4640 -0.0882
 3913TIP3    H111745   1.159   1.453   4.472  0.7024 -1.2927  2.5666
 3913TIP3    H211746   1.013   1.426   4.441  0.4047  1.1417  1.5988
 3914TIP3   OH211747   2.840   2.919   2.476 -0.3072  0.2551  0.6029
 3914TIP3    H111748   2.911   2.971   2.440 -0.1240 -1.5020 -1.7695
 3914TIP3    H211749   2.805   2.973   2.547  2.6929  1.6098  1.2075
 3915TIP3   OH211750   0.877   4.499   3.639  0.5639  0.3709 -0.4004
 3915TIP3    H111751   0.804   4.487   3.699  1.3630  0.1357  0.5540
 3915TIP3    H211752   0.930   4.420   3.650  0.1825 -0.1728 -2.2202
 3916TIP3   OH211753   4.383   0.160   2.172  0.6407 -0.1325  0.0637
 3916TIP3    H111754   4.316   0.114   2.222  0.2031 -0.7415 -1.0395
 3916TIP3    H211755   4.418   0.225   2.232 -0.5978 -0.1373  0.8235
 3917TIP3   OH211756   0.817   0.109   0.708 -0.3619  0.2574  0.2320
 3917TIP3    H111757   0.877   0.060   0.652 -0.3681  0.1426  0.3264
 3917TIP3    H211758   0.863   0.119   0.791 -0.0878  0.9920  0.0021
 3918TIP3   OH211759   6.288   0.573   2.939 -0.1255 -0.4540 -0.3437
 3918TIP3    H111760   6.358   0.513   2.912 -0.1280 -0.2221 -0.8872
 3918TIP3    H211761   6.224   0.570   2.868 -0.9636 -1.1067  0.4174
 3919TIP3   OH211762   6.282   0.572   4.168  0.0485  0.4340  0.5944
 3919TIP3    H111763   6.343   0.646   4.168 -0.7160  1.1213 -0.9388
 3919TIP3    H211764   6.199   0.609   4.197 -0.4347  0.2903 -0.5489
 3920TIP3   OH211765   2.583   0.134   2.708  0.3214 -0.2537  0.7468
 3920TIP3    H111766   2.495   0.095   2.707  0.6534 -1.0009  0.1799
 3920TIP3    H211767   2.567   0.228   2.711 -0.5071 -0.3690  0.3083
 3921TIP3   OH211768   1.701   3.123   2.415  0.5106 -0.1090 -0.5262
 3921TIP3    H111769   1.741   3.069   2.483 -0.8741  0.6000  0.9195
 3921TIP3    H211770   1.619   3.078   2.393 -0.4550  1.1032  0.3971
 3922TIP3   OH211771   2.540   2.575   3.753  0.4643  0.2252 -0.0428
 3922TIP3    H111772   2.605   2.507   3.769  0.1858 -0.3740 -1.3378
 3922TIP3    H211773   2.462   2.528   3.724  0.2774  1.0793 -0.9943
 3923TIP3   OH211774   3.132   2.275   3.229 -0.1405  0.3807 -0.1909
 3923TIP3    H111775   3.176   2.319   3.157 -0.2648  0.8176 -0.0022
 3923TIP3    H211776   3.112   2.345   3.292 -0.8808  0.1597 -0.1653
 3924TIP3   OH211777   3.499   0.971   4.360  0.2323  0.4295  0.2900
 3924TIP3    H111778   3.404   0.963   4.352  0.0988 -2.1660  2.8208
 3924TIP3    H211779   3.534   0.916   4.290 -0.3328 -2.2109  1.9395
 3925TIP3   OH211780   4.229   5.460   1.511  0.2452  0.0260 -0.1080
 3925TIP3    H111781   4.300   5.514   1.545 -0.9124  1.8483 -0.4452
 3925TIP3    H211782   4.150   5.494   1.553 -0.7489 -0.1475 -1.7433
 3926TIP3   OH211783   3.885   2.009   3.259  0.0418  0.2382  0.4792
 3926TIP3    H111784   3.891   2.047   3.172  2.0476  0.3472  0.6140
 3926TIP3    H211785   3.975   1.986   3.281 -0.4381  0.1118  2.4852
 3927TIP3   OH211786   5.975   0.876   3.846 -0.2362  0.1314  0.1090
 3927TIP3    H111787   6.063   0.901   3.819  0.8367 -3.0847  0.2088
 3927TIP3    H211788   5.978   0.877   3.942 -0.0479 -0.7295  0.1159
 3928TIP3   OH211789   5.124   4.369   3.690  0.4385 -0.3267 -0.2471
 3928TIP3    H111790   5.085   4.456   3.697 -0.8536 -0.8064 -1.2201
 3928TIP3    H211791   5.058   4.310   3.728  0.4851 -1.0817 -1.3122
 3929TIP3   OH211792   0.164   4.447   5.193  0.7120 -0.2948  0.5376
 3929TIP3    H111793   0.116   4.492   5.123  0.9033 -1.7355 -0.5784
 3929TIP3    H211794   0.117   4.364   5.204  1.4141 -0.6079  1.2860
 3930TIP3   OH211795   4.042   3.660   3.020  0.3826  0.2340 -0.5935
 3930TIP3    H111796   4.040   3.584   2.962  0.8860  0.1675 -0.5275
 3930TIP3    H211797   4.110   3.640   3.084 -0.5270  0.0704  0.3557
 3931TIP3   OH211798   6.154   0.575   2.685 -0.2786 -0.2368 -0.3271
 3931TIP3    H111799   6.076   0.609   2.641  0.0335  1.5877  0.4532
 3931TIP3    H211800   6.227   0.619   2.641  0.3716 -1.9624 -1.0836
 3932TIP3   OH211801   5.438   2.020   4.246 -0.4250 -0.5705  0.1133
 3932TIP3    H111802   5.498   1.960   4.204  0.3383  0.8234 -0.8344
 3932TIP3    H211803   5.360   2.020   4.190 -0.0819 -0.0159 -0.3661
 3933TIP3   OH211804   2.436   0.828   3.382  0.2951  0.6850 -0.8816
 3933TIP3    H111805   2.513   0.808   3.329 -0.1125  0.6029 -1.4556
 3933TIP3    H211806   2.442   0.770   3.458  0.9041  0.8280 -0.8216
 3934TIP3   OH211807   6.259   5.089   2.591 -0.2279 -0.9242 -0.1526
 3934TIP3    H111808   6.169   5.064   2.609 -0.1916 -0.0648  1.4027
 3934TIP3    H211809   6.276   5.058   2.502 -1.9553 -1.3420 -0.3582
 3935TIP3   OH211810   5.947   1.622   4.787 -0.1984  0.1806  0.3135
 3935TIP3    H111811   5.885   1.657   4.722 -0.1654  0.2523  0.3213
 3935TIP3    H211812   5.986   1.699   4.828  1.3425  0.1775 -1.0493
 3936TIP3   OH211813   2.358   4.154   2.688  0.2381  0.4864 -0.2821
 3936TIP3    H111814   2.369   4.169   2.594 -1.3499  0.3215 -0.5233
 3936TIP3    H211815   2.309   4.072   2.694 -1.3337  1.4466  0.5933
 3937TIP3   OH211816   5.240   5.426   0.832  0.4210 -0.1552 -0.1559
 3937TIP3    H111817   5.175   5.445   0.765 -0.1544  3.7530  1.2646
 3937TIP3    H211818   5.195   5.371   0.895 -0.5654  0.0666 -0.6524
 3938TIP3   OH211819   2.746   1.452   4.934 -0.1155 -0.2286  0.2687
 3938TIP3    H111820   2.686   1.513   4.977 -0.2290 -1.7341  2.4258
 3938TIP3    H211821   2.781   1.501   4.860 -0.9875  2.0725  1.2761
 3939TIP3   OH211822   6.037   2.601   2.762 -0.4083  0.1772 -0.5635
 3939TIP3    H111823   6.100   2.672   2.746  0.2797 -0.0504  0.9670
 3939TIP3    H211824   6.079   2.523   2.725  0.1137  0.0711  0.2338
 3940TIP3   OH211825   4.261   3.064   4.947  0.2228 -0.1559  0.3228
 3940TIP3    H111826   4.247   3.009   5.024 -1.0656  1.0681  1.0154
 3940TIP3    H211827   4.356   3.077   4.944  0.4840 -1.7165  0.5931
 3941TIP3   OH211828   1.161   4.777   2.309  0.8231  0.3440 -0.3566
 3941TIP3    H111829   1.234   4.809   2.256  1.2551  1.2544  0.7356
 3941TIP3    H211830   1.192   4.695   2.346  0.7837  0.0604 -0.9428
 3942TIP3   OH211831   5.455   5.071   4.636 -0.6645 -0.3234  0.1167
 3942TIP3    H111832   5.508   5.013   4.690 -0.4811  0.6510  1.0246
 3942TIP3    H211833   5.474   5.045   4.546 -1.3973 -2.3543  0.4950
 3943TIP3   OH211834   5.290   1.333   3.463  0.3803 -0.7304  0.4780
 3943TIP3    H111835   5.375   1.292   3.480  1.6544  1.9997  1.3848
 3943TIP3    H211836   5.246   1.332   3.548  1.2185  1.3033  0.9909
 3944TIP3   OH211837   3.006   2.885   1.249 -0.0687  0.4139 -0.1049
 3944TIP3    H111838   2.951   2.939   1.306  1.3282 -0.3184  2.0852
 3944TIP3    H211839   3.087   2.935   1.239  0.4373 -0.3348  0.1877
 3945TIP3   OH211840   3.539   3.161   0.510 -0.2795 -0.4205  0.5914
 3945TIP3    H111841   3.562   3.069   0.496  0.6467  0.0022 -0.8288
 3945TIP3    H211842   3.571   3.181   0.598 -1.7636 -1.8056  1.5267
 3946TIP3   OH211843   0.571   2.909   2.643  0.2344  0.2563 -0.0724
 3946TIP3    H111844   0.506   2.963   2.687 -0.1001 -0.2046  0.0030
 3946TIP3    H211845   0.575   2.828   2.694  0.3004 -0.0301 -0.5241
 3947TIP3   OH211846   2.638   2.312   3.268 -0.4470  0.3306  0.1042
 3947TIP3    H111847   2.554   2.336   3.307  0.1401  0.1585  1.5318
 3947TIP3    H211848   2.689   2.393   3.270 -0.2332  0.1937  0.1367
 3948TIP3   OH211849   1.473   1.232   1.277  0.7373 -0.2480  0.1874
 3948TIP3    H111850   1.493   1.165   1.342  2.8075 -0.5851 -0.7274
 3948TIP3    H211851   1.509   1.313   1.313  0.5662 -0.1405  0.1201
 3949TIP3   OH211852   5.072   0.672   1.582  0.0176  0.5445  0.0304
 3949TIP3    H111853   4.977   0.666   1.594  0.2663 -1.1055  1.7111
 3949TIP3    H211854   5.105   0.587   1.612  2.0141  1.0104 -0.7232
 3950TIP3   OH211855   0.992   0.079   3.208  0.0626 -0.4333  0.8614
 3950TIP3    H111856   1.049   0.078   3.285  0.7790 -0.4600  0.3414
 3950TIP3    H211857   1.049   0.054   3.136 -0.3958  0.4630  0.1737
 3951TIP3   OH211858   1.049   1.647   0.073  0.5388  0.1816 -0.1870
 3951TIP3    H111859   0.980   1.618   0.132 -0.0067  1.2121 -0.2943
 3951TIP3    H211860   1.094   1.717   0.121  0.1261  0.9973 -0.9498
 3952TIP3   OH211861   2.761   0.925   4.881 -0.4516 -0.0965  0.3715
 3952TIP3    H111862   2.675   0.967   4.888 -0.9633 -0.8726 -0.7517
 3952TIP3    H211863   2.753   0.868   4.804  1.1544 -0.0075  0.1059
 3953TIP3   OH211864   5.107   4.879   4.913 -0.1809  0.2684 -0.0420
 3953TIP3    H111865   5.166   4.814   4.877 -0.4602 -0.1429  0.2271
 3953TIP3    H211866   5.103   4.859   5.007  1.0241  1.7004  0.3488
 3954TIP3   OH211867   5.045   3.528   0.607 -0.0368 -0.4137 -0.2142
 3954TIP3    H111868   5.094   3.610   0.600 -0.3440 -0.0648  1.3360
 3954TIP3    H211869   5.112   3.460   0.606  0.4255 -0.0048  0.7365
 3955TIP3   OH211870   3.668   2.055   0.263 -0.1194 -0.3208  0.3395
 3955TIP3    H111871   3.651   2.087   0.352  1.5293 -0.7754  0.8750
 3955TIP3    H211872   3.763   2.041   0.262 -0.0974 -0.1839 -1.5553
 3956TIP3   OH211873   4.680   5.081   0.933  0.3879 -0.3708 -0.3220
 3956TIP3    H111874   4.607   5.065   0.874  1.6440  0.9991 -2.3856
 3956TIP3    H211875   4.640   5.093   1.019 -1.9886  1.8086 -1.6196
 3957TIP3   OH211876   2.884   5.247   1.031  0.3245  0.4059 -0.0643
 3957TIP3    H111877   2.937   5.322   1.055 -0.0938  0.4013  0.9152
 3957TIP3    H211878   2.849   5.214   1.114  1.9767 -2.0081 -0.2398
 3958TIP3   OH211879   1.006   4.555   4.735 -0.2186 -0.4313  0.6680
 3958TIP3    H111880   0.964   4.554   4.821  0.1379  0.7936  0.8730
 3958TIP3    H211881   0.963   4.627   4.688  0.2799 -0.4451  0.1755
 3959TIP3   OH211882   2.534   4.311   1.115 -0.6417 -0.1679 -0.1963
 3959TIP3    H111883   2.518   4.377   1.182 -1.6675 -0.2369 -0.3630
 3959TIP3    H211884   2.536   4.228   1.163 -0.3501 -0.1164 -0.1183
 3960TIP3   OH211885   6.000   3.955   0.101  0.2678 -0.3646 -0.1918
 3960TIP3    H111886   6.079   3.901   0.095  1.1227  0.6560  1.2501
 3960TIP3    H211887   5.990   3.991   0.013  2.1737  0.4908 -0.1096
 3961TIP3   OH211888   5.107   4.809   3.048  0.1046 -0.0904  0.2990
 3961TIP3    H111889   5.083   4.895   3.081  2.3857  0.6857  0.1141
 3961TIP3    H211890   5.105   4.752   3.125 -1.7555  0.0046  0.3592
 3962TIP3   OH211891   1.006   2.022   1.067  0.0023  0.0817  0.5067
 3962TIP3    H111892   0.924   2.003   1.022  0.9176 -3.6779  0.0542
 3962TIP3    H211893   1.064   2.054   0.999 -0.4506  0.7616  0.4229
 3963TIP3   OH211894   4.900   0.467   0.450 -0.0250  0.0260 -0.7599
 3963TIP3    H111895   4.994   0.472   0.471  0.1053  1.7572 -1.5536
 3963TIP3    H211896   4.896   0.410   0.373  0.6264  1.3555 -1.8255
 3964TIP3   OH211897   1.295   2.143   4.466  0.2290 -0.2473 -0.3661
 3964TIP3    H111898   1.377   2.099   4.444  0.4403 -0.2074  0.3161
 3964TIP3    H211899   1.313   2.188   4.549 -0.0153  1.0527 -0.9914
 3965TIP3   OH211900   5.794   1.031   3.220 -0.3067 -0.4542  0.4394
 3965TIP3    H111901   5.874   1.036   3.273 -1.4229 -2.6823  2.5727
 3965TIP3    H211902   5.825   1.010   3.132  1.7159  4.6808 -0.3902
 3966TIP3   OH211903   3.051   3.601   2.831  0.3105 -0.2929  0.0614
 3966TIP3    H111904   3.110   3.542   2.785  0.6906  1.0608 -1.2820
 3966TIP3    H211905   3.106   3.676   2.854  0.0686 -0.7884  2.5432
 3967TIP3   OH211906   3.978   5.883   3.958 -0.1346 -0.1113 -0.4543
 3967TIP3    H111907   4.045   5.817   3.975 -0.1815  0.0812  0.5534
 3967TIP3    H211908   3.899   5.833   3.939 -0.5807 -0.4096  1.9124
 3968TIP3   OH211909   3.696   5.971   0.945 -0.0129 -0.4846 -0.1975
 3968TIP3    H111910   3.702   5.970   1.041 -2.5411 -0.4774  0.0286
 3968TIP3    H211911   3.708   5.880   0.919 -0.1483 -0.6238  0.2143
 3969TIP3   OH211912   2.545   0.121   4.239  1.1471 -0.0126 -0.6183
 3969TIP3    H111913   2.634   0.143   4.266  0.0311  1.9927  1.9093
 3969TIP3    H211914   2.490   0.151   4.312 -1.7362  0.4603 -2.8179
 3970TIP3   OH211915   1.837   2.221   4.894  0.7505  0.0371  0.2282
 3970TIP3    H111916   1.898   2.248   4.963 -0.1955 -1.7577  1.8410
 3970TIP3    H211917   1.891   2.172   4.833  1.7535  2.2808 -0.8178
 3971TIP3   OH211918   2.704   2.247   0.183 -0.2683 -0.7079 -0.0552
 3971TIP3    H111919   2.727   2.337   0.205  0.2812 -1.1049  1.0605
 3971TIP3    H211920   2.612   2.251   0.160 -0.7450 -0.1532  1.7977
 3972TIP3   OH211921   3.293   0.382  -0.004 -0.1549 -0.1608  0.2179
 3972TIP3    H111922   3.220   0.418   0.047  0.9064  0.5210  1.3421
 3972TIP3    H211923   3.329   0.314   0.052  0.0129 -0.5653 -0.3770
 3973TIP3   OH211924   4.228   4.773   2.552 -0.6995  0.0694 -0.7249
 3973TIP3    H111925   4.302   4.776   2.492 -0.9910 -0.7462 -1.1434
 3973TIP3    H211926   4.169   4.841   2.522  0.9726  2.5149  1.1360
 3974TIP3   OH211927   1.572   5.920   3.579 -0.6879  0.1694 -0.6771
 3974TIP3    H111928   1.624   5.994   3.547 -0.9275  0.6080 -0.0500
 3974TIP3    H211929   1.584   5.921   3.674  1.7020 -2.3532 -0.8160
 3975TIP3   OH211930   2.229   0.338   3.917 -0.8391  0.1481  0.1507
 3975TIP3    H111931   2.258   0.356   4.007 -2.0600 -0.4983  0.7015
 3975TIP3    H211932   2.290   0.386   3.862  0.8046 -0.5485  1.2711
 3976TIP3   OH211933   3.321   5.200   1.959  0.4085 -0.3547  0.0517
 3976TIP3    H111934   3.348   5.272   1.902 -0.6972  1.7876  2.0810
 3976TIP3    H211935   3.378   5.207   2.035 -0.2250 -1.1732  0.6181
 3977TIP3   OH211936   0.007   1.148   2.507  0.4857  0.0604 -0.0660
 3977TIP3    H111937   0.080   1.095   2.475 -0.4244 -0.5395 -1.2115
 3977TIP3    H211938  -0.063   1.134   2.444 -1.0026 -0.2158  1.5664
 3978TIP3   OH211939   1.357   3.559   4.186  0.1177 -0.2287  0.6427
 3978TIP3    H111940   1.264   3.579   4.175 -0.0857 -1.4104  0.1119
 3978TIP3    H211941   1.368   3.547   4.280 -0.0389  0.9448  0.8266
 3979TIP3   OH211942   5.318   2.557   3.646 -0.2290 -0.7470 -0.4002
 3979TIP3    H111943   5.249   2.499   3.681 -0.8486  0.5399  0.5825
 3979TIP3    H211944   5.396   2.533   3.695 -0.6412 -0.3114  0.4939
 3980TIP3   OH211945   0.763   0.237   2.082 -0.5691  0.0202 -0.1966
 3980TIP3    H111946   0.714   0.254   2.162 -0.2975  0.9922 -0.2296
 3980TIP3    H211947   0.804   0.321   2.059 -2.8137  0.5448 -2.8301
 3981TIP3   OH211948   6.080   3.026   4.684 -0.0380 -0.3930  0.5413
 3981TIP3    H111949   6.018   3.096   4.707 -1.2081 -1.6345  1.2986
 3981TIP3    H211950   6.118   3.054   4.601 -0.4052  1.1738  0.8575
 3982TIP3   OH211951   5.161   0.144   4.038  0.1183 -0.1671  0.1960
 3982TIP3    H111952   5.067   0.137   4.058  0.6005 -2.0055  2.1836
 3982TIP3    H211953   5.197   0.195   4.111  0.8063 -0.2400 -0.0863
 3983TIP3   OH211954   0.250   5.363   4.442  0.6737  0.0245  0.0840
 3983TIP3    H111955   0.288   5.435   4.492  1.0066  0.0955 -0.2731
 3983TIP3    H211956   0.235   5.399   4.355 -2.0857  0.6466  0.7049
 3984TIP3   OH211957   5.838   1.964   0.395 -0.1662 -0.5474 -0.3681
 3984TIP3    H111958   5.750   1.934   0.421 -0.6665  0.7368 -0.4929
 3984TIP3    H211959   5.861   2.029   0.461  1.7224 -2.5172  1.0156
 3985TIP3   OH211960   1.217   5.537   2.497  0.1313  0.7992  0.0902
 3985TIP3    H111961   1.254   5.594   2.431  2.1826 -2.2638 -1.6844
 3985TIP3    H211962   1.125   5.563   2.504 -0.3183  1.0986 -4.2753
 3986TIP3   OH211963   5.768   1.348   5.092 -0.3176 -0.0672 -0.3706
 3986TIP3    H111964   5.729   1.424   5.134 -0.4231 -1.0035  1.2733
 3986TIP3    H211965   5.862   1.358   5.108 -0.4549 -1.0264  1.1706
 3987TIP3   OH211966   5.710   4.014   1.919  0.2100  0.1864 -0.2519
 3987TIP3    H111967   5.735   3.984   2.006  0.6329  0.2417 -0.3488
 3987TIP3    H211968   5.752   4.100   1.910 -1.0227  0.8464  0.0444
 3988TIP3   OH211969   0.297   2.181   3.919 -0.2331  0.8381 -0.1636
 3988TIP3    H111970   0.248   2.128   3.856  0.6197  0.8162 -0.8148
 3988TIP3    H211971   0.258   2.158   4.004 -0.4485 -0.1974 -0.5283
 3989TIP3   OH211972   3.517   0.948   1.041 -0.7195 -0.0904 -0.4309
 3989TIP3    H111973   3.547   0.907   1.122 -1.4892  0.2831  0.0568
 3989TIP3    H211974   3.453   0.886   1.005 -2.2412  0.8361  0.5508
 3990TIP3   OH211975   4.045   0.773   1.773 -0.3550  0.0188 -0.1341
 3990TIP3    H111976   4.048   0.835   1.847 -1.4256 -0.1035  0.0262
 3990TIP3    H211977   3.985   0.813   1.711 -0.7355 -0.6610 -0.2118
 3991TIP3   OH211978   4.904   5.614   2.747  0.0922  0.1978 -0.4759
 3991TIP3    H111979   4.821   5.632   2.703 -0.8784 -2.4733  0.0223
 3991TIP3    H211980   4.897   5.660   2.831 -0.1572  1.3333 -1.1049
 3992TIP3   OH211981   4.510   5.581   3.261 -0.1843  0.8543 -0.3217
 3992TIP3    H111982   4.507   5.518   3.188 -0.4208  2.0275 -1.3578
 3992TIP3    H211983   4.479   5.663   3.222 -1.0276  1.3364  1.2913
 3993TIP3   OH211984   4.737   4.122   3.600 -0.0544 -0.4586  0.4311
 3993TIP3    H111985   4.667   4.061   3.581  0.7220 -1.2667  0.1243
 3993TIP3    H211986   4.718   4.198   3.545  0.1399 -1.2813 -0.7986
 3994TIP3   OH211987   0.069   0.571   1.189 -0.4566  0.7190 -0.2360
 3994TIP3    H111988   0.063   0.586   1.283  1.8537  0.4990  0.0070
 3994TIP3    H211989   0.137   0.633   1.159 -0.5164  0.1718 -1.5867
 3995TIP3   OH211990   0.874   5.087   3.983  0.4222  0.3516 -0.0987
 3995TIP3    H111991   0.899   5.045   4.066  0.8657  2.1865  0.7446
 3995TIP3    H211992   0.792   5.045   3.959 -0.8134  1.1834  2.3608
 3996TIP3   OH211993   5.460   1.228   1.238 -0.4202 -0.2047 -0.1443
 3996TIP3    H111994   5.421   1.304   1.282 -0.7453 -0.4754  0.0426
 3996TIP3    H211995   5.505   1.265   1.162  2.3870  0.6360  1.7743
 3997TIP3   OH211996   2.614   3.508   5.097 -0.2179  0.5132 -0.2737
 3997TIP3    H111997   2.667   3.435   5.065 -0.6479 -0.2140  0.6100
 3997TIP3    H211998   2.655   3.586   5.061  0.8505 -0.1017 -0.4215
 3998TIP3   OH211999   5.811   2.136   3.484 -0.2476  0.2644 -0.0631
 3998TIP3    H112000   5.881   2.200   3.470 -1.2368  1.8409  1.7111
 3998TIP3    H212001   5.842   2.082   3.556  0.3108 -0.9382 -1.1495
 3999TIP3   OH212002   2.508   1.137   3.085 -0.3797 -0.1267 -0.0834
 3999TIP3    H112003   2.502   1.114   3.177  1.8935 -0.9200 -0.0758
 3999TIP3    H212004   2.421   1.172   3.063 -1.0128 -0.0586  2.2855
 4000TIP3   OH212005   4.169   3.082   2.223  0.1872 -0.2633 -0.0405
 4000TIP3    H112006   4.172   3.175   2.246  1.4369 -0.1985 -0.3489
 4000TIP3    H212007   4.108   3.044   2.285  0.0867  0.6696  0.4608
 4001TIP3   OH212008   2.227   0.922   0.153  0.3705 -0.5641  0.0691
 4001TIP3    H112009   2.205   0.911   0.060  0.6625 -0.5941  0.0032
 4001TIP3    H212010   2.153   0.970   0.189  1.3443  1.6590 -0.6962
 4002TIP3   OH212011   3.785   0.372   4.692 -0.1555 -0.2141  0.0157
 4002TIP3    H112012   3.796   0.387   4.786  0.6171  1.8740 -0.3696
 4002TIP3    H212013   3.812   0.454   4.651 -1.6731 -0.6483 -1.9822
 4003TIP3   OH212014   2.082   2.079   2.003  0.3806 -0.2645  0.1081
 4003TIP3    H112015   2.014   2.116   1.946 -0.2602 -1.2220  0.2332
 4003TIP3    H212016   2.033   2.041   2.076  1.1901  1.1501  1.4564
 4004TIP3   OH212017   3.479   1.548   4.739  0.5099  0.1974  0.6647
 4004TIP3    H112018   3.385   1.538   4.722  0.3534  2.6108 -0.2368
 4004TIP3    H212019   3.496   1.641   4.727  2.9195 -0.0664  1.4810
 4005TIP3   OH212020   6.097   0.254   5.141  0.1381 -0.3025  0.0150
 4005TIP3    H112021   6.019   0.263   5.086  0.1102  1.2300  0.2560
 4005TIP3    H212022   6.073   0.188   5.206 -1.9356  1.8193  1.6123
 4006TIP3   OH212023   4.030   2.123   2.674  0.3323 -0.1633 -0.0183
 4006TIP3    H112024   3.994   2.063   2.609  2.0708 -1.0324 -0.2236
 4006TIP3    H212025   4.045   2.069   2.752  2.5488 -0.2031 -0.4249
 4007TIP3   OH212026   1.249   3.626   1.385  0.0706 -0.3363 -0.0187
 4007TIP3    H112027   1.315   3.625   1.316  0.9506 -2.2783  0.7724
 4007TIP3    H212028   1.259   3.541   1.429 -4.5251 -1.8036 -1.3121
 4008TIP3   OH212029   5.767   0.308   4.438  0.0745  0.6539  0.0704
 4008TIP3    H112030   5.685   0.354   4.419  0.0741  0.3394 -0.7328
 4008TIP3    H212031   5.749   0.256   4.516 -0.5574  0.4205 -0.2263
 4009TIP3   OH212032   3.889   2.338   1.779  0.1866  0.7490  0.1885
 4009TIP3    H112033   3.951   2.392   1.828  1.8623 -0.0900 -0.8843
 4009TIP3    H212034   3.941   2.262   1.751 -1.9351 -1.1715  1.1913
 4010TIP3   OH212035   2.578   4.693   4.529  0.5156  0.5914  0.5665
 4010TIP3    H112036   2.604   4.665   4.617  1.2377  1.8608  0.7863
 4010TIP3    H212037   2.616   4.628   4.470  0.6451  0.1346  1.1479
 4011TIP3   OH212038   6.258   2.782   1.159  0.0092  0.6873  0.6231
 4011TIP3    H112039   6.196   2.773   1.231 -0.2309  1.7160  0.5555
 4011TIP3    H212040   6.204   2.798   1.082  0.2746 -0.2339  0.2289
 4012TIP3   OH212041   4.576   4.268   3.798 -0.5185  0.1054 -0.2187
 4012TIP3    H112042   4.615   4.355   3.790 -2.5299  0.9684 -1.4362
 4012TIP3    H212043   4.607   4.221   3.721 -0.9696  0.4312 -0.6106
 4013TIP3   OH212044   2.496   3.326   2.865 -0.2956 -0.3748 -0.2690
 4013TIP3    H112045   2.505   3.389   2.794 -0.7570 -0.9588 -0.8632
 4013TIP3    H212046   2.532   3.245   2.831 -2.2606 -1.1822 -0.5758
 4014TIP3   OH212047   1.071   2.960   1.522  0.1974  0.4567  0.3118
 4014TIP3    H112048   1.149   2.905   1.523  1.1454  1.7312  2.2790
 4014TIP3    H212049   1.104   3.049   1.504 -0.6627  1.1399  1.9193
 4015TIP3   OH212050   2.895   4.870   3.444 -0.9693  0.2497  0.3352
 4015TIP3    H112051   2.826   4.844   3.505  0.8515  0.5914  2.7079
 4015TIP3    H212052   2.959   4.799   3.449 -0.3641  0.7229 -0.5049
 4016TIP3   OH212053   4.939   1.384   2.140  0.2586  0.2179  0.2616
 4016TIP3    H112054   5.021   1.387   2.188 -1.0596 -0.9460  2.7770
 4016TIP3    H212055   4.879   1.438   2.190 -1.1276 -0.8219 -0.2025
 4017TIP3   OH212056   3.878   3.979   3.168  0.4176  0.4412 -0.3306
 4017TIP3    H112057   3.796   3.952   3.209  0.0508  0.6950 -0.8759
 4017TIP3    H212058   3.852   4.011   3.081  1.0872  0.5711 -0.4919
 4018TIP3   OH212059   4.558   3.106   3.752  0.8057  0.2691 -0.3038
 4018TIP3    H112060   4.477   3.157   3.748  0.7135  0.0601 -2.5045
 4018TIP3    H212061   4.628   3.171   3.743  0.8136  0.2927 -0.0721
 4019TIP3   OH212062   6.361   2.663   5.105 -0.0521 -0.2034  0.2751
 4019TIP3    H112063   6.372   2.679   5.199  1.6295  1.8417 -0.1896
 4019TIP3    H212064   6.323   2.745   5.071 -0.5324 -0.8680 -0.8635
 4020TIP3   OH212065   5.071   0.968   0.010 -0.4367 -0.1556 -0.1853
 4020TIP3    H112066   5.092   1.027   0.082  0.8635 -1.0418  0.1835
 4020TIP3    H212067   4.978   0.948   0.021 -0.5964  0.8671  0.3762
 4021TIP3   OH212068   5.896   1.248   0.174 -0.3391 -0.2717 -0.8345
 4021TIP3    H112069   5.964   1.275   0.112 -1.5159 -0.0097 -2.0593
 4021TIP3    H212070   5.940   1.246   0.259  1.1491  0.0397 -1.5668
 4022TIP3   OH212071   6.050   1.570   2.890 -0.0513  0.3841 -0.2339
 4022TIP3    H112072   6.095   1.516   2.956 -0.6350  0.1936  0.0155
 4022TIP3    H212073   5.957   1.548   2.901 -0.1903  0.6536 -0.8521
 4023TIP3   OH212074   5.164   0.047   3.772  0.0434  0.1850  0.1205
 4023TIP3    H112075   5.127  -0.036   3.802  0.3415 -0.0989 -0.2842
 4023TIP3    H212076   5.167   0.102   3.851  0.9048 -0.5784  0.6497
 4024TIP3   OH212077   1.477   1.479   0.276 -0.8548 -0.2870  0.1428
 4024TIP3    H112078   1.473   1.424   0.354  0.4311 -0.5564  0.0428
 4024TIP3    H212079   1.445   1.565   0.306 -1.5684 -0.7079  0.6348
 4025TIP3   OH212080   5.247   0.458   0.108 -0.2836 -0.2646 -0.0351
 4025TIP3    H112081   5.300   0.482   0.032  0.6955 -0.8158  0.4498
 4025TIP3    H212082   5.163   0.431   0.071 -0.8148  2.0433 -0.7366
 4026TIP3   OH212083   5.291   2.452   1.169 -0.2779 -0.0288 -0.1632
 4026TIP3    H112084   5.306   2.429   1.261 -1.0070 -1.2407 -0.3183
 4026TIP3    H212085   5.292   2.548   1.168  0.6625 -0.0015  0.9385
 4027TIP3   OH212086   0.261   0.621   4.175  0.4624 -0.2887 -0.4752
 4027TIP3    H112087   0.344   0.670   4.173  0.1703  0.1938 -0.8444
 4027TIP3    H212088   0.216   0.652   4.253 -0.0385  0.5614 -1.0938
 4028TIP3   OH212089   0.584   1.756   2.761 -0.4736  0.2038  0.1588
 4028TIP3    H112090   0.675   1.785   2.757 -0.1459 -0.9255 -2.4875
 4028TIP3    H212091   0.580   1.698   2.837  0.2865  2.3337  1.9293
 4029TIP3   OH212092   0.903   2.280   0.295  0.0020 -0.1003 -0.0665
 4029TIP3    H112093   0.882   2.239   0.211  1.3413  1.1362 -1.0485
 4029TIP3    H212094   0.845   2.237   0.358  0.4228 -2.5597 -1.2362
 4030TIP3   OH212095   1.114   0.535   0.492  0.1296 -0.4018  0.1742
 4030TIP3    H112096   1.041   0.495   0.445 -0.0503 -0.7324  0.7196
 4030TIP3    H212097   1.190   0.480   0.472  1.1628  1.9648 -3.4168
 4031TIP3   OH212098   5.411   0.866   3.050 -0.0021  0.0760  0.2830
 4031TIP3    H112099   5.424   0.913   2.967  0.5865 -0.7936 -0.1423
 4031TIP3    H212100   5.500   0.848   3.081 -0.2126 -0.7692  0.4111
 4032TIP3   OH212101   2.265   4.755   3.258  0.3252 -0.0995 -0.1955
 4032TIP3    H112102   2.357   4.767   3.282  0.6482 -0.4707 -1.1968
 4032TIP3    H212103   2.234   4.844   3.237 -0.0083  0.2618  1.6252
 4033TIP3   OH212104   2.259   2.861   0.502  0.1697  0.1839 -0.3282
 4033TIP3    H112105   2.302   2.779   0.479  0.0438 -0.5131  1.7416
 4033TIP3    H212106   2.312   2.929   0.459  1.9070 -0.8183  0.1434
 4034TIP3   OH212107   0.536   1.825   0.543  0.0371 -0.1011 -0.7065
 4034TIP3    H112108   0.567   1.915   0.545  0.9330 -0.4026 -0.5079
 4034TIP3    H212109   0.450   1.830   0.502  0.1453  0.8202 -0.8402
 4035TIP3   OH212110   6.113   5.151   1.686  0.5588 -0.2268  0.3068
 4035TIP3    H112111   6.030   5.164   1.731  1.7107 -3.0465  3.7010
 4035TIP3    H212112   6.122   5.229   1.630 -3.3306  1.1644  1.2704
 4036TIP3   OH212113   5.391   1.677   0.568  0.4521 -0.0220  0.6283
 4036TIP3    H112114   5.453   1.610   0.539 -0.0490  0.5271 -1.9790
 4036TIP3    H212115   5.308   1.631   0.577  0.7548 -0.3465  2.1320
 4037TIP3   OH212116   5.547   0.089   2.036  0.2518 -0.7499  0.2226
 4037TIP3    H112117   5.501   0.149   1.978  0.3666  1.8293  2.5838
 4037TIP3    H212118   5.477   0.041   2.081  0.0180 -0.0769  0.5883
 4038TIP3   OH212119   4.511   4.767   5.086  0.1070 -0.0574  0.3460
 4038TIP3    H112120   4.447   4.829   5.120  0.4389  0.6161 -0.2485
 4038TIP3    H212121   4.473   4.681   5.105 -1.6148  0.3163 -1.1865
 4039TIP3   OH212122   2.325   4.773   4.687  0.4221 -0.4757  0.4019
 4039TIP3    H112123   2.234   4.747   4.696  1.0650 -2.6474  1.4080
 4039TIP3    H212124   2.371   4.723   4.755  2.3662  0.5215 -0.1072
 4040TIP3   OH212125   1.523   2.283   3.842  0.2348 -0.6153 -0.0208
 4040TIP3    H112126   1.609   2.310   3.808  0.7481 -0.7915  1.0723
 4040TIP3    H212127   1.506   2.199   3.801 -0.1109  0.0825 -1.3647
 4041TIP3   OH212128   3.683   4.136   3.009  0.1798 -0.2397 -0.0341
 4041TIP3    H112129   3.736   4.171   2.938 -0.5123 -0.6655 -0.7807
 4041TIP3    H212130   3.641   4.212   3.048 -0.6573 -0.1428 -1.1004
 4042TIP3   OH212131   0.268   1.117   1.427 -0.3508 -0.2579 -0.1628
 4042TIP3    H112132   0.225   1.032   1.417  0.1036 -0.6699  1.1611
 4042TIP3    H212133   0.196   1.178   1.441 -0.6363 -0.5660 -0.2535
 4043TIP3   OH212134   0.611   3.644   2.634  0.1875 -0.3156  0.2789
 4043TIP3    H112135   0.686   3.599   2.594  0.2470 -0.7537  0.8685
 4043TIP3    H212136   0.626   3.737   2.617 -0.2587 -0.5293 -1.5316
 4044TIP3   OH212137   0.911   1.324   3.674  0.5238  0.4513 -0.2741
 4044TIP3    H112138   0.915   1.379   3.752  1.9935 -0.4112  0.3053
 4044TIP3    H212139   0.818   1.322   3.650  0.3833  3.0037 -0.2283
 4045TIP3   OH212140   0.968   1.384   0.797  0.3234 -0.2436 -0.6535
 4045TIP3    H112141   0.884   1.406   0.756 -0.1268 -2.4285 -1.0076
 4045TIP3    H212142   1.015   1.337   0.729  2.0535  1.2916 -0.5898
 4046TIP3   OH212143   1.494   2.639   4.544  0.1670 -0.4822  0.2493
 4046TIP3    H112144   1.401   2.639   4.567 -0.0335 -0.3599 -0.5200
 4046TIP3    H212145   1.538   2.598   4.619 -0.3397  0.7814  1.2693
 4047TIP3   OH212146   2.051   5.724   2.319  0.1126  0.3138  0.4138
 4047TIP3    H112147   1.962   5.688   2.324  0.3020 -0.1917  0.2336
 4047TIP3    H212148   2.050   5.780   2.242 -0.0717  0.3666  0.4542
 4048TIP3   OH212149   1.446   0.565   4.805 -0.1661  0.0956  1.0835
 4048TIP3    H112150   1.379   0.634   4.802  0.3203  0.5617  0.8850
 4048TIP3    H212151   1.403   0.492   4.850 -0.8014  0.4007  0.9797
 4049TIP3   OH212152   2.082   5.969   0.470 -0.6199 -0.0844  0.0995
 4049TIP3    H112153   2.136   5.893   0.491 -1.6283  0.0006  3.8627
 4049TIP3    H212154   2.126   6.043   0.512 -1.0891  0.9024 -1.0875
 4050TIP3   OH212155   2.435   0.985   0.353 -0.5322 -0.3837  0.2550
 4050TIP3    H112156   2.403   1.028   0.274 -1.6222 -2.0803 -0.2622
 4050TIP3    H212157   2.399   0.897   0.349 -0.7068 -0.4881  2.6994
 4051TIP3   OH212158   0.274   5.284   0.096  0.3018  0.5341  0.2879
 4051TIP3    H112159   0.217   5.352   0.059 -0.7642 -0.3228  0.3031
 4051TIP3    H212160   0.307   5.322   0.177  0.1957  1.2610 -0.0020
 4052TIP3   OH212161   1.040   2.041   1.347 -0.6459  0.1135 -0.0459
 4052TIP3    H112162   1.043   2.052   1.252  0.4406 -1.0594 -0.1551
 4052TIP3    H212163   0.949   2.017   1.365 -0.7625 -0.0549 -0.8320
 4053TIP3   OH212164   3.242   4.838   2.584  0.5060 -0.1269  0.1760
 4053TIP3    H112165   3.248   4.753   2.627 -0.2305  0.0938  0.7416
 4053TIP3    H212166   3.169   4.828   2.522 -0.5470  0.5073  1.2724
 4054TIP3   OH212167   1.974   3.646   1.392  0.1551 -0.3365  0.3721
 4054TIP3    H112168   1.901   3.635   1.331  0.4399  0.1595 -0.0621
 4054TIP3    H212169   1.942   3.608   1.474 -0.3327 -0.7575 -0.0052
 4055TIP3   OH212170   3.075   4.906   4.694 -0.1921 -0.5607  0.1111
 4055TIP3    H112171   2.982   4.887   4.680  0.2585 -1.6944 -1.7227
 4055TIP3    H212172   3.117   4.878   4.613  1.5395  1.7139  0.1463
 4056TIP3   OH212173   3.240   4.011   0.049  0.5834 -0.2461  0.0204
 4056TIP3    H112174   3.182   4.016  -0.027  0.4882 -1.1403  0.0249
 4056TIP3    H212175   3.226   4.093   0.095 -1.2509 -0.7403  0.4265
 4057TIP3   OH212176   5.184   3.643   4.443 -0.0640  0.5562  0.4051
 4057TIP3    H112177   5.123   3.594   4.499  0.3702 -1.0191 -0.4378
 4057TIP3    H212178   5.140   3.648   4.358  0.9154 -0.5828 -0.2058
 4058TIP3   OH212179   2.599   4.342   2.100  0.5924  0.4406 -0.1793
 4058TIP3    H112180   2.540   4.415   2.083 -0.2729  0.0523  1.0760
 4058TIP3    H212181   2.686   4.376   2.077  0.1010  1.5743 -0.4250
 4059TIP3   OH212182   6.048   0.812   2.822  0.5895 -0.3502  0.6432
 4059TIP3    H112183   6.117   0.777   2.878 -0.1407 -2.1884  0.4645
 4059TIP3    H212184   5.980   0.745   2.824 -1.0473  1.2336  0.5100
 4060TIP3   OH212185   3.047   0.321   1.248 -0.2077 -0.0966 -0.0744
 4060TIP3    H112186   3.100   0.345   1.324 -0.2144  1.1194 -0.4290
 4060TIP3    H212187   3.111   0.313   1.176  0.0005 -2.7253  0.3264
 4061TIP3   OH212188   0.015   4.808   2.890  0.2622  0.2574 -0.0112
 4061TIP3    H112189  -0.040   4.795   2.966  2.1025  1.7326  1.6741
 4061TIP3    H212190   0.079   4.874   2.916  2.0082 -0.3642 -2.2673
 4062TIP3   OH212191   1.771   1.486   0.830  0.1951  0.2944  0.1092
 4062TIP3    H112192   1.757   1.405   0.781  0.0026  1.4383 -1.8363
 4062TIP3    H212193   1.845   1.528   0.786  0.3966  1.1148  1.1867
 4063TIP3   OH212194   3.021   5.030   3.648 -0.0764 -0.2644  0.4014
 4063TIP3    H112195   2.994   4.953   3.600 -0.2476 -1.5908  2.4916
 4063TIP3    H212196   3.094   5.000   3.702  0.4925  1.2882  0.5381
 4064TIP3   OH212197   0.018   4.359   4.479 -0.2905 -0.3979 -0.1370
 4064TIP3    H112198  -0.050   4.292   4.482 -1.2494  0.3607 -2.6483
 4064TIP3    H212199   0.046   4.361   4.388  1.7364  0.6949  0.4490
 4065TIP3   OH212200   5.318   2.055   0.939 -0.0437 -0.1023  0.3656
 4065TIP3    H112201   5.326   1.975   0.887 -0.1006  1.7048 -2.6422
 4065TIP3    H212202   5.224   2.071   0.943  0.0705  1.5238 -2.0061
 4066TIP3   OH212203   4.448   5.427   2.221 -0.0732 -0.0522  0.0550
 4066TIP3    H112204   4.483   5.482   2.151  0.3165  0.2619  0.4889
 4066TIP3    H212205   4.509   5.440   2.294  0.7169 -1.9933 -0.2025
 4067TIP3   OH212206   2.503   2.778   5.005 -0.3188  0.6203  0.1767
 4067TIP3    H112207   2.570   2.794   4.939  0.3343  1.6000  1.0522
 4067TIP3    H212208   2.458   2.863   5.015 -2.0560 -0.1292 -0.7598
 4068TIP3   OH212209   1.328   2.809   1.386  0.0820 -0.3082  0.2373
 4068TIP3    H112210   1.375   2.889   1.410  0.8770 -0.9210  0.7755
 4068TIP3    H212211   1.295   2.826   1.298  0.2127  0.6278  0.3586
 4069TIP3   OH212212   4.815   3.000   0.736 -0.5918 -0.0208  0.4580
 4069TIP3    H112213   4.821   3.051   0.655  1.3998  0.0582  0.6017
 4069TIP3    H212214   4.761   2.925   0.713 -0.2792  0.1365 -0.8857
 4070TIP3   OH212215   2.594   1.585   4.090  0.3444  0.3562 -0.2930
 4070TIP3    H112216   2.607   1.577   3.995  0.9823  0.1613 -0.1975
 4070TIP3    H212217   2.524   1.523   4.109  1.7869 -1.3879 -0.3228
 4071TIP3   OH212218   2.343   0.224   0.089  0.2712  0.5874  0.3969
 4071TIP3    H112219   2.381   0.242   0.003  2.3937 -2.5082  0.5288
 4071TIP3    H212220   2.391   0.280   0.149 -0.1242  1.6089 -0.2121
 4072TIP3   OH212221   3.230   5.527   2.851  0.2500 -0.0819 -0.0628
 4072TIP3    H112222   3.164   5.458   2.849  1.0416 -0.8466 -1.0833
 4072TIP3    H212223   3.231   5.562   2.761 -0.2986  1.4387  0.4832
 4073TIP3   OH212224   5.429   3.465   3.255 -0.4296 -0.0597  0.1780
 4073TIP3    H112225   5.500   3.418   3.300  1.2255  1.2230 -0.9811
 4073TIP3    H212226   5.456   3.466   3.163 -1.9945  0.4258 -0.3001
 4074TIP3   OH212227   6.092   1.247   4.368 -0.6957  0.5783  0.5293
 4074TIP3    H112228   6.124   1.282   4.285  0.2759  0.5481  0.8700
 4074TIP3    H212229   6.094   1.321   4.428  0.1066  0.2580  0.9148
 4075TIP3   OH212230   3.869   0.778   0.821  0.6205  0.0695 -0.2468
 4075TIP3    H112231   3.958   0.758   0.790  0.8323  1.0575 -0.2961
 4075TIP3    H212232   3.870   0.871   0.840  0.0929 -0.2312  1.4581
 4076TIP3   OH212233   0.086   5.854   0.447 -0.1989 -0.5356 -0.0840
 4076TIP3    H112234   0.165   5.903   0.467  0.3158 -1.2437 -0.3653
 4076TIP3    H212235   0.078   5.790   0.518  0.0834 -1.1784 -0.6216
 4077TIP3   OH212236   6.040   0.276   1.982  0.0480  0.0102  0.4292
 4077TIP3    H112237   6.098   0.210   1.943 -0.9111 -0.7854  0.3004
 4077TIP3    H212238   6.095   0.352   1.995  1.0624 -0.6497  0.0865
 4078TIP3   OH212239   4.341   2.703   3.581 -0.3452 -0.4328 -0.4290
 4078TIP3    H112240   4.270   2.727   3.641 -1.5459 -1.9482 -1.1513
 4078TIP3    H212241   4.315   2.741   3.497  1.5062  1.9835  0.0047
 4079TIP3   OH212242   1.819   1.381   0.424  0.3257 -0.4269  0.2389
 4079TIP3    H112243   1.913   1.396   0.415  0.1950 -0.5499 -1.8130
 4079TIP3    H212244   1.784   1.466   0.451  1.2382 -0.9663  3.4866
 4080TIP3   OH212245   0.791   2.815   2.467  0.0843  0.5800 -0.8626
 4080TIP3    H112246   0.711   2.788   2.511  0.6010  0.3152 -0.0597
 4080TIP3    H212247   0.809   2.903   2.501 -0.5446  1.1691 -2.0053
 4081TIP3   OH212248   3.302   2.172   0.999  0.0820  0.1184 -0.3767
 4081TIP3    H112249   3.307   2.143   1.091  0.7314  0.6859 -0.2204
 4081TIP3    H212250   3.284   2.092   0.950 -2.9502  0.1699  0.4687
 4082TIP3   OH212251   1.674   3.384   4.800 -0.5122 -0.3444  0.0444
 4082TIP3    H112252   1.626   3.308   4.767 -0.9268  0.2080 -0.6585
 4082TIP3    H212253   1.688   3.439   4.723 -1.4616  0.9548  0.7655
 4083TIP3   OH212254   2.947   4.318   4.472 -0.0747  0.3685  0.1708
 4083TIP3    H112255   2.946   4.246   4.409  1.1415  1.7866 -1.6036
 4083TIP3    H212256   3.040   4.336   4.485 -0.3390  1.9971  0.0522
 4084TIP3   OH212257   4.636   0.828   4.037  0.8203  0.1027  0.2589
 4084TIP3    H112258   4.691   0.832   3.959 -1.2270 -0.8576 -1.3245
 4084TIP3    H212259   4.679   0.763   4.093  1.9690  0.3153 -0.3448
 4085TIP3   OH212260   1.447   5.084   4.704 -0.1968 -0.0454 -0.1479
 4085TIP3    H112261   1.389   5.084   4.780 -2.1670 -0.1495 -1.5743
 4085TIP3    H212262   1.445   5.174   4.672 -2.8160 -0.7981 -2.4615
 4086TIP3   OH212263   4.585   1.730   0.853  0.4663 -0.3124 -0.1312
 4086TIP3    H112264   4.502   1.753   0.810 -0.4208  0.3054  1.8030
 4086TIP3    H212265   4.627   1.814   0.870  0.5407 -0.5166  0.6900
 4087TIP3   OH212266   3.103   4.381   1.765  0.4698 -0.4765 -0.4171
 4087TIP3    H112267   3.149   4.463   1.787 -1.1483 -0.1702  2.2735
 4087TIP3    H212268   3.010   4.404   1.768  0.0040 -2.0469 -1.4464
 4088TIP3   OH212269   1.370   2.730   2.658  0.0300 -0.1187  0.0184
 4088TIP3    H112270   1.335   2.677   2.586 -1.1308  1.1012 -0.3619
 4088TIP3    H212271   1.463   2.741   2.636  0.2527 -1.8076  0.0161
 4089TIP3   OH212272   5.114   4.984   4.671  0.0857  0.0660 -0.1066
 4089TIP3    H112273   5.118   4.961   4.764 -2.0993  3.0137  0.8692
 4089TIP3    H212274   5.200   5.021   4.652  0.0961  0.7458  1.1672
 4090TIP3   OH212275   0.443   1.699   1.806 -0.2830  0.3154  0.6176
 4090TIP3    H112276   0.413   1.608   1.799 -2.2616  0.8894  1.0545
 4090TIP3    H212277   0.487   1.702   1.891  0.4033 -0.3723  0.3053
 4091TIP3   OH212278   5.581   0.738   1.468 -0.0518 -0.0674 -0.0350
 4091TIP3    H112279   5.630   0.656   1.465  0.5277  0.2881 -1.0735
 4091TIP3    H212280   5.549   0.750   1.378  1.1736  1.5912 -0.2989
 4092TIP3   OH212281   1.919   1.645   2.758 -0.4936  0.5568 -0.8481
 4092TIP3    H112282   1.964   1.702   2.696  1.9623  1.3279  1.4642
 4092TIP3    H212283   1.916   1.695   2.839 -0.3401 -1.7020  0.6497
 4093TIP3   OH212284   0.387   3.322   0.026 -0.2165  0.4588  0.0806
 4093TIP3    H112285   0.399   3.228   0.030 -1.5071  0.3151  1.7971
 4093TIP3    H212286   0.323   3.336  -0.043 -0.4192  0.0236  0.1797
 4094TIP3   OH212287   0.490   2.258   4.170 -0.0490 -0.0618 -0.1421
 4094TIP3    H112288   0.512   2.195   4.101 -0.7901 -0.7609  0.2543
 4094TIP3    H212289   0.575   2.296   4.195  0.0844  1.3482 -2.4946
 4095TIP3   OH212290   1.321   4.230   0.425 -0.0088  0.4495 -0.3977
 4095TIP3    H112291   1.261   4.158   0.407  0.0260  0.5225 -0.8144
 4095TIP3    H212292   1.265   4.299   0.463 -0.0778  0.2877 -0.2028
 4096TIP3   OH212293   2.556   0.778   0.563 -0.1233 -0.1923  0.1791
 4096TIP3    H112294   2.518   0.736   0.486  0.6644  0.6001 -0.6521
 4096TIP3    H212295   2.483   0.783   0.626 -0.4448 -2.0002 -0.0111
 4097TIP3   OH212296   1.642   2.741   1.753 -0.4364 -0.3760 -0.0319
 4097TIP3    H112297   1.654   2.690   1.833  3.4408  0.8365  0.3687
 4097TIP3    H212298   1.629   2.675   1.684  2.4429 -1.9098  0.7457
 4098TIP3   OH212299   2.275   2.954   5.199 -0.4429  0.0229 -0.7310
 4098TIP3    H112300   2.307   3.030   5.246  0.6680 -0.9566  0.1390
 4098TIP3    H212301   2.296   2.972   5.107 -0.7816  1.0286 -0.6245
 4099TIP3   OH212302   3.907   2.668   4.500  0.1353 -0.5134  0.3802
 4099TIP3    H112303   3.919   2.578   4.530 -1.1762 -0.5095  0.9674
 4099TIP3    H212304   3.995   2.706   4.504  0.2742 -0.9230  2.9380
 4100TIP3   OH212305   5.060   1.376   1.808 -0.4347  0.1683 -0.6336
 4100TIP3    H112306   5.033   1.285   1.798 -0.9768  0.1768  0.6863
 4100TIP3    H212307   5.083   1.386   1.900 -2.3271  1.8765 -0.2711
 4101TIP3   OH212308   5.984   1.179   2.017  0.0172  0.2404 -0.9731
 4101TIP3    H112309   5.950   1.168   1.928  0.2271  0.1684 -1.0467
 4101TIP3    H212310   6.071   1.138   2.014  0.3813  0.9881 -0.9752
 4102TIP3   OH212311   1.122   1.511   1.437  0.0647 -0.5014 -0.0713
 4102TIP3    H112312   1.098   1.603   1.422  2.2473  0.5165  1.9253
 4102TIP3    H212313   1.077   1.488   1.518 -0.8534 -1.3841 -0.8170
 4103TIP3   OH212314   2.291   1.396   1.821  0.4219 -0.0102 -0.0671
 4103TIP3    H112315   2.331   1.470   1.866 -0.2973  0.2186  0.2183
 4103TIP3    H212316   2.216   1.434   1.775  0.5621 -0.4152 -0.6385
 4104TIP3   OH212317   3.236   4.833   2.978 -0.2928 -0.4987 -0.5407
 4104TIP3    H112318   3.240   4.747   2.938  0.6860 -1.1064  0.7973
 4104TIP3    H212319   3.322   4.845   3.019 -1.4351 -0.2288  1.9517
 4105TIP3   OH212320   1.586   3.717   2.208  0.1766 -0.0152  0.1263
 4105TIP3    H112321   1.630   3.756   2.132 -1.7380  1.2964 -0.3725
 4105TIP3    H212322   1.626   3.759   2.283  0.3508  0.5466 -0.2744
 4106TIP3   OH212323   6.155   2.429   0.811  0.0085  0.2052  0.4565
 4106TIP3    H112324   6.189   2.484   0.881 -1.0621  1.2243  0.2098
 4106TIP3    H212325   6.100   2.364   0.856 -0.5569  0.7650  0.5926
 4107TIP3   OH212326   5.567   1.372   2.373  0.1817 -0.3042  0.1851
 4107TIP3    H112327   5.605   1.285   2.387 -2.0561 -1.5349 -0.7496
 4107TIP3    H212328   5.557   1.378   2.278 -0.5802  0.5561  0.3089
 4108TIP3   OH212329   2.178   4.777   1.904 -0.1774  0.1804  0.0394
 4108TIP3    H112330   2.135   4.843   1.849  1.0474  0.3371 -0.7806
 4108TIP3    H212331   2.120   4.701   1.900 -0.1798  0.2327 -1.4112
 4109TIP3   OH212332   6.312   4.117   2.669  0.0050  0.0580 -0.3302
 4109TIP3    H112333   6.316   4.195   2.724  1.2681 -0.1287 -0.1325
 4109TIP3    H212334   6.256   4.143   2.595 -2.8989 -0.1315  1.6578
 4110TIP3   OH212335   1.348   1.152   4.025  0.3998 -0.0567 -0.1162
 4110TIP3    H112336   1.278   1.088   4.012 -1.4413  1.8848 -0.4993
 4110TIP3    H212337   1.326   1.194   4.109  1.8774 -0.2647  0.4021
 4111TIP3   OH212338   1.392   3.597   0.421  0.2795 -0.0145 -0.0303
 4111TIP3    H112339   1.426   3.685   0.407  0.9179 -0.1843  0.4015
 4111TIP3    H212340   1.385   3.559   0.333  1.1642  0.0432 -0.1291
 4112TIP3   OH212341   2.623   1.798   0.672 -0.4643  0.6506 -0.4237
 4112TIP3    H112342   2.708   1.805   0.629  0.1272 -0.3332  0.5460
 4112TIP3    H212343   2.576   1.877   0.644  0.9210  1.4463 -0.6068
 4113TIP3   OH212344   3.102   5.921   4.238  0.3199 -0.0418  0.5771
 4113TIP3    H112345   3.146   5.870   4.170 -0.8219 -1.3352  0.7544
 4113TIP3    H212346   3.040   5.977   4.191 -1.0856 -1.5552  0.5420
 4114TIP3   OH212347   4.409   2.907   3.883  0.2763 -0.3607 -0.3627
 4114TIP3    H112348   4.462   2.975   3.841 -0.8240  0.8715  0.1968
 4114TIP3    H212349   4.350   2.876   3.814 -0.1946  0.2789 -0.2559
 4115TIP3   OH212350   0.987   1.370   1.995 -0.1449  0.0670  0.5357
 4115TIP3    H112351   0.994   1.275   2.000 -0.6794  0.0617  1.3413
 4115TIP3    H212352   0.994   1.389   1.901  0.1612 -0.7448  0.3850
 4116TIP3   OH212353   4.829   4.452   3.204 -0.4286 -0.3472  0.0839
 4116TIP3    H112354   4.734   4.449   3.214 -0.4274  1.4024  0.9431
 4116TIP3    H212355   4.863   4.435   3.292 -0.0072  0.7638  0.1535
 4117TIP3   OH212356   4.103   3.740   0.943  0.2775 -0.8548 -0.4089
 4117TIP3    H112357   4.029   3.766   0.997 -0.8836 -0.5014 -2.0813
 4117TIP3    H212358   4.130   3.655   0.978  0.0608 -0.3156  1.1511
 4118TIP3   OH212359   0.983   0.929   3.384 -0.8015  0.2604 -0.1369
 4118TIP3    H112360   1.040   1.005   3.367 -0.6081  0.5706  1.6747
 4118TIP3    H212361   0.896   0.959   3.359 -0.3627  0.1344 -1.9692
 4119TIP3   OH212362   5.600   3.070   2.494  0.5927 -0.4937 -0.2002
 4119TIP3    H112363   5.685   3.034   2.518  0.0570 -1.5543  0.1870
 4119TIP3    H212364   5.538   3.027   2.554 -0.4503 -1.1856 -1.6926
 4120TIP3   OH212365   4.213   2.781   0.164  0.0716 -0.2124 -0.0044
 4120TIP3    H112366   4.281   2.848   0.157  0.1567 -0.3471 -0.4563
 4120TIP3    H212367   4.150   2.818   0.226  0.2985  0.1307  0.0240
 4121TIP3   OH212368   1.646   2.876   4.489 -0.1029  0.1683  0.1346
 4121TIP3    H112369   1.584   2.816   4.531 -1.2947  1.2986  0.0764
 4121TIP3    H212370   1.635   2.861   4.395 -1.2101  1.2016  0.0754
 4122TIP3   OH212371   3.801   4.732   2.368 -0.0200  0.3254  0.5006
 4122TIP3    H112372   3.762   4.787   2.436 -0.5432  0.9116 -0.2618
 4122TIP3    H212373   3.733   4.723   2.302  0.6260  0.1157 -0.1482
 4123TIP3   OH212374   3.248   2.788   3.636  0.0245 -0.1133 -0.1839
 4123TIP3    H112375   3.166   2.770   3.684 -0.3200  1.7048 -0.0316
 4123TIP3    H212376   3.233   2.750   3.549 -0.2436 -1.4184  0.4018
 4124TIP3   OH212377   2.997   0.390   0.312 -0.5037 -0.3875  0.4534
 4124TIP3    H112378   2.952   0.372   0.229  0.3082  0.8673 -0.3004
 4124TIP3    H212379   2.971   0.479   0.335  0.2972 -0.2478  0.8592
 4125TIP3   OH212380   3.700   4.614   1.788  0.0126 -0.0112  0.3985
 4125TIP3    H112381   3.756   4.664   1.729 -1.1935  1.9737  0.8576
 4125TIP3    H212382   3.612   4.621   1.750 -0.5065 -0.0892  1.5449
 4126TIP3   OH212383   5.230   3.974   2.169 -0.2079  0.6528 -0.4193
 4126TIP3    H112384   5.269   3.964   2.256  0.0136 -0.5362 -0.6443
 4126TIP3    H212385   5.138   3.995   2.187 -0.2587  0.0091  0.1066
 4127TIP3   OH212386   0.045   3.114   0.282  0.3489  0.6515  0.0668
 4127TIP3    H112387  -0.043   3.079   0.293  0.1216  1.2222  0.1215
 4127TIP3    H212388   0.057   3.120   0.187  0.6517 -0.2090  0.0458
 4128TIP3   OH212389   4.712   4.859   3.633  0.0049  0.1554 -0.3987
 4128TIP3    H112390   4.720   4.949   3.666 -1.5637  0.7296 -1.4871
 4128TIP3    H212391   4.797   4.842   3.592  0.1715  1.3211 -0.5884
 4129TIP3   OH212392   4.130   1.469   1.083 -0.5125  0.3937  0.6475
 4129TIP3    H112393   4.077   1.464   1.163 -1.3567 -0.0198  0.0683
 4129TIP3    H212394   4.069   1.499   1.015  0.0530  0.1435  0.0184
 4130TIP3   OH212395   4.475   4.962   3.334  0.3057  0.6022  0.1470
 4130TIP3    H112396   4.457   5.002   3.249 -0.3201  1.2241  0.5651
 4130TIP3    H212397   4.514   5.031   3.386 -0.2061  0.5009  0.6729
 4131TIP3   OH212398   4.313   2.495   4.685 -0.3040 -0.6061  0.5309
 4131TIP3    H112399   4.244   2.514   4.747 -1.2144 -0.0356 -0.6099
 4131TIP3    H212400   4.381   2.452   4.736 -1.5438 -1.2825  1.6538
 4132TIP3   OH212401   3.007   1.177   1.629 -0.2203 -0.1527  0.0189
 4132TIP3    H112402   3.053   1.131   1.699 -0.9788  0.0558  0.6777
 4132TIP3    H212403   2.915   1.177   1.657 -0.1308  2.5635  0.5214
 4133TIP3   OH212404   3.992   4.111   0.132  0.4609  0.2343  0.5645
 4133TIP3    H112405   3.934   4.035   0.142  0.7432 -0.3236 -1.5331
 4133TIP3    H212406   4.079   4.077   0.155  0.0890  1.0443  3.6056
 4134TIP3   OH212407   0.122   4.991   0.902 -0.1716 -0.0192  0.2847
 4134TIP3    H112408   0.071   4.944   0.968 -1.2381  1.9334  0.9238
 4134TIP3    H212409   0.060   5.013   0.834  1.0527 -2.5952 -1.8217
 4135TIP3   OH212410   0.155   2.868   0.636 -0.2127 -0.1182 -0.1154
 4135TIP3    H112411   0.111   2.878   0.552 -1.6283 -0.5383  0.5429
 4135TIP3    H212412   0.109   2.797   0.680  3.5818 -3.4133 -0.8761
 4136TIP3   OH212413   3.457   1.808   4.734 -0.1992  0.5023  0.4807
 4136TIP3    H112414   3.370   1.843   4.753 -0.1777  1.7214 -1.4212
 4136TIP3    H212415   3.515   1.851   4.797 -0.8145  0.3931  1.1403
 4137TIP3   OH212416   3.289   3.974   2.122 -0.4722 -0.0988 -0.2432
 4137TIP3    H112417   3.328   4.044   2.175 -1.3518 -1.1687  1.9309
 4137TIP3    H212418   3.341   3.974   2.042  1.9778  0.6026  1.2245
 4138TIP3   OH212419   6.028   2.636   4.718  0.1981  0.7311  0.4776
 4138TIP3    H112420   6.120   2.626   4.742  0.7492 -0.2186 -1.8309
 4138TIP3    H212421   6.004   2.723   4.752  1.7457  0.7327  1.6533
 4139TIP3   OH212422   1.696   3.497  -0.007  0.0333  0.2931  0.1543
 4139TIP3    H112423   1.678   3.576   0.043 -0.3776  0.7971 -0.7593
 4139TIP3    H212424   1.671   3.425   0.051  1.1602  0.7855  1.2976
 4140TIP3   OH212425   4.543   0.650   1.380  0.1882  0.0263  0.9035
 4140TIP3    H112426   4.569   0.572   1.429  1.2806 -0.8148 -0.9213
 4140TIP3    H212427   4.537   0.621   1.289 -0.9808  1.7161  0.3814
 4141TIP3   OH212428   3.093   1.560   3.799 -0.3252  0.1174  0.3183
 4141TIP3    H112429   3.015   1.568   3.744 -0.2580  0.1850  0.2322
 4141TIP3    H212430   3.151   1.631   3.769 -1.0872  1.4288  1.7966
 4142TIP3   OH212431   1.563   1.934   2.357 -0.3208 -0.0645 -0.4780
 4142TIP3    H112432   1.486   1.910   2.306 -1.5308  1.3032  0.5980
 4142TIP3    H212433   1.637   1.918   2.298 -1.2704 -2.6402 -1.1006
 4143TIP3   OH212434   3.134   0.992   3.131  0.4855  0.1877 -0.2940
 4143TIP3    H112435   3.071   0.920   3.124 -1.5523  1.9701 -1.2049
 4143TIP3    H212436   3.201   0.972   3.066 -0.3799 -0.5614 -0.9743
 4144TIP3   OH212437   4.457   3.297   4.136 -0.1944  0.1708  0.5261
 4144TIP3    H112438   4.534   3.351   4.159  0.1641 -0.1613  0.1053
 4144TIP3    H212439   4.475   3.212   4.176 -0.4044  0.1262  0.5269
 4145TIP3   OH212440   2.196   0.973   1.447  0.2712  0.0242  0.2499
 4145TIP3    H112441   2.171   0.881   1.439 -0.4010  0.1354  0.9552
 4145TIP3    H212442   2.201   0.988   1.542  2.2605  0.2174  0.1621
 4146TIP3   OH212443   5.035   2.512   3.610 -0.2300 -0.1972 -0.0979
 4146TIP3    H112444   4.949   2.538   3.642 -0.1805 -0.1388 -0.0134
 4146TIP3    H212445   5.065   2.585   3.557  0.0110  0.0251  0.3316
 4147TIP3   OH212446   4.642   1.069   0.295 -0.0312  0.2876  0.0402
 4147TIP3    H112447   4.723   1.121   0.300 -0.2210  0.6929 -0.8053
 4147TIP3    H212448   4.650   1.005   0.365  1.7575 -0.6871 -0.9772
 4148TIP3   OH212449   1.655   5.882   1.560 -0.4653 -0.0227 -0.4888
 4148TIP3    H112450   1.597   5.840   1.496 -0.7097 -3.2673  1.6356
 4148TIP3    H212451   1.601   5.891   1.639  0.4954  1.7440  0.0390
 4149TIP3   OH212452   1.860   1.026   1.784 -0.0507  0.7584  0.0160
 4149TIP3    H112453   1.814   1.086   1.726  1.7407  0.1211 -2.1968
 4149TIP3    H212454   1.914   0.973   1.726  0.3314 -1.3164  2.1162
 4150TIP3   OH212455   2.720   2.818   2.138  0.4150  0.1706  0.1608
 4150TIP3    H112456   2.740   2.776   2.054  1.2453  1.3392 -0.2679
 4150TIP3    H212457   2.640   2.776   2.168  0.6045 -0.9149 -0.7644
 4151TIP3   OH212458   6.047   5.774   3.703 -0.5800 -0.8319  0.0144
 4151TIP3    H112459   6.133   5.747   3.672  0.2780  0.5419  1.0920
 4151TIP3    H212460   6.031   5.859   3.663 -2.4218 -1.9488 -1.8398
 4152TIP3   OH212461   1.372   5.728   2.952  0.2980 -0.2361  0.3462
 4152TIP3    H112462   1.341   5.712   3.041  1.1063 -1.2443  0.4612
 4152TIP3    H212463   1.409   5.816   2.954 -1.6819  0.6425  0.4333
 4153TIP3   OH212464   2.145   4.816   2.805 -0.2827  0.0437 -0.0050
 4153TIP3    H112465   2.103   4.891   2.762 -0.1253 -0.1536 -0.5156
 4153TIP3    H212466   2.153   4.750   2.736  1.6291  0.3788 -0.1675
 4154TIP3   OH212467   4.527   3.011   3.327  0.2051  0.0455  0.1924
 4154TIP3    H112468   4.443   3.049   3.350 -0.1397  0.0304 -0.9945
 4154TIP3    H212469   4.586   3.086   3.317 -0.2798  0.2536 -1.3593
 4155TIP3   OH212470   2.866   4.606   0.924  0.1743 -0.8302  0.1366
 4155TIP3    H112471   2.799   4.562   0.872  1.2395 -1.8765 -0.3911
 4155TIP3    H212472   2.822   4.683   0.960 -0.1810  0.8979 -3.6120
 4156TIP3   OH212473   3.569   3.348   2.504 -0.0682 -0.3658  0.2269
 4156TIP3    H112474   3.517   3.390   2.436  1.9917 -0.1762 -1.2875
 4156TIP3    H212475   3.639   3.303   2.458  0.1456 -2.1030  2.0874
 4157TIP3   OH212476   1.182   2.417   4.441 -0.3564 -0.2578  0.3224
 4157TIP3    H112477   1.260   2.380   4.483  0.6162  0.7748 -0.4828
 4157TIP3    H212478   1.143   2.473   4.507 -0.3583 -0.7058  0.7030
 4158TIP3   OH212479   2.154   5.259   0.943  0.4681 -0.0773  0.2119
 4158TIP3    H112480   2.103   5.339   0.938  2.3972  1.2393  0.5032
 4158TIP3    H212481   2.097   5.191   0.907 -1.3551  1.3393  0.3271
 4159TIP3   OH212482   0.448   2.959   0.216 -0.1092 -0.7071  0.1797
 4159TIP3    H112483   0.506   2.959   0.140 -0.2508 -0.7798  0.0689
 4159TIP3    H212484   0.501   2.994   0.287 -0.5164  1.1251 -0.3578
 4160TIP3   OH212485   1.041   4.039   2.934  0.5287 -0.3933 -0.6000
 4160TIP3    H112486   1.053   3.944   2.928  0.8702 -0.6453  2.4251
 4160TIP3    H212487   1.130   4.074   2.942  0.3863  0.1489 -1.3181
 4161TIP3   OH212488   5.407   2.113   3.017  0.2984  0.6497  0.7195
 4161TIP3    H112489   5.440   2.024   3.029 -0.7925  0.0141 -0.6754
 4161TIP3    H212490   5.481   2.162   2.983  1.4415  0.7899  3.1974
 4162TIP3   OH212491   6.318   0.501   3.339 -0.3994 -0.3462  0.4283
 4162TIP3    H112492   6.269   0.441   3.395 -1.5807  1.3029  1.2343
 4162TIP3    H212493   6.295   0.589   3.371  3.0107  0.5515  0.8213
 4163TIP3   OH212494   0.966   1.081   1.721 -0.2191  0.2476  0.3647
 4163TIP3    H112495   0.984   1.074   1.815  1.2574 -0.4844  0.0510
 4163TIP3    H212496   0.966   1.175   1.704 -3.3661  0.5674  1.5773
 4164TIP3   OH212497   4.025   5.549   1.235 -0.1426 -0.3143 -0.0458
 4164TIP3    H112498   4.054   5.592   1.315  0.6460 -1.2318  0.1915
 4164TIP3    H212499   3.957   5.488   1.264 -0.8162  0.3047 -0.2878
 4165TIP3   OH212500   4.714   0.169   1.789 -0.5883  1.0299 -0.3547
 4165TIP3    H112501   4.636   0.140   1.836  0.5129  0.1115  0.9906
 4165TIP3    H212502   4.754   0.088   1.758 -0.8513  1.5744 -2.2289
 4166TIP3   OH212503   2.903   2.810   2.884 -0.1889 -0.6292  0.1035
 4166TIP3    H112504   2.818   2.830   2.846  0.9521  1.5577 -1.5549
 4166TIP3    H212505   2.930   2.728   2.842 -0.8919 -0.6237 -0.3665
 4167TIP3   OH212506   3.036   2.251   1.543 -0.6386  0.1768 -0.7095
 4167TIP3    H112507   3.072   2.340   1.544 -1.7240  0.6313 -0.6339
 4167TIP3    H212508   3.035   2.225   1.636  2.2749 -1.0438 -0.9119
 4168TIP3   OH212509   4.936   3.618   1.388 -0.2217 -0.9014 -0.5258
 4168TIP3    H112510   5.022   3.659   1.375  0.0907 -1.3507  0.0809
 4168TIP3    H212511   4.898   3.615   1.300 -0.7112  1.6305 -0.4793
 4169TIP3   OH212512   4.812   0.903   0.089  0.5568 -0.1741  1.0071
 4169TIP3    H112513   4.826   0.829   0.149 -1.6981 -0.9262  0.6861
 4169TIP3    H212514   4.722   0.930   0.105  0.3632  0.5280 -1.0589
 4170TIP3   OH212515  -0.005   1.977   0.465 -0.0476  0.1699  0.5201
 4170TIP3    H112516   0.076   2.002   0.421  1.4875  0.1084  3.0919
 4170TIP3    H212517   0.009   1.886   0.490 -1.0606  0.0521  0.6677
 4171TIP3   OH212518   3.195   0.381   1.468 -0.0309 -0.0648 -0.6923
 4171TIP3    H112519   3.257   0.438   1.513 -0.6828 -0.3404  0.5935
 4171TIP3    H212520   3.114   0.388   1.519 -0.3486 -1.5395 -0.9608
 4172TIP3   OH212521   4.514   3.730   3.691  0.3538  0.1862  0.1698
 4172TIP3    H112522   4.542   3.690   3.774 -1.3350 -0.4502  0.4704
 4172TIP3    H212523   4.421   3.746   3.702  0.0891  0.0973 -1.6276
 4173TIP3   OH212524   5.823   0.996   1.556 -0.4089  0.0988 -0.0812
 4173TIP3    H112525   5.779   1.067   1.510 -0.2352  0.7411  0.7368
 4173TIP3    H212526   5.799   1.008   1.648 -1.6773 -1.8314 -0.1046
 4174TIP3   OH212527   2.398   4.610   4.043 -0.5618 -0.8516 -0.0390
 4174TIP3    H112528   2.476   4.663   4.029  1.2705 -2.3637  3.1959
 4174TIP3    H212529   2.332   4.672   4.075  1.0389 -0.1767  2.2020
 4175TIP3   OH212530   5.258   1.597   0.016  0.3624 -0.1682 -0.8293
 4175TIP3    H112531   5.205   1.518   0.030 -1.1362  0.9830  0.2667
 4175TIP3    H212532   5.299   1.614   0.101  1.0991 -0.0270 -1.1980
 4176TIP3   OH212533   2.833   2.736   4.944  0.4597  0.1080 -0.5319
 4176TIP3    H112534   2.817   2.750   5.037 -0.0219  0.7121 -0.6969
 4176TIP3    H212535   2.819   2.642   4.931 -0.3572  0.1709 -0.1604
 4177TIP3   OH212536   4.283   0.054   4.505  0.5772  0.1999  0.1465
 4177TIP3    H112537   4.221   0.046   4.433  0.0554  0.0226  0.6050
 4177TIP3    H212538   4.293  -0.036   4.538  0.9937  0.2442  0.1429
 4178TIP3   OH212539   5.915   0.321   1.552  0.2597 -0.5660  0.2971
 4178TIP3    H112540   5.913   0.398   1.496  1.4673  0.7374  1.9604
 4178TIP3    H212541   5.899   0.354   1.640  1.9555 -2.0261  1.2286
 4179TIP3   OH212542   5.765   1.915   1.222  0.3225  0.8061 -0.3128
 4179TIP3    H112543   5.686   1.962   1.195 -0.4865  0.4826  1.3179
 4179TIP3    H212544   5.772   1.841   1.162 -0.8740  0.6065 -0.2231
 4180TIP3   OH212545   5.967   2.121   4.368  0.7348  0.1097 -1.1053
 4180TIP3    H112546   5.961   2.029   4.396  0.7243  0.5939  0.5744
 4180TIP3    H212547   6.029   2.119   4.295  2.4386 -0.9625  0.2905
 4181TIP3   OH212548   5.400   0.387   5.157  0.1465 -0.2636  0.3161
 4181TIP3    H112549   5.375   0.475   5.185 -0.3928  0.2947 -1.7318
 4181TIP3    H212550   5.319   0.336   5.159  0.2777 -0.4604  0.6335
 4182TIP3   OH212551   2.589   2.255   1.177 -0.3186 -0.2355 -0.6768
 4182TIP3    H112552   2.589   2.351   1.177  0.6687 -0.0388  3.5793
 4182TIP3    H212553   2.496   2.231   1.171 -0.7701  1.1133  0.3314
 4183TIP3   OH212554   4.734   3.824   0.562  0.7050 -1.2578 -0.1331
 4183TIP3    H112555   4.724   3.778   0.645 -0.2908 -2.6006 -0.9596
 4183TIP3    H212556   4.814   3.876   0.572  0.1778 -0.7609  1.9314
 4184TIP3   OH212557   3.325   0.522   4.030 -0.0311 -0.7236  0.0844
 4184TIP3    H112558   3.335   0.427   4.037 -0.4271 -0.6987  1.1807
 4184TIP3    H212559   3.231   0.537   4.023  0.0928 -0.4640 -1.3985
 4185TIP3   OH212560   3.166   3.082   4.693 -0.4053  0.1553 -0.0706
 4185TIP3    H112561   3.120   3.129   4.624 -0.7176  1.7127  1.1310
 4185TIP3    H212562   3.111   3.006   4.712 -0.4976 -0.0902 -1.2636
 4186TIP3   OH212563   0.292   2.234   4.342  0.3449  0.1545  0.3257
 4186TIP3    H112564   0.347   2.236   4.264  0.0045  2.7719  0.0640
 4186TIP3    H212565   0.209   2.197   4.311 -0.3404  2.5769 -1.0783
 4187TIP3   OH212566   1.328   4.691   4.521  0.3566  0.2149  0.0225
 4187TIP3    H112567   1.413   4.650   4.508  0.4828  0.3452  0.4186
 4187TIP3    H212568   1.325   4.712   4.615  0.8311  2.2862 -0.3684
 4188TIP3   OH212569   0.989   2.507   4.255 -0.1388 -0.1874 -0.0462
 4188TIP3    H112570   1.026   2.454   4.326 -0.6042  0.6036  0.8086
 4188TIP3    H212571   1.066   2.547   4.213  0.1635 -0.9549 -0.2422
 4189TIP3   OH212572   3.790   5.983   2.878  0.1320  0.3648 -0.0679
 4189TIP3    H112573   3.703   5.947   2.861 -0.4823  1.8682 -0.3138
 4189TIP3    H212574   3.786   6.013   2.969  0.8324 -0.6734  0.3287
 4190TIP3   OH212575   1.158   4.024   4.325  0.2041  0.0441  0.1616
 4190TIP3    H112576   1.066   4.000   4.330  0.5569 -1.4519  0.0902
 4190TIP3    H212577   1.163   4.088   4.255 -1.2282  2.7081  2.2854
 4191TIP3   OH212578   5.498   2.848   1.280  0.2454 -0.4395 -0.1647
 4191TIP3    H112579   5.567   2.904   1.317  1.5239 -1.1359 -1.3617
 4191TIP3    H212580   5.534   2.820   1.195 -1.3619 -1.1593 -0.6403
 4192TIP3   OH212581   1.838   2.980   0.057 -0.4296  0.6728 -0.5301
 4192TIP3    H112582   1.745   2.954   0.057 -0.4149  0.6194 -0.5549
 4192TIP3    H212583   1.876   2.932  -0.017 -0.2791  0.3203 -0.2248
 4193TIP3   OH212584   3.279   5.573   3.709 -0.0397  0.4795  0.2539
 4193TIP3    H112585   3.219   5.641   3.681  0.7412  0.7084 -0.8884
 4193TIP3    H212586   3.267   5.502   3.646  0.6345  0.3953  0.2047
 4194TIP3   OH212587   2.823   1.509   2.855  0.1676  0.2005  0.0391
 4194TIP3    H112588   2.826   1.440   2.921  1.7246 -1.4659 -1.6502
 4194TIP3    H212589   2.897   1.490   2.797 -1.7813  0.8794 -2.8580
 4195TIP3   OH212590   2.972   5.600   3.051 -0.2563 -0.2875  0.7201
 4195TIP3    H112591   2.944   5.683   3.013 -2.3641  0.1431  2.8828
 4195TIP3    H212592   2.916   5.535   3.010  0.7270 -0.5188 -0.2751
 4196TIP3   OH212593   3.105   3.172   3.505 -0.8436  0.3521 -0.1743
 4196TIP3    H112594   3.185   3.180   3.558 -0.6738  0.9226 -0.5085
 4196TIP3    H212595   3.076   3.263   3.493 -1.7378  0.1307  0.2346
 4197TIP3   OH212596   6.123   1.640   1.056 -0.0883 -0.2749  0.8726
 4197TIP3    H112597   6.180   1.716   1.046  0.7194 -0.6349  2.4283
 4197TIP3    H212598   6.165   1.571   1.004 -1.3868  0.5692 -1.4198
 4198TIP3   OH212599   1.126   4.626   4.321 -0.0735  0.1830 -0.3774
 4198TIP3    H112600   1.151   4.534   4.317 -0.8407 -0.0880  0.6013
 4198TIP3    H212601   1.188   4.665   4.383 -1.0587 -0.1528  0.8501
 4199TIP3   OH212602   3.153   0.476   3.425  0.4434  0.1511 -0.7935
 4199TIP3    H112603   3.121   0.387   3.405 -0.2158  0.4422 -1.0648
 4199TIP3    H212604   3.219   0.463   3.493  0.9493 -0.6274 -1.4104
 4200TIP3   OH212605   5.511   2.990   3.397 -0.3165  0.2792 -0.1590
 4200TIP3    H112606   5.560   2.937   3.460 -0.3541 -2.0566 -1.9502
 4200TIP3    H212607   5.421   2.957   3.404 -0.6955  1.2998 -0.1566
 4201TIP3   OH212608   0.600   3.186   1.374 -0.6778 -0.2756 -0.2058
 4201TIP3    H112609   0.546   3.223   1.305 -0.6634  1.3440  0.5961
 4201TIP3    H212610   0.538   3.155   1.439 -0.6974  0.8581  0.3492
 4202TIP3   OH212611   1.300   2.353   3.443 -0.1198 -0.5620  0.7676
 4202TIP3    H112612   1.214   2.359   3.401 -0.7186  0.0696  2.0454
 4202TIP3    H212613   1.329   2.443   3.452  1.5555 -0.7984 -1.2957
 4203TIP3   OH212614   3.673   2.473   4.387  0.0882 -0.2380  0.3567
 4203TIP3    H112615   3.704   2.408   4.449  1.5483  0.4576  0.4117
 4203TIP3    H212616   3.613   2.528   4.437 -0.5391 -1.0432  0.5139
 4204TIP3   OH212617   6.049   2.537   3.144 -0.5313 -0.0977  0.1451
 4204TIP3    H112618   6.084   2.449   3.154  0.9896  0.2980 -1.3403
 4204TIP3    H212619   6.125   2.594   3.151 -1.2893  1.0091 -0.3781
 4205TIP3   OH212620   2.050   1.468   4.905  0.5989 -0.4310 -0.0961
 4205TIP3    H112621   2.000   1.549   4.892 -0.4575 -1.1905 -0.9128
 4205TIP3    H212622   2.139   1.490   4.876  1.0008  1.1708  2.1075
 4206TIP3   OH212623   3.528   1.977   3.960 -0.7127 -0.1367 -0.1356
 4206TIP3    H112624   3.511   1.997   3.868 -0.1820 -2.3220 -0.7521
 4206TIP3    H212625   3.619   1.949   3.963 -0.2535  1.2908  1.3528
 4207TIP3   OH212626   0.721   3.720   3.695 -0.6164  0.1530  0.4623
 4207TIP3    H112627   0.722   3.713   3.600  0.0558 -1.8848  0.5832
 4207TIP3    H212628   0.813   3.720   3.721 -0.7663  1.5102  1.1028
 4208TIP3   OH212629   2.386   5.100   2.827 -0.2447  0.0604  0.4142
 4208TIP3    H112630   2.324   5.109   2.899 -1.3711 -1.5992 -0.2696
 4208TIP3    H212631   2.467   5.071   2.868  0.4175  2.9478  1.4100
 4209TIP3   OH212632   1.839   0.429   2.460  0.4623 -0.0221 -0.3188
 4209TIP3    H112633   1.809   0.512   2.422 -1.5355  0.7660  2.6874
 4209TIP3    H212634   1.911   0.454   2.518  0.2668 -0.4730  0.1245
 4210TIP3   OH212635   3.506   0.657   2.570 -0.1944 -0.3081  0.5387
 4210TIP3    H112636   3.465   0.589   2.624 -1.8021  0.2016  0.0285
 4210TIP3    H212637   3.439   0.726   2.564  1.4424  1.4202  1.1935
 4211TIP3   OH212638   1.885   4.453   4.038 -0.2279  0.1571 -0.6307
 4211TIP3    H112639   1.897   4.504   3.958 -0.6613  0.8158 -0.2852
 4211TIP3    H212640   1.838   4.512   4.097  2.2323  0.5784  1.0301
 4212TIP3   OH212641   4.039   5.466   0.103 -0.4754  0.2477 -0.0273
 4212TIP3    H112642   4.125   5.468   0.144  0.5148  0.1227 -1.9795
 4212TIP3    H212643   4.017   5.559   0.091 -0.4290  0.2778  0.1196
 4213TIP3   OH212644   1.832   1.064   0.402  0.2358 -0.5389  0.0037
 4213TIP3    H112645   1.753   1.089   0.354  0.2847  2.7665  1.4088
 4213TIP3    H212646   1.901   1.067   0.336 -0.5357 -2.2581 -0.9667
 4214TIP3   OH212647   1.333   0.534   0.707 -0.2829 -0.1197 -0.4782
 4214TIP3    H112648   1.378   0.600   0.759  0.8922 -0.8706 -0.5206
 4214TIP3    H212649   1.240   0.548   0.727 -0.1119  1.8688 -0.8908
 4215TIP3   OH212650   0.777   2.968   1.848 -0.1264 -0.6688  0.5977
 4215TIP3    H112651   0.722   2.978   1.927  0.4903 -1.2366  1.1032
 4215TIP3    H212652   0.839   3.040   1.854 -0.6243 -0.1930  0.1692
 4216TIP3   OH212653   1.143   4.960   3.575  0.2526  0.2119 -0.5535
 4216TIP3    H112654   1.093   4.997   3.648  0.4987 -2.1998  0.9305
 4216TIP3    H212655   1.083   4.897   3.535  0.0593  1.6369 -2.6334
 4217TIP3   OH212656   6.252   3.045   3.540 -0.7890  0.1307 -0.2041
 4217TIP3    H112657   6.220   2.986   3.472 -2.2801 -0.4317  0.9208
 4217TIP3    H212658   6.313   2.993   3.591  0.1418  0.4781 -0.9448
 4218TIP3   OH212659   4.115   2.591   4.871 -0.3514 -0.0664 -0.3317
 4218TIP3    H112660   4.040   2.642   4.841  0.3325  2.0038  1.2171
 4218TIP3    H212661   4.125   2.614   4.963  1.7769 -0.7859 -0.3069
 4219TIP3   OH212662   1.914   1.697   4.993 -0.0545 -0.3559 -0.5230
 4219TIP3    H112663   1.871   1.672   5.075 -0.7393  0.1824 -0.7142
 4219TIP3    H212664   1.852   1.755   4.950  0.4567 -0.3487 -1.2616
 4220TIP3   OH212665   4.482   0.940   3.571 -0.6241  0.9278 -0.2960
 4220TIP3    H112666   4.553   1.003   3.587 -0.0355  0.0868  0.4803
 4220TIP3    H212667   4.501   0.905   3.484  1.6505 -1.4195  1.0121
 4221TIP3   OH212668   4.902   1.691   0.123 -0.1877  0.3317  0.1727
 4221TIP3    H112669   4.903   1.764   0.061 -1.5646  0.1376 -0.1007
 4221TIP3    H212670   4.886   1.614   0.069  0.6659 -0.1130  0.5348
 4222TIP3   OH212671   4.442   2.449   0.436 -0.2743 -0.5018  0.3148
 4222TIP3    H112672   4.491   2.390   0.379 -1.3855 -1.5423  0.3968
 4222TIP3    H212673   4.433   2.529   0.385  0.5175 -0.6833 -0.1376
 4223TIP3   OH212674   0.626   1.266   3.634 -0.1344  0.2202 -0.7619
 4223TIP3    H112675   0.573   1.198   3.592  0.1047 -0.5251  0.0825
 4223TIP3    H212676   0.589   1.348   3.605 -2.3222 -0.2670  0.4672
 4224TIP3   OH212677   0.536   1.248   4.342 -0.2071 -0.7979  0.0644
 4224TIP3    H112678   0.573   1.261   4.430 -0.1027  0.6595 -0.1563
 4224TIP3    H212679   0.598   1.293   4.284 -2.3075  1.8722 -0.3105
 4225TIP3   OH212680   3.872   0.193   0.287  0.0895 -0.3689  0.3883
 4225TIP3    H112681   3.891   0.279   0.325 -0.9323 -0.0369  0.1767
 4225TIP3    H212682   3.896   0.131   0.356  1.7212  0.0095  0.2101
 4226TIP3   OH212683   4.762   5.067   2.793  0.0913  0.2508  0.9840
 4226TIP3    H112684   4.852   5.098   2.779 -0.2174  0.3030 -1.2202
 4226TIP3    H212685   4.772   4.990   2.849  1.5634  0.0229  0.4629
 4227TIP3   OH212686   5.631   1.120   2.383  0.3077  0.4486 -0.4857
 4227TIP3    H112687   5.715   1.116   2.430 -1.0301  1.3446  2.2047
 4227TIP3    H212688   5.644   1.065   2.306  2.4857 -1.8131  1.3101
 4228TIP3   OH212689   4.631   5.627   0.459  0.0194 -0.3817 -0.2764
 4228TIP3    H112690   4.679   5.647   0.540 -2.0284  1.9155  0.4932
 4228TIP3    H212691   4.539   5.624   0.486 -0.8566  1.6105 -2.6252
 4229TIP3   OH212692   4.536   1.753   2.019 -0.1244  0.1938 -0.1743
 4229TIP3    H112693   4.453   1.705   2.027 -0.7567  1.4023  1.1077
 4229TIP3    H212694   4.604   1.688   2.037 -0.5533 -1.4211 -3.6899
 4230TIP3   OH212695   0.685   2.069   1.796 -0.0411 -0.3552  0.4095
 4230TIP3    H112696   0.700   2.033   1.883 -1.9961  0.3033  1.0784
 4230TIP3    H212697   0.590   2.082   1.791 -0.0046 -0.5345 -1.8950
 4231TIP3   OH212698   0.188   0.847   1.485  0.0531 -0.0290 -0.0150
 4231TIP3    H112699   0.258   0.789   1.515 -0.4433 -0.0536  1.1357
 4231TIP3    H212700   0.133   0.860   1.562  0.3515  2.2843 -0.1193
 4232TIP3   OH212701   3.866   5.635   2.074  0.6725  0.2456  0.0516
 4232TIP3    H112702   3.798   5.583   2.032  1.1698  0.0258 -0.4867
 4232TIP3    H212703   3.948   5.599   2.041  1.0576  0.4658  0.7447
 4233TIP3   OH212704   6.119   5.158   1.296 -0.5515 -0.1179  0.0092
 4233TIP3    H112705   6.174   5.092   1.255 -2.5143 -2.0680  0.3610
 4233TIP3    H212706   6.129   5.142   1.390 -1.2034 -0.0400  0.0930
 4234TIP3   OH212707   4.193   1.676   3.228  0.1899  0.0933 -0.1519
 4234TIP3    H112708   4.282   1.657   3.255  0.1732 -2.3379 -1.4640
 4234TIP3    H212709   4.200   1.697   3.135 -0.4248  1.8754  0.1691
 4235TIP3   OH212710   2.799   1.103   0.881 -0.7376 -0.0563  0.2193
 4235TIP3    H112711   2.796   1.021   0.831  0.8821  0.2792 -0.4797
 4235TIP3    H212712   2.817   1.075   0.971  0.4786 -0.4672 -0.1284
 4236TIP3   OH212713   5.858   5.235   1.749  0.0408  0.3892  0.2950
 4236TIP3    H112714   5.834   5.178   1.823  0.0817 -0.7768 -0.5675
 4236TIP3    H212715   5.775   5.273   1.720 -0.1198  0.0058  0.2546
 4237TIP3   OH212716   4.063   5.702   0.897 -0.1438  0.0984 -0.1231
 4237TIP3    H112717   4.079   5.749   0.979 -0.9974 -0.3131  0.2880
 4237TIP3    H212718   4.109   5.618   0.908 -2.5769 -1.1654  1.1370
 4238TIP3   OH212719   2.683   1.224   3.958  0.2845 -0.3598  0.4881
 4238TIP3    H112720   2.725   1.169   3.892 -0.2166  1.1501 -1.1581
 4238TIP3    H212721   2.622   1.165   4.003 -0.8496 -1.0578 -1.7730
 4239TIP3   OH212722   4.859   2.294   1.827 -0.0284  0.4801 -0.1314
 4239TIP3    H112723   4.878   2.216   1.880 -1.4051  0.7304  0.7852
 4239TIP3    H212724   4.822   2.259   1.746  0.0191  0.1578 -0.0154
 4240TIP3   OH212725   3.364   1.875   1.820  0.4106 -0.1873 -0.0165
 4240TIP3    H112726   3.367   1.912   1.732  0.4501 -0.0435  0.0448
 4240TIP3    H212727   3.438   1.815   1.822  0.1792 -0.4804 -0.2090
 4241TIP3   OH212728   2.411   4.404   1.407  0.0286 -0.0406  0.4852
 4241TIP3    H112729   2.362   4.475   1.366 -0.3503 -0.4804  0.1627
 4241TIP3    H212730   2.470   4.448   1.468 -1.5054  0.4582  1.6990
 4242TIP3   OH212731   3.414   4.279   4.752 -0.7279 -0.6098 -0.0999
 4242TIP3    H112732   3.485   4.218   4.732  1.7487  1.8547  0.5757
 4242TIP3    H212733   3.383   4.253   4.839 -0.3345 -1.4030 -0.1920
 4243TIP3   OH212734   0.159   4.642   0.818 -0.6399  0.3408  0.8348
 4243TIP3    H112735   0.230   4.639   0.753 -2.7483 -1.4098 -1.5511
 4243TIP3    H212736   0.083   4.675   0.770 -2.3122 -1.0420  2.3823
 4244TIP3   OH212737   5.755   4.203   3.805  0.0360 -0.1054  0.0806
 4244TIP3    H112738   5.765   4.250   3.722 -0.6600  1.3372  0.7700
 4244TIP3    H212739   5.676   4.150   3.792  1.7079 -2.4367 -1.2636
 4245TIP3   OH212740   6.056   3.340   1.573 -0.0378 -0.1895  0.0998
 4245TIP3    H112741   6.083   3.325   1.483  0.3597  1.6443 -0.1203
 4245TIP3    H212742   6.029   3.432   1.575  0.1237 -0.1511  1.8847
 4246TIP3   OH212743   3.670   2.003   4.869  0.2366 -0.0851 -0.2677
 4246TIP3    H112744   3.702   1.960   4.949 -0.3861  0.6820  0.4231
 4246TIP3    H212745   3.737   1.986   4.803  0.7884 -0.6975  0.4359
 4247TIP3   OH212746   4.940   4.224   4.253 -0.3481  0.3181 -0.2277
 4247TIP3    H112747   4.902   4.284   4.317 -0.8836  0.3094 -0.5322
 4247TIP3    H212748   4.953   4.278   4.175 -0.0140  0.2489 -0.2201
 4248TIP3   OH212749   4.907   0.368   1.818 -0.2292 -0.4299  0.8550
 4248TIP3    H112750   4.854   0.309   1.763  0.0815  0.2694 -0.2147
 4248TIP3    H212751   4.869   0.454   1.804  1.2165  0.1000  0.0098
 4249TIP3   OH212752   5.086   3.958   3.095 -0.1007 -0.5815  0.2556
 4249TIP3    H112753   5.036   3.890   3.140 -0.3859  0.3681  1.4262
 4249TIP3    H212754   5.034   4.037   3.106  1.5041  0.3885  1.3016
 4250TIP3   OH212755   6.138   2.549   1.465 -0.1315 -0.3718 -0.2713
 4250TIP3    H112756   6.129   2.645   1.469 -1.4710 -0.3604 -2.3464
 4250TIP3    H212757   6.110   2.526   1.377  2.6034 -2.4671 -0.7400
 4251TIP3   OH212758   3.215   1.938   4.792 -0.3578  0.1010  0.2520
 4251TIP3    H112759   3.156   2.010   4.812 -0.9898 -0.2427 -0.3456
 4251TIP3    H212760   3.222   1.888   4.873 -0.1659  0.6464  0.5775
 4252TIP3   OH212761   0.692   0.507   2.687 -0.4240  0.4142 -0.1143
 4252TIP3    H112762   0.748   0.439   2.649 -0.7471 -0.4788  0.9770
 4252TIP3    H212763   0.737   0.532   2.768 -0.5871  1.1332 -0.2385
 4253TIP3   OH212764   4.175   3.415   1.344  0.1452 -0.0451 -0.0691
 4253TIP3    H112765   4.199   3.450   1.430 -0.9595  0.5775  0.0035
 4253TIP3    H212766   4.198   3.322   1.349  0.2049  0.0077  0.8544
 4254TIP3   OH212767   0.682   2.076   4.461  0.1096 -0.6505 -0.5902
 4254TIP3    H112768   0.588   2.058   4.455  0.5216 -3.4213 -0.0874
 4254TIP3    H212769   0.713   2.073   4.370  0.0499 -2.0975 -0.5805
 4255TIP3   OH212770   5.959   3.456   2.287 -0.2444 -0.0560  0.2354
 4255TIP3    H112771   6.030   3.397   2.313 -2.0458 -2.3274  0.3015
 4255TIP3    H212772   5.959   3.453   2.191 -1.5755 -1.8787  0.2323
 4256TIP3   OH212773   2.848   4.581   3.626  0.1122  0.0322 -0.1003
 4256TIP3    H112774   2.843   4.503   3.682 -0.1328 -0.2528 -0.5175
 4256TIP3    H212775   2.832   4.549   3.538  0.8849  0.4238 -0.3949
 4257TIP3   OH212776   2.301   1.739   0.883 -0.3041 -0.7533  0.6696
 4257TIP3    H112777   2.222   1.740   0.937 -0.3842 -1.9048  0.5975
 4257TIP3    H212778   2.372   1.759   0.944 -0.6776  0.7605  0.6468
 4258TIP3   OH212779   3.438   1.633   3.604 -0.2891 -0.0986 -0.0328
 4258TIP3    H112780   3.356   1.682   3.599 -0.2124 -0.0164 -0.5384
 4258TIP3    H212781   3.472   1.653   3.691 -0.6245  0.1573  0.0436
 4259TIP3   OH212782   0.477   0.287   3.822 -0.0348 -0.1260 -0.1536
 4259TIP3    H112783   0.552   0.271   3.764 -0.4540  0.4379 -0.8694
 4259TIP3    H212784   0.515   0.330   3.899  0.2646  1.1527 -0.9786
 4260TIP3   OH212785   5.621   1.755   0.228 -0.1598 -0.2562  0.3622
 4260TIP3    H112786   5.703   1.731   0.269 -0.8211 -2.0050  0.7220
 4260TIP3    H212787   5.646   1.802   0.149  1.1741 -0.6112  0.5601
 4261TIP3   OH212788   3.661   1.814   3.280  0.2489  0.3536  0.3546
 4261TIP3    H112789   3.714   1.833   3.203 -0.9736 -0.4073 -0.7074
 4261TIP3    H212790   3.725   1.800   3.350  1.3737  1.3941 -0.4163
 4262TIP3   OH212791   3.769   2.679   3.103 -0.5311  0.0666  0.4273
 4262TIP3    H112792   3.854   2.673   3.146 -0.2163  1.9852  0.1690
 4262TIP3    H212793   3.787   2.660   3.011 -0.6494 -0.9029  0.5935
 4263TIP3   OH212794   5.461   4.188   4.485  0.1131 -0.4401 -0.6508
 4263TIP3    H112795   5.462   4.279   4.455  0.5218 -0.3689 -0.4251
 4263TIP3    H212796   5.438   4.194   4.578  1.9205 -0.4266 -0.1764
 4264TIP3   OH212797   5.531   3.569   0.004  0.0508 -0.0671 -0.4829
 4264TIP3    H112798   5.542   3.661   0.031 -0.3552  0.3810 -1.7456
 4264TIP3    H212799   5.501   3.524   0.083 -2.5823  1.4698 -0.4902
 4265TIP3   OH212800   3.478   5.702   2.395  0.2053  0.2654  0.6670
 4265TIP3    H112801   3.483   5.615   2.354  0.7126  0.6473 -0.1112
 4265TIP3    H212802   3.502   5.763   2.325 -3.4376  1.3507  0.1397
 4266TIP3   OH212803   4.269   4.472   3.018 -0.5131 -0.3961 -0.0280
 4266TIP3    H112804   4.214   4.500   3.091  1.0444 -1.8672  1.8169
 4266TIP3    H212805   4.224   4.396   2.981  0.7602 -2.4206  2.3080
 4267TIP3   OH212806   3.221   2.491   2.020  0.1910 -0.1128 -0.7982
 4267TIP3    H112807   3.315   2.495   2.038  0.4657 -1.7252 -1.6547
 4267TIP3    H212808   3.184   2.446   2.097  0.0530  0.8031 -0.3154
 4268TIP3   OH212809   3.821   5.201   2.447 -0.0538  0.5047 -0.4196
 4268TIP3    H112810   3.914   5.223   2.438  0.5736 -0.9961  1.5567
 4268TIP3    H212811   3.798   5.159   2.364  0.8687  1.3746 -1.1460
 4269TIP3   OH212812   3.407   4.758   4.534  0.2516 -0.0053  0.4760
 4269TIP3    H112813   3.413   4.698   4.609 -0.8585  0.9453  1.3623
 4269TIP3    H212814   3.496   4.765   4.501  0.6220 -1.0540  1.2262
 4270TIP3   OH212815   5.713   1.841   3.563 -0.3451  0.0813 -0.7590
 4270TIP3    H112816   5.788   1.874   3.514  0.7841 -0.6501  0.4282
 4270TIP3    H212817   5.647   1.911   3.555  0.3588  0.6298 -2.0083
 4271TIP3   OH212818   4.897   1.107   2.198  0.5325 -0.6195 -0.5716
 4271TIP3    H112819   4.905   1.188   2.147 -0.5359 -0.2145 -0.1282
 4271TIP3    H212820   4.922   1.038   2.137  0.5230 -0.0387 -1.2518
 4272TIP3   OH212821   4.325   3.705   1.562 -0.3052 -0.1669 -0.0909
 4272TIP3    H112822   4.298   3.616   1.584  0.0977  0.1073  1.6749
 4272TIP3    H212823   4.381   3.695   1.485  0.6102 -1.5806  0.7165
 4273TIP3   OH212824   0.894   5.471   3.921  0.1922  0.4071  0.0009
 4273TIP3    H112825   0.957   5.426   3.978 -1.6502 -0.4196  1.4876
 4273TIP3    H212826   0.921   5.448   3.832  1.1082 -1.1329  0.6393
 4274TIP3   OH212827   1.344   2.979   0.268 -0.0281  0.4364  0.3233
 4274TIP3    H112828   1.372   2.917   0.335  0.3669 -1.0850 -1.1611
 4274TIP3    H212829   1.251   2.994   0.286  0.0730  0.0547  1.1958
 4275TIP3   OH212830   5.642   4.926   4.108 -0.0841  0.1882  0.0903
 4275TIP3    H112831   5.595   5.000   4.070 -0.2916  0.3299  0.6184
 4275TIP3    H212832   5.579   4.886   4.168  0.0709 -0.3392 -0.0895
 4276TIP3   OH212833   3.461   1.706   1.541 -0.1816  0.3336 -0.1557
 4276TIP3    H112834   3.508   1.787   1.526  0.0216  0.6346  1.8421
 4276TIP3    H212835   3.498   1.671   1.622 -3.6787  0.8586  1.8491
 4277TIP3   OH212836   0.877   5.608   5.087  0.1329  0.4501 -0.0884
 4277TIP3    H112837   0.925   5.527   5.073 -0.7954  0.1246 -1.5968
 4277TIP3    H212838   0.891   5.659   5.007 -2.0170  0.3286 -0.5915
 4278TIP3   OH212839   4.807   3.362   2.550  0.3299 -0.3916 -0.1674
 4278TIP3    H112840   4.854   3.302   2.491  1.4897  1.1373 -0.8751
 4278TIP3    H212841   4.714   3.341   2.536  0.6290 -0.8425 -1.7324
 4279TIP3   OH212842   0.207   3.716   1.952 -0.4172 -0.1910  0.4001
 4279TIP3    H112843   0.216   3.797   2.003 -0.3651  0.1612 -0.1591
 4279TIP3    H212844   0.295   3.678   1.952  0.1808  1.0122 -1.3740
 4280TIP3   OH212845   1.323   4.523   1.748 -0.2457 -0.9654  0.0971
 4280TIP3    H112846   1.352   4.434   1.729 -0.7890 -1.4885  1.6042
 4280TIP3    H212847   1.239   4.532   1.703 -1.2521 -1.9952  1.6764
 4281TIP3   OH212848   1.184   0.313   2.218 -0.0999  0.2330 -0.7321
 4281TIP3    H112849   1.248   0.344   2.154  0.4015 -0.8878 -0.7887
 4281TIP3    H212850   1.235   0.262   2.280 -0.9336 -0.6631 -0.7658
 4282TIP3   OH212851   3.761   2.834   2.386 -0.0529 -0.5274  0.4930
 4282TIP3    H112852   3.702   2.871   2.321  1.4140  2.4794  0.6990
 4282TIP3    H212853   3.719   2.753   2.414 -2.1827 -0.3903 -2.0052
 4283TIP3   OH212854   2.158   0.880   0.479 -0.3905  0.0657  0.1686
 4283TIP3    H112855   2.194   0.932   0.407  1.2768 -1.5411 -0.2592
 4283TIP3    H212856   2.120   0.803   0.436  0.5573 -0.8774  0.9422
 4284TIP3   OH212857   6.072   0.170   2.435  0.9784  0.3376  0.0134
 4284TIP3    H112858   6.137   0.108   2.467  1.8374  1.8282  1.3556
 4284TIP3    H212859   6.040   0.214   2.513 -1.6259 -0.2502 -0.6197
 4285TIP3   OH212860   2.629   5.305   2.843  0.0726  0.4035  0.1971
 4285TIP3    H112861   2.654   5.330   2.754 -1.2279  0.2792 -0.2285
 4285TIP3    H212862   2.553   5.249   2.831  1.0398 -1.2281  1.2931
 4286TIP3   OH212863   5.706   0.152   4.671  0.0278  0.0225 -0.1771
 4286TIP3    H112864   5.669   0.066   4.690 -1.6497  1.2093  2.3911
 4286TIP3    H212865   5.776   0.163   4.736 -1.9244  1.8157  1.7584
 4287TIP3   OH212866   1.017   1.205   0.553 -0.1132  0.0645 -0.0553
 4287TIP3    H112867   1.067   1.226   0.474 -0.4938  1.4920  0.0690
 4287TIP3    H212868   1.039   1.113   0.570  0.0323 -0.2626 -1.7654
 4288TIP3   OH212869   2.721   3.938   0.532  0.5950  0.5569 -0.3132
 4288TIP3    H112870   2.643   3.923   0.586  1.0440  2.2599  0.8780
 4288TIP3    H212871   2.776   3.862   0.548 -0.3085 -0.1010 -0.2533
 4289TIP3   OH212872   0.737   1.509   4.928 -0.5117  0.0192 -0.2595
 4289TIP3    H112873   0.675   1.486   4.998 -0.0401  1.1069  0.5467
 4289TIP3    H212874   0.792   1.432   4.919  0.5348  0.4267  1.8341
 4290TIP3   OH212875   0.910   3.081   4.197 -0.1129  0.2457 -0.5564
 4290TIP3    H112876   0.968   3.011   4.169  0.0320  0.5101 -0.9327
 4290TIP3    H212877   0.826   3.038   4.212  0.3957 -0.3053  0.9050
 4291TIP3   OH212878   2.710   2.142   0.530  0.6606 -0.3394  0.4107
 4291TIP3    H112879   2.770   2.094   0.472 -0.4422 -1.2693  0.0090
 4291TIP3    H212880   2.645   2.076   0.556 -0.7506  0.8765  0.0581
 4292TIP3   OH212881   3.857   0.224   1.382  0.1086 -0.0363  0.0457
 4292TIP3    H112882   3.784   0.181   1.338 -1.0369  2.6425 -0.8848
 4292TIP3    H212883   3.905   0.268   1.312  0.7692  0.8373  1.0195
 4293TIP3   OH212884   0.721   1.486   1.993 -0.3065  0.5650 -0.0761
 4293TIP3    H112885   0.810   1.449   1.990 -0.2229  0.7763 -0.2068
 4293TIP3    H212886   0.686   1.454   2.076 -1.2879 -2.1834 -1.4260
 4294TIP3   OH212887   2.498   5.996   1.245  0.4077  0.5527 -0.0876
 4294TIP3    H112888   2.488   5.919   1.189  2.9500  1.2442 -1.7139
 4294TIP3    H212889   2.479   5.965   1.333 -0.2306 -1.5164 -0.9042
 4295TIP3   OH212890   5.432   0.497   4.642 -0.0403  0.0444  0.7788
 4295TIP3    H112891   5.484   0.472   4.565 -1.3284 -0.4450  0.0362
 4295TIP3    H212892   5.493   0.546   4.697  1.6449 -1.8287  0.6869
 4296TIP3   OH212893   5.668   1.654   2.796  0.4843 -0.2127 -0.2984
 4296TIP3    H112894   5.633   1.622   2.713 -0.7688  0.3625 -0.0142
 4296TIP3    H212895   5.632   1.742   2.806 -1.9163 -1.3227  2.2321
 4297TIP3   OH212896   4.644   4.421   2.203 -0.8206  0.7172  0.4870
 4297TIP3    H112897   4.716   4.483   2.215  0.7663 -1.2419  1.8632
 4297TIP3    H212898   4.565   4.471   2.224  0.3130  2.4526  0.8286
 4298TIP3   OH212899   4.686   1.680   2.426  0.0355 -0.2379 -0.4496
 4298TIP3    H112900   4.596   1.648   2.421  0.0861 -0.5012  0.2349
 4298TIP3    H212901   4.682   1.769   2.390 -0.8610  0.4589  1.2707
 4299TIP3   OH212902   1.307   3.920   3.712 -0.0305 -0.0765  0.0649
 4299TIP3    H112903   1.294   3.837   3.758  1.0873 -0.2123  0.1540
 4299TIP3    H212904   1.303   3.986   3.781  0.8881 -0.2175  0.2629
 4300TIP3   OH212905   4.229   0.449   3.236 -0.6619  0.6552 -0.3366
 4300TIP3    H112906   4.241   0.440   3.331 -2.0820 -1.3856 -0.2811
 4300TIP3    H212907   4.318   0.455   3.202 -0.1106  1.1461  1.0930
 4301TIP3   OH212908   0.239   4.271   4.653 -0.2506  0.1226  0.2295
 4301TIP3    H112909   0.188   4.322   4.591 -1.1644 -1.5970 -0.5218
 4301TIP3    H212910   0.260   4.332   4.724 -0.2828  1.7903 -1.1546
 4302TIP3   OH212911   4.071   4.538   4.806  0.3096  0.6384  0.5129
 4302TIP3    H112912   4.085   4.601   4.736  2.3480  1.7559  1.8235
 4302TIP3    H212913   3.981   4.508   4.794 -0.0055  2.1647 -1.4343
 4303TIP3   OH212914   5.178   4.603   1.321  0.3724 -0.2434 -0.3214
 4303TIP3    H112915   5.174   4.660   1.398  1.0350 -0.4541 -0.1237
 4303TIP3    H212916   5.220   4.656   1.253  0.7200 -0.3893 -0.2253
 4304TIP3   OH212917   6.299   1.225   0.084 -0.0140 -0.4583  0.4181
 4304TIP3    H112918   6.270   1.138   0.109 -1.3840 -0.2788 -0.4307
 4304TIP3    H212919   6.272   1.281   0.156 -1.8346 -0.3087 -0.3170
 4305TIP3   OH212920   5.652   3.375   3.892 -0.4429  0.2233  0.2691
 4305TIP3    H112921   5.591   3.345   3.959 -0.9165 -0.1295 -0.3036
 4305TIP3    H212922   5.712   3.434   3.938 -1.1341  0.4667  0.8723
 4306TIP3   OH212923   0.982   5.994   0.569 -0.2367 -0.2576  0.0133
 4306TIP3    H112924   1.018   6.034   0.490  2.6052 -1.5315  0.5338
 4306TIP3    H212925   0.936   5.916   0.538  1.7215 -1.3128 -0.3935
 4307TIP3   OH212926   5.646   4.406   1.668 -0.8597  0.0957  0.4177
 4307TIP3    H112927   5.602   4.322   1.653  3.3734 -2.2300 -0.6904
 4307TIP3    H212928   5.661   4.408   1.763 -1.6199 -0.0131  0.5467
 4308TIP3   OH212929   2.143   5.530   2.501  0.0257 -0.0390 -0.7172
 4308TIP3    H112930   2.123   5.606   2.446  0.9252 -0.1374 -1.1958
 4308TIP3    H212931   2.238   5.526   2.504 -0.0022 -1.0555 -0.5799
 4309TIP3   OH212932   5.069   3.473   1.841  0.0858  0.2701  0.3400
 4309TIP3    H112933   5.155   3.436   1.821 -0.6468 -1.3752  0.1425
 4309TIP3    H212934   5.021   3.469   1.759 -0.6871 -0.2291  0.8047
 4310TIP3   OH212935   5.191   4.770   3.541 -0.3338  0.4010 -0.1151
 4310TIP3    H112936   5.177   4.727   3.457 -1.6081 -0.2021  0.3817
 4310TIP3    H212937   5.265   4.722   3.579 -1.4568 -1.1329  0.2399
 4311TIP3   OH212938   2.620   1.636   4.367  0.1572 -0.3685 -0.4298
 4311TIP3    H112939   2.686   1.705   4.365 -1.4330  1.2125 -2.2306
 4311TIP3    H212940   2.611   1.608   4.276 -2.2535  0.0990 -0.3866
 4312TIP3   OH212941   6.124   3.929   3.754 -0.1494  0.3567 -0.2720
 4312TIP3    H112942   6.178   3.859   3.717  0.3819  0.3954  0.4171
 4312TIP3    H212943   6.155   3.938   3.844 -1.8315 -0.1705  0.4120
 4313TIP3   OH212944   2.953   1.296   4.835 -0.1636  0.6875  0.1377
 4313TIP3    H112945   2.864   1.264   4.821  0.2007  0.2411 -1.3248
 4313TIP3    H212946   2.946   1.391   4.823 -0.1321  0.4738 -1.9838
 4314TIP3   OH212947   2.729   3.660   2.273 -0.2134  0.2634  0.3965
 4314TIP3    H112948   2.719   3.678   2.367 -1.1728  1.4320  0.1020
 4314TIP3    H212949   2.742   3.747   2.234 -0.0484 -0.1926 -0.5722
 4315TIP3   OH212950   0.759   1.057   3.248  0.4486 -1.1458 -0.0728
 4315TIP3    H112951   0.680   1.003   3.252  0.7373 -1.6806 -1.0208
 4315TIP3    H212952   0.787   1.051   3.156  2.6990 -2.6116  0.6130
 4316TIP3   OH212953   2.751   2.122   2.380 -0.3370  0.1448 -0.0943
 4316TIP3    H112954   2.760   2.200   2.436 -0.4142  0.0552  0.0448
 4316TIP3    H212955   2.739   2.050   2.442  1.3296 -0.2137 -0.1594
 4317TIP3   OH212956   5.389   0.967   3.354 -0.6317  0.2276  0.3569
 4317TIP3    H112957   5.387   0.914   3.274  0.6765 -1.4801  1.3781
 4317TIP3    H212958   5.475   0.949   3.393  0.5662  4.2319  0.1044
 4318TIP3   OH212959   3.477   2.093   3.698 -0.2217 -0.0910  0.0708
 4318TIP3    H112960   3.395   2.095   3.648  0.0333  0.6593 -0.3308
 4318TIP3    H212961   3.492   2.185   3.722  0.2742 -0.2877  0.5308
 4319TIP3   OH212962   0.335   6.003   1.650 -0.5128  0.3778  0.3960
 4319TIP3    H112963   0.427   5.988   1.630 -0.1559  2.3325  0.3607
 4319TIP3    H212964   0.302   5.918   1.678  1.0221 -0.6010 -0.6166
 4320TIP3   OH212965   4.246   3.865   3.715  0.2520  0.2272 -0.3491
 4320TIP3    H112966   4.221   3.955   3.692 -0.8648 -0.1570 -0.7127
 4320TIP3    H212967   4.214   3.854   3.805  0.4999  0.2316 -0.2605
 4321TIP3   OH212968   4.975   5.347   5.069  0.1697 -0.6551 -0.5955
 4321TIP3    H112969   5.037   5.346   4.997  1.1897 -1.6063  0.2534
 4321TIP3    H212970   5.030   5.343   5.148 -0.8141  1.9106  0.3255
 4322TIP3   OH212971   5.569   5.416   3.368  0.5620 -0.2733  0.0062
 4322TIP3    H112972   5.597   5.493   3.318  0.6188 -0.3156 -0.0262
 4322TIP3    H212973   5.520   5.363   3.305 -1.6848  0.9313  0.6048
 4323TIP3   OH212974   4.003   4.756   3.036 -0.1678 -0.6694 -0.7184
 4323TIP3    H112975   4.015   4.724   3.125 -0.1748  0.1617 -0.4083
 4323TIP3    H212976   4.087   4.796   3.013 -0.2424 -0.6644 -0.9901
 4324TIP3   OH212977   4.281   1.806   0.108 -0.0137  0.3424  0.0631
 4324TIP3    H112978   4.194   1.846   0.103 -1.4029 -2.4959 -1.0776
 4324TIP3    H212979   4.336   1.860   0.051 -1.8262  0.4651 -1.6486
 4325TIP3   OH212980   3.017   4.770   1.094  0.2722 -0.3059 -0.2299
 4325TIP3    H112981   2.959   4.711   1.046 -1.8646  1.0825  0.5012
 4325TIP3    H212982   3.001   4.749   1.186  0.4754  0.5062 -0.0013
 4326TIP3   OH212983   5.049   4.541   0.999  0.9808  0.4643  0.3862
 4326TIP3    H112984   5.109   4.592   1.053  1.1810  1.9813 -1.1614
 4326TIP3    H212985   5.012   4.605   0.938 -0.9619 -0.7400  0.2073
 4327TIP3   OH212986   3.687   5.431   3.838 -0.2532 -0.0157  0.2211
 4327TIP3    H112987   3.641   5.490   3.778 -2.5818  0.0019  1.8556
 4327TIP3    H212988   3.779   5.436   3.812 -1.1455 -0.1408 -3.3584
 4328TIP3   OH212989   0.343   3.389   0.315 -0.0432 -0.1881 -0.4267
 4328TIP3    H112990   0.367   3.361   0.227 -0.7415 -3.3655  0.2592
 4328TIP3    H212991   0.248   3.380   0.318 -0.0936  0.4773  0.4811
 4329TIP3   OH212992   1.775   2.233   3.271  0.4286  0.4767 -0.1527
 4329TIP3    H112993   1.754   2.171   3.202 -0.3082  0.7752 -0.2097
 4329TIP3    H212994   1.870   2.230   3.279  0.3591 -1.3193  0.4641
 4330TIP3   OH212995   6.184   5.320   0.504  0.0560  0.5026  0.1091
 4330TIP3    H112996   6.164   5.246   0.560  0.8876  0.1920  0.0176
 4330TIP3    H212997   6.124   5.312   0.430  0.1339 -0.0691  0.1070
 4331TIP3   OH212998   6.194   1.079   1.534 -0.1266  0.3807 -0.0461
 4331TIP3    H112999   6.132   1.044   1.470  0.1126 -1.3626  0.6231
 4331TIP3    H213000   6.140   1.125   1.598 -0.5165  0.6472 -0.5563
 4332TIP3   OH213001   5.835   2.715   4.046  0.3393 -0.2367  0.2927
 4332TIP3    H113002   5.869   2.671   3.968  0.9541 -0.7242  0.8297
 4332TIP3    H213003   5.895   2.690   4.116  0.9320  1.7128  0.5593
 4333TIP3   OH213004   4.133   5.598   1.974  0.5569  0.0541 -1.0108
 4333TIP3    H113005   4.226   5.589   1.952  0.4351  1.7883 -2.4771
 4333TIP3    H213006   4.131   5.672   2.035  0.2489 -0.8578  0.1165
 4334TIP3   OH213007   5.653   0.151   1.733 -0.5829  0.4738  0.4258
 4334TIP3    H113008   5.703   0.094   1.791  1.3029  0.5213 -1.0593
 4334TIP3    H213009   5.681   0.239   1.755 -1.5895  0.6680  0.9816
 4335TIP3   OH213010   5.693   5.225   3.013 -0.2240 -0.4872 -0.4776
 4335TIP3    H113011   5.674   5.298   3.071 -1.1668 -0.4501 -0.8220
 4335TIP3    H213012   5.757   5.260   2.951 -1.5827  0.4405 -1.4042
 4336TIP3   OH213013   4.778   5.254   1.869 -0.6222 -0.6745  0.0871
 4336TIP3    H113014   4.789   5.346   1.894 -0.6418 -0.2902 -1.2464
 4336TIP3    H213015   4.783   5.254   1.774 -0.2481 -2.1179  0.0779
 4337TIP3   OH213016   4.099   3.330   0.038 -0.2949  0.1247  0.1429
 4337TIP3    H113017   4.149   3.250   0.030 -0.3580 -0.0012  0.9361
 4337TIP3    H213018   4.044   3.317   0.115 -0.3442  0.9031  0.2532
 4338TIP3   OH213019   2.897   5.720   4.641  0.1106 -0.1831  0.0576
 4338TIP3    H113020   2.952   5.794   4.616  1.3052 -1.4085 -1.0800
 4338TIP3    H213021   2.902   5.717   4.737  1.1629  0.3624  0.0265
 4339TIP3   OH213022   2.624   2.854   0.441 -0.8448 -0.1279 -0.0641
 4339TIP3    H113023   2.619   2.774   0.494  0.3878 -0.0110  0.2594
 4339TIP3    H213024   2.537   2.893   0.449 -1.3286 -1.2054  0.1346
 4340TIP3   OH213025   0.521   4.894   4.474 -0.2240 -0.8690  0.0712
 4340TIP3    H113026   0.466   4.955   4.426  0.1848 -0.0570  0.6226
 4340TIP3    H213027   0.583   4.862   4.409 -0.0292 -0.2009 -0.0763
 4341TIP3   OH213028   5.548   0.131   2.645  0.7886 -0.4152  0.0170
 4341TIP3    H113029   5.630   0.178   2.629  0.2342  0.6324  0.1950
 4341TIP3    H213030   5.523   0.098   2.559  1.5778 -1.0681  0.0203
 4342TIP3   OH213031   4.433   0.878   3.860  0.2923  0.4091 -0.0182
 4342TIP3    H113032   4.493   0.851   3.930  1.0672  2.3331  0.1052
 4342TIP3    H213033   4.488   0.881   3.782  0.1768  1.3505 -0.0725
 4343TIP3   OH213034   2.081   2.907   1.996 -0.4803 -0.2960  0.1130
 4343TIP3    H113035   2.120   2.966   2.060 -0.1528 -0.3647 -0.0171
 4343TIP3    H213036   2.066   2.826   2.044 -2.0201  0.2566  0.5940
 4344TIP3   OH213037   2.053   0.765   0.763  0.2336  0.0605  0.4980
 4344TIP3    H113038   2.072   0.858   0.758  0.3613  0.2414  3.0038
 4344TIP3    H213039   2.041   0.748   0.857  0.2492 -2.4487  0.1171
 4345TIP3   OH213040   0.275   1.584   2.457 -0.3011 -0.0370 -0.1162
 4345TIP3    H113041   0.346   1.520   2.458 -1.0098 -0.8952 -1.7246
 4345TIP3    H213042   0.309   1.658   2.508  0.8205 -1.3653  1.1724
 4346TIP3   OH213043   5.321   5.664   3.433  0.6093 -0.0444 -0.0853
 4346TIP3    H113044   5.281   5.588   3.475  0.7413  0.5167  1.0882
 4346TIP3    H213045   5.412   5.662   3.462  1.0862 -0.4288 -1.4926
 4347TIP3   OH213046   1.665   5.041   3.621  0.8504  0.0434  0.0453
 4347TIP3    H113047   1.593   5.072   3.566  0.7752 -1.5531 -0.7926
 4347TIP3    H213048   1.740   5.095   3.595  0.5540  0.0344 -0.8576
 4348TIP3   OH213049   0.629   0.798   3.306 -0.1903  0.6133  0.2262
 4348TIP3    H113050   0.722   0.773   3.310 -0.1489  0.7936  0.3801
 4348TIP3    H213051   0.592   0.767   3.388 -0.7114 -1.2198 -0.6543
 4349TIP3   OH213052   4.030   0.480   1.801  0.2026  0.4055  0.3406
 4349TIP3    H113053   4.009   0.572   1.815  0.2836  0.5004 -0.1492
 4349TIP3    H213054   4.090   0.480   1.726 -0.6728 -0.1265 -0.3915
 4350TIP3   OH213055   2.818   0.899   1.635  0.0038 -0.0708  0.6312
 4350TIP3    H113056   2.777   0.945   1.561  0.4703  0.3092  0.6056
 4350TIP3    H213057   2.907   0.881   1.606 -0.3286 -1.5309  0.4110
 4351TIP3   OH213058   1.379   3.648   1.948  0.0424  0.3890 -0.2447
 4351TIP3    H113059   1.434   3.634   2.025  2.0564  0.2571 -1.6534
 4351TIP3    H213060   1.345   3.737   1.959 -0.8414 -0.1042  1.4277
 4352TIP3   OH213061   5.765   0.584   4.983  0.3722  0.6732  0.3725
 4352TIP3    H113062   5.743   0.520   5.050  0.3778  1.2406  0.9340
 4352TIP3    H213063   5.861   0.592   4.989  0.7573 -1.4574 -1.7518
 4353TIP3   OH213064   3.364   3.456   0.109  0.0933 -0.5791 -0.8480
 4353TIP3    H113065   3.396   3.412   0.188  0.1371  0.5538 -0.2072
 4353TIP3    H213066   3.299   3.518   0.141 -0.5388 -0.7226 -1.8176
 4354TIP3   OH213067   4.103   3.729   0.182  0.0114 -0.3319  0.0437
 4354TIP3    H113068   4.147   3.682   0.111  2.4834  0.4391  0.9488
 4354TIP3    H213069   4.170   3.789   0.215 -1.1710 -0.4201  2.8126
 4355TIP3   OH213070   2.423   6.017   4.337 -0.0205  0.1584 -0.5325
 4355TIP3    H113071   2.490   5.965   4.292  0.5794  0.4101  0.0601
 4355TIP3    H213072   2.349   5.957   4.346  0.1260 -0.1368 -1.1608
 4356TIP3   OH213073   5.720   1.455   1.390  0.1316 -0.2188  0.0986
 4356TIP3    H113074   5.705   1.363   1.367 -3.6060  0.3007 -0.1291
 4356TIP3    H213075   5.771   1.451   1.471 -1.5159 -2.6193  1.1524
 4357TIP3   OH213076   0.040   3.275   0.498 -0.0979 -0.0581 -1.4896
 4357TIP3    H113077  -0.028   3.225   0.541 -1.1562  0.8766 -2.0191
 4357TIP3    H213078   0.056   3.230   0.415  0.6244 -0.8100 -0.9573
 4358TIP3   OH213079   5.845   3.015   0.993 -0.0342  0.2514 -0.4892
 4358TIP3    H113080   5.757   3.033   1.025  1.0094  1.0980  2.2009
 4358TIP3    H213081   5.857   3.075   0.919 -1.3091  0.9347 -0.1680
 4359TIP3   OH213082   5.706   0.438   3.311  0.3939 -0.3935 -0.5709
 4359TIP3    H113083   5.765   0.444   3.386 -1.4711 -1.5744  1.1017
 4359TIP3    H213084   5.676   0.347   3.312 -1.5201  0.1869 -1.2584
 4360TIP3   OH213085   4.715   2.484   5.004  0.0968 -0.4647  0.4489
 4360TIP3    H113086   4.669   2.517   5.081 -0.1598 -1.6463  0.8090
 4360TIP3    H213087   4.795   2.537   5.000 -1.4080  1.9237 -0.4232
 4361TIP3   OH213088   6.145   0.986   4.460  0.0513 -0.2238  0.0562
 4361TIP3    H113089   6.146   1.007   4.554  0.5626  0.1727 -0.0353
 4361TIP3    H213090   6.132   1.071   4.417 -0.9350 -0.5002 -0.2096
 4362TIP3   OH213091   0.486   4.407   0.416 -0.1803 -0.1027  0.3242
 4362TIP3    H113092   0.474   4.320   0.376  1.2322 -0.7971  1.3510
 4362TIP3    H213093   0.550   4.450   0.360 -3.3786  1.7761 -2.3243
 4363TIP3   OH213094   0.291   4.726   3.935  0.3283 -0.3440 -0.3750
 4363TIP3    H113095   0.259   4.806   3.894 -2.7099 -2.2967 -2.2852
 4363TIP3    H213096   0.324   4.673   3.861  2.3666 -0.8589  0.8362
 4364TIP3   OH213097   3.273   3.776   2.836 -0.7289 -0.0583  0.5182
 4364TIP3    H113098   3.337   3.705   2.830  1.0241  1.4967 -0.2316
 4364TIP3    H213099   3.303   3.829   2.910 -0.9461  0.8808 -0.0520
 4365TIP3   OH213100   0.290   0.772   3.529 -0.0929  0.1813 -0.5531
 4365TIP3    H113101   0.330   0.687   3.509  0.9617  0.4743  0.2131
 4365TIP3    H213102   0.267   0.808   3.444  1.1229 -0.0919 -1.0159
 4366TIP3   OH213103   0.677   3.244   2.302 -0.3667 -0.7018  0.2759
 4366TIP3    H113104   0.672   3.339   2.290  0.0480 -0.7892 -0.5864
 4366TIP3    H213105   0.612   3.226   2.370  0.7679  0.4118  1.7233
 4367TIP3   OH213106   0.112   5.860   1.754  0.7361  0.7769  0.3325
 4367TIP3    H113107   0.151   5.799   1.816  1.0840  0.0864 -0.5458
 4367TIP3    H213108   0.076   5.930   1.809 -0.8401 -0.8324  1.4746
 4368TIP3   OH213109   5.230   2.482   2.289  0.0015 -0.1928  0.3582
 4368TIP3    H113110   5.286   2.556   2.267  0.0944  0.2530  2.0216
 4368TIP3    H213111   5.248   2.417   2.221  0.3753  1.0530 -0.7647
 4369TIP3   OH213112   0.340   5.025   3.903  0.6963 -0.1328 -0.2675
 4369TIP3    H113113   0.432   5.032   3.879  0.9079 -0.7695  0.3076
 4369TIP3    H213114   0.296   4.999   3.822  0.4895  3.2698 -1.3986
 4370TIP3   OH213115   3.333   3.264   1.505  0.1423 -0.2890  0.3663
 4370TIP3    H113116   3.363   3.341   1.553 -0.0745  0.7327 -1.0497
 4370TIP3    H213117   3.245   3.246   1.539 -1.2189  2.1829 -1.4943
 4371TIP3   OH213118   1.313   2.496   4.212 -0.0049 -0.3837 -0.4618
 4371TIP3    H113119   1.268   2.450   4.282 -1.2533  0.8876 -0.3784
 4371TIP3    H213120   1.307   2.438   4.136 -1.7408 -0.2895 -0.4247
 4372TIP3   OH213121   4.731   2.022   4.073 -1.0654  0.1122  0.5901
 4372TIP3    H113122   4.692   1.941   4.107 -0.5023 -0.6049 -0.4197
 4372TIP3    H213123   4.747   2.075   4.151  1.1685 -1.8925  1.6300
 4373TIP3   OH213124   2.896   3.411   1.794  0.2016  0.0064  0.4786
 4373TIP3    H113125   2.921   3.449   1.878  2.3208 -1.6286  0.6738
 4373TIP3    H213126   2.815   3.455   1.770  2.0350  4.0409  1.0041
 4374TIP3   OH213127   4.968   4.936   3.543 -0.0500  0.3231  0.0028
 4374TIP3    H113128   4.967   5.006   3.608  0.9430  0.9141 -0.5949
 4374TIP3    H213129   5.055   4.896   3.552 -0.3045 -0.2953 -0.2266
 4375TIP3   OH213130   5.922   2.836   0.648  0.5672 -0.1324 -0.2216
 4375TIP3    H113131   5.915   2.856   0.554  2.8819 -0.4005 -0.5059
 4375TIP3    H213132   5.869   2.903   0.690 -0.6757 -0.1131 -1.7183
 4376TIP3   OH213133   5.287   5.182   2.781 -0.0935  0.2514 -0.3674
 4376TIP3    H113134   5.252   5.095   2.801 -0.1835  0.7990  2.2313
 4376TIP3    H213135   5.380   5.176   2.802 -0.3214  1.0568  0.9730
 4377TIP3   OH213136   0.276   4.139   0.570  0.5199  0.1049  0.2074
 4377TIP3    H113137   0.316   4.175   0.490  0.5589 -0.3655  0.0146
 4377TIP3    H213138   0.278   4.044   0.558 -1.8195  0.0654 -0.3941
 4378TIP3   OH213139   1.445   3.903   1.790  0.1160  0.1330 -0.6146
 4378TIP3    H113140   1.508   3.964   1.752  0.9893 -0.2120  0.2530
 4378TIP3    H213141   1.436   3.834   1.724  0.9274 -0.0059 -0.5926
 4379TIP3   OH213142   0.931   0.881   0.717 -0.0666 -0.2774 -0.1359
 4379TIP3    H113143   0.955   0.961   0.765 -3.2290  0.1692  0.9757
 4379TIP3    H213144   0.875   0.833   0.778  0.2408 -2.4552 -1.4744
 4380TIP3   OH213145   6.306   4.070   3.192  0.0536  0.2155  0.3193
 4380TIP3    H113146   6.241   4.047   3.258 -1.0104 -1.7005 -1.3017
 4380TIP3    H213147   6.383   4.095   3.243 -0.1374 -2.7969  2.3769
 4381TIP3   OH213148   1.047   1.535   3.096 -0.4861 -0.3768 -0.3183
 4381TIP3    H113149   1.035   1.440   3.103 -1.0131 -0.2098  1.6982
 4381TIP3    H213150   1.142   1.547   3.100 -0.4457 -0.7944  0.2029
 4382TIP3   OH213151   0.252   5.989   1.120  0.5018 -0.0567  0.0436
 4382TIP3    H113152   0.213   6.053   1.061  0.5918 -0.2170 -0.1939
 4382TIP3    H213153   0.290   5.923   1.062  0.4971 -0.2728  0.2833
 4383TIP3   OH213154   4.287   5.864   1.983  0.0512 -0.3876  0.0463
 4383TIP3    H113155   4.321   5.947   1.950  0.7120 -0.2498  1.0117
 4383TIP3    H213156   4.364   5.808   1.990 -0.2591 -0.7978  0.2038
 4384TIP3   OH213157   6.273   3.956   1.579 -0.2391  0.2370  0.1671
 4384TIP3    H113158   6.238   4.041   1.605 -1.3947 -0.1350 -0.0935
 4384TIP3    H213159   6.302   3.916   1.661 -0.4410  0.5554  0.3957
 4385TIP3   OH213160   4.976   3.559   2.353 -0.5241  0.2311  0.5562
 4385TIP3    H113161   4.990   3.603   2.437 -0.2514 -1.5420  1.4807
 4385TIP3    H213162   4.938   3.474   2.376 -1.2210  0.0264 -1.1820
 4386TIP3   OH213163   0.225   0.236   0.647  0.1777 -0.2819  0.4133
 4386TIP3    H113164   0.238   0.303   0.714 -1.2824  1.1425 -0.6498
 4386TIP3    H213165   0.150   0.184   0.678 -0.9852  0.8448 -0.3968
 4387TIP3   OH213166   1.122   0.730   3.893 -0.3989  0.2703  0.0829
 4387TIP3    H113167   1.133   0.764   3.804 -0.8187  2.3675  0.7900
 4387TIP3    H213168   1.031   0.748   3.915 -0.7266 -1.6128  0.4315
 4388TIP3   OH213169   5.186   0.452   1.696  0.2824 -0.4155 -0.1318
 4388TIP3    H113170   5.247   0.488   1.761 -0.2459 -0.1353  0.2157
 4388TIP3    H213171   5.122   0.403   1.749  0.2470 -0.7710 -0.5001
 4389TIP3   OH213172   3.973   0.492   2.341  0.3412  0.1029  0.0583
 4389TIP3    H113173   4.032   0.456   2.274  2.5031  1.8292  0.9097
 4389TIP3    H213174   3.932   0.415   2.381  0.8730 -1.0776 -1.5660
 4390TIP3   OH213175   3.402   5.167   2.395 -0.2104 -0.0188  0.0523
 4390TIP3    H113176   3.445   5.168   2.309 -0.9762 -0.1544 -0.3389
 4390TIP3    H213177   3.333   5.102   2.386  0.3627 -0.8129  1.1099
 4391TIP3   OH213178   0.583   3.830   4.277  0.4666 -0.6903 -0.1113
 4391TIP3    H113179   0.670   3.858   4.248  1.0767 -3.4730 -1.3098
 4391TIP3    H213180   0.597   3.742   4.312 -1.7115 -0.7399  0.7966
 4392TIP3   OH213181   2.032   1.982   4.493 -0.3803  0.4438  0.0714
 4392TIP3    H113182   2.029   1.968   4.398 -1.0383  0.8616  0.0316
 4392TIP3    H213183   2.048   1.895   4.529 -0.2251  0.2673 -0.4141
 4393TIP3   OH213184   2.631   4.266   0.250 -0.1404 -0.3408  0.1385
 4393TIP3    H113185   2.712   4.237   0.291 -1.0984 -0.4987  2.0280
 4393TIP3    H213186   2.592   4.187   0.213 -0.5171 -0.6958  1.2527
 4394TIP3   OH213187   4.091   5.023   4.779  0.3859 -0.4566  0.4548
 4394TIP3    H113188   4.066   4.998   4.869  1.7705  0.3842  1.0994
 4394TIP3    H213189   4.020   5.081   4.750 -0.4275 -1.2837  0.7230
 4395TIP3   OH213190   4.672   0.229   2.602 -0.8814  0.6942  0.2647
 4395TIP3    H113191   4.734   0.194   2.664 -1.2847 -0.7660 -0.1232
 4395TIP3    H213192   4.643   0.312   2.641 -0.1436  0.4551  1.3569
 4396TIP3   OH213193   5.868   0.727   1.521 -0.2346 -0.2249 -0.7897
 4396TIP3    H113194   5.948   0.699   1.566 -1.6551 -1.3340  1.2176
 4396TIP3    H213195   5.872   0.822   1.523  0.8293 -0.2550 -0.3580
 4397TIP3   OH213196   5.508   1.207   0.310  0.1285 -0.1110 -0.0819
 4397TIP3    H113197   5.524   1.162   0.227  1.9814  0.5179 -0.1314
 4397TIP3    H213198   5.514   1.139   0.376 -0.8713 -0.5333 -0.4092
 4398TIP3   OH213199   3.780   5.724   0.886  0.1746 -0.3093 -0.3194
 4398TIP3    H113200   3.873   5.702   0.887 -0.0884 -1.5375  0.5515
 4398TIP3    H213201   3.740   5.660   0.946 -1.2900 -0.1200 -1.0471
 4399TIP3   OH213202   6.262   3.729   3.562 -0.0752  0.0250 -0.0681
 4399TIP3    H113203   6.285   3.636   3.571  0.5092  0.2401  0.8781
 4399TIP3    H213204   6.201   3.732   3.488  1.6694 -0.8128 -1.6328
 4400TIP3   OH213205   5.371   5.109   2.435 -0.3295  0.4058  0.0589
 4400TIP3    H113206   5.403   5.062   2.513  0.2530  1.1010  0.2440
 4400TIP3    H213207   5.418   5.192   2.436  0.5256 -0.0064 -1.6430
 4401TIP3   OH213208   0.882   2.099   3.425 -0.3369  0.3327  0.0837
 4401TIP3    H113209   0.960   2.043   3.418 -1.1738 -0.8745 -0.0004
 4401TIP3    H213210   0.873   2.117   3.518  0.3629  0.9586  0.0348
 4402TIP3   OH213211   5.996   0.525   1.270 -0.2569 -0.0811  0.0544
 4402TIP3    H113212   6.038   0.606   1.302  0.0900 -0.1584 -0.1929
 4402TIP3    H213213   6.053   0.455   1.301 -2.0214 -0.4911  2.7249
 4403TIP3   OH213214   0.860   3.426   0.808  0.2307  0.1427 -0.3285
 4403TIP3    H113215   0.932   3.390   0.861  2.1022  2.4546 -1.1415
 4403TIP3    H213216   0.840   3.357   0.745  2.3935 -0.2547 -0.6572
 4404TIP3   OH213217   0.582   2.357   3.402  0.4628 -0.0574 -0.1538
 4404TIP3    H113218   0.602   2.298   3.330 -0.9637 -0.9946  0.1832
 4404TIP3    H213219   0.548   2.300   3.471  0.4058  0.9992  0.7246
 4405TIP3   OH213220   5.314   5.572   5.116 -0.5059  0.2486 -0.0308
 4405TIP3    H113221   5.307   5.666   5.134  0.9764  0.0666  1.9059
 4405TIP3    H213222   5.332   5.533   5.202 -0.4935 -1.7374 -0.8892
 4406TIP3   OH213223   3.251   0.867   4.194  0.8600  0.3113  0.3082
 4406TIP3    H113224   3.183   0.802   4.211  0.0515  0.9579 -0.3596
 4406TIP3    H213225   3.245   0.928   4.268  1.4814 -0.2478  0.8295
 4407TIP3   OH213226   1.605   1.559   3.288 -0.2007 -0.1607  0.1561
 4407TIP3    H113227   1.587   1.560   3.194 -2.6383 -0.1690  0.5640
 4407TIP3    H213228   1.665   1.633   3.302 -0.4610  0.3483 -1.2928
 4408TIP3   OH213229   4.097   5.613   0.366 -0.2330  0.0600 -0.1068
 4408TIP3    H113230   4.111   5.688   0.308  0.5130 -1.6167 -2.1985
 4408TIP3    H213231   4.176   5.560   0.357 -1.0003 -1.3024  0.8118
 4409TIP3   OH213232   4.083   5.527   4.528  0.3774 -0.4762 -0.0826
 4409TIP3    H113233   4.103   5.616   4.558 -1.1409  0.2311 -1.0536
 4409TIP3    H213234   4.107   5.527   4.435  1.1696 -1.3635  0.1074
 4410TIP3   OH213235   5.124   4.520   4.229 -0.1816  0.1193 -0.3137
 4410TIP3    H113236   5.085   4.519   4.142  0.0761 -0.6802 -0.4260
 4410TIP3    H213237   5.089   4.599   4.270 -2.5924 -0.9942 -0.1051
 4411TIP3   OH213238   5.683   4.345   4.089 -0.0481  0.1725  0.2799
 4411TIP3    H113239   5.715   4.294   4.014  0.0992 -1.3083  1.3082
 4411TIP3    H213240   5.690   4.436   4.061  0.4166 -0.3287 -1.3379
 4412TIP3   OH213241   0.285   2.639   1.123  0.4692 -0.4048 -0.3060
 4412TIP3    H113242   0.253   2.683   1.044 -0.7779 -1.9787 -0.7176
 4412TIP3    H213243   0.230   2.675   1.193  0.0340 -0.6620 -0.5093
 4413TIP3   OH213244   5.769   2.008   0.859 -0.0209  0.6767  0.8401
 4413TIP3    H113245   5.823   2.023   0.782 -0.9622 -0.3571 -0.0562
 4413TIP3    H213246   5.777   1.914   0.877 -0.8005  0.6733  1.2370
 4414TIP3   OH213247   3.118   3.726   2.167 -0.0918  0.6041  0.8946
 4414TIP3    H113248   3.155   3.814   2.167 -0.6561  0.8475  0.2228
 4414TIP3    H213249   3.181   3.673   2.119 -0.3893  0.9299  0.1275
 4415TIP3   OH213250   5.986   3.324   0.942 -0.3066 -0.4639 -0.0970
 4415TIP3    H113251   5.966   3.245   0.891  0.9412 -1.1353  0.3900
 4415TIP3    H213252   5.908   3.378   0.935 -2.1337 -2.7433  1.4528
 4416TIP3   OH213253   3.673   2.541   2.457  0.1943  0.4184 -0.8328
 4416TIP3    H113254   3.684   2.446   2.445 -0.1690  0.1977  0.4940
 4416TIP3    H213255   3.584   2.559   2.427 -0.2087  0.1070  0.1467
 4417TIP3   OH213256   5.870   3.165   0.740 -0.5104 -0.2145  0.0520
 4417TIP3    H113257   5.923   3.166   0.661  1.2994  2.9317  1.1385
 4417TIP3    H213258   5.795   3.221   0.719 -0.2102  0.3385  0.4533
 4418TIP3   OH213259   3.293   0.998   1.624 -0.4505  0.5546  0.2746
 4418TIP3    H113260   3.342   0.989   1.706 -1.3419  1.5536  0.9461
 4418TIP3    H213261   3.245   0.915   1.616 -1.7060  1.0874  1.7101
 4419TIP3   OH213262   1.689   2.051   3.071  0.6387 -0.2136  0.2851
 4419TIP3    H113263   1.628   2.121   3.047  1.5338  0.6597  0.4786
 4419TIP3    H213264   1.643   1.970   3.049  0.1571  0.4703 -1.3903
 4420TIP3   OH213265   2.031   1.574   1.911  0.5156 -0.4558 -0.0776
 4420TIP3    H113266   1.972   1.502   1.890  1.0540 -1.4273  1.5081
 4420TIP3    H213267   1.974   1.649   1.928 -0.1012 -0.7255 -0.9184
 4421TIP3   OH213268   3.184   0.078   2.489 -0.0961 -0.3916  0.3673
 4421TIP3    H113269   3.162  -0.006   2.530  0.9011 -1.1273 -0.5416
 4421TIP3    H213270   3.178   0.061   2.395 -0.6642  0.7892  0.1765
 4422TIP3   OH213271   5.609   2.727   1.639 -0.3065  0.7932  0.2598
 4422TIP3    H113272   5.565   2.809   1.619 -2.1663 -0.5437 -1.4958
 4422TIP3    H213273   5.541   2.672   1.678  1.1233  0.3105  2.2718
 4423TIP3   OH213274   5.186   1.206   2.263  1.0255 -0.1299 -0.8639
 4423TIP3    H113275   5.206   1.279   2.204 -0.0033  1.1339  0.3096
 4423TIP3    H213276   5.098   1.179   2.238 -0.0997  1.4857  1.0741
 4424TIP3   OH213277   1.313   2.514   1.024  0.4601 -0.2685 -0.1957
 4424TIP3    H113278   1.273   2.525   1.110 -1.0271  1.5512 -1.0381
 4424TIP3    H213279   1.406   2.501   1.042 -0.1898 -2.9113  1.7715
 4425TIP3   OH213280   5.941   3.341   3.668 -0.1946  0.3095  0.2397
 4425TIP3    H113281   5.913   3.260   3.625  0.0668  1.0803 -1.4590
 4425TIP3    H213282   5.952   3.317   3.760  0.6684 -1.8026 -0.3529
 4426TIP3   OH213283   2.259   2.804   1.320  0.6813  0.1853  0.2924
 4426TIP3    H113284   2.214   2.776   1.240 -0.8310  1.2498  0.7251
 4426TIP3    H213285   2.214   2.757   1.390  0.7130  0.7407  0.6831
 4427TIP3   OH213286   4.578   5.776   4.664 -0.3326  0.4401 -0.5973
 4427TIP3    H113287   4.534   5.825   4.594 -0.5113  0.3165 -0.5693
 4427TIP3    H213288   4.536   5.690   4.664 -1.2569  0.8637  0.5521
 4428TIP3   OH213289   4.184   5.532   2.523  0.2500  0.2723  0.4719
 4428TIP3    H113290   4.145   5.619   2.516  0.8903  0.4971 -0.3662
 4428TIP3    H213291   4.158   5.486   2.443  2.3730  0.7194 -0.5270
 4429TIP3   OH213292   0.702   5.303   3.637 -0.0094 -0.1697 -0.5981
 4429TIP3    H113293   0.720   5.390   3.601  0.2235 -1.3761 -3.7222
 4429TIP3    H213294   0.787   5.258   3.633 -0.5503 -1.1817 -1.0509
 4430TIP3   OH213295   2.446   3.714   1.517  0.3873 -0.4431 -0.3920
 4430TIP3    H113296   2.457   3.619   1.508 -1.5579 -0.8383  0.6741
 4430TIP3    H213297   2.403   3.725   1.602  0.2933  1.3803 -0.6350
 4431TIP3   OH213298   2.066   1.717   1.009 -0.3759 -0.3220 -0.1492
 4431TIP3    H113299   1.979   1.751   0.989 -1.0529 -1.7915  0.1403
 4431TIP3    H213300   2.050   1.634   1.055  1.1759 -0.9096 -0.5791
 4432TIP3   OH213301   4.583   4.766   0.127 -0.4550  0.6504 -0.0125
 4432TIP3    H113302   4.660   4.804   0.084 -0.8095  1.4616  0.0516
 4432TIP3    H213303   4.606   4.767   0.220  0.9638 -2.5530 -0.1876
 4433TIP3   OH213304   6.028   2.474   1.216  0.1560  0.0605  0.5111
 4433TIP3    H113305   6.010   2.380   1.228  1.0783 -0.2446 -0.3330
 4433TIP3    H213306   5.942   2.515   1.212 -0.2780 -0.8683  0.0546
 4434TIP3   OH213307   0.387   1.775   4.093 -0.1054  0.4833 -0.6714
 4434TIP3    H113308   0.483   1.769   4.103 -0.2520  0.3345  1.0687
 4434TIP3    H213309   0.361   1.689   4.063  0.5156  1.2848 -3.8940
 4435TIP3   OH213310   1.018   5.849   2.647 -0.1047  0.3486  0.1798
 4435TIP3    H113311   1.072   5.792   2.702  0.5555  1.1997  0.4405
 4435TIP3    H213312   0.958   5.891   2.708  0.0537  0.6478  0.1323
 4436TIP3   OH213313   3.939   0.312   2.022 -0.1667  0.0798  0.2462
 4436TIP3    H113314   3.953   0.344   1.933  0.8025 -0.5767  0.1525
 4436TIP3    H213315   3.950   0.217   2.016  1.0732  0.1305  1.2634
 4437TIP3   OH213316   5.528   2.568   5.131 -0.0976  0.4290  0.4339
 4437TIP3    H113317   5.436   2.563   5.153  0.1183  2.1883  1.9412
 4437TIP3    H213318   5.529   2.586   5.037 -1.2502 -0.2352  0.2761
 4438TIP3   OH213319   1.429   3.609   3.208 -0.2106  0.3983  0.4068
 4438TIP3    H113320   1.510   3.615   3.158  0.8668  0.6400  2.0712
 4438TIP3    H213321   1.448   3.547   3.278 -1.6738  0.0025  0.4935
 4439TIP3   OH213322   3.517   4.126   0.671 -0.0658 -0.0006 -0.6380
 4439TIP3    H113323   3.561   4.050   0.708  1.2486  0.7641 -0.5728
 4439TIP3    H213324   3.510   4.107   0.577  0.4385 -0.1185 -0.6512
 4440TIP3   OH213325   3.102   2.460   3.433 -0.4818  0.4051 -0.8101
 4440TIP3    H113326   3.058   2.544   3.423 -1.2746  0.1170  0.0407
 4440TIP3    H213327   3.195   2.480   3.424 -0.2430  2.1533  3.1631
 4441TIP3   OH213328   2.553   5.178   4.060  0.8194  0.3516  0.0478
 4441TIP3    H113329   2.621   5.206   4.121  0.2577  0.1920  0.7676
 4441TIP3    H213330   2.581   5.212   3.975  1.6879  0.4583  0.3660
 4442TIP3   OH213331   2.207   5.082   1.982 -0.5309 -0.0542  0.3824
 4442TIP3    H113332   2.280   5.117   2.033 -0.0473 -0.2636 -0.1447
 4442TIP3    H213333   2.130   5.126   2.016 -0.4971 -1.6095  2.6246
 4443TIP3   OH213334   5.000   2.514   3.029  0.0809  0.3592 -0.2803
 4443TIP3    H113335   5.080   2.515   3.082  0.6769  0.9966 -1.1421
 4443TIP3    H213336   4.939   2.460   3.078  0.3329  1.5354  1.4263
 4444TIP3   OH213337   4.986   0.767   4.543 -0.1229 -0.2615 -0.6603
 4444TIP3    H113338   4.892   0.757   4.559  0.1600 -0.9362  0.7328
 4444TIP3    H213339   5.016   0.824   4.614  0.4628  0.2932 -1.3368
 4445TIP3   OH213340   0.531   1.064   1.024  0.0725  0.7748  0.2094
 4445TIP3    H113341   0.571   1.044   0.939 -0.8234  0.4740 -0.1454
 4445TIP3    H213342   0.602   1.104   1.074  0.1854  2.6740 -1.2996
 4446TIP3   OH213343   1.735   3.567   3.943  0.1196  0.0878 -0.1662
 4446TIP3    H113344   1.734   3.538   3.852  0.4085  1.0241 -0.4773
 4446TIP3    H213345   1.668   3.635   3.947  0.0895  0.0358  0.3368
 4447TIP3   OH213346   1.246   5.509   2.043  0.0048  0.1380 -0.3291
 4447TIP3    H113347   1.312   5.467   1.989  0.8031 -0.1787  0.8682
 4447TIP3    H213348   1.223   5.443   2.109 -1.6521  0.1698 -0.8237
 4448TIP3   OH213349   5.512   2.187   1.446  0.0343 -0.2529 -0.1879
 4448TIP3    H113350   5.535   2.238   1.524 -0.5988 -1.4343  0.8042
 4448TIP3    H213351   5.428   2.147   1.468  0.3350 -1.4121 -1.0923
 4449TIP3   OH213352   4.376   5.553   1.855  0.4601  0.3217 -0.6571
 4449TIP3    H113353   4.398   5.603   1.776  0.6045  1.6309  0.1822
 4449TIP3    H213354   4.440   5.583   1.920 -0.5504  0.3244  0.3521
 4450TIP3   OH213355   4.051   5.764   2.509 -0.1349 -0.2882  0.5895
 4450TIP3    H113356   3.977   5.785   2.453  0.7755  0.2256 -0.4693
 4450TIP3    H213357   4.016   5.764   2.598 -1.5900 -1.0117  0.0367
 4451TIP3   OH213358   1.407   4.653   3.757  0.6404 -0.2335  1.0951
 4451TIP3    H113359   1.316   4.647   3.783 -0.6528  0.6171 -2.6152
 4451TIP3    H213360   1.425   4.570   3.713  1.8996 -0.6172  2.2584
 4452TIP3   OH213361   4.350   3.529   5.168 -0.3728  0.0190 -0.1224
 4452TIP3    H113362   4.291   3.605   5.174 -0.9109 -0.2859 -1.2549
 4452TIP3    H213363   4.429   3.563   5.126  0.7264  0.6513  2.2522
 4453TIP3   OH213364   5.748   4.810   2.668  0.0273 -0.1917  0.6962
 4453TIP3    H113365   5.804   4.811   2.746  1.6939 -1.2146 -0.4276
 4453TIP3    H213366   5.690   4.736   2.682  1.0274 -1.0377  0.5314
 4454TIP3   OH213367   4.165   5.594   2.935  0.5598  0.2840  0.2651
 4454TIP3    H113368   4.165   5.500   2.955  0.4543 -0.0320 -1.0726
 4454TIP3    H213369   4.072   5.619   2.939  0.5740  0.2978  0.4973
 4455TIP3   OH213370   0.233   1.724   5.055 -0.5170 -0.1321  0.5620
 4455TIP3    H113371   0.160   1.661   5.052  0.8452 -1.8120 -2.0072
 4455TIP3    H213372   0.291   1.690   5.123 -0.6601 -0.6364  0.4409
 4456TIP3   OH213373   1.722   0.942   0.643 -0.6202  0.6639  0.2257
 4456TIP3    H113374   1.778   0.947   0.565 -0.9273  0.5812 -0.0022
 4456TIP3    H213375   1.654   0.878   0.620 -0.6604  0.5687  0.5964
 4457TIP3   OH213376   2.087   2.704   2.705 -0.2573  0.0789 -0.0927
 4457TIP3    H113377   2.042   2.783   2.675 -0.8607 -0.5085 -0.7774
 4457TIP3    H213378   2.082   2.644   2.631 -0.1164 -0.7369  0.5427
 4458TIP3   OH213379   1.568   5.093   1.206  0.1732  0.4263  0.1870
 4458TIP3    H113380   1.514   5.014   1.204  0.2915  0.3542 -0.9756
 4458TIP3    H213381   1.517   5.157   1.155 -0.2954  1.3561  1.7774
 4459TIP3   OH213382   4.783   4.865   2.979  0.0675  0.0271 -0.7339
 4459TIP3    H113383   4.802   4.881   3.071 -0.0754  1.5919 -0.9379
 4459TIP3    H213384   4.785   4.770   2.969  2.3207 -0.0977  0.3990
 4460TIP3   OH213385   5.050   0.488   3.287 -0.2747  0.3393  0.0410
 4460TIP3    H113386   4.999   0.507   3.366 -0.9904 -0.3039 -0.2636
 4460TIP3    H213387   5.129   0.542   3.297 -0.7310  0.8891  0.7997
 4461TIP3   OH213388   3.276   4.290   4.516 -0.3504  0.7458 -0.0839
 4461TIP3    H113389   3.348   4.294   4.579 -0.2685 -1.0638 -0.0099
 4461TIP3    H213390   3.314   4.321   4.434  1.3534 -2.4854 -0.6946
 4462TIP3   OH213391   3.129   2.897   3.139 -0.5817  0.2126  0.4745
 4462TIP3    H113392   3.170   2.980   3.116 -1.6208  0.4078 -0.7641
 4462TIP3    H213393   3.081   2.916   3.220 -0.2268  0.6273  0.5914
 4463TIP3   OH213394   2.779   0.137   3.481 -0.3211  0.3246  0.2507
 4463TIP3    H113395   2.802   0.047   3.506  1.8519 -0.0913 -2.7354
 4463TIP3    H213396   2.708   0.127   3.418 -0.0101  0.6855 -0.1627
 4464TIP3   OH213397   1.253   3.443   3.805 -0.7508  0.0742 -0.2242
 4464TIP3    H113398   1.335   3.398   3.823 -0.9262 -0.4406 -0.6788
 4464TIP3    H213399   1.188   3.397   3.858 -0.5126  1.4027  1.2625
 4465TIP3   OH213400   6.118   0.956   2.603  0.0332 -0.2145  0.0771
 4465TIP3    H113401   6.113   0.901   2.682  0.4602 -1.9507 -1.0631
 4465TIP3    H213402   6.202   1.003   2.613  0.5640 -1.1639  0.1963
 4466TIP3   OH213403   5.116   4.069   5.088 -0.1418 -0.0681  0.1763
 4466TIP3    H113404   5.043   4.128   5.070 -0.5182 -0.9470 -1.3685
 4466TIP3    H213405   5.163   4.063   5.005  0.4063 -1.2180  0.5477
 4467TIP3   OH213406   6.151   1.046   5.178  0.5679 -0.0784 -0.4492
 4467TIP3    H113407   6.142   0.950   5.184  0.5772 -0.0686 -0.2754
 4467TIP3    H213408   6.138   1.065   5.085  0.4594 -0.2391 -0.4682
 4468TIP3   OH213409   4.081   2.488   1.963  0.3713 -0.1940 -0.2595
 4468TIP3    H113410   4.175   2.470   1.966  0.2562 -0.9772 -0.8502
 4468TIP3    H213411   4.072   2.575   2.002  1.3735  0.0279 -0.4836
 4469TIP3   OH213412   0.001   4.643   2.666  0.6365 -0.0726  0.1271
 4469TIP3    H113413   0.075   4.599   2.623 -1.2638 -2.7524 -0.5874
 4469TIP3    H213414   0.041   4.686   2.742  3.0673 -0.6520 -0.7119
 4470TIP3   OH213415   1.692   1.699   3.781 -0.0289  0.8476  0.5605
 4470TIP3    H113416   1.615   1.647   3.803 -0.0615  1.5904  2.3522
 4470TIP3    H213417   1.747   1.640   3.729 -0.6275 -0.5687  1.4761
 4471TIP3   OH213418   1.979   3.147   2.616 -0.0906  0.4790  0.1944
 4471TIP3    H113419   2.036   3.091   2.669 -0.6765  1.5393  2.0483
 4471TIP3    H213420   1.981   3.108   2.529  3.6786  0.6159  0.0499
 4472TIP3   OH213421   3.742   0.769   2.534 -0.3677  0.1008 -0.2671
 4472TIP3    H113422   3.656   0.734   2.558 -0.3121 -0.6536 -1.0843
 4472TIP3    H213423   3.752   0.745   2.441  1.4589 -1.4193  0.2465
 4473TIP3   OH213424   0.641   0.502   3.286  0.3860 -0.3114 -0.1032
 4473TIP3    H113425   0.685   0.584   3.264 -0.0474 -0.7108 -2.7995
 4473TIP3    H213426   0.706   0.434   3.269  0.7615 -0.5877  2.1677
 4474TIP3   OH213427   1.626   3.209   3.636  0.2226  0.0222  0.1630
 4474TIP3    H113428   1.708   3.165   3.660  0.6220  0.1078 -0.9723
 4474TIP3    H213429   1.588   3.154   3.568  0.5110  1.1763 -0.9633
 4475TIP3   OH213430   1.601   0.036   4.865  0.7686 -0.0546 -0.2248
 4475TIP3    H113431   1.524  -0.021   4.859  1.2726 -0.6794 -1.1433
 4475TIP3    H213432   1.586   0.090   4.942 -0.9989  0.4444 -0.8735
 4476TIP3   OH213433   1.576   0.191   4.232 -0.5253  0.1960  0.1899
 4476TIP3    H113434   1.579   0.280   4.267 -0.0608  1.5814 -2.9943
 4476TIP3    H213435   1.668   0.166   4.222 -0.6110  0.4210 -1.2936
 4477TIP3   OH213436   6.187   1.405   4.570  0.1063  0.1897  0.2655
 4477TIP3    H113437   6.176   1.415   4.665  0.6705 -0.2993  0.3904
 4477TIP3    H213438   6.281   1.419   4.555 -0.2555  2.1682 -0.4834
 4478TIP3   OH213439   4.852   3.284   1.035 -0.2894  0.2459 -0.0134
 4478TIP3    H113440   4.862   3.332   0.953  1.7284 -0.7428 -0.4080
 4478TIP3    H213441   4.777   3.227   1.021  0.8091 -0.8523 -1.7029
 4479TIP3   OH213442   6.039   5.936   4.036  0.0532 -0.2359 -0.4223
 4479TIP3    H113443   6.131   5.933   4.009 -0.4468 -0.6476 -2.2216
 4479TIP3    H213444   5.994   5.977   3.962 -1.0220  1.4278  1.0757
 4480TIP3   OH213445   3.192   5.632   4.981  0.1261 -0.1960 -0.4908
 4480TIP3    H113446   3.167   5.558   5.037 -0.2698 -0.4567 -1.0072
 4480TIP3    H213447   3.248   5.593   4.914 -0.6676 -0.1610 -1.1896
 4481TIP3   OH213448   3.258   0.050   2.977  0.1536 -0.5985  0.1215
 4481TIP3    H113449   3.252   0.039   3.072  0.8769  1.7269  0.4955
 4481TIP3    H213450   3.198   0.122   2.958  0.2731 -0.8181 -1.1554
 4482TIP3   OH213451   5.753   2.709   3.099  0.2914 -0.1317 -0.4995
 4482TIP3    H113452   5.750   2.635   3.039  1.0356 -1.0419  0.5488
 4482TIP3    H213453   5.778   2.671   3.183 -0.1382  1.1961  0.2541
 4483TIP3   OH213454   6.111   5.378   2.598 -0.3013  0.7587 -0.1475
 4483TIP3    H113455   6.189   5.423   2.567 -0.9012  0.8313 -1.6113
 4483TIP3    H213456   6.111   5.294   2.553 -1.3249  0.9670 -0.5632
 4484TIP3   OH213457   4.287   5.044   3.757 -0.2215  0.3856 -0.6026
 4484TIP3    H113458   4.272   5.090   3.840  1.9633 -0.7239  0.5064
 4484TIP3    H213459   4.298   5.113   3.692 -1.7804  1.2832  0.0388
 4485TIP3   OH213460   5.579   3.006   0.766 -0.0729 -0.1144 -0.3069
 4485TIP3    H113461   5.558   2.988   0.674 -1.2347 -0.5045  0.0169
 4485TIP3    H213462   5.602   3.099   0.767 -0.8014  0.0804 -0.8719
 4486TIP3   OH213463   2.988   1.746  -0.008 -0.2874 -0.2503 -0.0523
 4486TIP3    H113464   3.050   1.676  -0.028 -0.8298 -0.6917 -0.2437
 4486TIP3    H213465   3.021   1.786   0.073 -0.3688 -1.2109  0.4681
 4487TIP3   OH213466   3.857   2.761   1.732  0.7704  0.0926 -0.0306
 4487TIP3    H113467   3.908   2.833   1.695 -0.1480  0.8253  0.0898
 4487TIP3    H213468   3.860   2.692   1.665  0.5466  0.7521 -0.7368
 4488TIP3   OH213469   5.430   4.426   3.275 -0.0288 -0.4168  0.0921
 4488TIP3    H113470   5.338   4.409   3.253 -0.3087  1.2484 -0.1373
 4488TIP3    H213471   5.478   4.399   3.197 -0.9959  5.2378 -2.9903
 4489TIP3   OH213472   4.392   1.181   4.234  0.9392 -0.1079  0.2327
 4489TIP3    H113473   4.297   1.179   4.219  0.9146  1.0459  0.1494
 4489TIP3    H213474   4.423   1.097   4.199  0.0010 -0.3322 -0.1039
 4490TIP3   OH213475   5.862   1.080   4.339 -0.5603  0.4987  0.3445
 4490TIP3    H113476   5.953   1.098   4.361  0.0116  0.5436 -1.7570
 4490TIP3    H213477   5.831   1.019   4.405  0.9113  0.7073  1.2470
 4491TIP3   OH213478   0.727   3.520   1.798  0.0553 -0.3425 -0.0898
 4491TIP3    H113479   0.692   3.571   1.871 -1.4892  0.3375 -1.2450
 4491TIP3    H213480   0.706   3.430   1.820  1.0990 -0.3187  1.0773
 4492TIP3   OH213481   3.770   4.683   3.399  0.1965  0.2906  0.2219
 4492TIP3    H113482   3.801   4.769   3.426  2.7841 -0.0822 -1.2546
 4492TIP3    H213483   3.713   4.700   3.324 -0.0174  0.7546  0.4873
 4493TIP3   OH213484   0.485   5.299   3.041 -0.1993  0.2072 -0.2142
 4493TIP3    H113485   0.398   5.337   3.055 -0.2304  0.4244 -0.9654
 4493TIP3    H213486   0.544   5.358   3.088 -0.5280 -0.4211  1.0362
 4494TIP3   OH213487   4.498   1.871   3.786  0.2818  0.3187  0.0618
 4494TIP3    H113488   4.549   1.800   3.823 -1.6176 -2.0894 -1.6555
 4494TIP3    H213489   4.508   1.862   3.691 -1.7786  0.9163 -0.2624
 4495TIP3   OH213490   4.853   1.391   3.626  0.1726 -0.6306  0.0914
 4495TIP3    H113491   4.764   1.399   3.592 -0.3137  0.8449  1.5824
 4495TIP3    H213492   4.900   1.343   3.558 -1.8777 -1.9587 -0.4776
 4496TIP3   OH213493   4.563   3.155   0.664  0.0229  0.2440 -0.1460
 4496TIP3    H113494   4.542   3.063   0.647  1.6295 -0.0018 -1.1134
 4496TIP3    H213495   4.482   3.193   0.697 -0.4994 -1.6784  0.9633
 4497TIP3   OH213496   2.758   4.655   1.190  0.2257  0.0599 -0.3979
 4497TIP3    H113497   2.755   4.750   1.181  1.6836  0.2933  1.0195
 4497TIP3    H213498   2.668   4.630   1.209 -0.1594  1.1671 -0.6814
 4498TIP3   OH213499   4.063   4.634   0.741 -0.7733  0.0049  0.0348
 4498TIP3    H113500   4.109   4.584   0.808 -0.2342  1.5377  0.8649
 4498TIP3    H213501   3.974   4.600   0.741  0.2394 -2.9744 -1.5323
 4499TIP3   OH213502   3.540   2.745   3.562 -0.4358  0.1519  0.2111
 4499TIP3    H113503   3.499   2.828   3.590 -0.0851  0.5587 -0.4599
 4499TIP3    H213504   3.565   2.760   3.471  2.9343  0.6305  1.0919
 4500TIP3   OH213505   0.663   0.717   1.483  0.0161 -0.1825 -0.5317
 4500TIP3    H113506   0.683   0.735   1.391  0.1262  2.1487 -0.1188
 4500TIP3    H213507   0.697   0.793   1.530 -2.0539 -0.2293  1.1765
 4501TIP3   OH213508   1.038   2.973   5.140 -0.0892  0.3824 -0.2436
 4501TIP3    H113509   1.098   2.956   5.213  0.0806 -0.6928 -0.6296
 4501TIP3    H213510   1.012   2.886   5.109 -0.6068  0.8353 -1.1072
 4502TIP3   OH213511   0.786   3.627   3.443 -0.4365  0.0712 -0.3455
 4502TIP3    H113512   0.777   3.699   3.382  1.7229  0.5946 -0.1335
 4502TIP3    H213513   0.855   3.572   3.405  0.8555  0.3329  1.4885
 4503TIP3   OH213514   2.354   4.086   4.952 -0.1420 -0.1810  0.5301
 4503TIP3    H113515   2.364   3.999   4.913 -1.3304 -0.1871  0.2051
 4503TIP3    H213516   2.422   4.090   5.019  1.7565 -0.3088 -1.2758
 4504TIP3   OH213517   6.066   2.683   4.429  0.4585  0.2772 -0.2453
 4504TIP3    H113518   5.989   2.738   4.414  0.8751  0.8861 -0.2049
 4504TIP3    H213519   6.064   2.664   4.523 -0.5320 -1.0778 -0.5175
 4505TIP3   OH213520   6.046   3.297   3.084 -0.1441 -0.4329 -0.4672
 4505TIP3    H113521   6.051   3.227   3.018 -0.9348  0.0036 -1.0099
 4505TIP3    H213522   5.976   3.270   3.143 -0.5139 -0.0559 -0.7319
 4506TIP3   OH213523   4.398   1.216   3.780 -0.1652 -0.0173  0.0423
 4506TIP3    H113524   4.347   1.269   3.841  0.3327  0.0421  0.4154
 4506TIP3    H213525   4.338   1.146   3.752 -0.6050  0.3396  0.0784
 4507TIP3   OH213526   0.257   4.171   3.067 -0.1408 -0.0414 -0.1079
 4507TIP3    H113527   0.241   4.133   2.980  0.4417 -0.4428 -0.0426
 4507TIP3    H213528   0.297   4.100   3.117 -1.9787 -0.3654  1.0213
 4508TIP3   OH213529   5.548   4.803   0.520  0.8164  0.1216  0.5275
 4508TIP3    H113530   5.539   4.748   0.442  0.7727 -0.8552  1.2074
 4508TIP3    H213531   5.579   4.744   0.588  0.5849  0.9002  1.3308
 4509TIP3   OH213532   2.330   4.186   0.551  0.3981  0.2697  0.3763
 4509TIP3    H113533   2.409   4.235   0.572  1.1568 -0.4463 -0.7053
 4509TIP3    H213534   2.261   4.252   0.545  1.3299  1.1755 -0.6969
 4510TIP3   OH213535   2.437   4.525   2.644  0.0657 -0.1281 -0.2052
 4510TIP3    H113536   2.450   4.604   2.695  0.2106 -0.1948 -0.1378
 4510TIP3    H213537   2.506   4.465   2.673 -1.5375 -1.2277  1.5796
 4511TIP3   OH213538   4.340   2.681   0.703 -0.2612  0.1332  0.6365
 4511TIP3    H113539   4.292   2.602   0.678  0.8708 -0.4238  0.1836
 4511TIP3    H213540   4.374   2.662   0.791 -2.2273  1.1759  1.7009
 4512TIP3   OH213541   5.484   4.729   4.199  0.0565 -0.1377  0.5777
 4512TIP3    H113542   5.453   4.646   4.162 -1.9322  1.4585 -1.6855
 4512TIP3    H213543   5.446   4.731   4.287 -1.3919 -0.8795  0.0124
 4513TIP3   OH213544   2.349   2.644   0.841 -0.0440 -0.2488  0.1333
 4513TIP3    H113545   2.297   2.665   0.764  0.3074 -1.0659 -0.3353
 4513TIP3    H213546   2.434   2.619   0.807 -0.4881 -2.6352  0.6059
 4514TIP3   OH213547   0.757   4.798   3.371  0.5487  0.5033  0.3874
 4514TIP3    H113548   0.809   4.846   3.306  3.7382 -2.7424  0.1830
 4514TIP3    H213549   0.706   4.736   3.320  2.8560 -1.8688  0.6950
 4515TIP3   OH213550   5.373   0.792   0.812  0.5009 -0.2000  0.7999
 4515TIP3    H113551   5.302   0.829   0.761  0.7419  1.0290  1.3227
 4515TIP3    H213552   5.379   0.701   0.782 -0.9379 -0.1840  0.3913
 4516TIP3   OH213553   2.403   1.350   4.024  0.5899 -0.0294 -0.3703
 4516TIP3    H113554   2.488   1.314   4.000  2.2893  3.1864  0.2850
 4516TIP3    H213555   2.396   1.336   4.118 -0.2519 -1.3740 -0.5982
 4517TIP3   OH213556   4.936   3.494   1.615  0.8939  0.8570  0.4422
 4517TIP3    H113557   4.855   3.447   1.635  2.2264 -1.1818  1.4013
 4517TIP3    H213558   4.927   3.520   1.524  0.8386 -3.1044 -0.8578
 4518TIP3   OH213559   4.509   0.196   1.010 -0.0657  0.3910 -0.0491
 4518TIP3    H113560   4.549   0.182   1.096  0.1626  0.4960 -0.1371
 4518TIP3    H213561   4.430   0.142   1.011  0.7039 -0.7910 -0.3272
 4519TIP3   OH213562   3.775   4.433   3.934 -0.0918  1.1879  0.0159
 4519TIP3    H113563   3.799   4.525   3.924  1.6185  0.6818 -1.0058
 4519TIP3    H213564   3.726   4.412   3.854 -0.5527  1.2316  0.2865
 4520TIP3   OH213565   4.710   5.712   0.711 -0.0001  0.2616 -0.6047
 4520TIP3    H113566   4.738   5.801   0.686  0.8885  0.6087  1.4337
 4520TIP3    H213567   4.660   5.725   0.792  0.7469 -1.1426  0.1110
 4521TIP3   OH213568   2.881   2.907   0.790 -0.0608  0.0851 -0.4580
 4521TIP3    H113569   2.858   2.817   0.816  0.1766  0.2547  0.3758
 4521TIP3    H213570   2.938   2.895   0.714 -0.3874 -0.4491 -0.6327
 4522TIP3   OH213571   6.328   5.545   4.056  0.7157  0.2452  0.0413
 4522TIP3    H113572   6.321   5.523   3.963 -0.6252 -1.7952  0.5473
 4522TIP3    H213573   6.260   5.611   4.070  1.5585  1.2752 -0.5798
 4523TIP3   OH213574   1.209   0.290   0.422 -0.5170 -0.1832  0.5584
 4523TIP3    H113575   1.291   0.271   0.377 -0.3758  1.8751 -0.1792
 4523TIP3    H213576   1.142   0.247   0.368  0.0546 -2.6348  1.6504
 4524TIP3   OH213577   0.158   0.791   0.618 -0.0366  0.1740 -0.2937
 4524TIP3    H113578   0.098   0.788   0.544 -0.6046 -0.8498  0.1840
 4524TIP3    H213579   0.160   0.884   0.643  0.4652  0.6034 -1.8022
 4525TIP3   OH213580   4.711   5.956   0.251  0.2625 -0.4760 -0.0603
 4525TIP3    H113581   4.666   5.992   0.327 -1.1029 -2.8423  0.3463
 4525TIP3    H213582   4.802   5.946   0.279 -0.0772 -0.6668  1.0085
 4526TIP3   OH213583   5.537   5.806   4.124 -0.4692 -0.2056 -0.1908
 4526TIP3    H113584   5.599   5.733   4.122 -0.0352  0.1553 -1.5983
 4526TIP3    H213585   5.452   5.766   4.104 -0.2724 -0.3747 -0.7141
 4527TIP3   OH213586   2.619   1.234   3.636  0.5477 -0.0129 -0.1885
 4527TIP3    H113587   2.570   1.313   3.613  1.7673  0.4783 -1.1637
 4527TIP3    H213588   2.553   1.177   3.677 -0.2511  1.6844  1.0172
 4528TIP3   OH213589   4.850   2.104   0.268  0.1540  0.1897 -0.3464
 4528TIP3    H113590   4.908   2.036   0.234 -0.3869  0.4920 -1.9406
 4528TIP3    H213591   4.765   2.086   0.228 -1.6248 -1.6526  3.6742
 4529TIP3   OH213592   4.154   2.739   4.527  0.1296  0.0803 -0.1087
 4529TIP3    H113593   4.163   2.793   4.605 -0.8088  2.5498 -1.5972
 4529TIP3    H213594   4.235   2.752   4.478 -1.1252  2.5074 -1.7626
 4530TIP3   OH213595   6.070   5.677   1.366  0.1212  0.0657  0.3421
 4530TIP3    H113596   5.986   5.654   1.327  0.6405 -0.1552 -0.6870
 4530TIP3    H213597   6.049   5.747   1.428 -0.8652 -0.2343  0.3674
 4531TIP3   OH213598   6.135   3.780   0.431  0.1936  0.3748 -0.0696
 4531TIP3    H113599   6.164   3.845   0.367 -0.0464  2.1196  1.5082
 4531TIP3    H213600   6.068   3.729   0.384  1.9963 -0.3063 -2.0696
 4532TIP3   OH213601   0.639   5.035   1.663  0.3299 -0.0182 -0.3918
 4532TIP3    H113602   0.576   5.002   1.599 -1.2535  0.1555  1.0216
 4532TIP3    H213603   0.698   4.960   1.679 -0.4138 -0.6724 -0.6456
 4533TIP3   OH213604   4.932   0.881   3.474  0.1560 -0.5610  0.7012
 4533TIP3    H113605   4.945   0.796   3.517 -2.0551 -0.6612  1.2871
 4533TIP3    H213606   4.882   0.932   3.537 -1.1769  0.1089 -0.8209
 4534TIP3   OH213607   0.946   3.779   2.583 -0.0005  0.9709 -0.3883
 4534TIP3    H113608   0.897   3.837   2.524  2.2763  2.5445 -0.8559
 4534TIP3    H213609   0.899   3.784   2.666 -0.7293  2.2943 -0.8485
 4535TIP3   OH213610   4.961   2.165   4.001  0.2690  0.3445 -0.1696
 4535TIP3    H113611   4.914   2.092   4.041  0.2318  0.1557 -0.5509
 4535TIP3    H213612   5.020   2.124   3.937  0.6447  0.6096  0.0019
 4536TIP3   OH213613   2.780   1.886   3.120  0.4015 -0.6985  0.2222
 4536TIP3    H113614   2.834   1.936   3.180 -0.8598  0.1180  0.7132
 4536TIP3    H213615   2.790   1.795   3.148  1.7283 -0.5978  0.1132
 4537TIP3   OH213616   1.466   0.716   0.875 -0.8669  0.5191  0.1523
 4537TIP3    H113617   1.517   0.789   0.910  1.7160 -1.6816  1.4049
 4537TIP3    H213618   1.437   0.668   0.952 -1.0329 -0.6820 -0.6249
 4538TIP3   OH213619   3.720   4.584   2.064 -0.3033 -0.4647  0.5359
 4538TIP3    H113620   3.735   4.574   1.970  2.1163  0.0274  0.8072
 4538TIP3    H213621   3.670   4.666   2.071 -1.6943 -1.1842 -0.3438
 4539TIP3   OH213622   2.756   3.882   1.467 -0.1464 -0.7950  0.1883
 4539TIP3    H113623   2.718   3.951   1.414  0.8596 -0.3300  0.0420
 4539TIP3    H213624   2.743   3.802   1.416 -0.0319 -0.4902 -0.3271
 4540TIP3   OH213625   0.334   3.783   0.842  0.5787 -0.1951  0.2050
 4540TIP3    H113626   0.317   3.707   0.787  2.6451  0.9755 -2.2879
 4540TIP3    H213627   0.373   3.847   0.782  2.3457  1.4689  2.9219
 4541TIP3   OH213628   1.785   5.663   4.916  0.0707 -0.3569  0.0411
 4541TIP3    H113629   1.818   5.751   4.899  0.6472 -0.6962 -0.6997
 4541TIP3    H213630   1.812   5.643   5.005  0.5424 -0.0455 -0.0326
 4542TIP3   OH213631   6.172   3.163   1.352 -0.0363 -0.3062  0.0783
 4542TIP3    H113632   6.209   3.144   1.266 -1.0170  0.3557 -0.5266
 4542TIP3    H213633   6.235   3.129   1.415  0.1695 -1.8337 -0.9022
 4543TIP3   OH213634   1.764   4.692   2.945  0.3461 -0.2885 -0.2885
 4543TIP3    H113635   1.829   4.665   3.011  0.8073  1.6138  0.0861
 4543TIP3    H213636   1.717   4.765   2.986 -0.0586  0.2622 -1.6891
 4544TIP3   OH213637   2.796   3.061   1.058 -0.2343 -0.1532 -0.0783
 4544TIP3    H113638   2.838   3.125   1.000  1.3193 -0.7158  0.3736
 4544TIP3    H213639   2.854   2.985   1.055 -0.9013 -0.7311  1.0843
 4545TIP3   OH213640   1.116   0.266   2.551  0.1915  0.3675  0.1417
 4545TIP3    H113641   1.175   0.255   2.625  1.1947  0.9715 -0.5374
 4545TIP3    H213642   1.122   0.184   2.502 -0.6668 -0.1289  0.8463
 4546TIP3   OH213643   5.729   5.828   4.571 -0.0020  0.6727 -0.3940
 4546TIP3    H113644   5.636   5.810   4.570 -0.2579  1.8662 -1.8969
 4546TIP3    H213645   5.735   5.923   4.557  1.4281  0.5560 -0.7375
 4547TIP3   OH213646   2.974   0.707   2.450 -0.3250  0.3151  0.2050
 4547TIP3    H113647   2.908   0.642   2.429 -1.8421  1.9561 -0.3214
 4547TIP3    H213648   3.045   0.691   2.387 -1.5381  0.4243 -1.2330
 4548TIP3   OH213649   5.263   1.820   4.476 -0.1176 -0.5473  0.2297
 4548TIP3    H113650   5.302   1.781   4.397  0.0251 -0.1067  0.0797
 4548TIP3    H213651   5.329   1.882   4.507 -1.9776  2.9499 -2.0697
 4549TIP3   OH213652   2.378   4.800   2.994 -0.2653 -0.1627  0.2750
 4549TIP3    H113653   2.335   4.831   3.074  0.7143 -0.5914  0.9958
 4549TIP3    H213654   2.313   4.811   2.926 -0.8218  1.0671  0.9658
 4550TIP3   OH213655   4.773   1.869   1.582  0.1294 -0.5190  0.2914
 4550TIP3    H113656   4.814   1.856   1.668  0.8785  1.0804  0.2133
 4550TIP3    H213657   4.830   1.822   1.521 -0.5313 -1.8556  0.6638
 4551TIP3   OH213658   3.313   5.391   0.069 -0.1041 -0.0749  0.8219
 4551TIP3    H113659   3.340   5.311   0.114  0.8476 -0.5243 -0.5099
 4551TIP3    H213660   3.217   5.391   0.076 -0.0373 -0.6603  1.9288
 4552TIP3   OH213661   1.815   1.459   4.495  0.3172  0.0370 -0.4318
 4552TIP3    H113662   1.845   1.532   4.549  1.7918 -0.9729  0.2068
 4552TIP3    H213663   1.799   1.388   4.558 -1.8769  0.0124 -0.9441
 4553TIP3   OH213664   4.685   2.579   0.730  0.1942 -0.3133  0.2471
 4553TIP3    H113665   4.736   2.609   0.805 -0.9644  2.9726 -0.1036
 4553TIP3    H213666   4.621   2.519   0.766  0.0459  0.7397  1.8258
 4554TIP3   OH213667   5.095   5.720   3.658  0.1738  0.3184 -0.1953
 4554TIP3    H113668   5.124   5.723   3.749 -1.3539 -0.2080  0.3313
 4554TIP3    H213669   5.149   5.652   3.618  2.7667  2.3363 -0.4447
 4555TIP3   OH213670   4.014   2.155   0.558 -0.0536 -0.9601 -0.3490
 4555TIP3    H113671   4.072   2.216   0.511 -1.4392  0.3801 -0.4244
 4555TIP3    H213672   3.966   2.110   0.489 -1.5257  0.4433 -0.3156
 4556TIP3   OH213673   5.447   1.052   2.576  0.0009  0.1792 -0.4280
 4556TIP3    H113674   5.378   1.112   2.605 -1.2261 -0.6033 -1.6169
 4556TIP3    H213675   5.484   1.095   2.499 -0.2984 -0.1643 -0.7698
 4557TIP3   OH213676   2.240   4.395   1.991  0.2898  0.3418  0.0814
 4557TIP3    H113677   2.310   4.454   1.963  0.9811 -0.6625 -0.3501
 4557TIP3    H213678   2.245   4.321   1.931 -0.9512  0.1045  0.2387
 4558TIP3   OH213679   4.761   2.145   1.620 -0.2392 -0.4096  0.2134
 4558TIP3    H113680   4.789   2.055   1.635  1.5563  0.0586 -0.1293
 4558TIP3    H213681   4.740   2.149   1.527 -1.6431 -0.7979  0.4997
 4559TIP3   OH213682   1.800   3.782   1.060  0.4230 -0.5789 -0.4320
 4559TIP3    H113683   1.822   3.746   0.974  0.8644  0.9358 -0.9861
 4559TIP3    H213684   1.721   3.834   1.045  0.6515 -0.0940  0.0152
 4560TIP3   OH213685   4.933   2.018   0.893 -0.4294  0.0950 -0.5031
 4560TIP3    H113686   4.841   2.004   0.872 -0.5631 -0.6359  0.4617
 4560TIP3    H213687   4.964   2.082   0.829 -1.9944  1.4833  0.0580
 4561TIP3   OH213688   0.398   2.061   1.757 -0.3687 -0.7356 -0.1138
 4561TIP3    H113689   0.387   2.038   1.849 -0.4038 -1.4885 -0.2956
 4561TIP3    H213690   0.322   2.021   1.713 -0.1007 -0.7945 -0.5313
 4562TIP3   OH213691   3.701   0.371   3.125 -0.1333 -0.1917  0.1555
 4562TIP3    H113692   3.646   0.449   3.123  0.6574  0.4407  1.5216
 4562TIP3    H213693   3.756   0.380   3.047 -1.2947 -0.3481 -0.7004
 4563TIP3   OH213694   2.573   4.776   2.235  0.2074 -0.1522  0.3282
 4563TIP3    H113695   2.498   4.819   2.276  0.7226  0.7252  0.3732
 4563TIP3    H213696   2.600   4.709   2.297  0.7060  0.8673  1.2356
 4564TIP3   OH213697   4.801   2.128   2.734 -0.8436 -0.1201  0.5886
 4564TIP3    H113698   4.727   2.135   2.674 -1.0023 -0.2968  0.7612
 4564TIP3    H213699   4.826   2.218   2.753 -0.7796 -0.0622  0.2442
 4565TIP3   OH213700   5.785   0.631   1.908  0.2876  0.1612 -0.7473
 4565TIP3    H113701   5.811   0.680   1.985 -1.1884 -0.0982 -0.0507
 4565TIP3    H213702   5.786   0.695   1.837 -1.6759  1.2699  0.1510
 4566TIP3   OH213703   2.529   2.778   3.560 -0.2842 -0.3450  0.6028
 4566TIP3    H113704   2.530   2.688   3.594  0.2617 -1.3181 -1.7511
 4566TIP3    H213705   2.490   2.769   3.473  1.4288  1.3964 -0.4201
 4567TIP3   OH213706   1.630   0.628   4.031  0.4982  0.6779 -0.1033
 4567TIP3    H113707   1.599   0.706   3.984  0.6473 -0.6530 -2.6046
 4567TIP3    H213708   1.671   0.662   4.110 -1.9829  2.9244  0.3717
 4568TIP3   OH213709   3.823   1.256   1.131 -0.0716  0.1500 -0.2543
 4568TIP3    H113710   3.794   1.329   1.186 -2.9380 -0.5068 -0.7549
 4568TIP3    H213711   3.828   1.293   1.043  1.0086  0.3234 -0.1358
 4569TIP3   OH213712   4.866   1.941   2.938  0.2435 -0.0410 -0.7001
 4569TIP3    H113713   4.829   1.996   2.869  0.4748 -1.2151 -1.7947
 4569TIP3    H213714   4.952   1.981   2.957 -0.6971  1.5544  0.4905
 4570TIP3   OH213715   3.456   1.234   3.624 -0.1541  0.7879  0.6507
 4570TIP3    H113716   3.373   1.202   3.590  0.6234 -0.7512  0.1120
 4570TIP3    H213717   3.442   1.243   3.718 -1.4963  2.4576  0.3427
 4571TIP3   OH213718   2.396   1.480   3.183  0.3518  0.4514  0.3731
 4571TIP3    H113719   2.354   1.410   3.234  3.2010 -1.7612 -0.0470
 4571TIP3    H213720   2.469   1.508   3.238  1.0285  0.9347 -0.7500
 4572TIP3   OH213721   1.256   3.636   3.498 -0.2561 -0.3815  0.2375
 4572TIP3    H113722   1.215   3.554   3.472 -2.3533  0.3564  0.9346
 4572TIP3    H213723   1.182   3.695   3.514  1.1203  1.1304  1.3903
 4573TIP3   OH213724   3.059   5.522   0.091  0.1026 -0.0055  0.0553
 4573TIP3    H113725   3.118   5.514   0.166  0.7348  0.4147 -0.3775
 4573TIP3    H213726   2.986   5.575   0.123  0.9402  1.2034  0.0709
 4574TIP3   OH213727   0.388   3.855   4.044  0.2280 -0.5512 -0.2826
 4574TIP3    H113728   0.469   3.868   4.093 -0.6856 -0.3934  1.2366
 4574TIP3    H213729   0.400   3.770   4.000  0.5815 -1.3447  1.2679
 4575TIP3   OH213730   2.291   5.431   4.013 -0.3096 -0.7173  0.4196
 4575TIP3    H113731   2.283   5.521   3.983 -0.6175 -1.1551 -0.9167
 4575TIP3    H213732   2.369   5.430   4.068 -0.1638  0.3100  0.2491
 4576TIP3   OH213733   0.147   1.064   0.755  0.4848  0.1446 -0.3905
 4576TIP3    H113734   0.242   1.068   0.746  0.5007  0.2045 -0.1903
 4576TIP3    H213735   0.119   1.156   0.754  0.3942  0.1192 -0.8089
 4577TIP3   OH213736   5.876   2.379   4.470  0.7996  0.2470 -0.4106
 4577TIP3    H113737   5.916   2.349   4.552  1.5526  0.4649 -0.6920
 4577TIP3    H213738   5.880   2.303   4.412 -0.5132 -0.1767  0.0140
 4578TIP3   OH213739   1.444   5.105   2.788  0.3974  0.0986 -0.8963
 4578TIP3    H113740   1.534   5.072   2.792  0.9371  1.6845  1.3367
 4578TIP3    H213741   1.410   5.095   2.877 -1.0517  1.0826 -1.3008
 4579TIP3   OH213742   4.293   4.305   2.379  0.5192  0.5692 -0.7095
 4579TIP3    H113743   4.385   4.324   2.400  0.1849  1.6712 -0.2236
 4579TIP3    H213744   4.244   4.335   2.455 -0.2328 -0.3315 -0.8191
 4580TIP3   OH213745   4.289   0.798   2.449  0.1326 -0.3599  0.0799
 4580TIP3    H113746   4.234   0.721   2.464  0.9148 -0.8970  0.2646
 4580TIP3    H213747   4.256   0.863   2.511 -0.7436 -0.4254 -0.2945
 4581TIP3   OH213748   2.103   1.690   2.983  0.0700  0.1625  0.0915
 4581TIP3    H113749   2.096   1.595   2.994 -3.4046  0.3357  0.4187
 4581TIP3    H213750   2.197   1.707   2.986  0.8319 -3.2415  0.0152
 4582TIP3   OH213751   3.907   0.593   0.074 -0.1629 -0.8998 -0.1318
 4582TIP3    H113752   3.888   0.567  -0.016  0.4054 -1.9624  0.0404
 4582TIP3    H213753   3.836   0.556   0.126  0.2159 -1.4301  0.0150
 4583TIP3   OH213754   3.069   2.631   2.228 -0.4846 -0.3541  0.4023
 4583TIP3    H113755   3.097   2.636   2.136  1.4221 -0.5191  0.9291
 4583TIP3    H213756   3.077   2.538   2.250  1.4268 -0.0115  1.3663
 4584TIP3   OH213757   2.647   2.470   1.802 -0.6225 -0.4694  0.4889
 4584TIP3    H113758   2.665   2.522   1.724 -1.4495  0.2659  0.7732
 4584TIP3    H213759   2.724   2.484   1.858 -1.2982  1.3847  1.0298
 4585TIP3   OH213760   0.936   0.098   2.739 -0.1276  0.3112  0.0488
 4585TIP3    H113761   1.007   0.162   2.738 -1.4955  1.9322  1.2823
 4585TIP3    H213762   0.955   0.040   2.664  1.3188  1.9635 -0.9407
 4586TIP3   OH213763   0.801   5.840   2.922 -0.3492 -0.4827 -0.1515
 4586TIP3    H113764   0.727   5.786   2.951 -0.1306  0.0116  1.4393
 4586TIP3    H213765   0.872   5.815   2.981  0.1164  0.6050 -0.2322
 4587TIP3   OH213766   5.269   0.764   1.178  0.5143  0.7071 -0.3814
 4587TIP3    H113767   5.202   0.826   1.206 -0.0692 -0.3084  0.5381
 4587TIP3    H213768   5.352   0.805   1.203  0.1349  1.1218  0.2047
 4588TIP3   OH213769   5.308   4.660   2.634 -0.1913 -0.4076 -0.6302
 4588TIP3    H113770   5.241   4.611   2.586 -2.1464 -0.9118  2.3212
 4588TIP3    H213771   5.276   4.661   2.725  1.6370  3.1747  0.1572
 4589TIP3   OH213772   3.218   1.168   0.352 -0.5465 -0.2630  0.2062
 4589TIP3    H113773   3.149   1.120   0.306  1.0622 -1.6072 -0.9489
 4589TIP3    H213774   3.271   1.100   0.394  0.4473  0.6726  0.5244
 4590TIP3   OH213775   4.934   3.028   1.804  0.1993 -0.1447  0.2630
 4590TIP3    H113776   4.889   3.059   1.725 -2.1681 -0.0422  1.5310
 4590TIP3    H213777   4.979   3.105   1.838  0.6940 -0.0323 -0.6218
 4591TIP3   OH213778   2.272   5.511   3.522  0.4929  0.1003  0.2900
 4591TIP3    H113779   2.280   5.463   3.605 -0.6511 -0.1300  0.2857
 4591TIP3    H213780   2.226   5.591   3.546  0.4494  0.1831 -0.0758
 4592TIP3   OH213781   0.924   4.617   4.102 -0.7066  0.1328  0.0338
 4592TIP3    H113782   0.995   4.552   4.095 -1.2817 -0.8596  2.4207
 4592TIP3    H213783   0.853   4.570   4.145 -1.4283  2.1411  1.1638
 4593TIP3   OH213784   0.839   0.608   4.397  0.6926 -0.0408 -0.0749
 4593TIP3    H113785   0.798   0.694   4.405  1.3800  0.1653  2.0011
 4593TIP3    H213786   0.923   0.626   4.354  0.3907  0.1560 -0.5920
 4594TIP3   OH213787   2.663   2.338   3.849  0.2318 -0.1626 -0.1100
 4594TIP3    H113788   2.619   2.256   3.870  0.1738 -0.6651 -2.0346
 4594TIP3    H213789   2.754   2.323   3.875 -0.3841  0.5071  2.8804
 4595TIP3   OH213790   2.386   5.402   2.602  0.3744 -0.1873 -0.2350
 4595TIP3    H113791   2.447   5.462   2.561  1.1914 -0.2017  0.9122
 4595TIP3    H213792   2.373   5.437   2.690 -0.7458 -0.5594 -0.2299
 4596TIP3   OH213793   3.902   1.280   3.334 -0.0117 -0.5946  0.0902
 4596TIP3    H113794   3.886   1.207   3.393 -0.6516  0.2964  1.0373
 4596TIP3    H213795   3.970   1.332   3.378 -0.3369 -0.0404 -0.0580
 4597TIP3   OH213796   4.209   2.558   3.901  0.0952  0.0248  0.6572
 4597TIP3    H113797   4.136   2.528   3.846 -0.5550 -0.5610  1.7857
 4597TIP3    H213798   4.265   2.481   3.910  1.0970  0.5770 -0.5231
 4598TIP3   OH213799   2.535   2.493   4.489 -0.1950  0.2146  0.1609
 4598TIP3    H113800   2.599   2.547   4.535 -0.9660  0.6056  0.8039
 4598TIP3    H213801   2.465   2.479   4.553 -0.5989 -0.4722 -0.4207
 4599TIP3   OH213802   6.031   0.836   1.864 -0.1620  0.0156 -0.0675
 4599TIP3    H113803   6.085   0.914   1.879  0.0894 -0.4029  1.3019
 4599TIP3    H213804   6.002   0.810   1.951 -3.1858  0.6271 -0.7774
 4600TIP3   OH213805   4.423   4.192   3.213  0.3381  0.2571 -0.0484
 4600TIP3    H113806   4.438   4.104   3.249 -0.1841  1.2983  3.0070
 4600TIP3    H213807   4.369   4.177   3.136 -1.1171 -2.0530  1.2988
 4601TIP3   OH213808   2.958   1.142   4.399 -0.2034 -0.4623  0.3828
 4601TIP3    H113809   2.914   1.134   4.315 -3.9723  0.9147  2.0119
 4601TIP3    H213810   2.970   1.236   4.412 -0.5300 -0.5940  1.7668
 4602TIP3   OH213811   4.331   4.293   1.614  0.1020 -0.0035 -0.5291
 4602TIP3    H113812   4.379   4.375   1.612  0.2570  0.0259  1.8272
 4602TIP3    H213813   4.239   4.320   1.617  0.1863  0.1925  1.7057
 4603TIP3   OH213814   4.815   2.392   3.986  0.0606  0.1953 -0.3764
 4603TIP3    H113815   4.739   2.383   3.929 -1.1965  0.3825  1.1880
 4603TIP3    H213816   4.824   2.305   4.026  0.3774  0.3066 -0.2082
 4604TIP3   OH213817   1.694   5.742   0.021 -0.1274  0.1565 -0.1572
 4604TIP3    H113818   1.602   5.768   0.029 -0.6313 -1.5489 -0.0569
 4604TIP3    H213819   1.741   5.806   0.074 -1.1654  1.4335 -0.6962
 4605TIP3   OH213820   2.224   1.189   0.456 -1.1355  0.0159 -0.1615
 4605TIP3    H113821   2.306   1.198   0.504  0.9769 -2.0547 -2.9806
 4605TIP3    H213822   2.161   1.158   0.521 -0.4086  3.6296  2.5729
 4606TIP3   OH213823   1.134   2.178   2.673 -0.1134 -0.0734  0.1037
 4606TIP3    H113824   1.197   2.172   2.601  0.3818 -1.2734  0.6048
 4606TIP3    H213825   1.187   2.164   2.751 -0.7551  0.5619  0.6605
 4607TIP3   OH213826   0.077   2.751   2.419  0.4310  0.2998 -0.3479
 4607TIP3    H113827   0.087   2.700   2.339 -1.0334 -0.8935  0.1907
 4607TIP3    H213828   0.103   2.840   2.394  2.2389 -0.5111 -1.5063
 4608TIP3   OH213829   1.481   1.529   2.543 -0.0803  0.1078 -0.2877
 4608TIP3    H113830   1.515   1.617   2.528 -2.1497  0.5977 -2.7319
 4608TIP3    H213831   1.517   1.503   2.628  1.2450  2.9632  0.1149
 4609TIP3   OH213832   0.383   5.438   3.465 -0.4531  0.0112  0.0177
 4609TIP3    H113833   0.361   5.516   3.516 -0.3949 -0.1129  0.2344
 4609TIP3    H213834   0.313   5.376   3.485 -0.1635 -0.2178  0.3449
 4610TIP3   OH213835   2.821   2.051   0.060  0.3429 -0.0328 -0.0484
 4610TIP3    H113836   2.773   1.997  -0.003  0.8112 -2.1312  1.2592
 4610TIP3    H213837   2.776   2.136   0.058 -1.5019 -0.9530 -1.0492
 4611TIP3   OH213838   0.622   1.470   4.514  0.3099 -0.1204 -0.7151
 4611TIP3    H113839   0.640   1.416   4.591 -0.3728 -0.0581 -0.5130
 4611TIP3    H213840   0.529   1.459   4.497  0.0665  1.3139 -0.4328
 4612TIP3   OH213841   0.738   4.366   1.208  0.2908 -0.1491 -0.6505
 4612TIP3    H113842   0.783   4.282   1.203 -1.7286 -1.3604  0.1495
 4612TIP3    H213843   0.683   4.369   1.130  1.5443  1.2385 -1.5429
 4613TIP3   OH213844   4.900   1.383   2.744 -0.1779  0.3108  0.4761
 4613TIP3    H113845   4.895   1.292   2.774 -3.0198  0.4311  0.6524
 4613TIP3    H213846   4.899   1.434   2.825  1.6558  0.5646  0.3876
 4614TIP3   OH213847   2.199   3.280   2.880  0.0123  0.2434 -0.3388
 4614TIP3    H113848   2.148   3.351   2.920 -0.3211  0.6904 -1.4931
 4614TIP3    H213849   2.287   3.317   2.869  0.3400 -0.1922  0.7827
 4615TIP3   OH213850   1.590   3.816   2.645 -0.2819 -0.0927 -0.0454
 4615TIP3    H113851   1.522   3.761   2.685 -1.2680  1.0873 -0.0344
 4615TIP3    H213852   1.669   3.797   2.696 -0.5077 -1.7327 -0.2554
 4616TIP3   OH213853   4.565   0.726   2.455 -0.2408  0.8940 -0.1959
 4616TIP3    H113854   4.470   0.738   2.457 -0.0827  2.1692  0.8000
 4616TIP3    H213855   4.601   0.814   2.454  0.9436  0.4609  0.9091
 4617TIP3   OH213856   4.158   0.919   3.935  0.0249  0.0771  0.3054
 4617TIP3    H113857   4.243   0.903   3.895  0.3221  0.6084  0.7123
 4617TIP3    H213858   4.126   0.998   3.892 -0.3651 -0.2451 -0.0038
 4618TIP3   OH213859   1.322   0.568   3.470 -0.3918  0.0600  0.3609
 4618TIP3    H113860   1.350   0.656   3.494  0.8221 -0.5381  1.2647
 4618TIP3    H213861   1.355   0.512   3.541 -1.7153 -1.0447  0.1549
 4619TIP3   OH213862   3.778   1.527   4.032  0.0102 -0.1995 -0.0951
 4619TIP3    H113863   3.855   1.557   4.080 -0.4978  0.3870  0.3610
 4619TIP3    H213864   3.747   1.450   4.081  0.9300 -1.1190 -0.8988
 4620TIP3   OH213865   2.492   4.564   0.024  0.0171 -0.0372 -0.4796
 4620TIP3    H113866   2.543   4.493  -0.015  0.0462 -0.8043  0.8697
 4620TIP3    H213867   2.471   4.533   0.112 -0.8825  1.1987 -0.2200
 4621TIP3   OH213868   0.566   4.138   1.383 -0.3973 -0.7010  0.2740
 4621TIP3    H113869   0.518   4.151   1.301  0.7119  0.9780 -0.1589
 4621TIP3    H213870   0.519   4.193   1.446 -0.5966 -1.1386  0.5140
 4622TIP3   OH213871   2.527   4.389   5.003  0.1429  0.2210 -0.5191
 4622TIP3    H113872   2.476   4.376   5.084 -2.3294  0.4811 -1.9292
 4622TIP3    H213873   2.534   4.485   4.996  1.2718  0.1847 -0.1271
 4623TIP3   OH213874   0.704   1.672   0.723 -0.1856 -0.4784  0.5899
 4623TIP3    H113875   0.657   1.716   0.652  1.1796 -1.6531 -1.1110
 4623TIP3    H213876   0.673   1.581   0.719 -0.6582 -0.4080  2.0398
 4624TIP3   OH213877   6.212   3.231   0.699  0.6188 -0.2396 -0.4113
 4624TIP3    H113878   6.209   3.172   0.775  1.4452 -0.9468 -0.9024
 4624TIP3    H213879   6.173   3.312   0.730 -0.3358 -0.9701  0.3617
 4625TIP3   OH213880   0.784   4.622   1.005  0.4299  0.1646  0.4269
 4625TIP3    H113881   0.747   4.536   1.027 -1.1386  0.9369  0.9395
 4625TIP3    H213882   0.708   4.678   0.990  1.4301  1.2651 -0.7915
 4626TIP3   OH213883   0.392   3.896   0.574 -0.2765 -0.2255  0.0687
 4626TIP3    H113884   0.470   3.877   0.522 -0.5705 -1.3580  0.0061
 4626TIP3    H213885   0.344   3.813   0.575 -1.1737  0.2895  0.6216
 4627TIP3   OH213886   5.857   3.551   0.880  0.2590  0.0799  0.3492
 4627TIP3    H113887   5.875   3.548   0.785  2.2723  0.5969  0.6609
 4627TIP3    H213888   5.767   3.583   0.886  0.1526  0.2401 -1.3888
 4628TIP3   OH213889   3.126   2.188   0.496  0.2393  0.4009 -0.8332
 4628TIP3    H113890   3.042   2.198   0.452 -0.8440  0.6517  1.1437
 4628TIP3    H213891   3.137   2.094   0.507 -0.3638  0.4123 -0.0858
 4629TIP3   OH213892   0.949   3.652   2.017  0.1694 -0.0803  0.1449
 4629TIP3    H113893   0.997   3.603   1.950 -1.6980 -0.3473 -1.0558
 4629TIP3    H213894   0.980   3.616   2.100  1.1250 -1.0897 -0.6239
 4630TIP3   OH213895   4.927   3.965   0.685  0.7345  0.3691  0.1397
 4630TIP3    H113896   4.918   3.928   0.773  0.3587  2.2729  0.9528
 4630TIP3    H213897   5.016   4.001   0.684 -0.0292  2.4093  0.6360
 4631TIP3   OH213898   1.239   1.532   4.207  0.4510 -0.0203  0.0706
 4631TIP3    H113899   1.199   1.458   4.253  0.2854  0.3632  0.5711
 4631TIP3    H213900   1.315   1.554   4.260  1.4147 -0.8243 -0.9541
 4632TIP3   OH213901   4.236   4.387   4.965  0.2787 -0.4465  0.8683
 4632TIP3    H113902   4.228   4.311   4.908  2.7205  0.3978 -0.7749
 4632TIP3    H213903   4.192   4.457   4.917  0.3672 -0.2496  1.0730
 4633TIP3   OH213904   1.656   0.755   1.626 -0.1130  0.5397  0.3582
 4633TIP3    H113905   1.621   0.813   1.693  0.0588  1.9356 -0.7031
 4633TIP3    H213906   1.580   0.730   1.573  0.1452  1.9799 -0.7630
 4634TIP3   OH213907   0.636   2.098   3.977  0.2887 -0.8221 -0.0712
 4634TIP3    H113908   0.572   2.030   3.955  1.7285 -2.0456 -0.6493
 4634TIP3    H213909   0.689   2.059   4.046  0.8527 -0.0995 -0.0915
 4635TIP3   OH213910   1.815   5.260   4.083  0.4723  0.2670 -0.2061
 4635TIP3    H113911   1.803   5.248   3.989 -0.4036  0.3859 -0.1196
 4635TIP3    H213912   1.910   5.258   4.096  0.5763 -0.5330 -0.9865
 4636TIP3   OH213913   4.616   3.576   4.610  0.0890 -0.1786 -0.0714
 4636TIP3    H113914   4.636   3.615   4.525 -1.4684 -0.3334 -0.5452
 4636TIP3    H213915   4.607   3.482   4.591 -1.5513 -0.0677 -0.0404
 4637TIP3   OH213916   4.947   0.628   3.560  0.2751  0.3314  0.0760
 4637TIP3    H113917   5.000   0.554   3.590  1.0423 -1.3569 -4.5577
 4637TIP3    H213918   4.859   0.608   3.590  0.8740 -1.1641  0.9646
 4638TIP3   OH213919   3.275   1.468   2.094  0.1100  0.1324 -0.2798
 4638TIP3    H113920   3.251   1.497   2.182  0.0073  1.3559 -0.6932
 4638TIP3    H213921   3.371   1.467   2.095  0.1123  0.3399 -0.2063
 4639TIP3   OH213922   4.453   3.249   2.018  0.0258  0.2590 -0.1834
 4639TIP3    H113923   4.371   3.282   2.054 -0.1000  1.1247 -1.2009
 4639TIP3    H213924   4.439   3.155   2.007 -0.1301  0.0715  1.4299
 4640TIP3   OH213925   6.252   3.603   2.283 -0.1732 -0.0861 -0.1703
 4640TIP3    H113926   6.237   3.560   2.198  2.5305 -1.8682  0.1145
 4640TIP3    H213927   6.287   3.689   2.260  2.7680 -1.3798 -1.0782
 4641TIP3   OH213928   5.925   6.015   2.162  0.0320  0.0200 -0.2751
 4641TIP3    H113929   5.938   5.944   2.225  0.0892  1.0513  0.9300
 4641TIP3    H213930   5.995   6.004   2.098  1.3287  0.1847  1.0636
 4642TIP3   OH213931   5.632   3.579   4.290  0.3224  0.3359 -0.1280
 4642TIP3    H113932   5.630   3.542   4.202  1.4666 -0.8907  0.3341
 4642TIP3    H213933   5.724   3.575   4.316  0.4000  2.8377  0.2616
 4643TIP3   OH213934   5.125   3.602   1.096  0.7988  0.1051  0.0789
 4643TIP3    H113935   5.030   3.598   1.106  0.4866  0.5908 -2.2043
 4643TIP3    H213936   5.156   3.638   1.179 -0.9699 -0.1925  0.9301
 4644TIP3   OH213937   1.388   4.458   2.300 -0.1857 -0.5988 -0.1881
 4644TIP3    H113938   1.393   4.377   2.351  1.2317 -0.5040 -0.1326
 4644TIP3    H213939   1.395   4.527   2.365  0.4750 -0.4648 -0.3947
 4645TIP3   OH213940   3.339   3.866   0.497 -0.1129 -0.0115 -0.2412
 4645TIP3    H113941   3.336   3.936   0.563 -0.5691  1.5398 -1.8393
 4645TIP3    H213942   3.403   3.897   0.433 -0.2496 -1.1188 -0.9296
 4646TIP3   OH213943   3.699   0.578   1.932  0.7085 -0.2937  0.0600
 4646TIP3    H113944   3.672   0.510   1.994 -0.4448  1.2685  1.3749
 4646TIP3    H213945   3.772   0.622   1.975  1.4119 -0.6554 -0.7548
 4647TIP3   OH213946   1.239   2.312   2.306  0.1680 -0.3570  0.3063
 4647TIP3    H113947   1.322   2.294   2.263 -0.4691 -2.1855 -0.2508
 4647TIP3    H213948   1.177   2.250   2.266 -2.0556  2.4468 -1.0047
 4648TIP3   OH213949   0.809   4.097   3.072 -0.3428  0.7680  0.2174
 4648TIP3    H113950   0.852   4.151   3.138 -0.2659  0.4546  0.4204
 4648TIP3    H213951   0.867   4.102   2.996 -0.1471  0.6636  0.3611
 4649TIP3   OH213952   0.334   2.939   3.829 -0.0322  0.0867 -0.5675
 4649TIP3    H113953   0.383   3.015   3.861  0.9332 -1.2700  1.4400
 4649TIP3    H213954   0.356   2.869   3.891  0.2670 -2.2367 -3.1036
 4650TIP3   OH213955   0.126   1.892   1.284 -0.0186 -0.3431  0.2366
 4650TIP3    H113956   0.204   1.837   1.293  0.9384  0.4619 -2.2057
 4650TIP3    H213957   0.161   1.980   1.266 -1.4798  0.2061 -0.0109
 4651TIP3   OH213958   2.906   0.420   3.862  0.3926 -0.1333  0.2210
 4651TIP3    H113959   2.947   0.493   3.910 -1.3920 -0.4913  2.4711
 4651TIP3    H213960   2.817   0.450   3.845  0.1704 -1.1319 -0.4303
 4652TIP3   OH213961   0.964   1.610   0.617 -0.0398  0.1762  0.1345
 4652TIP3    H113962   0.887   1.661   0.643  0.2152  1.4293 -1.3910
 4652TIP3    H213963   0.989   1.562   0.695 -0.9873  1.5436  1.3309
 4653TIP3   OH213964   1.869   1.038   3.763 -0.1954  0.2346 -0.1880
 4653TIP3    H113965   1.956   1.052   3.725 -0.5388  1.6711 -0.5063
 4653TIP3    H213966   1.884   1.037   3.857  0.4094 -1.4634 -0.2676
 4654TIP3   OH213967   3.774   1.201   3.585 -0.2979  0.7028 -0.1417
 4654TIP3    H113968   3.723   1.119   3.587 -0.5504  0.8442  1.9597
 4654TIP3    H213969   3.708   1.270   3.580 -0.1318  0.8207 -0.8206
 4655TIP3   OH213970   5.630   2.668   0.961  0.3679  0.2594 -0.0385
 4655TIP3    H113971   5.675   2.705   1.036  1.6085 -1.9194  0.3643
 4655TIP3    H213972   5.537   2.670   0.985  0.7391 -0.3677  1.5750
 4656TIP3   OH213973   0.866   2.714   0.118  0.1132 -0.2289  0.3874
 4656TIP3    H113974   0.953   2.719   0.078 -0.4604  0.5681 -0.8016
 4656TIP3    H213975   0.873   2.764   0.199  0.5799  0.4081 -0.0442
 4657TIP3   OH213976   4.010   0.886   2.323  0.5157 -0.2107 -0.1015
 4657TIP3    H113977   4.076   0.913   2.387 -0.4854  2.2098  0.0073
 4657TIP3    H213978   4.061   0.861   2.246  1.6458  1.5442  0.0049
 4658TIP3   OH213979   0.726   0.051   4.587  0.3674  0.3167  0.3641
 4658TIP3    H113980   0.796   0.116   4.579  0.1656  0.8743  2.5659
 4658TIP3    H213981   0.678   0.076   4.666  0.8843 -3.0533  1.9461
 4659TIP3   OH213982   0.691   4.265   1.907 -0.2329 -0.0681  0.3291
 4659TIP3    H113983   0.779   4.251   1.941 -0.1206 -0.7244 -0.2187
 4659TIP3    H213984   0.685   4.208   1.831 -0.8720  0.5421 -0.0864
 4660TIP3   OH213985   1.145   2.974   1.139 -0.5201 -0.1126 -0.0712
 4660TIP3    H113986   1.143   2.911   1.067 -0.1128  0.1559 -0.3235
 4660TIP3    H213987   1.070   3.031   1.124 -1.8561 -1.4989  1.0554
 4661TIP3   OH213988   2.832   5.850   2.987 -0.4176  0.3308  0.1051
 4661TIP3    H113989   2.756   5.822   2.936 -0.6050 -0.7249  0.9373
 4661TIP3    H213990   2.798   5.863   3.075 -0.0191  1.7780  0.0701
 4662TIP3   OH213991   3.038   0.608   0.148 -0.1853 -0.1438  0.0028
 4662TIP3    H113992   3.000   0.687   0.110  1.1786  0.9091  0.7070
 4662TIP3    H213993   3.027   0.619   0.243  3.5355  1.2541  0.4320
 4663TIP3   OH213994   3.444   2.118   2.061 -0.2851 -0.3565  0.5352
 4663TIP3    H113995   3.477   2.200   2.095 -1.0555  0.2525 -0.1318
 4663TIP3    H213996   3.383   2.143   1.991 -0.0684 -1.5043 -0.1013
 4664TIP3   OH213997   5.304   3.270   0.393  0.0854 -0.2425 -0.4927
 4664TIP3    H113998   5.258   3.229   0.466  0.0920  0.9829  0.2257
 4664TIP3    H213999   5.362   3.202   0.360  0.9647 -0.4931  1.4205
 4665TIP3   OH214000   1.797   3.518   5.123 -0.0552 -0.9250 -0.2287
 4665TIP3    H114001   1.867   3.536   5.185  0.0062 -1.4486 -0.1367
 4665TIP3    H214002   1.838   3.526   5.037 -0.1972  0.0330 -0.2135
 4666TIP3   OH214003   2.521   3.094   1.179 -0.3717  0.6396 -0.0746
 4666TIP3    H114004   2.499   3.050   1.097  0.8412  0.2379 -0.2042
 4666TIP3    H214005   2.603   3.140   1.160  0.8497 -0.8328  1.3631
 4667TIP3   OH214006   5.241   1.619   5.139 -0.2383  0.9359  0.5241
 4667TIP3    H114007   5.332   1.623   5.168  0.2267 -1.8731 -0.3084
 4667TIP3    H214008   5.194   1.677   5.200  1.7751  0.8667  2.2475
 4668TIP3   OH214009   5.927   1.897   2.558 -0.4481 -0.6629  0.2224
 4668TIP3    H114010   5.955   1.807   2.542 -2.3465 -1.2244 -0.1052
 4668TIP3    H214011   5.978   1.949   2.496  0.0498 -1.6017 -0.1760
 4669TIP3   OH214012   2.641   1.155   1.649 -0.2568  0.4033 -0.2088
 4669TIP3    H114013   2.592   1.073   1.641 -0.4837  0.2260  2.2296
 4669TIP3    H214014   2.662   1.161   1.743  0.8527  2.5120 -0.5380
 4670TIP3   OH214015   6.309   2.815   0.204 -0.6980  0.3202  0.3064
 4670TIP3    H114016   6.251   2.772   0.267 -1.0054 -1.0623 -0.8749
 4670TIP3    H214017   6.397   2.796   0.237 -0.8725  0.8071  1.0767
 4671TIP3   OH214018   5.561   4.338   1.921 -0.0582  0.6651 -0.2746
 4671TIP3    H114019   5.513   4.258   1.899  0.5788  0.3464 -0.5319
 4671TIP3    H214020   5.611   4.315   1.999 -1.5352  1.4852  0.9797
 4672TIP3   OH214021   5.205   3.906   1.913  0.0151  0.1614  0.4352
 4672TIP3    H114022   5.120   3.861   1.905  1.4498 -3.1005  1.6037
 4672TIP3    H214023   5.206   3.938   2.003  0.5481 -1.1975  0.9471
 4673TIP3   OH214024   3.303   3.612   0.639  0.2321 -0.0491  0.1645
 4673TIP3    H114025   3.392   3.583   0.619 -0.2375 -0.3924 -1.6079
 4673TIP3    H214026   3.293   3.694   0.592 -0.8252 -0.7113 -0.8264
 4674TIP3   OH214027   6.229   4.286   3.991 -0.0451 -0.3413 -0.2009
 4674TIP3    H114028   6.183   4.333   3.921  0.2357  1.4430  0.7625
 4674TIP3    H214029   6.280   4.353   4.036  0.4539 -1.6023  1.2002
 4675TIP3   OH214030   5.586   2.859   2.700  0.3615  0.0049 -0.0082
 4675TIP3    H114031   5.506   2.824   2.662 -0.8586  2.0543  0.5206
 4675TIP3    H214032   5.580   2.837   2.793  2.1198 -2.7707 -0.4231
 4676TIP3   OH214033   3.808   3.985   0.465 -0.1003 -0.1554 -0.0817
 4676TIP3    H114034   3.823   3.891   0.453 -1.4589 -0.6702  1.8208
 4676TIP3    H214035   3.880   4.013   0.522  0.3948  0.0140 -0.7771
 4677TIP3   OH214036   0.020   0.682   2.543 -0.3670  0.3506  0.8287
 4677TIP3    H114037   0.035   0.757   2.602  0.7574  0.1060  0.8686
 4677TIP3    H214038   0.107   0.646   2.527 -0.6327  0.4362 -1.0400
 4678TIP3   OH214039   0.326   4.420   4.915 -0.4691  0.2825 -0.6532
 4678TIP3    H114040   0.256   4.476   4.949 -1.2306 -0.1326 -1.5008
 4678TIP3    H214041   0.403   4.476   4.913 -0.5776  0.5446  0.9878
 4679TIP3   OH214042   2.076   5.843   4.119  0.0496 -0.2377 -0.1972
 4679TIP3    H114043   2.020   5.815   4.046 -2.2994  0.1613  1.3265
 4679TIP3    H214044   2.097   5.762   4.165 -0.6888 -0.2353  0.1553
 4680TIP3   OH214045   3.961   2.730   0.693 -0.2360  0.2202  0.1682
 4680TIP3    H114046   4.027   2.786   0.736  1.9656 -3.5805  2.3718
 4680TIP3    H214047   4.012   2.657   0.658 -3.0541 -1.4196 -0.8027
 4681TIP3   OH214048   5.542   3.368   2.052 -0.1215  0.7652 -0.3526
 4681TIP3    H114049   5.551   3.321   2.135  1.0292  0.1695 -0.7865
 4681TIP3    H214050   5.520   3.300   1.988  0.0505  1.0496 -0.7186
 4682TIP3   OH214051   5.566   0.835   0.382 -0.3275  0.1378  0.0826
 4682TIP3    H114052   5.621   0.895   0.332 -0.2806  0.6828  0.7756
 4682TIP3    H214053   5.514   0.789   0.316 -0.3014  0.8780 -0.4619
 4683TIP3   OH214054   5.280   2.280   1.786 -0.0236 -0.0589  0.0943
 4683TIP3    H114055   5.202   2.235   1.819  0.7921 -0.6083  1.3849
 4683TIP3    H214056   5.324   2.216   1.730  0.3720 -0.3804  0.7525
 4684TIP3   OH214057   2.829   1.909   1.359 -0.1187 -0.1687  0.0628
 4684TIP3    H114058   2.816   1.839   1.295 -1.1485 -1.5917  1.7255
 4684TIP3    H214059   2.743   1.952   1.366  0.4603  1.1948 -0.8224
 4685TIP3   OH214060   2.627   5.766   3.513 -1.0839  0.3994 -0.0311
 4685TIP3    H114061   2.644   5.861   3.516 -1.3775  0.4575 -0.1612
 4685TIP3    H214062   2.714   5.726   3.510 -0.9665  0.6977 -0.9151
 4686TIP3   OH214063   0.529   5.523   2.444  0.2015 -0.2015 -0.0070
 4686TIP3    H114064   0.590   5.567   2.503 -1.5400 -0.1529  1.8449
 4686TIP3    H214065   0.585   5.468   2.388  1.9487  0.0691  1.3935
 4687TIP3   OH214066   1.791   5.458   3.209 -0.7863 -0.0752 -0.1657
 4687TIP3    H114067   1.751   5.505   3.135 -0.0723  0.1106 -0.4488
 4687TIP3    H214068   1.814   5.373   3.173  1.2073  0.6404 -0.7044
 4688TIP3   OH214069   1.937   4.551   0.112 -0.0401  0.2165  0.1697
 4688TIP3    H114070   1.844   4.540   0.135  0.5238 -0.4102  2.3276
 4688TIP3    H214071   1.984   4.542   0.195  1.8894  1.7179 -0.6848
 4689TIP3   OH214072   5.337   3.934   3.998  0.5422 -0.6952 -0.0984
 4689TIP3    H114073   5.395   3.908   4.069  0.7877  0.6813  0.2308
 4689TIP3    H214074   5.360   3.876   3.925  0.9124 -1.5131  0.6603
 4690TIP3   OH214075   5.868   1.048   2.238 -0.0262 -0.0497 -0.1189
 4690TIP3    H114076   5.910   1.083   2.160 -0.8788 -2.8185 -1.9524
 4690TIP3    H214077   5.935   0.994   2.280  0.0159  0.3125  0.2810
 4691TIP3   OH214078   5.836   2.132   1.706  0.0454  0.3419  0.4658
 4691TIP3    H114079   5.816   2.134   1.612 -0.4900 -0.4992  0.5553
 4691TIP3    H214080   5.931   2.142   1.710  0.4722 -2.5324 -0.3514
 4692TIP3   OH214081   3.819   1.395   0.902  0.3890  0.3664 -0.1015
 4692TIP3    H114082   3.740   1.445   0.920 -1.6982 -1.9321 -1.9858
 4692TIP3    H214083   3.883   1.460   0.872 -1.8063  2.0599 -1.4514
 4693TIP3   OH214084   4.702   3.339   3.776  0.1763 -0.3156  0.1906
 4693TIP3    H114085   4.723   3.354   3.868  0.4678 -0.8129  0.2065
 4693TIP3    H214086   4.727   3.421   3.733 -1.1239  0.3871  0.7302
 4694TIP3   OH214087   4.000   5.170   3.787  0.2686  0.4071 -0.3864
 4694TIP3    H114088   4.067   5.190   3.722  0.8698  1.0361  0.3931
 4694TIP3    H214089   3.917   5.186   3.742  0.6435 -0.1603 -1.2962
 4695TIP3   OH214090   1.053   4.139   1.665  0.6826  0.0566 -0.6781
 4695TIP3    H114091   1.036   4.045   1.669 -1.9165  0.4511 -0.8923
 4695TIP3    H214092   0.990   4.172   1.602  1.1268  2.0412 -0.1465
 4696TIP3   OH214093   6.082   0.928   1.345  0.0399  0.2446  0.5235
 4696TIP3    H114094   5.991   0.901   1.362  0.0595 -0.5121 -0.4696
 4696TIP3    H214095   6.075   0.988   1.271  0.3108  0.5344  0.7338
 4697TIP3   OH214096   2.089   0.848   3.915 -0.0171 -0.2511 -0.0513
 4697TIP3    H114097   2.058   0.831   4.004  1.8383 -1.5825  0.4005
 4697TIP3    H214098   2.048   0.780   3.862  1.2603 -1.3873  0.3679
 4698TIP3   OH214099   4.543   4.318   2.482  0.7804 -0.2035 -0.0271
 4698TIP3    H114100   4.619   4.331   2.424  1.1139 -0.9231  0.2380
 4698TIP3    H214101   4.535   4.401   2.529  1.4309 -0.1264 -0.0338
 4699TIP3   OH214102   2.460   1.470   3.592  0.0849 -0.0806  0.2538
 4699TIP3    H114103   2.373   1.466   3.554  0.1844 -0.0902  0.0232
 4699TIP3    H214104   2.475   1.563   3.610  0.2027 -0.0288 -0.1178
 4700TIP3   OH214105   1.783   3.172   1.147 -0.1064  0.4945  0.7974
 4700TIP3    H114106   1.802   3.266   1.149 -0.2361  0.5421 -0.0036
 4700TIP3    H214107   1.712   3.163   1.084  1.2059 -0.3570 -0.6158
 4701TIP3   OH214108   5.831   0.007   1.208 -0.0976  0.1354 -0.1766
 4701TIP3    H114109   5.842   0.010   1.303  1.1360  2.1264 -0.3221
 4701TIP3    H214110   5.756   0.064   1.191 -0.5372 -0.4930 -0.3993
 4702TIP3   OH214111   1.032   0.922   4.788 -0.2231  0.2965 -0.7112
 4702TIP3    H114112   0.970   0.850   4.790  0.2278 -0.1083 -1.0073
 4702TIP3    H214113   1.118   0.880   4.796 -0.0012  0.8705  0.0425
 4703TIP3   OH214114   0.956   5.345   5.008  0.2341 -0.0313 -0.5939
 4703TIP3    H114115   1.036   5.312   5.050 -0.1465 -2.1953 -1.4411
 4703TIP3    H214116   0.885   5.303   5.057 -0.5416  2.8531  0.9865
 4704TIP3   OH214117   2.807   0.197   1.170  0.0255 -0.0565  0.5729
 4704TIP3    H114118   2.857   0.116   1.161 -0.8091 -0.5581  0.3076
 4704TIP3    H214119   2.865   0.256   1.219  0.9748 -0.5086  0.0223
 4705TIP3   OH214120   4.106   0.712   0.704  0.5721  0.0955 -0.0001
 4705TIP3    H114121   4.083   0.671   0.621  1.7011  0.8012 -0.6936
 4705TIP3    H214122   4.122   0.804   0.682  0.4656  0.3927  1.0772
 4706TIP3   OH214123   0.871   4.352   4.544 -0.5316  0.2668 -0.0579
 4706TIP3    H114124   0.908   4.433   4.577  0.4797  0.0629 -0.6322
 4706TIP3    H214125   0.812   4.322   4.613 -0.0605  0.9017  0.6347
 4707TIP3   OH214126   1.176   5.255   3.027 -0.4450 -0.5177 -0.0537
 4707TIP3    H114127   1.186   5.172   3.074 -2.2093 -0.8589 -0.2045
 4707TIP3    H214128   1.112   5.304   3.078  2.1521  1.7802  1.2793
 4708TIP3   OH214129   3.204   5.753   2.220 -0.3024 -0.2196  0.4448
 4708TIP3    H114130   3.179   5.842   2.195 -1.7987 -0.9737 -0.9524
 4708TIP3    H214131   3.150   5.734   2.297 -0.1513 -0.0063  0.6050
 4709TIP3   OH214132   3.570   5.929   3.380 -0.5102 -0.1277 -0.0757
 4709TIP3    H114133   3.592   5.905   3.290  0.6544 -0.9710  0.4135
 4709TIP3    H214134   3.648   5.974   3.412 -0.8691  0.0420  0.5620
 4710TIP3   OH214135   5.756   4.536   0.535 -0.0190 -0.3212  0.1327
 4710TIP3    H114136   5.822   4.467   0.527 -0.4315 -0.8708  1.2141
 4710TIP3    H214137   5.680   4.502   0.487  0.2010 -0.0514 -0.4128
 4711TIP3   OH214138   1.419   4.975   4.450  0.7052 -0.0905 -0.4999
 4711TIP3    H114139   1.450   5.015   4.531 -0.4324 -0.0540 -0.0667
 4711TIP3    H214140   1.372   4.897   4.479 -2.9459  1.7998 -0.7278
 4712TIP3   OH214141   2.506   5.374   4.645  0.1101 -0.5561 -0.6863
 4712TIP3    H114142   2.556   5.323   4.581 -0.4863 -0.5016 -1.2069
 4712TIP3    H214143   2.572   5.419   4.698  0.6111 -0.2578 -1.5507
 4713TIP3   OH214144   1.449   1.475   4.684 -0.2818 -0.5572 -0.6757
 4713TIP3    H114145   1.512   1.501   4.751 -0.7653 -1.2617  0.0730
 4713TIP3    H214146   1.411   1.557   4.653 -1.4623 -0.2800  1.3237
 4714TIP3   OH214147   3.808   0.123   3.443 -0.1255  0.7483  0.4921
 4714TIP3    H114148   3.745   0.122   3.372 -0.6826  0.4220  0.9833
 4714TIP3    H214149   3.862   0.201   3.426  0.6710 -0.0857 -1.0705
 4715TIP3   OH214150   1.836   2.646   4.451 -0.7035 -0.1153 -0.0396
 4715TIP3    H114151   1.831   2.724   4.507 -0.6238 -0.2073  0.0969
 4715TIP3    H214152   1.830   2.680   4.362  1.1722  0.2425 -0.0847
 4716TIP3   OH214153   4.051   0.250   3.482 -0.9873  0.3704 -0.3604
 4716TIP3    H114154   4.017   0.313   3.418  1.5194  0.9215 -1.2757
 4716TIP3    H214155   4.121   0.298   3.527 -0.9320 -0.8721  0.9293
 4717TIP3   OH214156   3.809   2.930   3.471  0.0097  0.0879  0.2459
 4717TIP3    H114157   3.758   2.955   3.394  1.0386  0.6797 -0.2623
 4717TIP3    H214158   3.897   2.914   3.438  0.5116  0.5104  1.3224
 4718TIP3   OH214159   0.980   1.936   0.372 -0.1789 -0.4550 -0.7047
 4718TIP3    H114160   1.038   1.916   0.299 -0.8691 -0.6471 -1.2018
 4718TIP3    H214161   1.036   1.985   0.433  0.5726 -0.8483 -1.0586
 4719TIP3   OH214162   0.829   2.235   2.942  0.7621  0.0034  0.8712
 4719TIP3    H114163   0.888   2.169   2.977  0.6001  0.6209  2.3586
 4719TIP3    H214164   0.839   2.227   2.847 -0.3548 -3.1794  0.8785
 4720TIP3   OH214165   2.689   1.469   3.865 -0.6541 -0.3132  0.0004
 4720TIP3    H114166   2.688   1.386   3.912 -2.6139  0.2563  1.0869
 4720TIP3    H214167   2.639   1.453   3.786  0.9630 -0.7487 -0.9674
 4721TIP3   OH214168   2.547   2.572   4.776  0.5010 -0.0701 -0.0748
 4721TIP3    H114169   2.511   2.633   4.840  0.2923  0.2896 -0.5307
 4721TIP3    H214170   2.472   2.548   4.721  0.5092 -0.9885  0.2977
 4722TIP3   OH214171   1.432   1.980   0.628  0.1706 -0.1147  0.3286
 4722TIP3    H114172   1.355   1.929   0.603  0.9053 -0.0767 -2.2371
 4722TIP3    H214173   1.422   1.992   0.723 -3.4175  0.6475  0.0030
 4723TIP3   OH214174   5.588   2.755   0.408 -0.5011 -0.2073 -0.3392
 4723TIP3    H114175   5.517   2.743   0.471 -1.4053  0.7867 -1.1219
 4723TIP3    H214176   5.632   2.835   0.436 -0.6304 -0.0076 -0.6906
 4724TIP3   OH214177   2.445   3.984   1.459  0.2768 -0.3982 -0.0216
 4724TIP3    H114178   2.356   4.006   1.489  1.1345  1.4424  1.3738
 4724TIP3    H214179   2.450   3.889   1.469 -1.3505 -0.4762  0.4397
 4725TIP3   OH214180   3.272   3.184   2.255 -0.2513  0.3190 -0.5842
 4725TIP3    H114181   3.289   3.275   2.282  0.5329 -0.3087  1.2263
 4725TIP3    H214182   3.357   3.153   2.222 -0.3262  0.0370 -0.5149
 4726TIP3   OH214183   1.751   5.001   3.300 -0.2131 -0.3242  0.0105
 4726TIP3    H114184   1.832   4.989   3.349 -0.6191 -2.0533  0.3267
 4726TIP3    H214185   1.703   5.069   3.349  2.1167  2.8219 -1.6890
 4727TIP3   OH214186   0.493   1.555   3.955 -0.1601 -0.1158  0.3824
 4727TIP3    H114187   0.458   1.595   3.875 -0.9783 -0.0297  0.7692
 4727TIP3    H214188   0.471   1.463   3.948 -0.6257 -0.0352  0.6999
 4728TIP3   OH214189   1.501   5.020   2.409 -0.4207 -0.1005  0.3783
 4728TIP3    H114190   1.556   5.029   2.330  1.4264  1.2552  1.7486
 4728TIP3    H214191   1.546   4.954   2.461 -0.2659  0.7642  1.3637
 4729TIP3   OH214192   1.685   0.890   1.169 -0.0643  0.2309  0.6301
 4729TIP3    H114193   1.603   0.849   1.195  0.0206  0.3662  1.1149
 4729TIP3    H214194   1.703   0.855   1.082 -1.4379  1.3768 -0.1515
 4730TIP3   OH214195   1.439   1.095   2.720  0.4045 -0.5218  0.3570
 4730TIP3    H114196   1.476   1.041   2.790  0.1324  0.3474  1.1949
 4730TIP3    H214197   1.509   1.157   2.699 -0.3234  0.8042  1.5990
 4731TIP3   OH214198   3.206   0.669   1.727  0.5951  0.5890 -0.0744
 4731TIP3    H114199   3.127   0.618   1.710 -0.2736  1.7501  0.3154
 4731TIP3    H214200   3.259   0.613   1.783  0.6205 -0.7036 -1.3259
 4732TIP3   OH214201   2.441   5.886   4.035 -0.5406 -0.5661  0.5240
 4732TIP3    H114202   2.425   5.834   4.113  0.3403 -0.7785  0.5795
 4732TIP3    H214203   2.453   5.821   3.965 -0.4091 -0.4083  0.3990
 4733TIP3   OH214204   5.574   2.104   3.613  0.1150 -0.0132 -0.4949
 4733TIP3    H114205   5.648   2.146   3.569 -0.6795  2.0080  0.0156
 4733TIP3    H214206   5.497   2.135   3.565 -0.6609  1.1288  1.4076
 4734TIP3   OH214207   6.343   1.755   2.933  0.2360 -0.5284  0.1669
 4734TIP3    H114208   6.268   1.767   2.991 -0.4108 -0.1800 -0.7225
 4734TIP3    H214209   6.360   1.661   2.935 -0.1048 -0.5876  0.5046
 4735TIP3   OH214210   5.014   1.698   4.280 -0.3700  0.1432 -0.0232
 4735TIP3    H114211   4.957   1.727   4.351 -2.4549  0.7467 -1.8397
 4735TIP3    H214212   5.031   1.777   4.229 -0.8428 -0.6534 -1.4712
 4736TIP3   OH214213   6.243   0.536   3.884  0.2463  0.1985  0.4035
 4736TIP3    H114214   6.292   0.569   3.959  0.9506  0.6512 -0.2398
 4736TIP3    H214215   6.249   0.440   3.892  0.2857  0.2443  0.9384
 4737TIP3   OH214216   3.970   3.719   1.461 -0.2374  0.1948 -0.5218
 4737TIP3    H114217   3.881   3.682   1.459 -0.4141  0.2281  2.3110
 4737TIP3    H214218   4.028   3.643   1.459 -0.4774 -0.0628  0.9544
 4738TIP3   OH214219   5.791   4.656   4.809 -0.0344  0.0943 -0.2704
 4738TIP3    H114220   5.798   4.647   4.714 -0.4935 -0.7094 -0.2281
 4738TIP3    H214221   5.816   4.747   4.826  1.1799 -0.0711 -1.0450
 4739TIP3   OH214222   5.565   4.610   2.661  0.0054  0.1095  0.2186
 4739TIP3    H114223   5.477   4.633   2.632  0.3217  0.2652 -0.6403
 4739TIP3    H214224   5.560   4.517   2.681 -0.1337 -0.0813 -0.6837
 4740TIP3   OH214225   2.086   0.179   2.807  0.4105  0.7716 -0.5680
 4740TIP3    H114226   2.034   0.120   2.751 -0.2033  1.1066 -0.3580
 4740TIP3    H214227   2.087   0.262   2.760 -1.5804  1.5807  0.6859
 4741TIP3   OH214228   0.334   3.741   1.138 -0.2413 -0.7691 -0.4410
 4741TIP3    H114229   0.363   3.650   1.131 -3.1872 -1.7675 -1.4516
 4741TIP3    H214230   0.354   3.779   1.052  1.6220 -0.1858  0.2087
 4742TIP3   OH214231   2.772   4.275   2.388  0.3340 -0.0925  0.3631
 4742TIP3    H114232   2.711   4.201   2.387  1.4547 -1.0253  0.4002
 4742TIP3    H214233   2.752   4.322   2.307  0.6512 -1.2986 -0.4406
 4743TIP3   OH214234   3.714   2.881   2.644  0.0331 -0.0908  0.0453
 4743TIP3    H114235   3.786   2.842   2.693 -0.4170 -1.1115 -0.0943
 4743TIP3    H214236   3.736   2.865   2.552  0.6178  1.3649 -0.0922
 4744TIP3   OH214237   4.589   2.553   4.456  0.2183 -1.0157  0.5024
 4744TIP3    H114238   4.655   2.513   4.399 -0.4098 -0.4321 -0.6970
 4744TIP3    H214239   4.506   2.515   4.426 -0.2126 -0.0494  0.4341
 4745TIP3   OH214240   0.859   2.656   4.638  0.0902  0.8155  0.2892
 4745TIP3    H114241   0.849   2.720   4.567 -1.5741  0.1820 -0.1155
 4745TIP3    H214242   0.815   2.696   4.713 -1.2934  0.0406 -0.0722
 4746TIP3   OH214243   4.386   3.365   0.665  0.5993 -0.5277 -0.3402
 4746TIP3    H114244   4.455   3.416   0.624  1.2915 -1.1513  0.0399
 4746TIP3    H214245   4.316   3.362   0.598  0.7291  0.5062 -0.5347
 4747TIP3   OH214246   4.022   0.555   4.934  0.1437  0.6382  0.1701
 4747TIP3    H114247   3.991   0.530   5.021 -1.5983  0.2147 -0.5270
 4747TIP3    H214248   4.013   0.475   4.882  0.9884  0.9369 -0.4560
 4748TIP3   OH214249   0.210   4.348   2.296  0.2680  0.0846 -0.0348
 4748TIP3    H114250   0.305   4.354   2.289  0.1857  1.5982 -0.1454
 4748TIP3    H214251   0.177   4.403   2.226 -0.7303 -1.4409 -0.8145
 4749TIP3   OH214252   6.199   1.800   2.081  0.1877  0.3028  0.7230
 4749TIP3    H114253   6.286   1.763   2.094 -0.1276 -1.4909 -1.6603
 4749TIP3    H214254   6.205   1.850   2.000 -0.6425  1.5254  1.3701
 4750TIP3   OH214255   5.401   4.780   3.932  0.5338 -0.4371 -0.0368
 4750TIP3    H114256   5.488   4.805   3.900  1.3337 -1.7733  0.9697
 4750TIP3    H214257   5.411   4.777   4.027 -0.7890 -0.0498  0.1308
 4751TIP3   OH214258   2.289   0.973   4.230  0.0347 -0.3474 -0.4550
 4751TIP3    H114259   2.240   1.043   4.273 -0.2324 -0.0991 -1.1613
 4751TIP3    H214260   2.262   0.894   4.277  0.4410  0.0224  0.4369
 4752TIP3   OH214261   4.414   0.368   1.357  0.1236  0.7807 -0.1133
 4752TIP3    H114262   4.502   0.334   1.341 -0.2078 -0.1878  0.0868
 4752TIP3    H214263   4.356   0.294   1.338 -0.6219  1.2942  0.1453
 4753TIP3   OH214264   5.217   2.106   1.231  0.3265  0.3911 -0.9708
 4753TIP3    H114265   5.171   2.149   1.303 -0.7253  0.0563 -1.4104
 4753TIP3    H214266   5.306   2.139   1.235  1.0050 -1.4362  2.0049
 4754TIP3   OH214267   2.550   1.497   4.596 -0.1276  0.4658  0.4078
 4754TIP3    H114268   2.582   1.518   4.508  0.0966 -0.9785  0.1275
 4754TIP3    H214269   2.629   1.502   4.651 -0.2021  1.0073  0.4747
 4755TIP3   OH214270   5.021   4.481   3.439 -0.0975 -0.2809  0.3187
 4755TIP3    H114271   4.982   4.543   3.501 -0.2482 -0.9382  0.8876
 4755TIP3    H214272   5.028   4.399   3.488  1.7236 -0.2730  0.1509
 4756TIP3   OH214273   5.831   0.657   4.606  0.0642 -0.0669  0.3308
 4756TIP3    H114274   5.759   0.599   4.631 -2.7441  2.3670 -1.3795
 4756TIP3    H214275   5.857   0.628   4.519 -0.1691  0.1602  0.1817
 4757TIP3   OH214276   2.590   3.058   2.953 -0.0843  0.0044 -0.8949
 4757TIP3    H114277   2.680   3.086   2.973  0.0888 -0.7136 -0.6068
 4757TIP3    H214278   2.536   3.106   3.016 -0.0705  1.5027 -1.9731
 4758TIP3   OH214279   3.174   3.193   0.159  0.0501  0.0991 -0.6856
 4758TIP3    H114280   3.116   3.220   0.088  0.6208  1.3079 -0.7205
 4758TIP3    H214281   3.177   3.268   0.218  0.4743 -0.4703  0.0464
 4759TIP3   OH214282   1.226   0.082   1.008  0.1396 -0.3123 -0.1653
 4759TIP3    H114283   1.253   0.003   1.056 -1.1719 -1.0586 -0.6094
 4759TIP3    H214284   1.280   0.081   0.929 -0.5635 -1.3262 -0.6462
 4760TIP3   OH214285   6.143   1.406   3.119  0.0390 -0.2481  0.2643
 4760TIP3    H114286   6.083   1.418   3.193  0.1229  0.7743  0.1931
 4760TIP3    H214287   6.201   1.335   3.146 -0.7857 -0.7982  0.6131
 4761TIP3   OH214288   5.519   5.856   4.945 -0.2586 -0.0931 -0.4135
 4761TIP3    H114289   5.482   5.891   4.864 -0.8053  0.0565 -0.1019
 4761TIP3    H214290   5.475   5.905   5.015 -0.5310 -0.9143  0.0101
 4762TIP3   OH214291   5.540   0.559   0.989 -0.0679  0.0813 -0.2667
 4762TIP3    H114292   5.617   0.511   1.017 -1.4289 -1.6774  0.6451
 4762TIP3    H214293   5.539   0.637   1.045  1.2354  0.3544 -0.5845
 4763TIP3   OH214294   2.315   5.953   2.461  0.2509  0.1822 -0.0628
 4763TIP3    H114295   2.240   5.955   2.402  1.7568 -0.5289 -2.1234
 4763TIP3    H214296   2.277   5.960   2.549 -2.1421  0.4929 -1.0544
 4764TIP3   OH214297   1.788   2.428   3.852  0.1446  0.1239  0.1233
 4764TIP3    H114298   1.787   2.398   3.942 -0.6196 -0.7132 -0.1468
 4764TIP3    H214299   1.880   2.422   3.825  0.5094  1.1397  1.0717
 4765TIP3   OH214300   3.852   1.697   4.726 -0.0428 -0.0180 -0.9041
 4765TIP3    H114301   3.782   1.703   4.661 -1.7340  1.7526  0.8944
 4765TIP3    H214302   3.914   1.765   4.701  0.0592 -0.3059 -1.4450
 4766TIP3   OH214303   3.621   3.756   0.281  0.2972  0.0312  0.3075
 4766TIP3    H114304   3.650   3.682   0.227 -0.0832  0.0840  0.0274
 4766TIP3    H214305   3.659   3.739   0.367  1.8851  0.5390 -0.2534
 4767TIP3   OH214306   4.655   4.754   1.086 -0.4275 -0.1838  0.1128
 4767TIP3    H114307   4.589   4.722   1.148 -0.8623 -0.0935 -0.2933
 4767TIP3    H214308   4.721   4.796   1.140 -0.9640  0.1839  0.4934
 4768TIP3   OH214309   1.549   1.806   2.580 -0.3901 -0.3304  0.8752
 4768TIP3    H114310   1.612   1.837   2.646 -1.5511  0.1294  1.8201
 4768TIP3    H214311   1.564   1.862   2.504  0.1903 -0.0841  1.1636
 4769TIP3   OH214312   3.517   4.223   1.756  0.1318 -0.2334  0.6393
 4769TIP3    H114313   3.423   4.240   1.751  0.0886 -0.7445 -0.3702
 4769TIP3    H214314   3.550   4.240   1.668  1.1545  0.8528  1.2023
 4770TIP3   OH214315   4.769   2.432   4.258  0.3292  0.3633  0.0115
 4770TIP3    H114316   4.785   2.418   4.165  1.6365 -0.8895  0.3922
 4770TIP3    H214317   4.736   2.348   4.290  0.6392  0.5387  0.8211
 4771TIP3   OH214318   2.091   0.220   1.735  0.1206  0.2688  0.5312
 4771TIP3    H114319   2.181   0.204   1.763  0.1146 -0.7138  0.0211
 4771TIP3    H214320   2.096   0.299   1.682  0.4683  0.9496  1.5344
 4772TIP3   OH214321   4.291   1.338   4.848 -0.1589  0.1793 -0.0394
 4772TIP3    H114322   4.289   1.256   4.799 -1.1046 -0.3467  0.8356
 4772TIP3    H214323   4.227   1.394   4.805 -0.5806 -0.0816  0.2382
 4773TIP3   OH214324   3.289   5.427   1.093  0.4766  0.0918  0.1834
 4773TIP3    H114325   3.256   5.500   1.146 -0.2461  0.5525 -0.8603
 4773TIP3    H214326   3.210   5.382   1.063  0.9175 -1.0997  0.7643
 4774TIP3   OH214327   5.290   3.473   3.913  0.1729  0.1597  0.2604
 4774TIP3    H114328   5.201   3.496   3.938  0.5723 -0.4681  2.4721
 4774TIP3    H214329   5.326   3.553   3.875 -0.7329  1.0108  1.1436
 4775TIP3   OH214330   3.893   3.306   0.533  0.0875  0.2439  0.1634
 4775TIP3    H114331   3.853   3.355   0.605 -2.2906 -0.5041 -0.5807
 4775TIP3    H214332   3.885   3.214   0.559 -1.1981 -0.0645 -1.2150
 4776TIP3   OH214333   4.686   0.496   2.560 -0.2433  0.0520  0.0254
 4776TIP3    H114334   4.726   0.545   2.632  2.7185  1.1572 -2.1614
 4776TIP3    H214335   4.638   0.561   2.510 -0.5944 -0.3136 -0.1174
 4777TIP3   OH214336   3.621   0.348   4.057 -0.0117 -0.4816  0.2431
 4777TIP3    H114337   3.536   0.307   4.038 -0.0898 -0.6414  0.9189
 4777TIP3    H214338   3.641   0.321   4.147  0.5110 -0.0159  0.2701
 4778TIP3   OH214339   4.299   3.135   4.570 -0.1668 -0.4853  0.1218
 4778TIP3    H114340   4.245   3.125   4.492 -0.9415  1.1965  0.3856
 4778TIP3    H214341   4.242   3.179   4.633  1.0509 -0.0184  0.9468
 4779TIP3   OH214342   5.803   5.230   5.053  0.5317 -0.2475  0.1849
 4779TIP3    H114343   5.741   5.286   5.007 -0.0104 -1.0128 -0.0451
 4779TIP3    H214344   5.750   5.155   5.082  0.9188  0.0399  1.7448
 4780TIP3   OH214345   5.005   1.103   5.163 -0.2796  0.0914  0.4354
 4780TIP3    H114346   5.034   1.026   5.211  0.9103  1.1064  1.4297
 4780TIP3    H214347   5.086   1.148   5.139 -0.9219  0.5731 -0.9011
 4781TIP3   OH214348   4.315   0.942   4.437 -0.2639  0.4260  0.0458
 4781TIP3    H114349   4.358   0.960   4.353 -0.7597  0.4433 -0.2123
 4781TIP3    H214350   4.242   1.004   4.440  0.3792  1.1724  0.9952
 4782TIP3   OH214351   3.748   4.086   4.172 -0.2564  0.2425 -0.3006
 4782TIP3    H114352   3.737   3.991   4.166 -1.8369  0.3833 -0.1556
 4782TIP3    H214353   3.679   4.121   4.115  1.4871  1.3120 -1.8625
 4783TIP3   OH214354   3.335   1.899   2.223 -0.1347  0.2613 -0.1850
 4783TIP3    H114355   3.296   1.849   2.152 -1.8966  2.2481 -0.7301
 4783TIP3    H214356   3.368   1.979   2.181  2.5698 -0.3135  0.6387
 4784TIP3   OH214357   4.215   5.760   3.947  0.5945  1.1282 -0.1703
 4784TIP3    H114358   4.226   5.732   4.038  1.1947  0.9318 -0.3010
 4784TIP3    H214359   4.293   5.727   3.902  0.1322  0.9180 -0.8327
 4785TIP3   OH214360   4.537   5.840   1.186  0.1601 -0.0355  0.8187
 4785TIP3    H114361   4.590   5.919   1.201  1.0043  0.5200 -3.6363
 4785TIP3    H214362   4.493   5.857   1.103 -1.5921 -3.3451  0.9279
 4786TIP3   OH214363   2.100   4.564   3.406  0.5311  0.0446  0.1019
 4786TIP3    H114364   2.077   4.653   3.381  1.9504  0.7125  1.0649
 4786TIP3    H214365   2.030   4.537   3.466  0.1440  0.5404 -0.1199
 4787TIP3   OH214366   5.170   4.310   0.877  0.1127 -0.8680 -0.2976
 4787TIP3    H114367   5.159   4.258   0.956 -2.0302  0.0011  0.0508
 4787TIP3    H214368   5.131   4.395   0.898  0.1794 -0.3496 -2.0440
 4788TIP3   OH214369   4.547   1.854   4.144 -0.0029 -0.0195  0.5941
 4788TIP3    H114370   4.469   1.807   4.172 -0.1948  0.2069  0.4337
 4788TIP3    H214371   4.597   1.790   4.094 -0.3196 -0.0217  0.2777
 4789TIP3   OH214372   1.158   4.585   1.507 -0.0399  0.2718  0.3294
 4789TIP3    H114373   1.125   4.605   1.420  0.0499  0.6018  0.3699
 4789TIP3    H214374   1.142   4.491   1.518 -2.9934  0.7654  1.2057
 4790TIP3   OH214375   5.944   5.606   2.542  0.1356 -0.1461 -0.0085
 4790TIP3    H114376   5.882   5.570   2.479 -0.0224  0.3491 -0.1370
 4790TIP3    H214377   6.013   5.540   2.548  1.8914  1.1797 -3.2191
 4791TIP3   OH214378   3.801   5.660   0.400  0.7329  0.1070 -0.0007
 4791TIP3    H114379   3.753   5.682   0.320  1.5094  1.2379 -0.1740
 4791TIP3    H214380   3.893   5.668   0.376  0.9811  0.2075  0.9488
 4792TIP3   OH214381   5.851   5.523   2.315 -0.4239  0.2080 -0.0574
 4792TIP3    H114382   5.929   5.514   2.261 -0.1216  0.9566  0.2492
 4792TIP3    H214383   5.791   5.575   2.262 -2.1364 -3.1338 -1.7840
 4793TIP3   OH214384   5.934   0.000   0.194 -0.3995  0.1171 -0.1850
 4793TIP3    H114385   5.852   0.023   0.238  1.0960  2.0004  1.8712
 4793TIP3    H214386   5.960   0.081   0.149  0.4380 -0.3980 -0.6520
 4794TIP3   OH214387   6.198   4.315   0.835 -0.2746 -0.2203  0.2725
 4794TIP3    H114388   6.132   4.294   0.901 -0.4247 -2.8221 -0.6261
 4794TIP3    H214389   6.280   4.319   0.884 -0.4878 -1.3976  0.7556
 4795TIP3   OH214390   5.555   3.194   4.073  0.1076  0.0204 -1.0809
 4795TIP3    H114391   5.562   3.111   4.026 -2.4658 -1.4874  0.9035
 4795TIP3    H214392   5.482   3.181   4.134  1.0818  2.9595  0.9555
 4796TIP3   OH214393   2.234   4.313   3.346 -0.3696 -0.0753 -0.6557
 4796TIP3    H114394   2.267   4.260   3.274  2.7000 -0.3133  0.7382
 4796TIP3    H214395   2.161   4.263   3.382  1.1768 -2.4546 -0.6107
 4797TIP3   OH214396   4.715   1.193   4.157 -0.0664 -0.0813 -0.3815
 4797TIP3    H114397   4.797   1.240   4.144  0.1183 -0.4048 -0.4019
 4797TIP3    H214398   4.685   1.173   4.068  0.7412 -1.5147 -0.3580
 4798TIP3   OH214399   1.170   5.443   1.177 -1.1286 -0.4485  0.2955
 4798TIP3    H114400   1.169   5.539   1.174 -1.1939 -0.4568 -0.0310
 4798TIP3    H214401   1.106   5.417   1.111  0.7432 -0.7509 -1.5079
 4799TIP3   OH214402   1.569   5.278   0.574 -0.1061  0.5616 -0.4128
 4799TIP3    H114403   1.499   5.342   0.588 -0.3769  0.0045  0.8578
 4799TIP3    H214404   1.641   5.308   0.629  0.6128  1.0213 -1.5647
 4800TIP3   OH214405   0.902   5.646   0.786  0.1455 -0.3227  0.1729
 4800TIP3    H114406   0.957   5.695   0.847 -0.1101 -0.6909  0.7151
 4800TIP3    H214407   0.924   5.681   0.700 -0.4567  1.1390  0.5874
 4801TIP3   OH214408   4.673   3.171   0.253 -0.2200  0.5455  0.5670
 4801TIP3    H114409   4.660   3.082   0.286 -0.5581  0.5991  0.5824
 4801TIP3    H214410   4.594   3.218   0.280 -1.2537  0.1945 -1.6962
 4802TIP3   OH214411   0.899   2.487   0.466  0.0618 -0.1339 -0.1192
 4802TIP3    H114412   0.806   2.509   0.453  0.1242  0.6242  0.6269
 4802TIP3    H214413   0.914   2.411   0.409 -0.9402 -0.0814 -0.4721
 4803TIP3   OH214414   4.089   2.146   2.157 -0.1148  0.0195 -0.2003
 4803TIP3    H114415   4.140   2.101   2.225  1.1803  1.2667 -0.2961
 4803TIP3    H214416   4.148   2.151   2.082 -0.6825  0.7573 -0.6086
 4804TIP3   OH214417   4.219   0.672   4.178 -0.1046 -0.1356  0.2770
 4804TIP3    H114418   4.180   0.709   4.098  0.6807 -0.7948 -0.4263
 4804TIP3    H214419   4.147   0.672   4.241 -0.6176  0.8409 -0.2727
 4805TIP3   OH214420   2.827   3.133   1.837  0.4036 -0.1752 -0.4960
 4805TIP3    H114421   2.802   3.130   1.929 -1.4302  1.8509 -0.8539
 4805TIP3    H214422   2.850   3.224   1.821  0.7528 -0.5087 -2.0517
 4806TIP3   OH214423   1.208   5.405   2.789 -0.0963 -0.0271 -0.1094
 4806TIP3    H114424   1.213   5.348   2.865  0.0671  0.7662  0.4902
 4806TIP3    H214425   1.241   5.353   2.716 -0.2314 -0.7826  0.3684
 4807TIP3   OH214426   3.561   5.020   0.944  0.0360 -0.5883 -0.8085
 4807TIP3    H114427   3.566   5.105   0.902 -1.2986 -0.9946 -1.8400
 4807TIP3    H214428   3.469   5.009   0.968  0.3830 -1.2830  0.3093
 4808TIP3   OH214429   0.767   4.206   4.973 -0.2312  0.3331  0.0993
 4808TIP3    H114430   0.813   4.123   4.985 -0.4931  0.2952  0.8531
 4808TIP3    H214431   0.677   4.188   4.999  0.3354  1.6161  3.3715
 4809TIP3   OH214432   3.649   5.483   4.738  0.2797 -0.5242  0.3532
 4809TIP3    H114433   3.603   5.402   4.762 -0.1714  0.1223  1.8189
 4809TIP3    H214434   3.596   5.552   4.778  0.6333  0.5075 -0.9177
 4810TIP3   OH214435   3.767   5.574   2.471 -0.2064  0.5703  0.1639
 4810TIP3    H114436   3.735   5.627   2.398  0.9754 -0.4011 -1.1129
 4810TIP3    H214437   3.692   5.520   2.495 -1.1018  2.0442  0.7876
 4811TIP3   OH214438   2.398   3.885   2.176 -0.2423 -0.2652  0.0371
 4811TIP3    H114439   2.344   3.949   2.131  0.9302  1.2026  0.6428
 4811TIP3    H214440   2.447   3.841   2.105 -0.3923  0.1363 -0.3188
 4812TIP3   OH214441   4.075   2.540   0.506  0.5666  0.7100 -0.1539
 4812TIP3    H114442   3.985   2.531   0.475  0.4017  0.3316  0.4215
 4812TIP3    H214443   4.122   2.469   0.462  0.5252  0.7215 -0.2177
 4813TIP3   OH214444   0.551   5.112   2.332 -0.1633  0.0769  0.2346
 4813TIP3    H114445   0.637   5.078   2.358  0.0133  0.4691  0.1721
 4813TIP3    H214446   0.557   5.119   2.237 -0.6589 -0.9507  0.1109
 4814TIP3   OH214447   3.149   4.156   2.441  0.8086  0.4675 -1.0182
 4814TIP3    H114448   3.203   4.118   2.511  1.1616  0.0987 -1.4833
 4814TIP3    H214449   3.079   4.093   2.427  0.8361  0.4584 -1.1152
 4815TIP3   OH214450   1.209   4.218   0.991 -0.2340 -0.4098 -0.0411
 4815TIP3    H114451   1.227   4.128   0.967  2.3751 -0.1212  0.6218
 4815TIP3    H214452   1.183   4.260   0.909 -1.9547 -1.7984 -0.2742
 4816TIP3   OH214453   5.609   5.838   1.067 -0.1575 -0.1935 -0.0628
 4816TIP3    H114454   5.669   5.793   1.127  0.7763  1.7579  0.5494
 4816TIP3    H214455   5.624   5.797   0.982 -0.2123 -1.8083  0.6728
 4817TIP3   OH214456   4.312   2.468   1.698 -0.2678 -0.1835  0.1634
 4817TIP3    H114457   4.321   2.468   1.793  2.9209  1.9651  0.0052
 4817TIP3    H214458   4.322   2.376   1.673  1.1592 -0.5119  1.7943
 4818TIP3   OH214459   0.798   0.971   1.529  0.6359  0.2290  0.0817
 4818TIP3    H114460   0.731   1.028   1.493  2.0242  1.0176 -1.3706
 4818TIP3    H214461   0.835   1.020   1.603  0.0811  0.0714  0.4701
 4819TIP3   OH214462   4.919   4.608   3.637  0.1805  0.3888 -0.0890
 4819TIP3    H114463   4.966   4.654   3.707 -1.1785  0.7302  0.6443
 4819TIP3    H214464   4.832   4.591   3.674  0.3943 -2.1728 -0.5985
 4820TIP3   OH214465   3.218   1.779   0.204 -0.3532 -0.0096 -0.1564
 4820TIP3    H114466   3.297   1.812   0.247 -0.2008  0.2518 -0.6325
 4820TIP3    H214467   3.240   1.690   0.178  0.8128  0.9879 -2.8371
 4821TIP3   OH214468   5.687   0.330   2.138  0.3599 -0.1116  0.0531
 4821TIP3    H114469   5.740   0.252   2.122 -0.4722 -0.5154 -0.8518
 4821TIP3    H214470   5.742   0.402   2.106  0.3439 -0.5324 -0.9902
 4822TIP3   OH214471   0.426   3.477   3.581  0.6557 -0.3741  0.0566
 4822TIP3    H114472   0.368   3.503   3.509 -1.1433  0.1501  1.6162
 4822TIP3    H214473   0.368   3.433   3.644  1.4789  2.0252  2.6668
 4823TIP3   OH214474   3.676   0.849   0.593  0.0574  0.0103 -0.3400
 4823TIP3    H114475   3.762   0.843   0.635  0.5885 -0.0648 -1.4279
 4823TIP3    H214476   3.621   0.890   0.660  0.5435 -1.3430  0.9363
 4824TIP3   OH214477   2.309   2.566   4.663  0.1200 -0.0260 -0.3442
 4824TIP3    H114478   2.286   2.496   4.724 -2.2006 -0.4322 -1.5842
 4824TIP3    H214479   2.225   2.606   4.639  1.0194  0.6733 -2.6083
 4825TIP3   OH214480   4.061   1.055   1.592 -0.4677 -0.3420 -0.7331
 4825TIP3    H114481   4.108   1.136   1.571  0.5711 -0.8325 -0.4062
 4825TIP3    H214482   4.011   1.075   1.671 -1.0459  0.2801 -1.2551
 4826TIP3   OH214483   4.369   5.148   2.168 -0.0391  0.4752  0.2558
 4826TIP3    H114484   4.407   5.235   2.156  1.0245 -0.1573 -1.2370
 4826TIP3    H214485   4.382   5.129   2.261  1.3579  1.1676  0.2177
 4827TIP3   OH214486   5.871   5.526   1.715 -0.4567 -0.3846 -0.6240
 4827TIP3    H114487   5.825   5.452   1.754 -0.3817 -0.2324 -0.2389
 4827TIP3    H214488   5.900   5.578   1.790 -1.0219  0.3410 -0.8931
 4828TIP3   OH214489   3.534   3.860   4.201  0.6940  0.5655 -0.1448
 4828TIP3    H114490   3.493   3.906   4.275 -1.5307  1.4935 -1.8438
 4828TIP3    H214491   3.479   3.782   4.189 -0.6189  1.7429 -2.3678
 4829TIP3   OH214492   1.440   3.365   3.397  0.4831 -0.6387  0.1102
 4829TIP3    H114493   1.444   3.346   3.303 -1.2032  1.6235 -0.5203
 4829TIP3    H214494   1.387   3.295   3.434 -1.1793 -0.1166 -1.1544
 4830TIP3   OH214495   2.185   4.644   2.573 -0.1487 -0.0431 -0.1565
 4830TIP3    H114496   2.206   4.714   2.511 -1.6884 -1.4236 -2.3947
 4830TIP3    H214497   2.259   4.583   2.566  1.6672  1.6131  2.4910
 4831TIP3   OH214498   3.968   5.749   0.155 -0.2250  0.1537  0.0627
 4831TIP3    H114499   3.890   5.802   0.167  0.3833  0.7963  1.3060
 4831TIP3    H214500   4.025   5.802   0.099  0.8278  1.3766  2.1576
 4832TIP3   OH214501   2.369   3.774   3.563  0.4441  0.1010 -0.1660
 4832TIP3    H114502   2.457   3.760   3.597 -0.1812 -0.0617  1.4909
 4832TIP3    H214503   2.362   3.869   3.551  1.4046 -0.0218 -2.0211
 4833TIP3   OH214504   4.446   5.601   0.911  0.5363 -0.0197 -0.2495
 4833TIP3    H114505   4.427   5.681   0.862 -0.2341  0.0187  0.1028
 4833TIP3    H214506   4.383   5.601   0.983 -0.5545 -1.7273 -1.1410
 4834TIP3   OH214507   1.967   4.998   2.112 -0.0243 -0.0507  0.2865
 4834TIP3    H114508   1.907   4.925   2.127  0.2722 -0.1451  1.0735
 4834TIP3    H214509   2.047   4.956   2.079  0.3047 -0.1497  1.1642
 4835TIP3   OH214510   4.519   1.887   4.757 -0.2778 -0.0363  0.4372
 4835TIP3    H114511   4.513   1.962   4.817 -1.2679  0.3016 -0.0471
 4835TIP3    H214512   4.435   1.888   4.711 -0.5097 -1.7614  0.7783
 4836TIP3   OH214513   4.219   4.270   3.397 -0.4306 -0.0111 -0.0155
 4836TIP3    H114514   4.283   4.268   3.326 -0.2197  2.2790  0.0113
 4836TIP3    H214515   4.134   4.262   3.354 -0.3152  1.5411 -0.6183
 4837TIP3   OH214516   2.947   3.937   2.430 -0.6023 -0.4400 -0.0043
 4837TIP3    H114517   2.860   3.899   2.422 -0.6415 -0.6603  1.2310
 4837TIP3    H214518   3.007   3.870   2.396 -0.9260 -0.1513 -1.1746
 4838TIP3   OH214519   2.858   3.219   3.761  0.0423  0.0477  0.0139
 4838TIP3    H114520   2.934   3.273   3.740 -2.5645  3.9031 -0.4487
 4838TIP3    H214521   2.808   3.215   3.679 -2.0558  0.9035  1.1847
 4839TIP3   OH214522   2.782   4.169   0.628 -0.8962  0.1561 -1.0831
 4839TIP3    H114523   2.783   4.081   0.591 -1.6833 -0.5137  0.4210
 4839TIP3    H214524   2.690   4.190   0.639 -0.6925  0.7208 -0.3830
 4840TIP3   OH214525   3.180   1.914   0.481 -0.1631 -0.0597  0.7004
 4840TIP3    H114526   3.154   1.823   0.493 -0.4389 -0.3513 -1.6172
 4840TIP3    H214527   3.274   1.911   0.464 -0.1686  0.0888  0.6389
 4841TIP3   OH214528   4.488   5.427   3.489  1.0024 -0.0336 -0.6766
 4841TIP3    H114529   4.546   5.478   3.544  1.3835 -0.7987 -0.3527
 4841TIP3    H214530   4.473   5.482   3.412  0.1511  1.2106  0.3363
 4842TIP3   OH214531   4.999   3.412   3.005 -0.0207  0.2446  0.3111
 4842TIP3    H114532   5.047   3.361   3.070 -1.6217  0.1098  1.4324
 4842TIP3    H214533   4.993   3.354   2.929  0.7195 -0.0985  0.5013
 4843TIP3   OH214534   5.230   2.801   3.683  0.2461  0.1450 -0.0323
 4843TIP3    H114535   5.285   2.880   3.684 -0.3595  0.6061 -1.1053
 4843TIP3    H214536   5.291   2.730   3.666  0.4871  0.7100 -1.7437
 4844TIP3   OH214537   1.724   4.744   0.474 -0.4206 -0.1246 -0.0443
 4844TIP3    H114538   1.678   4.775   0.553 -1.7059 -0.9156 -0.4483
 4844TIP3    H214539   1.806   4.793   0.473 -0.8443  0.6573  1.2234
 4845TIP3   OH214540   4.835   3.413   0.772  0.1713 -0.0810  0.1779
 4845TIP3    H114541   4.770   3.374   0.714 -0.5536  0.4464  0.6118
 4845TIP3    H214542   4.897   3.457   0.713 -0.7375  0.7320 -0.1966
 4846TIP3   OH214543   3.194   1.319   3.769  0.4225 -0.1381  0.1128
 4846TIP3    H114544   3.153   1.404   3.784 -0.6489 -0.7200  0.6241
 4846TIP3    H214545   3.281   1.327   3.809  0.6537  0.9705 -0.5706
 4847TIP3   OH214546   5.062   4.201   1.114  0.2494 -0.0001 -0.6733
 4847TIP3    H114547   4.996   4.133   1.128  1.4642 -0.7433  1.9881
 4847TIP3    H214548   5.047   4.264   1.185  0.9364  1.0469 -1.4317
 4848TIP3   OH214549   1.721   5.321   1.608 -0.0227 -1.0349 -0.4550
 4848TIP3    H114550   1.771   5.249   1.647  1.4257 -0.4576 -1.1643
 4848TIP3    H214551   1.685   5.369   1.682  0.7487 -1.2984  0.0979
 4849TIP3   OH214552   0.459   1.587   1.192  0.1250 -0.0751  0.3375
 4849TIP3    H114553   0.549   1.590   1.224  0.2299  2.0612  0.0097
 4849TIP3    H214554   0.462   1.529   1.116  1.9301  2.1931 -1.4886
 4850TIP3   OH214555   2.587   4.076   2.368  0.0405 -0.1287 -0.0490
 4850TIP3    H114556   2.513   4.137   2.362  0.2113  0.0232 -0.6875
 4850TIP3    H214557   2.554   4.004   2.422 -0.3614  0.2399  0.2086
 4851TIP3   OH214558   4.048   1.497   1.682 -0.5250 -0.4181 -0.1587
 4851TIP3    H114559   4.091   1.560   1.624  1.8110  0.0884  1.9450
 4851TIP3    H214560   4.079   1.412   1.652 -0.4924 -0.2743 -0.5340
 4852TIP3   OH214561   3.018   5.790   1.305 -0.0066 -0.2562 -0.2141
 4852TIP3    H114562   3.100   5.839   1.314  0.9797 -1.7866 -0.6464
 4852TIP3    H214563   2.974   5.832   1.231  2.4896 -2.1790 -3.0219
 4853TIP3   OH214564   2.017   0.513   2.651 -0.2458  0.4995 -0.3340
 4853TIP3    H114565   2.099   0.502   2.700 -0.1332  0.6868 -0.4770
 4853TIP3    H214566   1.978   0.592   2.689  0.6059  1.5637 -1.5964
 4854TIP3   OH214567   5.123   0.093   1.750  0.1959  0.9486 -0.2415
 4854TIP3    H114568   5.146   0.053   1.833  0.0168 -0.4486 -0.8421
 4854TIP3    H214569   5.207   0.113   1.708  0.3345 -0.4606 -0.6943
 4855TIP3   OH214570   2.435   0.577   0.901  0.2578 -0.2539  0.2638
 4855TIP3    H114571   2.416   0.561   0.994  0.3455  1.0267  0.5168
 4855TIP3    H214572   2.416   0.493   0.859 -0.8605 -0.5510  1.2789
 4856TIP3   OH214573   2.967   5.555   2.484  0.2543 -0.3988 -0.6460
 4856TIP3    H114574   3.056   5.520   2.475  0.7052  0.4024  0.5641
 4856TIP3    H214575   2.979   5.643   2.519 -1.0554 -0.6363  0.4617
 4857TIP3   OH214576   4.863   5.213   4.437 -0.1371 -0.0989  0.7832
 4857TIP3    H114577   4.883   5.166   4.518 -1.2580  0.0672  1.1653
 4857TIP3    H214578   4.797   5.159   4.393 -0.3236  0.3626  0.4952
 4858TIP3   OH214579   1.684   2.977   2.717  0.2187  0.5742  0.0030
 4858TIP3    H114580   1.750   3.034   2.757 -0.0658  1.2074 -0.4179
 4858TIP3    H214581   1.603   2.998   2.764  0.1476  0.3976 -0.0396
 4859TIP3   OH214582   0.875   0.363   5.185 -0.3479 -0.1177  0.7150
 4859TIP3    H114583   0.839   0.448   5.211  0.6618  0.4261  0.3841
 4859TIP3    H214584   0.800   0.316   5.148 -0.3703  1.7169 -1.8177
 4860TIP3   OH214585   4.226   0.193   0.051 -0.1346  0.2332  0.0594
 4860TIP3    H114586   4.255   0.225  -0.035 -0.3408 -0.2244 -0.1831
 4860TIP3    H214587   4.151   0.248   0.073  0.8911  1.4408  0.6986
 4861TIP3   OH214588   3.215   0.363   4.388 -0.4381  0.0252 -0.3110
 4861TIP3    H114589   3.289   0.422   4.375 -0.2034 -0.2119 -0.0677
 4861TIP3    H214590   3.255   0.276   4.398 -0.6268  0.0969  1.3411
 4862TIP3   OH214591   1.826   3.083   1.877 -0.1765  0.4304 -0.5615
 4862TIP3    H114592   1.912   3.061   1.913 -0.3985 -0.1278 -0.3676
 4862TIP3    H214593   1.823   3.038   1.793 -0.7440 -0.5427 -0.0369
 4863TIP3   OH214594   0.433   1.643   2.074 -0.2405 -0.2840 -0.4321
 4863TIP3    H114595   0.399   1.713   2.130  2.1543  0.7954 -0.2205
 4863TIP3    H214596   0.448   1.570   2.134  1.8742  0.7106  0.3480
 4864TIP3   OH214597   6.283   4.936   4.953  0.0925 -0.0256  0.3551
 4864TIP3    H114598   6.369   4.973   4.930 -0.4327  0.7785 -0.3666
 4864TIP3    H214599   6.226   5.012   4.965 -0.1604 -0.4753  2.4534
 4865TIP3   OH214600   0.837   4.821   1.931  0.2545  0.5273 -0.5925
 4865TIP3    H114601   0.848   4.906   1.974  2.3036 -0.0037  0.0383
 4865TIP3    H214602   0.852   4.757   2.000  0.1546 -0.3508 -1.3694
 4866TIP3   OH214603   5.555   1.009   2.839 -0.0983 -0.5128  0.7711
 4866TIP3    H114604   5.520   1.022   2.751  1.4522  0.3217  0.2528
 4866TIP3    H214605   5.566   1.097   2.874  0.9621 -0.7754  1.1231
 4867TIP3   OH214606   6.354   5.775   3.777  0.7190  0.4621  0.1702
 4867TIP3    H114607   6.392   5.845   3.830  1.8038  0.3948 -0.4981
 4867TIP3    H214608   6.285   5.738   3.832  0.8314  1.3587  0.9435
 4868TIP3   OH214609   0.287   1.519   0.947 -0.0749 -0.3556 -0.1122
 4868TIP3    H114610   0.286   1.544   0.855 -0.9564  1.2109  0.2765
 4868TIP3    H214611   0.378   1.495   0.965  1.0450  3.0638 -0.5131
 4869TIP3   OH214612   6.286   5.471   1.660 -0.2448 -0.1465  0.2746
 4869TIP3    H114613   6.207   5.453   1.608  0.2298 -2.1603  0.1657
 4869TIP3    H214614   6.306   5.563   1.643 -2.3917  0.3407  0.0737
 4870TIP3   OH214615   4.657   2.909   0.363 -0.9113  0.2410 -0.2272
 4870TIP3    H114616   4.663   2.887   0.456 -0.3767 -0.9059 -0.5134
 4870TIP3    H214617   4.646   2.825   0.319  0.6541  0.5741 -1.3513
 4871TIP3   OH214618   4.047   3.304   1.611  0.1474 -0.0997 -0.2837
 4871TIP3    H114619   3.955   3.284   1.628  0.6144 -0.9633  1.4158
 4871TIP3    H214620   4.076   3.233   1.554 -0.0537 -0.2362 -0.2183
 4872TIP3   OH214621   0.969   2.671   1.509  0.1313 -0.3823  0.7371
 4872TIP3    H114622   0.876   2.666   1.533 -0.4960 -1.4748 -1.6164
 4872TIP3    H214623   0.998   2.756   1.541 -2.0228  0.4916  0.5157
 4873TIP3   OH214624   2.163   2.785   0.114  0.3435 -0.0941  0.1707
 4873TIP3    H114625   2.207   2.703   0.092 -1.7059 -0.8758 -1.3002
 4873TIP3    H214626   2.200   2.849   0.053  0.2957 -0.4623 -0.2471
 4874TIP3   OH214627   5.089   1.183   0.680  0.6720  0.1213  0.3132
 4874TIP3    H114628   5.038   1.210   0.757  0.4645 -1.0624  0.6149
 4874TIP3    H214629   5.029   1.194   0.606  0.7621  0.9487  0.3492
 4875TIP3   OH214630   0.938   4.686   2.151 -0.3997  0.2904  0.6423
 4875TIP3    H114631   0.974   4.605   2.189  0.3876 -0.2496 -1.1439
 4875TIP3    H214632   1.007   4.751   2.165  0.2273 -0.1015 -0.4797
 4876TIP3   OH214633   0.095   5.614   0.607 -0.4747  0.1287 -0.3564
 4876TIP3    H114634   0.137   5.615   0.693  0.3830 -1.3871 -0.7318
 4876TIP3    H214635   0.160   5.578   0.548 -0.5608  2.3473 -1.9610
 4877TIP3   OH214636   1.873   5.163   0.545  0.4659 -0.7923  0.0779
 4877TIP3    H114637   1.828   5.224   0.603 -1.6304 -1.3368 -0.8825
 4877TIP3    H214638   1.884   5.210   0.463  0.1231 -1.2193 -0.2192
 4878TIP3   OH214639   2.940   4.320   1.497 -0.4450  0.1070  0.0884
 4878TIP3    H114640   2.912   4.291   1.410  0.0882  1.2393 -0.4959
 4878TIP3    H214641   3.002   4.254   1.526 -0.5539 -0.2341 -0.4457
 4879TIP3   OH214642   1.458   0.460   2.335  0.2776  0.6586 -0.1022
 4879TIP3    H114643   1.440   0.369   2.357 -2.7122  0.8739 -1.2857
 4879TIP3    H214644   1.451   0.507   2.418  1.9435 -0.1085  0.5360
 4880TIP3   OH214645   0.159   1.869   4.366 -0.3089 -0.3576 -0.4170
 4880TIP3    H114646   0.080   1.869   4.420  0.7412 -0.0453  1.1701
 4880TIP3    H214647   0.149   1.945   4.309 -1.1608 -0.3408 -0.2540
 4881TIP3   OH214648   2.311   5.786   1.930  0.5271 -0.4295 -0.4071
 4881TIP3    H114649   2.342   5.806   2.018 -1.2122 -0.0417  0.1388
 4881TIP3    H214650   2.254   5.710   1.941 -0.9663  0.5684 -0.9180
 4882TIP3   OH214651   0.801   4.824   1.549  0.2610 -0.0996 -0.2710
 4882TIP3    H114652   0.825   4.907   1.506  0.4098 -0.2841 -0.5486
 4882TIP3    H214653   0.778   4.766   1.476 -0.1793 -0.1967 -0.0570
 4883TIP3   OH214654   3.267   0.439   0.297 -0.0773 -0.4398  0.0712
 4883TIP3    H114655   3.172   0.440   0.309  0.0158 -2.4016  1.4539
 4883TIP3    H214656   3.302   0.481   0.375  0.2192 -0.2165 -0.1779
 4884TIP3   OH214657   4.671   5.124   2.121 -0.3489  0.1281 -0.0257
 4884TIP3    H114658   4.665   5.147   2.028  1.5016 -0.4496 -0.3076
 4884TIP3    H214659   4.582   5.138   2.154 -0.5285  2.5970 -1.3445
 4885TIP3   OH214660   6.195   3.437   4.837  0.1973  0.0821 -0.3881
 4885TIP3    H114661   6.246   3.408   4.912  2.6433  1.6279 -1.3510
 4885TIP3    H214662   6.246   3.408   4.761 -1.4811 -0.1929 -1.4595
 4886TIP3   OH214663   5.664   1.266   4.843  0.4241  0.2657  0.0635
 4886TIP3    H114664   5.607   1.342   4.828  0.2567  0.3319  0.9550
 4886TIP3    H214665   5.705   1.284   4.928  1.3308 -0.0628 -0.2931
 4887TIP3   OH214666   5.324   1.178   1.895  0.4915  0.2526 -0.6336
 4887TIP3    H114667   5.419   1.165   1.901  0.6701  1.8805  0.6292
 4887TIP3    H214668   5.311   1.227   1.814  0.9561  1.6732  0.1229
 4888TIP3   OH214669   1.909   0.302   4.471  0.0607 -0.1282 -0.3502
 4888TIP3    H114670   1.869   0.387   4.488  0.7009  0.1757 -0.3458
 4888TIP3    H214671   1.844   0.239   4.502 -1.0011  0.3110 -1.5825
 4889TIP3   OH214672   2.018   5.335   3.304 -0.4782  0.1367 -0.4554
 4889TIP3    H114673   1.960   5.411   3.293 -1.3254 -0.0804  1.9922
 4889TIP3    H214674   2.107   5.371   3.295 -0.8646  1.4334  0.6528
 4890TIP3   OH214675   3.259   0.177   4.734 -0.3697 -0.1872  0.4033
 4890TIP3    H114676   3.263   0.191   4.829 -0.1311  0.9059  0.2410
 4890TIP3    H214677   3.350   0.181   4.705 -0.4649 -0.2553  0.0899
 4891TIP3   OH214678   4.505   0.152   4.837 -0.1363 -0.1403  0.6423
 4891TIP3    H114679   4.417   0.188   4.828 -0.6014 -1.2483  0.5407
 4891TIP3    H214680   4.538   0.146   4.747  0.3954  1.0799  0.7411
 4892TIP3   OH214681   3.898   4.719   2.785 -0.1280 -0.2433 -0.3377
 4892TIP3    H114682   3.831   4.778   2.751 -1.8527 -1.9094 -0.0363
 4892TIP3    H214683   3.932   4.763   2.863 -0.4330  0.9159 -0.8380
 4893TIP3   OH214684   0.787   2.878   1.150  0.4410 -0.0005 -0.1529
 4893TIP3    H114685   0.727   2.928   1.206  0.3428 -0.3134  0.0244
 4893TIP3    H214686   0.842   2.945   1.108  0.1143  0.2745 -0.1487
 4894TIP3   OH214687   1.549   1.146   0.294  0.1029 -0.5032  0.8948
 4894TIP3    H114688   1.467   1.191   0.274 -0.1978 -1.5541 -0.4033
 4894TIP3    H214689   1.568   1.168   0.385  0.2755  2.6648  0.2129
 4895TIP3   OH214690   1.453   0.514   2.605  0.2093 -0.2764 -0.0299
 4895TIP3    H114691   1.456   0.608   2.624  0.5726 -0.1494 -0.6874
 4895TIP3    H214692   1.486   0.472   2.684 -0.0800  0.1436  0.3158
 4896TIP3   OH214693   3.492   0.540   3.819  0.2183 -0.0741  0.2617
 4896TIP3    H114694   3.429   0.544   3.891 -0.3111  1.3966 -0.2624
 4896TIP3    H214695   3.572   0.578   3.856 -0.1297  0.9200  0.0068
 4897TIP3   OH214696   4.965   4.136   3.737 -0.5676  0.2133  0.9554
 4897TIP3    H114697   4.875   4.117   3.711 -0.3213  1.0830 -0.6873
 4897TIP3    H214698   4.996   4.055   3.777 -1.8743 -0.3124  0.9705
 4898TIP3   OH214699   5.823   0.071   1.473 -0.5504  0.1276  0.0115
 4898TIP3    H114700   5.858   0.152   1.509 -0.1203 -0.8649  1.9883
 4898TIP3    H214701   5.747   0.052   1.527 -1.0402 -0.4514 -0.8594
 4899TIP3   OH214702   3.763   5.047   3.211  0.2350  0.2863  0.2981
 4899TIP3    H114703   3.669   5.064   3.205 -0.2492 -0.7648  3.2059
 4899TIP3    H214704   3.787   5.010   3.126 -2.1194 -0.0131 -0.2959
 4900TIP3   OH214705   4.641   2.418   3.394  0.0071  0.2673  0.1658
 4900TIP3    H114706   4.556   2.422   3.437  0.3904 -1.0151  1.0903
 4900TIP3    H214707   4.691   2.356   3.446  0.5907 -1.1544 -1.9881
 4901TIP3   OH214708   5.741   3.621   4.866  0.3245 -0.2911 -0.2046
 4901TIP3    H114709   5.735   3.602   4.772  0.9381  0.3795 -0.3969
 4901TIP3    H214710   5.653   3.608   4.899  0.0651 -0.3969 -0.9117
 4902TIP3   OH214711   0.997   1.458   3.427 -0.0020  0.2181  0.0379
 4902TIP3    H114712   0.956   1.388   3.376 -0.2959 -1.3493  2.2811
 4902TIP3    H214713   1.038   1.413   3.501 -1.2545  2.5083  2.2577
 4903TIP3   OH214714   1.016   4.291   2.088 -0.4515 -0.3651 -0.3013
 4903TIP3    H114715   1.093   4.263   2.138 -0.1589 -0.7382 -0.9545
 4903TIP3    H214716   1.051   4.347   2.019 -0.8389  0.0031 -0.2055
 4904TIP3   OH214717   5.117   4.595   2.000  0.7063  0.1299  0.3702
 4904TIP3    H114718   5.072   4.611   2.083 -0.0366 -1.9734  0.4362
 4904TIP3    H214719   5.146   4.682   1.972 -1.4872  1.2934  1.4124
 4905TIP3   OH214720   4.882   5.138   4.098  0.0293 -0.4274  0.0148
 4905TIP3    H114721   4.917   5.050   4.106  0.6395 -0.2640 -0.7942
 4905TIP3    H214722   4.798   5.127   4.054  0.0875 -0.6048 -0.0509
 4906TIP3   OH214723   2.760   0.201   4.411 -0.5238  0.0438 -0.3404
 4906TIP3    H114724   2.856   0.202   4.410 -0.5088 -0.6021 -1.6396
 4906TIP3    H214725   2.738   0.195   4.504  0.5934  3.2402  0.2687
 4907TIP3   OH214726   1.567   3.346   4.182 -0.6563 -0.5992  0.1070
 4907TIP3    H114727   1.638   3.408   4.200 -0.9489  0.2707 -1.5577
 4907TIP3    H214728   1.491   3.400   4.164 -2.1065 -1.5191  2.8772
 4908TIP3   OH214729   0.260   0.457   3.724 -0.1590  0.0261  0.0617
 4908TIP3    H114730   0.319   0.504   3.665  0.5436 -1.7021 -0.6542
 4908TIP3    H214731   0.194   0.523   3.749  0.5681  1.2760 -1.1812
 4909TIP3   OH214732   0.260   2.270   0.818 -0.8066 -0.1672 -0.4297
 4909TIP3    H114733   0.289   2.231   0.735  0.7635  0.3644 -0.1625
 4909TIP3    H214734   0.341   2.287   0.866 -1.6431  0.3936  0.8343
 4910TIP3   OH214735   3.792   4.090   0.940 -0.2984  0.0220  0.3529
 4910TIP3    H114736   3.846   4.168   0.952 -1.0930  1.0995 -2.3921
 4910TIP3    H214737   3.712   4.108   0.990 -0.5822  1.1065 -0.4709
 4911TIP3   OH214738   3.223   4.937   0.498 -0.3540  0.3877 -0.0877
 4911TIP3    H114739   3.237   5.032   0.501 -1.6183  0.5861  0.7308
 4911TIP3    H214740   3.268   4.904   0.576 -1.3543  0.5669  0.5919
 4912TIP3   OH214741   0.510   4.313   3.406  0.0945  0.1428 -0.1228
 4912TIP3    H114742   0.606   4.320   3.402  0.0179  0.7010 -1.0959
 4912TIP3    H214743   0.483   4.298   3.316 -0.7160 -0.4715  0.2070
 4913TIP3   OH214744   2.118   0.647   1.981  0.0245 -0.0607 -0.5716
 4913TIP3    H114745   2.090   0.557   1.964 -1.3160  0.1862  0.1549
 4913TIP3    H214746   2.198   0.638   2.034  0.3493 -0.8053 -1.1796
 4914TIP3   OH214747   2.685   4.552   0.549  0.5820 -0.8104  0.1422
 4914TIP3    H114748   2.767   4.586   0.585  0.1773 -1.2148  1.4658
 4914TIP3    H214749   2.620   4.620   0.570  0.7956  0.2642 -2.2498
 4915TIP3   OH214750   0.295   4.958   0.679  0.4980 -0.4799 -0.6335
 4915TIP3    H114751   0.253   4.890   0.625 -0.0650 -0.7346  0.1083
 4915TIP3    H214752   0.235   4.970   0.752  0.7453  0.6069 -0.5962
 4916TIP3   OH214753   2.257   3.113   3.097 -0.3506  0.0747  0.1382
 4916TIP3    H114754   2.180   3.133   3.149 -1.2298  0.3922 -1.2464
 4916TIP3    H214755   2.239   3.151   3.011  0.9933 -0.5546 -0.4490
 4917TIP3   OH214756   0.299   0.288   4.186 -0.5034  0.2289 -0.1644
 4917TIP3    H114757   0.248   0.346   4.242 -0.8573 -0.4382  0.2193
 4917TIP3    H214758   0.367   0.344   4.148 -0.0471  0.6198  1.1907
 4918TIP3   OH214759   5.578   0.086   0.816  0.7086  0.4208  0.1089
 4918TIP3    H114760   5.658   0.132   0.792  1.7683 -1.1414  0.4990
 4918TIP3    H214761   5.582   0.080   0.911  0.4840 -0.2786  0.0773
 4919TIP3   OH214762   5.637   0.882   3.440  0.0082  0.6543 -0.1355
 4919TIP3    H114763   5.717   0.850   3.398  0.8261  0.4503  1.5147
 4919TIP3    H214764   5.653   0.872   3.534 -2.5104 -0.7069  0.2363
 4920TIP3   OH214765   3.653   5.443   4.189 -0.5493  0.4127 -0.0353
 4920TIP3    H114766   3.578   5.493   4.157 -0.3960  0.3472 -0.5074
 4920TIP3    H214767   3.718   5.508   4.212 -1.1438  0.5212  1.4118
 4921TIP3   OH214768   4.745   5.371   2.933 -0.3455  0.2681  0.2275
 4921TIP3    H114769   4.822   5.366   2.876  0.8718 -0.0387  1.8224
 4921TIP3    H214770   4.749   5.459   2.971  1.1870 -0.7947  2.8268
 4922TIP3   OH214771   4.081   2.869   1.547  0.5007 -0.1558  0.3368
 4922TIP3    H114772   4.055   2.854   1.456 -2.9751 -1.1009  1.3464
 4922TIP3    H214773   4.133   2.792   1.570  1.1870 -0.0316 -0.7498
 4923TIP3   OH214774   5.354   5.213   1.475 -0.5132  0.2403 -0.2146
 4923TIP3    H114775   5.369   5.280   1.409 -0.1288  0.2341 -0.1370
 4923TIP3    H214776   5.433   5.214   1.529 -0.6913  0.0309  0.0551
 4924TIP3   OH214777   2.048   2.536   2.489 -0.9193 -0.6010  0.5092
 4924TIP3    H114778   2.054   2.447   2.524 -0.9498 -0.9057 -0.2436
 4924TIP3    H214779   2.017   2.524   2.399 -1.3104  0.1973  0.5315
 4925TIP3   OH214780   3.421   1.394   1.243  0.1897  0.1288  0.2619
 4925TIP3    H114781   3.381   1.348   1.316  2.1770 -4.6429 -1.2832
 4925TIP3    H214782   3.350   1.405   1.180 -0.2173 -2.0309  0.2567
 4926TIP3   OH214783   3.523   5.499   0.954 -0.0263 -0.3287 -0.1458
 4926TIP3    H114784   3.536   5.536   0.866  2.0347 -1.0355 -0.1908
 4926TIP3    H214785   3.430   5.475   0.956 -0.1198 -0.3670 -2.1593
 4927TIP3   OH214786   5.592   4.113   3.121  0.0541  0.1186  0.3564
 4927TIP3    H114787   5.507   4.104   3.163  1.0213 -1.2490  2.1366
 4927TIP3    H214788   5.573   4.110   3.027 -1.8973  0.5451  0.6968
 4928TIP3   OH214789   1.483   5.298   1.905 -0.1167 -0.0052  0.1470
 4928TIP3    H114790   1.571   5.266   1.887 -0.1067 -0.4777  0.9692
 4928TIP3    H214791   1.445   5.232   1.964 -0.2319  1.2931  1.5992
 4929TIP3   OH214792   5.413   3.775   1.758  0.0733  0.0098 -0.1223
 4929TIP3    H114793   5.412   3.689   1.802  0.1600  0.0450 -0.0517
 4929TIP3    H214794   5.345   3.825   1.803  0.2117  0.0701  0.0210
 4930TIP3   OH214795   4.925   5.629   4.185 -0.1952 -0.0048  0.8523
 4930TIP3    H114796   4.919   5.534   4.189 -0.3494 -0.0925 -0.6656
 4930TIP3    H214797   5.003   5.651   4.236  0.4765 -1.0431  0.3032
 4931TIP3   OH214798   1.770   3.767   3.459  0.6617  0.7763  0.6071
 4931TIP3    H114799   1.813   3.765   3.545 -0.4889 -0.7284  1.1866
 4931TIP3    H214800   1.734   3.679   3.448  1.1590  0.8045 -1.6416
 4932TIP3   OH214801   1.274   0.777   4.822  0.1148  0.1968  0.2799
 4932TIP3    H114802   1.340   0.835   4.785  1.3333  0.3258  2.4946
 4932TIP3    H214803   1.279   0.792   4.916 -1.3383 -1.6494  0.7078
 4933TIP3   OH214804   2.926   3.763   0.561 -0.3315  0.1600 -0.4992
 4933TIP3    H114805   3.004   3.732   0.516  0.7260  0.3847  1.1070
 4933TIP3    H214806   2.948   3.851   0.592 -1.8033  0.8848 -1.3653
 4934TIP3   OH214807   1.521   4.046   4.323 -0.4136 -0.4000  0.3529
 4934TIP3    H114808   1.567   4.042   4.239  2.3297  1.0891  1.6621
 4934TIP3    H214809   1.439   3.998   4.307  0.2658 -0.7316 -2.9470
 4935TIP3   OH214810   0.024   5.217   3.657  0.1156  0.0928  0.2211
 4935TIP3    H114811   0.039   5.298   3.704 -0.9526 -0.2894  1.2680
 4935TIP3    H214812   0.110   5.192   3.624  0.4282  1.7543 -0.3345
 4936TIP3   OH214813   3.826   2.981   0.944 -0.0684  0.0801  0.6399
 4936TIP3    H114814   3.830   2.995   0.849  1.4304  0.1701  0.6977
 4936TIP3    H214815   3.732   2.987   0.964 -0.4774 -0.4420 -0.8985
 4937TIP3   OH214816   0.028   3.471   1.337  0.3785 -0.1953  0.1938
 4937TIP3    H114817   0.109   3.430   1.368 -1.0391 -2.6658  0.8448
 4937TIP3    H214818   0.018   3.439   1.247  0.0633  0.0308  0.1461
 4938TIP3   OH214819   1.975   1.782   2.528  0.1715  0.5125 -0.2118
 4938TIP3    H114820   1.924   1.859   2.555  0.2065  0.6328 -0.4854
 4938TIP3    H214821   1.919   1.738   2.464  0.2695  0.4612 -0.2615
 4939TIP3   OH214822   0.958   5.875   3.471  0.1818  0.2990  0.3561
 4939TIP3    H114823   0.998   5.933   3.406 -0.8807  2.9291  1.8944
 4939TIP3    H214824   1.025   5.864   3.538  0.3090 -0.1075  0.1654
 4940TIP3   OH214825   1.016   3.846   1.677  0.4721  0.3683 -0.4246
 4940TIP3    H114826   0.938   3.793   1.661  0.3622  0.6168 -0.7041
 4940TIP3    H214827   1.025   3.847   1.772  0.2724  0.1436 -0.4016
 4941TIP3   OH214828   2.016   2.307   5.065  0.2167  0.4194  0.2713
 4941TIP3    H114829   1.979   2.342   5.147 -0.5776 -0.5815  0.3664
 4941TIP3    H214830   2.099   2.269   5.091 -0.8846 -1.6281  1.0470
 4942TIP3   OH214831   3.629   0.954   1.907 -0.6133 -0.0736 -0.0980
 4942TIP3    H114832   3.575   1.025   1.874 -1.0457 -0.8447 -1.0736
 4942TIP3    H214833   3.616   0.956   2.002  0.4369  1.9941  0.0782
 4943TIP3   OH214834   4.418   1.973   2.580  0.4487 -0.0737 -0.2927
 4943TIP3    H114835   4.411   2.060   2.619  1.1607  0.2628 -0.8986
 4943TIP3    H214836   4.453   1.919   2.651 -2.5952 -0.5564  1.0019
 4944TIP3   OH214837   3.475   0.550   1.590 -0.1072 -0.6921  0.0292
 4944TIP3    H114838   3.540   0.501   1.640 -0.1394 -0.6167  0.1459
 4944TIP3    H214839   3.475   0.637   1.630  1.7280  0.1862 -1.7337
 4945TIP3   OH214840   0.688   3.720   1.054 -0.2634 -0.8533 -0.2020
 4945TIP3    H114841   0.636   3.784   1.102 -1.5092 -0.3630 -2.1151
 4945TIP3    H214842   0.689   3.643   1.111 -1.5506 -0.2508  0.6845
 4946TIP3   OH214843   2.062   4.276   2.608 -0.0177  0.6402  0.2399
 4946TIP3    H114844   2.045   4.204   2.669 -0.4455  1.1896  0.7810
 4946TIP3    H214845   2.157   4.278   2.598  0.1293  1.0454  1.5165
 4947TIP3   OH214846   2.569   1.212   5.001  0.6303  0.2784 -0.1459
 4947TIP3    H114847   2.558   1.148   4.930  2.8624 -0.8981  0.4722
 4947TIP3    H214848   2.602   1.291   4.957 -0.4529  0.4360 -0.7028
 4948TIP3   OH214849   2.091   1.578   3.289  0.0065 -0.0838  0.1095
 4948TIP3    H114850   2.049   1.649   3.239  1.2577  0.8308  0.2980
 4948TIP3    H214851   2.156   1.542   3.229  0.3604 -0.1073  0.5036
 4949TIP3   OH214852   4.184   4.467   1.873 -0.0236 -0.0795 -0.1454
 4949TIP3    H114853   4.202   4.472   1.967  2.0493 -2.3412 -0.3199
 4949TIP3    H214854   4.205   4.376   1.849  1.8621  1.0000 -3.2221
 4950TIP3   OH214855   1.837   0.692   2.745  0.1982 -0.0959  0.3133
 4950TIP3    H114856   1.814   0.646   2.826 -0.7269  0.2320  0.2447
 4950TIP3    H214857   1.770   0.666   2.682  0.4423  0.2928 -0.1173
 4951TIP3   OH214858   0.161   4.372   3.770 -0.3633 -0.9649  0.6179
 4951TIP3    H114859   0.245   4.336   3.740 -0.2657 -3.1526  3.1593
 4951TIP3    H214860   0.097   4.306   3.745 -1.0710 -0.2534  0.5000
 4952TIP3   OH214861   4.568   4.060   1.213 -0.4699 -0.9500 -0.2573
 4952TIP3    H114862   4.591   3.973   1.246  1.3739 -1.0783 -1.6795
 4952TIP3    H214863   4.624   4.072   1.136  0.1987  1.9520  0.5518
 4953TIP3   OH214864   3.053   3.862   5.078 -0.0629  0.5108  0.2983
 4953TIP3    H114865   3.073   3.954   5.057 -1.1590  0.6239 -0.3268
 4953TIP3    H214866   3.070   3.856   5.172  0.4307  1.2439  0.2714
 4954TIP3   OH214867   4.881   2.637   3.361 -0.2025  0.0008 -0.1162
 4954TIP3    H114868   4.945   2.701   3.392  1.6688 -2.7383  2.2304
 4954TIP3    H214869   4.815   2.633   3.430 -0.0413 -0.9008 -0.0004
 4955TIP3   OH214870   5.600   2.232   4.305  0.6610 -0.0102  0.1518
 4955TIP3    H114871   5.677   2.205   4.354  1.7121  0.7579 -1.0189
 4955TIP3    H214872   5.551   2.152   4.290 -0.5108 -0.1351  3.6831
 4956TIP3   OH214873   3.766   5.222   3.651 -0.3898 -0.2880 -0.0440
 4956TIP3    H114874   3.754   5.278   3.574 -0.2758 -0.8711 -0.4860
 4956TIP3    H214875   3.707   5.260   3.717 -0.0990  0.5268 -0.2400
 4957TIP3   OH214876   5.723   5.097   3.769 -0.1568  0.0532  0.1071
 4957TIP3    H114877   5.711   5.136   3.682 -2.0245 -0.2854  0.1592
 4957TIP3    H214878   5.711   5.003   3.754  3.2559 -0.5109  0.1601
 4958TIP3   OH214879   4.225   5.230   3.010  0.4522 -0.0254  0.2982
 4958TIP3    H114880   4.238   5.152   3.064 -2.2318 -0.1029  0.9657
 4958TIP3    H214881   4.152   5.207   2.952 -1.1425  2.3157  1.2530
 4959TIP3   OH214882   0.812   0.725   4.825 -0.7238  0.4043 -0.0573
 4959TIP3    H114883   0.850   0.640   4.847 -0.4253  0.7781  0.8929
 4959TIP3    H214884   0.720   0.706   4.806 -0.1072 -0.5342 -2.4895
 4960TIP3   OH214885   3.986   1.881   2.123  0.2465 -0.2706  0.3434
 4960TIP3    H114886   3.966   1.854   2.213  2.4113  0.4513  1.1067
 4960TIP3    H214887   4.018   1.971   2.132  1.6176 -0.5882 -0.9784
 4961TIP3   OH214888   1.299   1.280   3.477 -0.0735 -0.0762 -0.1688
 4961TIP3    H114889   1.269   1.258   3.566 -0.7544  0.3581 -0.2824
 4961TIP3    H214890   1.293   1.375   3.473  2.7023  0.2053  0.2760
 4962TIP3   OH214891   5.498   4.757   5.045  0.7220  0.1731  0.4996
 4962TIP3    H114892   5.547   4.702   5.107 -0.5265  0.2675  1.6018
 4962TIP3    H214893   5.429   4.700   5.012  1.8326 -0.1267 -1.4677
 4963TIP3   OH214894   0.866   4.541   4.961 -0.1847  0.1925 -0.0980
 4963TIP3    H114895   0.796   4.480   4.983 -0.5779  1.2149  1.6948
 4963TIP3    H214896   0.918   4.547   5.042  0.8628  0.8910 -0.8035
 4964TIP3   OH214897   3.187   5.241   3.908  0.1848 -0.1244 -0.0167
 4964TIP3    H114898   3.277   5.272   3.915  0.4962 -0.6564 -1.3418
 4964TIP3    H214899   3.185   5.193   3.825 -0.7164 -2.1873  1.1419
 4965TIP3   OH214900   0.263   4.819   4.561 -0.0836 -0.6536  0.8943
 4965TIP3    H114901   0.354   4.833   4.537 -0.8260  1.1674 -1.2244
 4965TIP3    H214902   0.241   4.734   4.524  0.1644 -0.0869 -0.6014
 4966TIP3   OH214903   1.259   4.390   4.312 -0.0930 -0.2663 -0.5594
 4966TIP3    H114904   1.346   4.402   4.272  0.4204  0.3024  0.6650
 4966TIP3    H214905   1.278   4.349   4.397 -1.1950 -1.9552 -1.0829
 4967TIP3   OH214906   4.382   0.414   4.985  0.4470 -0.1666  0.5084
 4967TIP3    H114907   4.357   0.499   5.020  0.3058  0.1768 -0.4058
 4967TIP3    H214908   4.394   0.429   4.891  3.8053 -0.3707  0.8104
 4968TIP3   OH214909   1.992   5.670   0.939 -0.2636 -0.1574 -0.2804
 4968TIP3    H114910   2.050   5.680   1.015 -1.0748 -0.4741  0.3918
 4968TIP3    H214911   1.953   5.757   0.927 -0.4924 -0.2271 -0.0419
 4969TIP3   OH214912   1.839   3.105   0.669 -0.5660 -0.1399  0.1523
 4969TIP3    H114913   1.802   3.086   0.582 -1.3645  0.9093  0.2305
 4969TIP3    H214914   1.847   3.201   0.670  1.1869 -0.2609  0.5597
 4970TIP3   OH214915   1.396   3.916   2.442 -0.1281 -0.5156  0.3847
 4970TIP3    H114916   1.326   3.909   2.507  0.0250 -0.3958  0.5652
 4970TIP3    H214917   1.473   3.881   2.487 -0.3972 -2.1232 -0.3405
 4971TIP3   OH214918   5.350   4.622   2.233  0.6510  0.2534 -0.4549
 4971TIP3    H114919   5.346   4.718   2.229 -2.5739  0.2045 -0.7193
 4971TIP3    H214920   5.323   4.594   2.145 -1.8881 -0.8234  0.5861
 4972TIP3   OH214921   1.417   2.905   1.720  0.7862  0.0759  0.1776
 4972TIP3    H114922   1.506   2.875   1.737  0.9193  1.6498  2.8547
 4972TIP3    H214923   1.372   2.829   1.683  3.2555 -0.6687 -1.5907
 4973TIP3   OH214924   1.834   3.107   4.515  0.4514 -0.0101 -0.4823
 4973TIP3    H114925   1.740   3.112   4.499  0.4981 -2.0767 -1.8836
 4973TIP3    H214926   1.874   3.127   4.430  1.2475  0.4146 -0.0107
 4974TIP3   OH214927   1.448   3.990   2.179 -0.3981 -0.1735  0.0020
 4974TIP3    H114928   1.536   4.026   2.189 -0.9623  1.3948 -0.3589
 4974TIP3    H214929   1.420   3.969   2.268  0.4226 -0.9366  0.0934
 4975TIP3   OH214930   3.241   5.741   1.083 -0.0071  0.0287  0.2702
 4975TIP3    H114931   3.324   5.699   1.059 -0.2821 -0.0512 -0.5553
 4975TIP3    H214932   3.223   5.709   1.172 -0.5319 -2.1146 -0.5506
 4976TIP3   OH214933   3.961   4.160   2.257 -0.0349 -0.3986 -0.0239
 4976TIP3    H114934   3.992   4.245   2.226 -0.2664 -0.8660 -1.5914
 4976TIP3    H214935   3.986   4.098   2.189 -1.1444 -1.3746  0.4123
 4977TIP3   OH214936   3.255   0.589   1.069  0.1367 -0.4570  0.4296
 4977TIP3    H114937   3.289   0.642   0.997 -1.2803  0.9434  0.7042
 4977TIP3    H214938   3.328   0.535   1.097  1.0061 -0.2721 -1.3732
 4978TIP3   OH214939   4.089   1.345   3.573  0.3420 -0.1165  0.5489
 4978TIP3    H114940   4.149   1.279   3.608 -0.2504 -1.8580 -1.5082
 4978TIP3    H214941   4.037   1.372   3.649 -0.0778 -2.8105  1.3164
 4979TIP3   OH214942   1.881   2.972   3.390  0.1948 -0.0301 -0.2650
 4979TIP3    H114943   1.833   2.909   3.336  0.0463  0.4005 -0.6429
 4979TIP3    H214944   1.861   2.947   3.480 -1.1447  0.4325 -0.4025
 4980TIP3   OH214945   5.514   0.544   3.077  0.2505 -0.1171 -0.4056
 4980TIP3    H114946   5.599   0.505   3.061  0.3895  0.7748 -2.1242
 4980TIP3    H214947   5.532   0.637   3.090 -0.3630 -0.0986  0.4031
 4981TIP3   OH214948   1.305   3.835   4.455 -0.1544 -0.2729 -0.5344
 4981TIP3    H114949   1.320   3.892   4.531 -1.7463 -1.2360  0.5606
 4981TIP3    H214950   1.225   3.869   4.415  0.4461 -0.0307 -1.5655
 4982TIP3   OH214951   3.939   2.366   4.862 -0.1794 -0.0478  0.2781
 4982TIP3    H114952   4.013   2.424   4.881  0.0744  0.3525 -1.6880
 4982TIP3    H214953   3.956   2.288   4.915  1.4307  0.2257  0.2313
 4983TIP3   OH214954   0.687   2.964   0.078  0.1692 -0.6402 -0.3565
 4983TIP3    H114955   0.689   2.935  -0.013  0.8544 -0.5613 -0.3667
 4983TIP3    H214956   0.778   2.967   0.105  0.0613  0.5721 -0.0577
 4984TIP3   OH214957   1.554   1.726   1.478  0.0660 -0.0912  0.2122
 4984TIP3    H114958   1.465   1.760   1.486 -0.0023 -0.0906 -0.5564
 4984TIP3    H214959   1.606   1.782   1.535 -0.3019  0.3543  0.1147
 4985TIP3   OH214960   1.250   4.015   4.646  0.0411 -0.0219  0.5393
 4985TIP3    H114961   1.239   4.101   4.604  0.2917 -0.1320  0.2525
 4985TIP3    H214962   1.241   4.034   4.740  0.9890  0.4690  0.5441
 4986TIP3   OH214963   2.682   5.179   4.932 -0.1305  0.0910  0.2802
 4986TIP3    H114964   2.651   5.089   4.926  3.0103 -1.4042  3.4134
 4986TIP3    H214965   2.613   5.224   4.981 -1.8040 -0.4546 -1.4352
 4987TIP3   OH214966   1.714   0.678   3.381  0.1780  0.0201  0.2712
 4987TIP3    H114967   1.782   0.698   3.317  0.4243 -0.7762  0.2692
 4987TIP3    H214968   1.704   0.583   3.377 -1.2633  0.1555 -0.0484
 4988TIP3   OH214969   2.061   2.270   2.591 -0.1051 -0.4344  0.2543
 4988TIP3    H114970   2.147   2.237   2.564  0.3904  1.7106 -1.0078
 4988TIP3    H214971   2.053   2.243   2.683  2.0035 -0.5364  0.4537
 4989TIP3   OH214972   5.564   1.265   2.921 -0.4144 -0.3786 -0.1003
 4989TIP3    H114973   5.516   1.347   2.903  0.6289  0.3824  0.4775
 4989TIP3    H214974   5.630   1.290   2.986 -0.7538 -1.9214  0.8867
 4990TIP3   OH214975   4.244   3.097   0.008  0.3520 -0.5804  0.3524
 4990TIP3    H114976   4.293   3.062   0.083  0.0173 -1.4266  0.1881
 4990TIP3    H214977   4.229   3.021  -0.048  0.1948 -0.0372 -0.3520
 4991TIP3   OH214978   3.281   4.396   3.927  0.7455  0.4106  0.2474
 4991TIP3    H114979   3.287   4.381   4.021  0.1390  0.1913  0.2560
 4991TIP3    H214980   3.242   4.316   3.893  1.1692  0.4017 -0.2187
 4992TIP3   OH214981   5.897   4.953   3.495  0.4101  0.5263  0.0994
 4992TIP3    H114982   5.988   4.958   3.522  0.7039  3.8501 -0.9687
 4992TIP3    H214983   5.858   4.885   3.550  3.3280 -0.4916  1.0543
 4993TIP3   OH214984   4.561   1.825   3.117  0.5554 -0.3166  0.2350
 4993TIP3    H114985   4.562   1.912   3.076 -0.8444  0.5758  1.9200
 4993TIP3    H214986   4.616   1.771   3.062  1.3107  1.6102 -0.9837
 4994TIP3   OH214987   4.853   1.759   4.028  0.2800 -0.5291 -0.0889
 4994TIP3    H114988   4.847   1.729   4.118 -0.2447 -1.3038 -0.3710
 4994TIP3    H214989   4.944   1.742   4.003  0.7140  0.6822  0.6194
 4995TIP3   OH214990   4.505   0.611   1.107  0.3534  0.2131  0.4125
 4995TIP3    H114991   4.465   0.684   1.060  0.0301  0.7093  1.4357
 4995TIP3    H214992   4.431   0.558   1.137  0.5801 -1.8942 -2.2967
 4996TIP3   OH214993   1.489   4.704   1.849 -0.2826  0.1481  0.3760
 4996TIP3    H114994   1.430   4.639   1.810  0.4576 -0.5469  0.3852
 4996TIP3    H214995   1.480   4.781   1.793 -0.6810 -0.1880 -0.0331
 4997TIP3   OH214996   2.386   0.713   2.425  0.3796 -0.0086  0.4048
 4997TIP3    H114997   2.374   0.795   2.377  1.3646  0.0139  0.1882
 4997TIP3    H214998   2.370   0.737   2.517  0.2962  0.3445  0.3017
 4998TIP3   OH214999   0.427   4.759   1.057  0.1324 -0.4049  0.0286
 4998TIP3    H115000   0.474   4.788   0.979 -0.4587 -0.7566 -0.4612
 4998TIP3    H215001   0.336   4.751   1.029  0.0204 -1.1515  0.5890
 4999TIP3   OH215002   3.255   4.709   1.271 -0.0416  0.5890  0.1193
 4999TIP3    H115003   3.214   4.716   1.184  0.9107  3.5370 -0.2069
 4999TIP3    H215004   3.187   4.670   1.326 -1.3381  0.3603 -1.5471
 5000TIP3   OH215005   4.712   2.330   2.499 -0.1019 -0.4484  0.2110
 5000TIP3    H115006   4.652   2.381   2.446 -0.4441 -2.5616 -1.5910
 5000TIP3    H215007   4.765   2.395   2.545 -3.4896  1.5106  1.7069
 5001TIP3   OH215008   1.491   3.509   2.338 -0.2699  0.3843  0.5299
 5001TIP3    H115009   1.405   3.486   2.304  0.0547  0.7574 -0.5862
 5001TIP3    H215010   1.516   3.588   2.289  0.7051  0.2775  0.8329
 5002TIP3   OH215011   3.003   5.411   4.779 -0.0939  0.4163 -0.2123
 5002TIP3    H115012   3.085   5.459   4.766 -0.6536  1.5287  0.2577
 5002TIP3    H215013   2.996   5.355   4.701  1.9635 -1.0052  0.5387
 5003TIP3   OH215014   2.843   2.934   0.327  0.1230  0.6304 -0.1120
 5003TIP3    H115015   2.766   2.902   0.375  0.7751  1.8310  1.8317
 5003TIP3    H215016   2.836   3.029   0.331  1.1344  0.7561 -0.9006
 5004TIP3   OH215017   5.515   2.071   3.877  0.3652  0.3479 -0.2138
 5004TIP3    H115018   5.536   2.083   3.784 -2.7689  1.2297 -0.9343
 5004TIP3    H215019   5.485   2.157   3.906 -1.0786 -0.4786  0.8882
 5005TIP3   OH215020   6.329   4.851   4.054 -0.1070 -0.3368 -0.3893
 5005TIP3    H115021   6.274   4.918   4.014  0.1681  0.0571 -0.1197
 5005TIP3    H215022   6.352   4.887   4.139 -1.1850 -1.4191  0.4003
 5006TIP3   OH215023   1.444   4.029   4.015  0.1873 -0.3225 -0.3011
 5006TIP3    H115024   1.519   4.088   4.012  1.5460 -1.7743  1.8424
 5006TIP3    H215025   1.475   3.949   3.972  0.4339 -1.4038  1.7437
 5007TIP3   OH215026   2.898   3.944   4.804 -0.4674  0.1070  0.0583
 5007TIP3    H115027   2.903   3.937   4.900 -0.4005 -2.0317 -0.0373
 5007TIP3    H215028   2.968   4.004   4.780 -0.3067  0.4538  1.3449
 5008TIP3   OH215029   1.009   3.773   2.300 -0.1462  0.3058  0.4688
 5008TIP3    H115030   1.049   3.712   2.362 -0.8378 -1.1621 -0.4821
 5008TIP3    H215031   1.007   3.856   2.347  2.9455  0.2059  0.9595
 5009TIP3   OH215032   6.061   1.023   3.357  0.4338  0.8869  0.3347
 5009TIP3    H115033   6.129   0.959   3.337  0.8131  0.7317  2.0228
 5009TIP3    H215034   6.092   1.105   3.318  0.2892  0.2418 -1.1967
 5010TIP3   OH215035   2.059   1.185   1.261 -0.7464 -0.3047 -0.1238
 5010TIP3    H115036   2.021   1.101   1.286  0.8935 -2.0683 -2.9490
 5010TIP3    H215037   2.146   1.185   1.301 -0.0386 -0.8622 -1.5923
 5011TIP3   OH215038   5.654   3.546   3.112 -1.3979 -0.4733  0.1842
 5011TIP3    H115039   5.739   3.561   3.154 -2.2662 -0.3945  2.0259
 5011TIP3    H215040   5.672   3.481   3.044  0.2955  0.2601 -0.1275
 5012TIP3   OH215041   0.345   4.922   2.774  0.1742 -0.0366  0.0391
 5012TIP3    H115042   0.292   4.898   2.850  0.9544 -0.6686  0.3930
 5012TIP3    H215043   0.303   4.875   2.701  0.5887 -1.0356  0.4187
 5013TIP3   OH215044   1.500   1.531   0.858 -0.3446  0.7025  0.0597
 5013TIP3    H115045   1.462   1.443   0.859 -1.8229  1.3024 -0.8791
 5013TIP3    H215046   1.595   1.515   0.863 -0.5745 -0.9338 -0.0278
 5014TIP3   OH215047   5.458   2.621   3.198  0.2648 -0.5105 -0.0322
 5014TIP3    H115048   5.482   2.538   3.239  0.7350 -1.4250 -2.0306
 5014TIP3    H215049   5.395   2.597   3.130 -0.0812  0.8639 -0.2276
 5015TIP3   OH215050   3.162   3.516   1.715  0.4678 -0.0223 -0.3737
 5015TIP3    H115051   3.086   3.574   1.715  1.3679  1.2210 -1.0860
 5015TIP3    H215052   3.127   3.429   1.694 -1.0423  0.0378  1.6279
 5016TIP3   OH215053   1.815   2.675   4.174 -0.1654  0.1608 -0.0292
 5016TIP3    H115054   1.892   2.674   4.117  0.0123 -0.4692  0.2078
 5016TIP3    H215055   1.741   2.693   4.116  0.0884  0.1581 -0.3543
 5017TIP3   OH215056   1.920   3.794   3.701 -0.5234 -0.5709  0.6282
 5017TIP3    H115057   1.863   3.793   3.778 -1.0216 -1.6463  0.2633
 5017TIP3    H215058   1.933   3.887   3.682  0.4107 -0.2492  2.5900
 5018TIP3   OH215059   2.792   5.640   5.129  0.3812 -0.0205 -0.2174
 5018TIP3    H115060   2.848   5.667   5.202  1.2445 -1.2083 -0.4094
 5018TIP3    H215061   2.743   5.565   5.163 -1.0789  0.9579 -0.0770
 5019TIP3   OH215062   5.217   1.652   1.314  0.0714  0.1133 -0.0059
 5019TIP3    H115063   5.149   1.711   1.281  0.3279 -0.8188 -2.3475
 5019TIP3    H215064   5.171   1.569   1.328  0.6391 -0.4910 -1.4941
 5020TIP3   OH215065   4.387   0.240   3.853  0.1683 -0.2140 -0.1536
 5020TIP3    H115066   4.344   0.191   3.783  0.5312 -0.3136 -0.3123
 5020TIP3    H215067   4.357   0.199   3.934  1.2526 -1.3611 -0.3136
 5021TIP3   OH215068   2.789   0.425   2.165 -0.0410  0.1895 -0.4416
 5021TIP3    H115069   2.772   0.449   2.256  0.5233 -1.6071  0.1831
 5021TIP3    H215070   2.713   0.458   2.117 -0.1000  1.6303  0.5693
 5022TIP3   OH215071   1.346   3.322   4.712  0.0702  0.2336 -0.0749
 5022TIP3    H115072   1.344   3.253   4.645  0.8101  0.5496 -0.4393
 5022TIP3    H215073   1.380   3.399   4.666 -0.3561  0.7351  0.4277
 5023TIP3   OH215074   3.314   5.449   1.776 -0.1032 -0.2693 -1.0445
 5023TIP3    H115075   3.331   5.482   1.864 -1.2686 -0.5972 -0.6802
 5023TIP3    H215076   3.297   5.528   1.724  2.6434  0.1235 -1.5247
 5024TIP3   OH215077   0.903   2.421   1.743  0.0802  1.2816 -0.3993
 5024TIP3    H115078   0.816   2.452   1.768 -0.6818 -0.1648 -1.1490
 5024TIP3    H215079   0.886   2.347   1.684  1.7686  3.0843 -3.4012
 5025TIP3   OH215080   1.307   5.570   0.532 -0.0969  0.0005 -0.2110
 5025TIP3    H115081   1.391   5.564   0.578  0.8043  1.6203 -1.5429
 5025TIP3    H215082   1.276   5.480   0.527  1.8052 -0.7061 -0.1258
 5026TIP3   OH215083   6.291   4.945   3.715  0.4387  0.3971 -0.0647
 5026TIP3    H115084   6.296   5.031   3.756  1.0692  0.5855 -0.5285
 5026TIP3    H215085   6.326   4.885   3.780 -0.3999  0.4246  0.4262
 5027TIP3   OH215086   2.152   4.447   0.661 -0.1079  0.0318 -0.6992
 5027TIP3    H115087   2.140   4.542   0.664  2.6909  0.4406  1.0229
 5027TIP3    H215088   2.067   4.411   0.687 -1.6451  1.9482 -2.6784
 5028TIP3   OH215089   1.525   4.782   3.329 -0.1388  0.0850 -0.4542
 5028TIP3    H115090   1.618   4.805   3.330 -0.4368  1.3282  0.6492
 5028TIP3    H215091   1.488   4.827   3.405 -1.4890 -1.1022 -0.3652
 5029TIP3   OH215092   1.574   4.277   0.986 -0.4841  0.2389  0.1232
 5029TIP3    H115093   1.510   4.271   1.057 -0.6904 -0.7772 -0.1388
 5029TIP3    H215094   1.524   4.310   0.912 -0.7672 -0.7399 -0.1361
 5030TIP3   OH215095   3.859   2.993   4.800 -0.3232  0.4037  0.0315
 5030TIP3    H115096   3.946   2.970   4.768 -0.4732  1.5940 -1.3741
 5030TIP3    H215097   3.872   3.015   4.892  0.7640  0.0425 -0.0223
 5031TIP3   OH215098   2.688   0.227   5.023  0.5113  0.1264  0.6790
 5031TIP3    H115099   2.596   0.255   5.022  0.5310  0.2115  1.0481
 5031TIP3    H215100   2.706   0.209   5.115  1.7032  2.9019  1.0837
 5032TIP3   OH215101   0.038   2.630   0.710 -0.3328  0.3825  0.0992
 5032TIP3    H115102   0.044   2.609   0.803  1.7215 -0.7903 -0.2417
 5032TIP3    H215103  -0.037   2.581   0.679  0.9183 -1.9314  0.5275
 5033TIP3   OH215104   5.424   2.711   0.662  0.0701  0.2843  0.0675
 5033TIP3    H115105   5.519   2.701   0.669  0.1100  1.5361  2.7961
 5033TIP3    H215106   5.388   2.645   0.722 -0.9718 -1.5443 -2.4021
 5034TIP3   OH215107   5.116   0.646   4.283  0.1010 -0.0588  0.5121
 5034TIP3    H115108   5.057   0.689   4.222  0.0332 -0.1681  0.5005
 5034TIP3    H215109   5.113   0.701   4.362 -0.9994 -0.7551  0.9723
 5035TIP3   OH215110   2.872   0.173   1.774  0.1712 -0.1184  0.1942
 5035TIP3    H115111   2.912   0.097   1.815 -2.9278 -1.0301  1.8888
 5035TIP3    H215112   2.840   0.141   1.689  1.7689  0.2920 -0.6118
 5036TIP3   OH215113   4.183   0.359   0.950 -0.1613 -0.5039 -0.1458
 5036TIP3    H115114   4.150   0.358   1.039  1.0782  0.8729  0.3834
 5036TIP3    H215115   4.233   0.441   0.944 -0.7033 -0.2530 -2.2812
 5037TIP3   OH215116   2.197   5.172   2.998  0.4214 -0.8343 -0.0773
 5037TIP3    H115117   2.244   5.220   3.066  1.0914  0.2599 -1.2582
 5037TIP3    H215118   2.105   5.198   3.010  0.6768  0.2084 -0.2378
 5038TIP3   OH215119   5.241   3.326   2.336 -0.4590  0.3020  0.6056
 5038TIP3    H115120   5.238   3.329   2.240 -0.3945  0.2437  0.6009
 5038TIP3    H215121   5.177   3.259   2.360  0.3680 -0.5542  0.5365
 5039TIP3   OH215122   2.721   2.775   3.787 -0.1034 -0.2347  0.0217
 5039TIP3    H115123   2.667   2.697   3.798  1.2759 -1.3229 -0.4835
 5039TIP3    H215124   2.673   2.830   3.726 -1.0935 -0.6998  0.3710
 5040TIP3   OH215125   0.501   4.813   4.104  0.5226 -0.1280  0.5734
 5040TIP3    H115126   0.417   4.860   4.098  1.1752  0.9297 -0.9899
 5040TIP3    H215127   0.482   4.725   4.071 -0.0332  0.0292  0.4656
 5041TIP3   OH215128   3.437   3.986   2.942  0.3142 -0.0026  0.3974
 5041TIP3    H115129   3.458   3.939   2.862  0.7602  3.4729 -1.7056
 5041TIP3    H215130   3.512   4.042   2.958 -1.7037  2.9209  0.4054
 5042TIP3   OH215131   0.436   3.519   1.911 -0.3869  0.1114 -0.1862
 5042TIP3    H115132   0.430   3.425   1.891 -0.6596  0.6464 -2.9536
 5042TIP3    H215133   0.496   3.523   1.985 -0.9988 -2.2901  0.5554
 5043TIP3   OH215134   1.516   2.377   4.377 -0.2899  0.1631 -0.3960
 5043TIP3    H115135   1.474   2.411   4.298 -0.5009  1.6210  0.3119
 5043TIP3    H215136   1.498   2.444   4.444  2.1188  0.2657  0.2272
 5044TIP3   OH215137   0.998   0.112   2.221 -0.1427 -0.3024  0.6955
 5044TIP3    H115138   0.908   0.141   2.207 -0.6949 -0.9721  2.5528
 5044TIP3    H215139   1.051   0.189   2.200 -0.8093 -0.7357 -3.3829
 5045TIP3   OH215140   0.338   5.496   2.646 -0.6366 -0.0182 -0.1331
 5045TIP3    H115141   0.315   5.580   2.686 -1.6194  0.2399 -1.1612
 5045TIP3    H215142   0.399   5.519   2.576 -0.5917 -0.1948 -0.1510
 5046TIP3   OH215143   3.814   4.325   0.169 -0.2658  0.4083  0.3241
 5046TIP3    H115144   3.885   4.382   0.198  0.5742  1.3006 -3.0547
 5046TIP3    H215145   3.853   4.237   0.169  0.0045  0.5208  0.8625
 5047TIP3   OH215146   1.598   3.200   0.926 -0.2961 -0.5726  0.6975
 5047TIP3    H115147   1.567   3.112   0.908  2.5591 -1.5406  0.0621
 5047TIP3    H215148   1.661   3.218   0.857  2.2853  0.2680  3.0998
 5048TIP3   OH215149   2.118   3.229   0.263  0.4603  0.2555 -0.3769
 5048TIP3    H115150   2.115   3.163   0.332  2.2293  1.3049  0.7962
 5048TIP3    H215151   2.041   3.283   0.277  0.5485  0.1647  0.4966
 5049TIP3   OH215152   1.995   3.561   3.314  0.4230  0.1467 -0.1206
 5049TIP3    H115153   1.946   3.598   3.242  1.5003 -1.3727 -1.7195
 5049TIP3    H215154   2.052   3.631   3.344 -1.4731  1.4252  0.6962
 5050TIP3   OH215155   2.476   5.744   4.271 -0.4533  0.4407  0.0251
 5050TIP3    H115156   2.558   5.747   4.319  0.0072 -0.1874 -0.6895
 5050TIP3    H215157   2.439   5.658   4.292 -0.3787  0.2720 -0.5104
 5051TIP3   OH215158   2.673   1.159   1.916 -0.1770  0.2011 -0.2253
 5051TIP3    H115159   2.760   1.127   1.938 -1.0703 -3.1170 -0.9851
 5051TIP3    H215160   2.631   1.177   2.000  0.1381 -1.5376  0.3461
 5052TIP3   OH215161   3.463   0.162   3.590  0.3232 -0.0309 -0.2142
 5052TIP3    H115162   3.541   0.150   3.644 -1.1696 -1.3210  1.7553
 5052TIP3    H215163   3.458   0.257   3.576  2.1372  0.0891 -0.2847
 5053TIP3   OH215164   4.941   5.756   1.966 -0.3070 -0.2648 -0.8064
 5053TIP3    H115165   5.026   5.772   2.006 -0.1777 -0.3831 -1.0319
 5053TIP3    H215166   4.905   5.842   1.947 -0.5244 -0.1987 -0.1068
 5054TIP3   OH215167   3.183   4.496   0.958  0.4312  0.0524 -0.1256
 5054TIP3    H115168   3.172   4.413   0.911  2.3672 -1.2216  1.5070
 5054TIP3    H215169   3.093   4.528   0.970 -0.4321 -2.0828 -0.3157
 5055TIP3   OH215170   1.796   4.314   1.933  0.0094 -0.7374 -0.1316
 5055TIP3    H115171   1.785   4.222   1.956 -0.7565 -0.2241  1.7259
 5055TIP3    H215172   1.849   4.351   2.003  1.7777 -0.0839 -1.7317
 5056TIP3   OH215173   2.870   2.045   0.349  0.4471 -0.4206  0.3895
 5056TIP3    H115174   2.800   2.077   0.291  1.6120  0.7103 -0.4447
 5056TIP3    H215175   2.928   1.995   0.291  0.4060 -1.2491  1.0527
 5057TIP3   OH215176   1.186   1.829   0.566  0.5584 -0.9829  0.2797
 5057TIP3    H115177   1.093   1.832   0.543  0.4728 -2.3243  0.3441
 5057TIP3    H215178   1.189   1.771   0.642  1.5139 -1.4263 -0.0873
 5058TIP3   OH215179   3.267   0.007   1.188  0.2301 -0.9638  0.3426
 5058TIP3    H115180   3.272   0.055   1.104  0.9470 -2.3959 -0.4746
 5058TIP3    H215181   3.285   0.074   1.254  1.7607 -0.1885 -0.7901
 5059TIP3   OH215182   4.605   5.888   3.669 -0.4587  0.0453  0.7353
 5059TIP3    H115183   4.599   5.848   3.756  1.2237  0.6157  1.1530
 5059TIP3    H215184   4.690   5.860   3.635 -0.4165  1.0819 -0.0702
 5060TIP3   OH215185   6.301   2.400   2.006 -0.0702 -0.1201  0.3305
 5060TIP3    H115186   6.379   2.395   2.061  0.7493 -1.4538 -0.8900
 5060TIP3    H215187   6.318   2.471   1.945  0.2772 -0.5347 -0.0569
 5061TIP3   OH215188   3.635   4.993   1.323  0.8753 -0.4911 -0.3146
 5061TIP3    H115189   3.549   4.958   1.345  0.8462 -1.2386 -1.5522
 5061TIP3    H215190   3.670   4.932   1.257  1.3604  1.0942 -1.5766
 5062TIP3   OH215191   4.179   1.291   5.119 -0.2432  0.1462 -0.2885
 5062TIP3    H115192   4.234   1.368   5.135  0.3267 -0.1887 -0.6122
 5062TIP3    H215193   4.190   1.272   5.026 -0.1118 -0.5254 -0.1419
 5063TIP3   OH215194   3.124   0.254   3.793 -0.2780  0.2609 -0.2299
 5063TIP3    H115195   3.053   0.308   3.827  0.2988  0.9349 -0.0584
 5063TIP3    H215196   3.113   0.170   3.837  0.2695  1.0192  1.4521
 5064TIP3   OH215197   6.255   4.131   4.447 -0.3116 -0.5257 -0.1971
 5064TIP3    H115198   6.188   4.109   4.382 -0.5745  1.8225 -0.7993
 5064TIP3    H215199   6.328   4.073   4.426 -0.5922 -0.2169 -2.2850
 5065TIP3   OH215200   4.423   2.009   0.925  0.2543  0.0514  0.2657
 5065TIP3    H115201   4.448   2.090   0.969  1.3049  0.1834 -0.5389
 5065TIP3    H215202   4.371   2.038   0.850 -0.6602 -0.1185  0.8148
 5066TIP3   OH215203   1.947   3.217   5.003 -0.2994 -0.1246  0.5076
 5066TIP3    H115204   1.934   3.191   4.911  1.0641 -1.1827  0.5808
 5066TIP3    H215205   2.004   3.293   4.999 -0.6477  0.1354  0.4621
 5067TIP3   OH215206   6.286   2.799   3.946  0.3628 -0.3688 -0.3836
 5067TIP3    H115207   6.361   2.756   3.987 -0.4332 -0.7521  0.7064
 5067TIP3    H215208   6.229   2.822   4.018 -0.0963  0.8855 -1.1144
 5068TIP3   OH215209   0.939   2.446   3.076  0.1685 -0.1846  0.3559
 5068TIP3    H115210   0.869   2.486   3.127  0.7845 -1.2753  2.1316
 5068TIP3    H215211   0.896   2.373   3.030 -0.3195  0.6037 -0.4674
 5069TIP3   OH215212   0.170   2.659   4.005 -0.6688  0.4647  0.1682
 5069TIP3    H115213   0.192   2.584   3.950  1.1210  1.1818 -0.1455
 5069TIP3    H215214   0.240   2.664   4.069 -1.4704  1.0911  1.0278
 5070TIP3   OH215215   5.730   4.800   3.765 -0.3748 -0.1402 -0.3570
 5070TIP3    H115216   5.689   4.781   3.681  0.6458  1.9317 -1.3909
 5070TIP3    H215217   5.816   4.759   3.759 -0.1473  0.3533 -0.4931
 5071TIP3   OH215218   0.543   3.174   0.680 -0.2342 -0.1337 -0.0193
 5071TIP3    H115219   0.469   3.125   0.714 -0.4852 -1.2414 -2.0781
 5071TIP3    H215220   0.508   3.261   0.662 -0.7322 -0.3115  0.0891
 5072TIP3   OH215221   2.289   1.505  -0.008  0.0765 -0.1833 -0.0278
 5072TIP3    H115222   2.318   1.476   0.079 -0.7629  0.0469  0.3395
 5072TIP3    H215223   2.278   1.425  -0.058 -0.3350 -0.3802  0.3743
 5073TIP3   OH215224   4.089   5.209   2.238 -0.2852  0.0650 -0.1039
 5073TIP3    H115225   4.165   5.151   2.233  0.1900  0.6730 -0.1216
 5073TIP3    H215226   4.127   5.297   2.235 -0.8594  0.4053  1.7363
 5074TIP3   OH215227   4.746   1.561   4.226  0.6757 -0.0173 -0.0664
 5074TIP3    H115228   4.703   1.613   4.295  0.7289  1.2485 -0.9577
 5074TIP3    H215229   4.678   1.502   4.195 -0.4553  1.8486 -1.3387
 5075TIP3   OH215230   0.105   0.442   4.699 -0.1037 -0.5639 -0.2719
 5075TIP3    H115231   0.100   0.356   4.658  1.2741 -0.8788  0.1779
 5075TIP3    H215232   0.198   0.458   4.709 -0.3090  1.2930 -0.9699
 5076TIP3   OH215233   3.005   0.573   2.015 -0.3018  0.0838  0.4006
 5076TIP3    H115234   3.055   0.504   1.973 -1.1967 -0.1097 -0.3817
 5076TIP3    H215235   2.949   0.527   2.078 -1.3663  0.0017 -0.5783
 5077TIP3   OH215236   3.688   4.356   2.473 -0.4454 -0.1155  0.0880
 5077TIP3    H115237   3.609   4.355   2.418 -0.2435 -1.3557 -0.2064
 5077TIP3    H215238   3.741   4.427   2.437 -1.4248  0.7606  0.3063
 5078TIP3   OH215239   2.853   1.311   3.510  0.2917 -0.4370  0.2191
 5078TIP3    H115240   2.848   1.312   3.414  1.5607  0.3067  0.1379
 5078TIP3    H215241   2.774   1.265   3.538 -1.4728  1.5920 -1.0877
 5079TIP3   OH215242   5.014   2.999   3.936  0.0736 -0.5662  0.1455
 5079TIP3    H115243   5.025   3.015   4.030  2.0572 -1.0136  0.0238
 5079TIP3    H215244   5.060   3.072   3.894 -0.3848 -0.6349 -0.4860
 5080TIP3   OH215245   3.035   0.647   0.427  0.2726 -0.7792  0.6738
 5080TIP3    H115246   2.967   0.625   0.492 -0.1362  0.4257  0.6663
 5080TIP3    H215247   3.115   0.610   0.464  0.3995  1.3370  2.7831
 5081TIP3   OH215248   4.950   1.325   2.458 -0.0736  0.6098  0.3458
 5081TIP3    H115249   4.933   1.337   2.551 -1.4336  0.2776  0.1580
 5081TIP3    H215250   4.930   1.410   2.418  0.3096  0.6924  0.3256
 5082TIP3   OH215251   3.649   4.624   1.408 -0.0787  0.1049  0.3819
 5082TIP3    H115252   3.744   4.627   1.421  0.2692 -1.2564 -1.3694
 5082TIP3    H215253   3.634   4.542   1.362 -2.1247  0.3156  0.5843
 5083TIP3   OH215254   2.930   2.933   3.426 -0.3636  0.1887 -0.4336
 5083TIP3    H115255   2.992   2.989   3.474 -0.2647  0.3695 -0.7653
 5083TIP3    H215256   2.890   2.992   3.362 -0.6098 -0.0133 -0.4649
 5084TIP3   OH215257   0.218   3.556   2.246  0.3076 -0.3925 -0.2455
 5084TIP3    H115258   0.269   3.633   2.272  0.3950 -0.3639 -0.4985
 5084TIP3    H215259   0.154   3.591   2.184  0.4314 -0.5474 -0.4594
 5085TIP3   OH215260   3.905   1.456   1.353 -0.1035 -0.2716 -0.2251
 5085TIP3    H115261   3.875   1.474   1.442  1.7191  0.2489  0.3317
 5085TIP3    H215262   3.826   1.460   1.300 -1.0920  0.4010  1.2213
 5086TIP3   OH215263   3.256   3.277   1.211 -0.4120 -0.4756  0.5348
 5086TIP3    H115264   3.220   3.365   1.217 -0.8139 -0.6548  0.8563
 5086TIP3    H215265   3.316   3.270   1.286  0.5377 -0.0719 -0.1784
 5087TIP3   OH215266   0.861   3.084   2.448 -0.3521  0.4985  0.0937
 5087TIP3    H115267   0.933   3.049   2.396 -1.1161 -0.7265 -0.1744
 5087TIP3    H215268   0.799   3.120   2.384 -1.1880 -0.8084  0.1291
 5088TIP3   OH215269   5.126   3.156   0.551  0.2427 -0.1017  0.7114
 5088TIP3    H115270   5.033   3.153   0.532  0.5535 -0.0103 -0.9752
 5088TIP3    H215271   5.144   3.073   0.596 -0.4491 -0.6214  0.0502
 5089TIP3   OH215272   1.381   2.637   0.709  0.0708  0.2854 -0.0571
 5089TIP3    H115273   1.465   2.656   0.752  0.0855  1.5102 -0.5819
 5089TIP3    H215274   1.339   2.573   0.767  2.2333 -2.0194 -0.8760
 5090TIP3   OH215275   2.588   0.521   4.435  0.5822  0.4749 -0.0227
 5090TIP3    H115276   2.579   0.612   4.463  1.1687  1.1007 -1.7213
 5090TIP3    H215277   2.498   0.487   4.435  0.2479  1.3271 -0.1987
 5091TIP3   OH215278   2.690   3.184   3.543 -0.3879 -0.5173 -0.2050
 5091TIP3    H115279   2.714   3.155   3.455 -1.5513  0.0697 -0.7530
 5091TIP3    H215280   2.629   3.117   3.575 -0.4729 -0.4020 -0.1216
 5092TIP3   OH215281   0.377   1.367   2.868  0.0687  0.2083  0.4881
 5092TIP3    H115282   0.420   1.283   2.887 -0.2115 -0.0371  0.0546
 5092TIP3    H215283   0.323   1.349   2.791  3.2276  1.7673 -2.3842
 5093TIP3   OH215284   5.844   2.029   4.726 -0.2650  0.1706 -0.6692
 5093TIP3    H115285   5.920   1.974   4.744  0.3217  0.5428 -1.9312
 5093TIP3    H215286   5.774   1.991   4.779  0.2955 -1.3575 -0.9938
 5094TIP3   OH215287   2.691   3.844   4.305 -0.7695 -0.0396  0.2222
 5094TIP3    H115288   2.748   3.814   4.376 -1.1314  0.0681  0.5632
 5094TIP3    H215289   2.737   3.819   4.225 -1.2116 -1.8450  0.4815
 5095TIP3   OH215290   1.254   5.326   0.853  0.2727 -0.0801 -0.3597
 5095TIP3    H115291   1.227   5.235   0.855 -0.2458  0.0808  1.0523
 5095TIP3    H215292   1.176   5.375   0.877  0.4663  0.7642 -1.3937
 5096TIP3   OH215293   1.726   0.834   3.055 -0.1130 -0.1856  0.7770
 5096TIP3    H115294   1.801   0.804   3.107 -0.5054 -0.7375  1.0492
 5096TIP3    H215295   1.678   0.753   3.035  1.2897 -0.3386 -2.5390
 5097TIP3   OH215296   2.261   5.842   0.780  0.2909  0.2174 -0.5933
 5097TIP3    H115297   2.340   5.809   0.822  0.9955  0.5114 -1.6607
 5097TIP3    H215298   2.283   5.847   0.687 -1.1296 -0.1351 -0.9779
 5098TIP3   OH215299   5.073   2.262   0.474 -0.0799 -0.3173  0.3141
 5098TIP3    H115300   5.063   2.225   0.386 -1.4244  1.4149 -0.3033
 5098TIP3    H215301   4.988   2.300   0.495  0.8761  1.3763  1.3822
 5099TIP3   OH215302   0.128   3.946   1.772 -0.1159 -0.4296  0.2301
 5099TIP3    H115303   0.133   3.862   1.817  0.3298 -0.9842 -0.8127
 5099TIP3    H215304   0.128   4.012   1.842 -1.3735 -1.3102  1.0992
 5100TIP3   OH215305  -0.018   3.874   4.164  0.3188 -0.6684 -0.1124
 5100TIP3    H115306   0.071   3.909   4.169  1.0772 -2.5947  0.7159
 5100TIP3    H215307  -0.028   3.849   4.072  0.8357 -0.9364 -0.0995
 5101TIP3   OH215308   0.989   2.800   1.836  0.2339  0.0991  0.4930
 5101TIP3    H115309   0.917   2.861   1.823  1.2960  0.9433 -2.1093
 5101TIP3    H215310   0.957   2.717   1.800 -0.3228 -0.2464  1.7403
 5102TIP3   OH215311   4.120   5.980   3.386 -0.4152 -0.2858  0.1076
 5102TIP3    H115312   4.131   5.952   3.477 -0.6248  0.3397  0.3295
 5102TIP3    H215313   4.203   5.956   3.344  0.3494  0.8926  0.8517
 5103TIP3   OH215314   5.045   2.822   0.595 -0.1492 -0.0619  0.4312
 5103TIP3    H115315   5.129   2.865   0.609  0.0097 -0.2617  0.1079
 5103TIP3    H215316   4.992   2.846   0.671 -0.0753  0.7405  0.2382
 5104TIP3   OH215317   5.222   2.952   3.048 -0.2986 -0.4974  0.0683
 5104TIP3    H115318   5.135   2.987   3.027 -0.0983  0.4838  0.7893
 5104TIP3    H215319   5.282   3.008   3.000 -0.0166 -0.4533  0.4687
 5105TIP3   OH215320   2.153   2.060   3.924 -0.0909  0.5350 -0.1916
 5105TIP3    H115321   2.059   2.076   3.936  0.3355  1.4673  2.9661
 5105TIP3    H215322   2.162   1.965   3.935 -0.4583  0.7171  2.3365
 5106TIP3   OH215323   2.309   4.531   0.978 -0.2945 -0.5339  0.3316
 5106TIP3    H115324   2.223   4.507   0.944 -0.1594 -2.0121  0.9590
 5106TIP3    H215325   2.346   4.589   0.911 -1.4434 -0.5058 -0.3134
 5107TIP3   OH215326   4.077   0.328   2.681  0.1683  0.1686 -0.1752
 5107TIP3    H115327   4.054   0.412   2.642  0.3262 -0.5279 -1.8800
 5107TIP3    H215328   3.994   0.291   2.711 -0.0456  0.4946 -0.3614
 5108TIP3   OH215329   5.900   5.324   1.308 -0.4174  0.1378  0.0553
 5108TIP3    H115330   5.982   5.281   1.285 -1.3964 -2.8400  1.5891
 5108TIP3    H215331   5.834   5.279   1.254 -1.2581  1.3949 -0.0039
 5109TIP3   OH215332   6.295   4.989   4.535 -0.3658 -0.1078  0.7478
 5109TIP3    H115333   6.331   4.976   4.447 -0.7714  1.0050  0.4001
 5109TIP3    H215334   6.233   4.917   4.546  1.9175 -2.0965  1.3745
 5110TIP3   OH215335   0.178   1.257   2.711 -0.7103 -0.2739  0.2339
 5110TIP3    H115336   0.135   1.339   2.735 -0.5761 -0.8039  2.4821
 5110TIP3    H215337   0.111   1.207   2.664 -2.0621 -0.4174  2.2329
 5111TIP3   OH215338   6.206   3.770   5.159  0.1589 -0.1776  0.1373
 5111TIP3    H115339   6.164   3.784   5.075 -1.0660 -0.5151  0.6734
 5111TIP3    H215340   6.153   3.702   5.201  0.5473  0.2220  1.3115
 5112TIP3   OH215341   6.184   2.026   2.480  0.6076  0.2839 -0.2554
 5112TIP3    H115342   6.159   1.939   2.448  0.3251  0.0045  0.6834
 5112TIP3    H215343   6.130   2.087   2.430 -2.0800 -0.2981  1.7086
 5113TIP3   OH215344   4.105   4.111   4.346  0.0611 -0.4914  0.2489
 5113TIP3    H115345   4.098   4.066   4.430  1.3625  0.4165  0.8790
 5113TIP3    H215346   4.165   4.058   4.295 -0.3460 -0.7810  0.0675
 5114TIP3   OH215347   5.916   4.799   3.991 -0.6669 -0.2437 -0.4464
 5114TIP3    H115348   5.926   4.893   4.002 -0.2246 -0.5052  1.9582
 5114TIP3    H215349   5.826   4.787   3.963 -1.7128  0.7720  2.1925
 5115TIP3   OH215350   5.204   5.779   0.175  0.7122 -0.2314 -0.3900
 5115TIP3    H115351   5.261   5.817   0.108  0.8466  2.0119  0.8987
 5115TIP3    H215352   5.263   5.758   0.248  0.1914  0.1894  0.1657
 5116TIP3   OH215353   2.341   2.779   3.810 -0.6384  0.6350  0.0451
 5116TIP3    H115354   2.316   2.694   3.846  0.4494 -1.0994 -2.9189
 5116TIP3    H215355   2.418   2.805   3.859 -1.0553 -0.0039  1.0705
 5117TIP3   OH215356   0.594   5.604   2.057  0.1260 -0.2243 -0.2986
 5117TIP3    H115357   0.642   5.598   2.140 -0.1911 -0.8905 -0.1518
 5117TIP3    H215358   0.654   5.569   1.991  0.5651  0.7680 -0.4385
 5118TIP3   OH215359   1.691   3.501   1.506  0.0614 -0.2319 -0.2434
 5118TIP3    H115360   1.729   3.537   1.426 -1.0652  1.1035 -0.2155
 5118TIP3    H215361   1.758   3.517   1.574  0.7296 -0.7429 -0.7682
 5119TIP3   OH215362   2.817   4.985   0.039 -0.0982  0.8626  0.0951
 5119TIP3    H115363   2.799   4.976  -0.055  1.0174 -1.1038  0.0094
 5119TIP3    H215364   2.777   4.908   0.078 -0.7398  1.7810  1.2939
 5120TIP3   OH215365   3.778   0.653   4.571  0.3712 -0.4530  1.0989
 5120TIP3    H115366   3.745   0.629   4.484  3.8516  1.1394 -0.8914
 5120TIP3    H215367   3.731   0.733   4.593  1.3921  0.7532 -0.7807
 5121TIP3   OH215368   1.503   1.733   2.017  0.4585  0.0004 -0.1673
 5121TIP3    H115369   1.590   1.697   2.036  0.7120  1.1630  1.0675
 5121TIP3    H215370   1.516   1.788   1.940  0.7480 -0.0455 -0.1517
 5122TIP3   OH215371   5.498   0.528   2.571  0.0630 -0.0265 -0.2260
 5122TIP3    H115372   5.518   0.621   2.557 -1.8095  0.4137 -0.1632
 5122TIP3    H215373   5.576   0.482   2.538  2.7766  1.6398  3.1421
 5123TIP3   OH215374   1.676   0.723   4.851 -0.0275  0.1260  0.4175
 5123TIP3    H115375   1.742   0.690   4.913  0.5522 -0.0062 -0.2603
 5123TIP3    H215376   1.608   0.657   4.851  1.4420 -1.5228 -1.4572
 5124TIP3   OH215377   4.532   1.464   4.546 -0.2068  0.3803 -0.0720
 5124TIP3    H115378   4.450   1.425   4.574 -1.3801  0.9399 -2.5094
 5124TIP3    H215379   4.573   1.494   4.628 -0.8990 -2.6044  1.5152
 5125TIP3   OH215380   6.116   5.174   4.787 -0.6121 -0.1487 -0.1762
 5125TIP3    H115381   6.026   5.154   4.812  0.1772 -1.9645  1.4836
 5125TIP3    H215382   6.133   5.116   4.712 -0.5863 -0.3465 -0.0163
 5126TIP3   OH215383   3.545   3.685   2.985  0.4542  0.4806 -0.0402
 5126TIP3    H115384   3.535   3.770   2.941 -1.5492 -0.3182 -1.2908
 5126TIP3    H215385   3.565   3.624   2.914  2.2183 -0.0945  0.8903
 5127TIP3   OH215386   5.585   4.818   3.533 -0.4905  0.5483 -0.3874
 5127TIP3    H115387   5.616   4.815   3.442 -1.8776  0.3964 -0.8784
 5127TIP3    H215388   5.555   4.908   3.545 -0.6430  0.4720 -0.1998
 5128TIP3   OH215389   3.819   1.737   3.497  0.1174 -0.0246  0.2929
 5128TIP3    H115390   3.806   1.684   3.575  0.0108 -1.2251 -0.5153
 5128TIP3    H215391   3.884   1.689   3.446  1.0065  1.3051  0.1332
 5129TIP3   OH215392   1.628   1.270   2.637 -0.4429  0.1496 -0.0518
 5129TIP3    H115393   1.713   1.259   2.595 -0.7485 -0.3179 -0.5761
 5129TIP3    H215394   1.641   1.339   2.702  0.4270 -0.1842  0.1367
 5130TIP3   OH215395   0.073   4.780   3.343  0.5848 -0.1705  0.8384
 5130TIP3    H115396   0.024   4.704   3.372  0.4667 -0.0776  0.8829
 5130TIP3    H215397   0.016   4.855   3.363  0.9540 -0.0227  1.3788
 5131TIP3   OH215398   2.694   1.409   2.130 -0.3516  0.3555 -0.1008
 5131TIP3    H115399   2.650   1.447   2.054 -1.0916  0.1993  0.2473
 5131TIP3    H215400   2.624   1.383   2.188  0.1077 -1.5657 -0.3324
 5132TIP3   OH215401   1.742   1.269   1.641 -0.6492  0.3736  0.3918
 5132TIP3    H115402   1.809   1.307   1.585  2.2068 -1.3092  2.3665
 5132TIP3    H215403   1.666   1.326   1.631  1.0647  2.4479 -1.9584
 5133TIP3   OH215404   5.414   1.048   0.511 -0.2067 -0.1317 -0.1721
 5133TIP3    H115405   5.473   1.076   0.581 -0.4270  0.8735 -0.3730
 5133TIP3    H215406   5.447   0.962   0.484  0.3687 -0.1644  0.6020
 5134TIP3   OH215407   3.114   5.076   1.489  0.2231 -0.3721  0.3291
 5134TIP3    H115408   3.117   5.056   1.582  1.3939  1.3158  0.6906
 5134TIP3    H215409   3.029   5.119   1.476  0.2884 -0.1197  0.7262
 5135TIP3   OH215410   3.414   1.304   2.891  0.1504  0.3617 -0.0873
 5135TIP3    H115411   3.409   1.400   2.891  1.1697  0.4211 -0.3257
 5135TIP3    H215412   3.497   1.285   2.935 -0.1639 -0.4208  0.1690
 5136TIP3   OH215413   3.443   1.036   4.040 -0.3049  0.0979  0.4952
 5136TIP3    H115414   3.538   1.040   4.038 -0.2972 -0.0189  0.6113
 5136TIP3    H215415   3.415   1.120   4.003 -0.1716 -0.3257 -0.5799
 5137TIP3   OH215416   3.342   2.730   1.743 -0.1542 -0.4728 -0.2316
 5137TIP3    H115417   3.278   2.732   1.814  0.1491  0.9260  0.0340
 5137TIP3    H215418   3.291   2.744   1.663 -0.3283 -0.6446 -0.1516
 5138TIP3   OH215419   3.428   3.990   5.100 -0.5433  0.3433  0.5384
 5138TIP3    H115420   3.372   3.992   5.022 -0.2843 -2.2520  0.1928
 5138TIP3    H215421   3.433   3.897   5.123  1.1001  0.8388  2.4230
 5139TIP3   OH215422   2.833   2.385   0.603 -0.6043 -0.2828  0.4817
 5139TIP3    H115423   2.810   2.453   0.541  0.9964 -1.2744 -1.3156
 5139TIP3    H215424   2.770   2.314   0.586  0.8642 -1.2421 -1.3315
 5140TIP3   OH215425   6.206   5.428   4.754 -0.3144  0.2772 -0.3207
 5140TIP3    H115426   6.159   5.345   4.766 -0.3544  0.4282  0.6420
 5140TIP3    H215427   6.298   5.402   4.746 -0.2844  0.1545  0.3408
 5141TIP3   OH215428   5.733   0.910   3.688 -0.7421 -0.4247 -0.0043
 5141TIP3    H115429   5.784   0.951   3.758  1.0195 -1.1794 -0.8010
 5141TIP3    H215430   5.798   0.873   3.629 -2.1625 -3.8328  0.3304
 5142TIP3   OH215431   3.319   3.177   2.632 -0.0388 -0.4701 -0.0299
 5142TIP3    H115432   3.391   3.168   2.570 -0.0943 -0.1351 -0.1476
 5142TIP3    H215433   3.306   3.089   2.668  1.7355 -0.1610  1.4658
 5143TIP3   OH215434   5.474   0.653   2.232  0.1912  0.1458  0.0893
 5143TIP3    H115435   5.498   0.674   2.322  1.2151 -0.7867  0.0598
 5143TIP3    H215436   5.435   0.566   2.237 -0.5743  0.4611 -0.2611
 5144TIP3   OH215437   5.406   2.261  -0.030 -0.2199 -0.6947 -0.1118
 5144TIP3    H115438   5.429   2.174   0.004  0.9939 -0.1517  0.5144
 5144TIP3    H215439   5.435   2.322   0.038 -1.0418  0.2049 -0.5547
 5145TIP3   OH215440   5.827   5.269   2.034 -0.3108 -0.1945  0.1366
 5145TIP3    H115441   5.832   5.194   2.092  0.6384  0.7280  1.3204
 5145TIP3    H215442   5.734   5.288   2.026 -0.6134 -1.9523 -0.8291
 5146TIP3   OH215443   5.812   2.382   0.587 -0.0056 -0.2034  0.2433
 5146TIP3    H115444   5.796   2.395   0.681 -2.6076 -0.2582 -0.1124
 5146TIP3    H215445   5.808   2.470   0.550  0.8194 -0.2035  0.1427
 5147TIP3   OH215446   4.973   3.375   3.430  0.0984 -0.0848  0.3314
 5147TIP3    H115447   5.014   3.376   3.343 -1.4618 -0.0357 -0.4427
 5147TIP3    H215448   4.886   3.414   3.416 -0.0094  0.3675  2.0208
 5148TIP3   OH215449   5.094   2.041   4.362 -0.8321  0.0483 -0.2127
 5148TIP3    H115450   5.124   1.952   4.381 -1.8665 -0.7053 -1.8334
 5148TIP3    H215451   5.110   2.051   4.268 -4.3570  0.0436 -0.9280
 5149TIP3   OH215452   1.714   0.197   1.129 -0.3719 -0.2804 -0.3503
 5149TIP3    H115453   1.671   0.161   1.052  0.8025  1.9042 -2.1568
 5149TIP3    H215454   1.767   0.269   1.095 -0.8329  1.6710  2.6789
 5150TIP3   OH215455   0.843   2.250   2.379  0.0937  0.0246 -0.0924
 5150TIP3    H115456   0.754   2.287   2.382  0.4513  0.8798  1.9703
 5150TIP3    H215457   0.872   2.264   2.290 -0.9543  1.9791 -0.1825
 5151TIP3   OH215458   1.779   5.952   0.742 -0.5490  0.2248 -0.4640
 5151TIP3    H115459   1.862   5.980   0.781 -0.9079 -0.4513  0.8532
 5151TIP3    H215460   1.776   5.998   0.658  0.7751  0.8934 -0.1870
 5152TIP3   OH215461   5.574   5.935   1.333  0.2338 -0.2179 -0.0420
 5152TIP3    H115462   5.560   5.942   1.239  0.1381 -0.3772 -0.0394
 5152TIP3    H215463   5.486   5.922   1.370  0.1698  0.6239  0.1414
 5153TIP3   OH215464   4.330   2.503   1.388 -0.1899 -0.5292 -0.3189
 5153TIP3    H115465   4.299   2.532   1.474 -2.7404  0.1057 -1.3505
 5153TIP3    H215466   4.275   2.551   1.326 -0.4532 -3.1415 -2.2561
 5154TIP3   OH215467   2.679   1.700   0.329 -0.1587  0.0805 -0.0554
 5154TIP3    H115468   2.678   1.713   0.234  1.3954 -2.1274 -0.4525
 5154TIP3    H215469   2.767   1.728   0.356  0.3605 -1.7376  0.2691
 5155TIP3   OH215470   4.369   5.646   3.739  0.5376  0.9176  0.1124
 5155TIP3    H115471   4.342   5.688   3.657 -3.1621 -2.2620 -0.5953
 5155TIP3    H215472   4.403   5.561   3.712 -0.6499 -0.1427  1.8088
 5156TIP3   OH215473   2.167   2.670   1.546  0.2523 -0.2825  0.8122
 5156TIP3    H115474   2.124   2.594   1.585 -0.2572  0.9079  2.7770
 5156TIP3    H215475   2.160   2.738   1.614 -2.1502  2.5539 -1.9193
 5157TIP3   OH215476   0.205   0.848   1.216  0.2972 -0.5771  0.1446
 5157TIP3    H115477   0.204   0.841   1.312  1.7001  1.6980  0.3938
 5157TIP3    H215478   0.142   0.918   1.197 -1.7249 -2.5271 -0.8723
 5158TIP3   OH215479   5.089   3.978   4.258  0.5544 -0.5625 -0.1822
 5158TIP3    H115480   5.068   4.071   4.251  0.9866 -0.2646  1.9246
 5158TIP3    H215481   5.033   3.936   4.192  0.3126  1.1524 -1.1403
 5159TIP3   OH215482   0.683   0.625   2.966  0.0268 -0.4375  0.2280
 5159TIP3    H115483   0.691   0.721   2.965  0.0838 -0.4421 -0.6318
 5159TIP3    H215484   0.589   0.608   2.958  0.0340 -0.4545  0.1793
 5160TIP3   OH215485   0.728   5.945   3.218  0.4154  0.0538  0.1400
 5160TIP3    H115486   0.770   5.986   3.142  0.7387 -0.8369 -0.1722
 5160TIP3    H215487   0.755   6.000   3.292 -0.4055  1.2977 -0.4465
 5161TIP3   OH215488   5.334   1.287   3.146  0.1882  0.3374  0.1529
 5161TIP3    H115489   5.427   1.266   3.141  0.0676 -0.7489  1.7637
 5161TIP3    H215490   5.314   1.286   3.239 -1.8961 -1.5549 -0.2399
 5162TIP3   OH215491   3.223   1.272   1.792  0.0604 -0.0904 -0.3366
 5162TIP3    H115492   3.179   1.210   1.851  1.6462 -1.3454 -0.3938
 5162TIP3    H215493   3.152   1.324   1.755 -1.1296 -0.3761  1.4152
 5163TIP3   OH215494   3.304   5.131   0.901 -0.5001  0.2588 -0.7637
 5163TIP3    H115495   3.270   5.145   0.989  2.9854  0.4602  0.7147
 5163TIP3    H215496   3.275   5.207   0.851  0.3870  1.9943  1.2408
 5164TIP3   OH215497   6.226   2.281   3.149  0.0082  0.3358  0.3448
 5164TIP3    H115498   6.277   2.202   3.131 -1.0253 -0.5997  1.3536
 5164TIP3    H215499   6.291   2.352   3.151  0.8414 -0.2932 -1.5484
 5165TIP3   OH215500   3.833   4.486   5.065 -0.2579  0.0248 -0.4592
 5165TIP3    H115501   3.851   4.474   5.158 -0.2909 -0.8847 -0.5648
 5165TIP3    H215502   3.906   4.539   5.033 -0.3442  0.5021  0.1159
 5166TIP3   OH215503   0.312   5.010   0.355 -0.6392  0.6856  0.6613
 5166TIP3    H115504   0.300   4.934   0.412  0.8140 -0.2816 -0.2471
 5166TIP3    H215505   0.226   5.024   0.316 -0.3016 -2.8677 -1.9002
 5167TIP3   OH215506   3.874   4.297   4.631 -0.0407 -0.0031 -0.2873
 5167TIP3    H115507   3.870   4.388   4.600 -0.2401  0.1912  0.2924
 5167TIP3    H215508   3.816   4.249   4.571  0.0241  0.2625 -0.5651
 5168TIP3   OH215509   5.204   3.779   0.602 -0.4833  0.4652  1.1694
 5168TIP3    H115510   5.224   3.758   0.694  0.8666  1.0607  1.0403
 5168TIP3    H215511   5.154   3.860   0.607 -1.9729 -0.4373  1.4475
 5169TIP3   OH215512   4.734   3.492   3.320  0.0255 -0.3175 -0.6548
 5169TIP3    H115513   4.767   3.557   3.258  1.2873 -0.1060  0.2099
 5169TIP3    H215514   4.679   3.543   3.381  0.0321 -0.2641 -0.6931
 5170TIP3   OH215515   4.087   2.220   0.983 -0.4928  0.6124 -0.1533
 5170TIP3    H115516   4.162   2.269   0.949 -0.4242  0.8092  0.2738
 5170TIP3    H215517   4.039   2.284   1.036  0.2985 -0.0972  1.5004
 5171TIP3   OH215518   4.520   5.706   4.228  0.5280 -0.7816 -0.2591
 5171TIP3    H115519   4.549   5.784   4.276  0.8544 -1.0268 -0.0485
 5171TIP3    H215520   4.425   5.705   4.238  0.5390 -0.5032 -0.1200
 5172TIP3   OH215521   5.228   5.767   1.952 -0.1997 -0.5771  1.0464
 5172TIP3    H115522   5.199   5.677   1.935  1.0446 -0.9968  1.0549
 5172TIP3    H215523   5.234   5.807   1.865  2.3763 -1.5272  0.7147
 5173TIP3   OH215524   0.056   1.094   0.455 -0.3023  0.2320 -0.2725
 5173TIP3    H115525   0.042   1.000   0.444 -0.2500  0.2199 -0.2347
 5173TIP3    H215526  -0.031   1.130   0.469 -0.2263  0.0673  0.6622
 5174TIP3   OH215527   0.964   1.790   3.093  0.0480  0.5510 -0.4985
 5174TIP3    H115528   0.992   1.698   3.091 -0.9992  0.2037  0.0036
 5174TIP3    H215529   1.031   1.836   3.043  0.2518 -0.5789 -1.3130
 5175TIP3   OH215530   3.775   4.785   0.843 -0.1109 -0.5828  0.0179
 5175TIP3    H115531   3.744   4.858   0.788  0.3857  0.5377  1.1668
 5175TIP3    H215532   3.728   4.797   0.926  2.0164  0.1246  1.1976
 5176TIP3   OH215533   5.177   4.621   3.814  0.0731  0.3462 -0.4133
 5176TIP3    H115534   5.215   4.573   3.741 -0.9447  1.4970 -1.7602
 5176TIP3    H215535   5.251   4.664   3.856  0.4112  2.0105 -2.5804
 5177TIP3   OH215536   5.862   0.911   5.042 -0.1573 -0.2116 -0.3692
 5177TIP3    H115537   5.887   0.849   5.111  0.2864  1.5330  1.1244
 5177TIP3    H215538   5.809   0.977   5.087  0.7870  1.4022 -1.5186
 5178TIP3   OH215539   3.148   1.930   1.982 -0.2495 -0.8479 -0.1497
 5178TIP3    H115540   3.161   2.024   2.000 -1.4207 -0.9927  1.6395
 5178TIP3    H215541   3.210   1.912   1.910  0.3128  1.1828 -0.2706
 5179TIP3   OH215542   5.970   2.673   1.890 -0.7535 -0.3041 -0.2322
 5179TIP3    H115543   5.954   2.737   1.959  0.6275 -0.7165  0.5076
 5179TIP3    H215544   6.043   2.710   1.839 -0.2535 -1.0475 -0.0723
 5180TIP3   OH215545   5.415   5.383   2.283 -0.2469  0.0304  0.0938
 5180TIP3    H115546   5.479   5.411   2.348  1.2798 -1.7322 -0.5675
 5180TIP3    H215547   5.364   5.462   2.264  0.8753  1.1707  1.5929
 5181TIP3   OH215548   4.625   1.167   3.906 -0.1170  0.2674  0.3666
 5181TIP3    H115549   4.651   1.075   3.902  1.3747  0.7049 -0.9470
 5181TIP3    H215550   4.548   1.174   3.849  1.4808  0.3169 -1.8904
 5182TIP3   OH215551   0.703   4.327   2.749 -0.4502 -0.5752 -0.0691
 5182TIP3    H115552   0.729   4.408   2.704  0.8473 -1.2887 -0.6673
 5182TIP3    H215553   0.610   4.339   2.768 -0.1039  1.4308  0.6636
 5183TIP3   OH215554   4.502   4.901   3.881 -0.4712  0.3440  0.1478
 5183TIP3    H115555   4.477   4.962   3.811 -0.5548 -1.8558 -1.8685
 5183TIP3    H215556   4.421   4.852   3.901  0.1596 -0.8631 -0.1604
 5184TIP3   OH215557   0.315   2.690   1.708  0.0074  0.1963 -0.4690
 5184TIP3    H115558   0.363   2.610   1.730 -0.2365  0.3022  0.4827
 5184TIP3    H215559   0.384   2.753   1.684  0.4601  0.6118  1.7131
 5185TIP3   OH215560   3.399   1.487   0.660  0.1173  0.2410  0.0634
 5185TIP3    H115561   3.397   1.406   0.609 -2.0876 -0.0899  0.5663
 5185TIP3    H215562   3.454   1.546   0.609 -0.9325 -0.5012 -2.0590
 5186TIP3   OH215563   3.235   1.339   2.527  0.1800  0.6282  0.3031
 5186TIP3    H115564   3.323   1.306   2.544  1.1709  3.4718  1.3753
 5186TIP3    H215565   3.178   1.262   2.531  2.3965 -1.0606  1.2168
 5187TIP3   OH215566   5.720   4.353   2.151 -0.0581 -0.2391 -0.1671
 5187TIP3    H115567   5.709   4.395   2.236 -0.1822  0.9025 -0.7335
 5187TIP3    H215568   5.811   4.324   2.150  0.8895  2.5178 -0.8349
 5188TIP3   OH215569   1.389   0.149   4.029  0.2143 -0.1003  0.2841
 5188TIP3    H115570   1.314   0.141   4.088  0.3533  2.8091  1.0215
 5188TIP3    H215571   1.465   0.148   4.087  0.4678  1.0440 -0.0126
 5189TIP3   OH215572   6.040   5.153   2.819 -0.0879 -0.7383  0.1757
 5189TIP3    H115573   6.104   5.212   2.780 -0.4071 -0.4047  0.1485
 5189TIP3    H215574   5.988   5.120   2.745  0.2962 -1.3163  0.1517
 5190TIP3   OH215575   0.584   2.809   4.333 -0.4230 -0.2213  0.3523
 5190TIP3    H115576   0.669   2.780   4.298  0.8148  1.8975  1.3827
 5190TIP3    H215577   0.537   2.728   4.351  0.2981 -1.4664 -2.6507
 5191TIP3   OH215578   3.438   4.111   3.547 -0.1276  0.7048 -0.3396
 5191TIP3    H115579   3.366   4.104   3.484 -0.5433 -0.4183  0.2425
 5191TIP3    H215580   3.424   4.039   3.608  1.8919  0.0139 -0.6098
 5192TIP3   OH215581   5.922   4.004   5.113  0.4426  0.4668  0.9194
 5192TIP3    H115582   5.978   3.951   5.057  1.4779  2.5837 -0.1706
 5192TIP3    H215583   5.862   4.048   5.053  0.3169  1.3313  1.6472
 5193TIP3   OH215584   3.157   2.817   0.049  0.2178  0.3632  0.0262
 5193TIP3    H115585   3.183   2.873   0.121 -1.6003  0.6399  0.5268
 5193TIP3    H215586   3.062   2.807   0.060  0.4799 -3.1870  0.2532
 5194TIP3   OH215587   1.477   0.721   0.256  0.1073  0.3693 -0.0435
 5194TIP3    H115588   1.406   0.762   0.305 -0.7501  1.4208 -2.0441
 5194TIP3    H215589   1.497   0.784   0.186  1.9587 -0.6004 -0.4531
 5195TIP3   OH215590   0.187   2.378   2.160  0.4583  0.0260 -0.3634
 5195TIP3    H115591   0.214   2.328   2.237 -0.1856 -2.3315 -1.5613
 5195TIP3    H215592   0.252   2.357   2.093  0.1954  0.8515 -0.8980
 5196TIP3   OH215593   0.999   3.466   3.352 -0.2707  0.3184  0.0227
 5196TIP3    H115594   0.943   3.397   3.318 -1.3061  0.9673  0.3717
 5196TIP3    H215595   1.038   3.429   3.431  0.8750 -0.6133 -0.9316
 5197TIP3   OH215596   0.617   2.616   3.950 -0.8813 -0.4200 -0.0468
 5197TIP3    H115597   0.620   2.521   3.950 -1.2188 -0.4400  0.6203
 5197TIP3    H215598   0.708   2.644   3.939 -0.0772 -0.8555  3.9059
 5198TIP3   OH215599   5.325   1.267   2.724  0.0506  0.2467 -0.2017
 5198TIP3    H115600   5.376   1.332   2.772 -1.0493  0.2717  1.0047
 5198TIP3    H215601   5.290   1.315   2.649  0.8633  0.5197 -0.4096
 5199TIP3   OH215602   1.075   1.779   1.382 -0.1830 -0.9530 -0.1321
 5199TIP3    H115603   1.135   1.812   1.315  0.1850 -2.0205 -0.3453
 5199TIP3    H215604   1.042   1.857   1.426 -0.6249 -0.2112 -1.7299
 5200TIP3   OH215605   2.960   0.709   3.052  0.1885  0.3017 -0.7634
 5200TIP3    H115606   2.941   0.631   3.000  0.2593 -1.1831  1.3385
 5200TIP3    H215607   3.031   0.682   3.111 -1.3552  1.1637  1.6435
 5201TIP3   OH215608   1.829   4.984   4.342 -0.2287 -0.0791 -0.0283
 5201TIP3    H115609   1.883   4.960   4.266 -0.3251  0.5544 -0.3029
 5201TIP3    H215610   1.752   4.927   4.335  0.1388 -0.5899  0.0488
 5202TIP3   OH215611   2.928   5.169   2.354  0.0518 -0.2996 -0.3367
 5202TIP3    H115612   2.901   5.253   2.317  0.2763 -0.0931 -0.0347
 5202TIP3    H215613   2.923   5.108   2.280 -1.8156 -0.4164 -0.1605
 5203TIP3   OH215614   3.693   1.293   3.017 -0.5283 -0.0432 -0.2951
 5203TIP3    H115615   3.789   1.292   3.013 -0.5363 -0.1792 -0.4792
 5203TIP3    H215616   3.672   1.357   3.085 -0.2813 -0.7267  0.4509
 5204TIP3   OH215617   0.274   1.739   4.680  0.4027  0.1403 -0.1188
 5204TIP3    H115618   0.317   1.659   4.650  0.8564  0.6825 -0.9616
 5204TIP3    H215619   0.343   1.789   4.722  0.2335  0.2992 -0.0273
 5205TIP3   OH215620   0.946   3.381   2.867  0.0540 -0.1690 -0.1434
 5205TIP3    H115621   0.871   3.412   2.917 -0.3487  0.3098 -1.0166
 5205TIP3    H215622   0.911   3.364   2.779  1.0067  0.3013 -0.6345
 5206TIP3   OH215623   4.192   0.469   2.094  0.1648  0.2292 -0.4157
 5206TIP3    H115624   4.144   0.401   2.046 -1.9734  0.5987  1.0770
 5206TIP3    H215625   4.278   0.430   2.111 -0.1697 -1.1531 -1.6342
 5207TIP3   OH215626   5.979   4.282   2.130  0.2537 -0.2615 -0.4882
 5207TIP3    H115627   6.009   4.211   2.186 -0.6315 -0.8712 -0.7701
 5207TIP3    H215628   6.059   4.330   2.107  0.8438 -1.0988 -0.2049
 5208TIP3   OH215629   4.567   0.887   3.308 -0.2250  0.3358  0.2902
 5208TIP3    H115630   4.661   0.891   3.295 -0.3156  2.4637 -0.0006
 5208TIP3    H215631   4.529   0.892   3.220 -0.6186 -0.2447  0.4188
 5209TIP3   OH215632   2.701   0.792   2.494 -0.5487 -0.5643 -0.0572
 5209TIP3    H115633   2.672   0.883   2.494 -0.7081 -0.6067  0.8111
 5209TIP3    H215634   2.796   0.796   2.484 -0.5177 -0.2829  0.3377
 5210TIP3   OH215635   4.791   4.145   2.601  0.3618 -0.0620  0.1118
 5210TIP3    H115636   4.718   4.178   2.548  0.1143  0.5491  0.8099
 5210TIP3    H215637   4.767   4.168   2.691  1.1777 -0.3195  0.4015
 5211TIP3   OH215638   0.256   0.200   0.130  0.2200 -0.2884 -0.2282
 5211TIP3    H115639   0.344   0.163   0.116  0.3443 -0.0996  0.0427
 5211TIP3    H215640   0.258   0.282   0.081  0.7751  0.5475  1.1336
 5212TIP3   OH215641   0.398   3.479   1.313 -0.1927  0.1855 -0.1449
 5212TIP3    H115642   0.404   3.562   1.360 -0.8298 -0.1499  0.5438
 5212TIP3    H215643   0.356   3.419   1.375  3.7601 -1.8364  0.9689
 5213TIP3   OH215644   3.074   0.638   3.998  0.0605  0.4754 -0.2869
 5213TIP3    H115645   3.017   0.686   4.058  1.4627  0.8670  0.7763
 5213TIP3    H215646   3.096   0.701   3.930 -1.8289 -0.0743 -1.4882
 5214TIP3   OH215647   1.439   5.319   1.067  0.2627  0.6407 -0.3786
 5214TIP3    H115648   1.371   5.357   1.123  0.6227 -0.5269  0.9176
 5214TIP3    H215649   1.395   5.305   0.983 -0.3377  2.2828 -0.3786
 5215TIP3   OH215650   2.443   0.252   0.780  0.5329  0.4354  0.2277
 5215TIP3    H115651   2.532   0.264   0.814  0.5354 -2.5146  1.5973
 5215TIP3    H215652   2.393   0.220   0.855 -1.2771  0.4402 -0.9139
 5216TIP3   OH215653   4.457   0.908   5.011  0.3371  0.0425  0.2618
 5216TIP3    H115654   4.369   0.941   5.028  0.2955  0.4235 -0.6321
 5216TIP3    H215655   4.515   0.979   5.037  0.2981  0.4062 -0.6022
 5217TIP3   OH215656   5.616   1.134   1.928  0.1412  0.0372  0.2801
 5217TIP3    H115657   5.607   1.041   1.946 -1.0157 -0.4101 -2.1844
 5217TIP3    H215658   5.693   1.141   1.872 -0.4399  0.3842 -0.4950
 5218TIP3   OH215659   0.670   0.182   2.418 -0.2285  0.1014  0.1092
 5218TIP3    H115660   0.635   0.258   2.371 -0.9099 -0.1201  0.2599
 5218TIP3    H215661   0.743   0.218   2.469  1.4959  0.0913 -2.1939
 5219TIP3   OH215662   3.058   5.812   2.594 -0.3320 -0.6211  0.1226
 5219TIP3    H115663   3.153   5.822   2.590 -0.4164 -0.0660 -0.9884
 5219TIP3    H215664   3.035   5.840   2.683  0.5179 -0.4977  0.3134
 5220TIP3   OH215665   5.192   4.367   2.655  0.2618  0.5455 -0.4690
 5220TIP3    H115666   5.135   4.436   2.623 -1.0869 -0.2419  0.1627
 5220TIP3    H215667   5.146   4.285   2.634 -0.4093 -0.0423  2.8145
 5221TIP3   OH215668   0.520   0.457   4.089 -0.1749 -0.1995 -0.5939
 5221TIP3    H115669   0.583   0.396   4.128 -1.6345 -0.8576  0.8564
 5221TIP3    H215670   0.533   0.538   4.139 -0.3721 -0.2973 -0.3798
 5222TIP3   OH215671   1.498   4.007   0.096  0.5428  0.1014 -0.2005
 5222TIP3    H115672   1.413   4.013   0.053  0.0185  0.0728  0.7957
 5222TIP3    H215673   1.512   4.093   0.135  1.9232  0.7642 -2.0320
 5223TIP3   OH215674   6.150   3.085   4.326  0.6984  1.3303  0.2985
 5223TIP3    H115675   6.188   3.169   4.353  0.9887  0.8146  1.5421
 5223TIP3    H215676   6.068   3.079   4.375  0.9089  0.6725  0.5704
 5224TIP3   OH215677   6.052   0.264   0.349  0.0890  0.2360 -0.5034
 5224TIP3    H115678   5.974   0.252   0.402  0.2726  1.8030  0.1613
 5224TIP3    H215679   6.019   0.288   0.262 -0.1753 -0.5517 -0.6298
 5225TIP3   OH215680   5.868   4.168   4.636  0.4184 -0.5848  0.1571
 5225TIP3    H115681   5.837   4.107   4.569 -0.4625 -0.5258  0.5044
 5225TIP3    H215682   5.856   4.255   4.597  0.2515 -0.5663  0.2501
 5226TIP3   OH215683   4.452   3.386   4.805 -0.0222  0.1436 -0.7778
 5226TIP3    H115684   4.506   3.363   4.881  0.8699  2.2767 -0.7007
 5226TIP3    H215685   4.512   3.379   4.731 -0.3445  0.0545 -1.0308
 5227TIP3   OH215686   0.800   1.914   0.028  0.0271 -0.4412  0.1177
 5227TIP3    H115687   0.840   1.866  -0.044 -0.6301 -0.3470 -0.3249
 5227TIP3    H215688   0.759   1.847   0.082  0.4095 -0.5010  0.3371
 5228TIP3   OH215689   1.727   0.356   3.972  0.6722  0.1134  0.0432
 5228TIP3    H115690   1.696   0.367   3.882 -0.2727 -0.0172  0.3364
 5228TIP3    H215691   1.687   0.429   4.019 -0.7433 -1.0898  0.8000
 5229TIP3   OH215692   0.114   0.220   0.375  0.0305  0.3017  0.0594
 5229TIP3    H115693   0.178   0.237   0.445 -0.0996 -0.4215  0.3590
 5229TIP3    H215694   0.166   0.225   0.295  0.1108  1.5230  0.1612
 5230TIP3   OH215695   0.768   0.778   1.236 -0.1040  0.2083  0.7447
 5230TIP3    H115696   0.821   0.822   1.170  0.4834 -0.2259  0.9153
 5230TIP3    H215697   0.678   0.795   1.210  0.1096 -0.4739 -0.5299
 5231TIP3   OH215698   5.951   0.835   3.528 -0.4492 -0.1203  0.7001
 5231TIP3    H115699   6.001   0.874   3.456 -0.7908  0.1236  0.5930
 5231TIP3    H215700   6.018   0.798   3.586 -0.1765 -0.3261  0.2538
 5232TIP3   OH215701   0.582   1.123   4.919 -0.0874  0.7017  0.2591
 5232TIP3    H115702   0.531   1.152   4.995 -1.1428 -1.3184  0.3966
 5232TIP3    H215703   0.557   1.031   4.908 -0.0226  0.9540 -2.5732
 5233TIP3   OH215704   3.862   4.327   1.061 -0.1649 -0.1748 -0.0075
 5233TIP3    H115705   3.918   4.363   1.130 -0.4580  0.1702  0.0533
 5233TIP3    H215706   3.848   4.400   1.001 -0.9202 -0.1309  0.2162
 5234TIP3   OH215707   3.549   1.436   2.153 -0.1746 -0.1079  0.2767
 5234TIP3    H115708   3.579   1.350   2.124  0.0995  0.3084 -0.7142
 5234TIP3    H215709   3.615   1.497   2.119 -1.9106  0.7943 -1.6691
 5235TIP3   OH215710   0.611   4.819   0.475 -0.1210 -0.2646 -0.4505
 5235TIP3    H115711   0.601   4.915   0.479 -2.6107 -0.4182 -1.2477
 5235TIP3    H215712   0.567   4.794   0.393 -1.8939 -2.3072  1.0115
 5236TIP3   OH215713   0.739   5.460   3.066 -0.3587  0.0227  0.5727
 5236TIP3    H115714   0.675   5.528   3.088 -0.1679  0.2849  0.3333
 5236TIP3    H215715   0.779   5.491   2.984 -1.2865 -1.0827 -0.3334
 5237TIP3   OH215716   0.741   1.169   1.170 -0.1098 -0.8721  0.4215
 5237TIP3    H115717   0.723   1.130   1.256  0.2390  0.4046  1.0920
 5237TIP3    H215718   0.811   1.231   1.186  0.0378 -0.6991 -0.8236
 5238TIP3   OH215719   6.072   5.400   1.527  0.3360  0.0310 -0.6259
 5238TIP3    H115720   6.022   5.369   1.452  1.4267  0.2809 -1.4690
 5238TIP3    H215721   6.005   5.435   1.587 -0.6141 -0.9113 -1.0936
 5239TIP3   OH215722   5.449   0.893   4.995  0.0021 -0.4190  0.0409
 5239TIP3    H115723   5.494   0.969   5.033 -0.8794 -0.0724  0.4173
 5239TIP3    H215724   5.391   0.931   4.929  0.6923 -0.9210 -0.8818
 5240TIP3   OH215725   2.375   0.044   0.551  0.3290 -0.0851  0.1660
 5240TIP3    H115726   2.427   0.089   0.485 -0.8573 -0.8365 -1.3348
 5240TIP3    H215727   2.404   0.082   0.634  1.8455  0.8976 -0.7652
 5241TIP3   OH215728   4.994   4.857   0.301  0.5299  0.1088  0.3781
 5241TIP3    H115729   4.954   4.769   0.304 -1.3342  0.8171 -1.2280
 5241TIP3    H215730   5.077   4.843   0.255  0.2371 -0.8120  0.0898
 5242TIP3   OH215731   2.701   5.631   0.818 -0.7037 -0.0578  0.7378
 5242TIP3    H115732   2.664   5.552   0.779  0.6828 -0.5954  0.4728
 5242TIP3    H215733   2.781   5.647   0.769 -1.0640  1.6512  0.6462
 5243TIP3   OH215734   3.571   5.562   4.483  0.1359  0.3608 -0.3582
 5243TIP3    H115735   3.516   5.484   4.475  0.5435  0.0642 -0.3142
 5243TIP3    H215736   3.639   5.536   4.545 -1.2549  1.6315  1.8471
 5244TIP3   OH215737   5.458   2.951   1.539 -0.7118  0.4261  0.1414
 5244TIP3    H115738   5.456   2.921   1.448  0.3992 -1.3860  0.6520
 5244TIP3    H215739   5.493   3.040   1.535  0.3431 -0.0154 -1.1423
 5245TIP3   OH215740   1.818   2.662   1.451  0.5291 -0.1290  0.2231
 5245TIP3    H115741   1.839   2.752   1.426 -1.2091  0.0756 -0.6188
 5245TIP3    H215742   1.723   2.659   1.453  0.5263 -2.1719 -0.5973
 5246TIP3   OH215743   2.025   3.436   4.486  0.0136  1.0465 -0.4681
 5246TIP3    H115744   2.069   3.509   4.442  0.8997  0.5415 -0.4397
 5246TIP3    H215745   2.084   3.413   4.559 -0.2640  0.3195 -0.4661
 5247TIP3   OH215746   4.216   2.355   3.380  0.2016  1.2188 -0.1376
 5247TIP3    H115747   4.268   2.421   3.426 -2.3355  1.4019  2.8413
 5247TIP3    H215748   4.211   2.281   3.441 -1.4843  0.4962 -1.0595
 5248TIP3   OH215749   5.104   2.312   4.179  0.2900 -0.1158 -0.6528
 5248TIP3    H115750   5.068   2.233   4.139  0.7185 -1.1746  0.9531
 5248TIP3    H215751   5.033   2.344   4.235  0.1061  0.6855 -1.3195
 5249TIP3   OH215752   4.423   2.250   1.083  0.2447 -0.0601  0.1251
 5249TIP3    H115753   4.361   2.205   1.141  0.0667 -1.7410 -1.2770
 5249TIP3    H215754   4.485   2.292   1.141 -1.2159  0.2293  1.5517
 5250TIP3   OH215755   5.275   1.958   4.859 -0.2123  0.6460  0.6385
 5250TIP3    H115756   5.310   1.927   4.942 -0.4926  0.7875  0.8095
 5250TIP3    H215757   5.351   1.991   4.811  0.3638 -1.6050 -0.1451
 5251TIP3   OH215758   3.916   5.349   2.901  0.0104 -0.2829 -0.2332
 5251TIP3    H115759   3.846   5.322   2.842  0.0781 -0.6250 -0.1587
 5251TIP3    H215760   3.992   5.360   2.844  0.4681 -2.0726 -0.0248
 5252TIP3   OH215761   4.679   3.621   2.696 -0.3790 -0.0284 -0.3364
 5252TIP3    H115762   4.735   3.629   2.619 -0.4493  1.6454 -0.2576
 5252TIP3    H215763   4.590   3.626   2.662 -0.4147  0.5093 -0.1740
 5253TIP3   OH215764   5.233   0.942   2.322  0.3188  0.0033  0.3948
 5253TIP3    H115765   5.234   0.909   2.412  0.5211 -0.8639  0.0817
 5253TIP3    H215766   5.232   1.037   2.332 -2.5462 -0.0330  1.3579
 5254TIP3   OH215767   1.759   5.815   2.806  0.3724  0.0087 -0.0295
 5254TIP3    H115768   1.828   5.781   2.749  0.2901  0.5202 -0.4449
 5254TIP3    H215769   1.688   5.838   2.746 -0.0453 -0.2388  0.3670
 5255TIP3   OH215770   5.635   2.413   2.722 -0.1190  0.0406  0.3257
 5255TIP3    H115771   5.710   2.433   2.778 -1.5029  2.0019  1.5920
 5255TIP3    H215772   5.604   2.328   2.754  0.4514  0.0797  1.0140
 5256TIP3   OH215773   0.039   0.909   0.944 -0.2704 -0.0198  0.3817
 5256TIP3    H115774   0.030   0.967   1.020  1.4509  2.3382 -1.0924
 5256TIP3    H215775   0.070   0.966   0.874  1.0188 -2.6538 -1.3404
 5257TIP3   OH215776   5.422   0.945   3.772 -0.6117  0.0658 -0.3339
 5257TIP3    H115777   5.433   1.017   3.834 -0.1584 -0.6099  0.4038
 5257TIP3    H215778   5.507   0.900   3.773 -0.6329 -0.0231 -1.3769
 5258TIP3   OH215779   2.038   3.072   4.207  1.0756 -0.0109 -0.3505
 5258TIP3    H115780   2.052   2.980   4.232  0.5787  0.3947  1.6279
 5258TIP3    H215781   1.945   3.076   4.185  1.2052 -0.0820 -0.9079
 5259TIP3   OH215782   5.530   0.790   2.518  0.8351 -0.1322  0.3289
 5259TIP3    H115783   5.501   0.881   2.524 -1.0167 -0.5931 -0.7794
 5259TIP3    H215784   5.610   0.793   2.465 -0.7889  0.6338 -2.2123
 5260TIP3   OH215785   1.303   5.689   2.276  0.1167  0.3579 -0.3241
 5260TIP3    H115786   1.249   5.671   2.199  1.1451  1.4025 -1.3313
 5260TIP3    H215787   1.381   5.634   2.264 -0.1922 -0.3160  0.5656
 5261TIP3   OH215788   4.767   0.626   4.221 -0.2899  0.0501 -0.0081
 5261TIP3    H115789   4.844   0.663   4.177 -0.3063  0.4803  0.3124
 5261TIP3    H215790   4.791   0.535   4.239  1.0195  0.7221  2.0231
 5262TIP3   OH215791   4.685   4.152   3.280  0.5616 -0.4061 -0.1571
 5262TIP3    H115792   4.592   4.151   3.255  0.8500 -1.2507 -1.2645
 5262TIP3    H215793   4.699   4.241   3.314 -0.7264 -0.3751  0.3722
 5263TIP3   OH215794   2.972   1.909   3.520 -0.2981  0.7228 -0.2132
 5263TIP3    H115795   2.997   1.822   3.488 -2.0808  0.3705 -0.7724
 5263TIP3    H215796   2.974   1.965   3.442 -2.0283  0.4739 -0.4833
 5264TIP3   OH215797   0.807   4.323   3.389 -0.6158 -0.6731  0.4899
 5264TIP3    H115798   0.854   4.377   3.453 -1.2402 -0.3743  0.7048
 5264TIP3    H215799   0.859   4.330   3.309 -0.9792  0.7254  0.3420
 5265TIP3   OH215800   0.239   0.396   3.349 -0.0325  0.1104 -0.0645
 5265TIP3    H115801   0.261   0.313   3.305 -2.1983 -0.2858 -0.4936
 5265TIP3    H215802   0.157   0.424   3.309 -0.7075  1.1268  1.8816
 5266TIP3   OH215803   0.629   2.415   2.109 -0.3218 -0.0826 -0.4501
 5266TIP3    H115804   0.719   2.403   2.080 -0.3266  0.0994 -0.5431
 5266TIP3    H215805   0.637   2.460   2.194 -0.3158 -0.3730 -0.2948
 5267TIP3   OH215806   1.411   3.660   2.797  0.1817  0.6942 -0.4040
 5267TIP3    H115807   1.370   3.662   2.883 -0.4148  0.1513 -0.6770
 5267TIP3    H215808   1.368   3.589   2.750  2.2873 -0.7856 -0.2719
 5268TIP3   OH215809   3.543   5.617   5.112 -0.9160 -0.0990  0.5203
 5268TIP3    H115810   3.551   5.525   5.086  0.2682  0.2749 -0.5170
 5268TIP3    H215811   3.633   5.647   5.120 -1.2968  1.0306  0.6581
 5269TIP3   OH215812   2.464   1.416   2.511  0.3625  0.6443 -0.0545
 5269TIP3    H115813   2.453   1.511   2.516 -0.7216  0.5127  0.2987
 5269TIP3    H215814   2.475   1.388   2.602 -0.2221  0.3342 -0.0770
 5270TIP3   OH215815   4.964   2.795   3.766 -0.4377  0.1741  0.5745
 5270TIP3    H115816   5.052   2.773   3.737 -0.8772 -0.5794 -0.2274
 5270TIP3    H215817   4.976   2.873   3.821  0.9166 -0.8828  1.8597
 5271TIP3   OH215818   5.154   0.534   0.551 -0.0841 -0.3273 -0.1554
 5271TIP3    H115819   5.159   0.491   0.637 -1.5922 -0.0171  0.1076
 5271TIP3    H215820   5.245   0.560   0.533  0.0586  1.0529  2.1258
 5272TIP3   OH215821   0.259   1.970   0.919  0.1178  0.3078  0.0885
 5272TIP3    H115822   0.278   2.049   0.868  2.2529 -0.2526 -0.1169
 5272TIP3    H215823   0.282   1.993   1.009 -0.3805  0.2624  0.2300
 5273TIP3   OH215824   5.235   1.888   3.398  0.2823  0.0072 -0.1977
 5273TIP3    H115825   5.175   1.923   3.332  0.4011 -1.6939 -1.2770
 5273TIP3    H215826   5.303   1.844   3.348  1.6476  0.6053  1.0432
 5274TIP3   OH215827   4.678   5.674   2.601 -0.4634  0.3278 -0.1569
 5274TIP3    H115828   4.706   5.676   2.509  2.1816 -1.3481  0.5005
 5274TIP3    H215829   4.644   5.585   2.613  0.4537  0.0977  0.7905
 5275TIP3   OH215830   2.384   4.586   0.587 -0.1912  0.2334  0.1576
 5275TIP3    H115831   2.342   4.663   0.548  0.4893  0.1947 -0.6971
 5275TIP3    H215832   2.313   4.523   0.599 -1.0702  1.5420  2.4156
 5276TIP3   OH215833   4.482   4.273   2.012 -0.2584 -0.5904 -0.4593
 5276TIP3    H115834   4.535   4.310   2.082  0.9013  0.3254 -1.7786
 5276TIP3    H215835   4.521   4.306   1.931 -1.5427 -1.6234 -1.5612
 5277TIP3   OH215836   2.110   1.744   4.613  0.3906  0.1146 -0.1787
 5277TIP3    H115837   2.199   1.775   4.630  0.6559  0.4697 -2.0058
 5277TIP3    H215838   2.119   1.684   4.539 -0.9452  0.5670 -0.7371
 5278TIP3   OH215839   0.917   5.911   0.939  0.2550 -0.4973 -0.4284
 5278TIP3    H115840   0.916   6.003   0.912 -1.2008 -0.3156  0.1751
 5278TIP3    H215841   1.010   5.887   0.936  0.7759  1.2290  0.2261
 5279TIP3   OH215842   0.546   4.241   0.062 -0.2086  0.2703 -0.1477
 5279TIP3    H115843   0.567   4.332   0.042  1.8825 -0.6638 -2.8384
 5279TIP3    H215844   0.624   4.193   0.037 -1.3258 -2.3397  1.0102
 5280TIP3   OH215845   5.367   4.213   1.180 -0.1323 -0.2656 -0.3319
 5280TIP3    H115846   5.298   4.192   1.117  1.0093 -1.7793 -1.1591
 5280TIP3    H215847   5.330   4.192   1.265 -0.1459 -2.7934 -0.8976
 5281TIP3   OH215848   2.707   0.681   0.967  0.5486 -0.2571 -0.4199
 5281TIP3    H115849   2.650   0.610   0.940  0.9760 -0.8317  0.1639
 5281TIP3    H215850   2.772   0.640   1.024  0.6662  0.6296  0.1104
 5282TIP3   OH215851   2.796   5.852   1.111 -0.2267 -0.0509  0.4432
 5282TIP3    H115852   2.750   5.918   1.058  0.9918  1.6023  1.3373
 5282TIP3    H215853   2.848   5.803   1.047 -0.2628  0.6231 -0.1196
 5283TIP3   OH215854   4.099   2.174   0.185 -0.1125  0.2046 -0.4424
 5283TIP3    H115855   4.041   2.227   0.130 -0.3734  0.4489  0.0582
 5283TIP3    H215856   4.168   2.145   0.126 -0.1549  0.8186 -0.8025
 5284TIP3   OH215857   0.563   2.812   5.171 -0.3865  0.3063 -0.1675
 5284TIP3    H115858   0.494   2.765   5.124 -1.3643  1.5979 -0.0890
 5284TIP3    H215859   0.523   2.896   5.194  0.4757  0.2301  1.8313
 5285TIP3   OH215860   0.612   3.332   2.000  0.0860 -0.2444  0.5002
 5285TIP3    H115861   0.615   3.239   2.023 -0.7348 -0.4002 -0.0058
 5285TIP3    H215862   0.606   3.377   2.085  2.0365 -0.5452  0.8562
 5286TIP3   OH215863   6.364   0.040   4.051 -0.0518  0.3544 -0.6180
 5286TIP3    H115864   6.313   0.043   4.132 -0.7396  1.7508 -1.0730
 5286TIP3    H215865   6.370  -0.054   4.030 -1.0810  0.0625  0.2830
 5287TIP3   OH215866   6.152   5.215   3.497  0.5112  0.2761  0.3212
 5287TIP3    H115867   6.221   5.198   3.561 -0.1742 -2.4362  0.4580
 5287TIP3    H215868   6.197   5.218   3.413  0.9485 -0.5377  0.5126
 5288TIP3   OH215869   0.748   4.590   3.863 -0.1643 -0.1765 -0.2507
 5288TIP3    H115870   0.840   4.617   3.858  0.0980 -1.2414 -1.8288
 5288TIP3    H215871   0.700   4.664   3.825  0.0528  0.2556  0.2985
 5289TIP3   OH215872   1.303   3.197   4.945 -0.2070  0.7164  0.4887
 5289TIP3    H115873   1.344   3.233   4.867 -1.3020  0.9896  0.0217
 5289TIP3    H215874   1.299   3.270   5.007 -0.7858  0.9285  0.2063
 5290TIP3   OH215875   0.263   4.034   1.519 -0.3662  0.1713  0.1136
 5290TIP3    H115876   0.326   4.093   1.560  1.1432 -3.0474  2.8754
 5290TIP3    H215877   0.212   3.999   1.592 -2.9545 -0.0684 -1.6892
 5291TIP3   OH215878   5.011   1.096   1.598  0.2926  0.2634 -0.2211
 5291TIP3    H115879   5.056   1.029   1.649  1.1462  2.4277  2.0876
 5291TIP3    H215880   5.077   1.129   1.537 -0.2018 -1.0762 -1.5399
 5292TIP3   OH215881   5.976   2.449   3.946 -0.3364 -0.2650 -0.1265
 5292TIP3    H115882   5.951   2.358   3.963 -1.8215  0.0821 -0.2950
 5292TIP3    H215883   6.020   2.478   4.026 -2.3235 -0.3164  1.0454
 5293TIP3   OH215884   3.338   1.578   2.933 -0.3167  0.1336 -0.1581
 5293TIP3    H115885   3.377   1.632   2.865 -0.1731  0.9229  0.5346
 5293TIP3    H215886   3.385   1.602   3.013 -1.9010  0.8190  0.6242
 5294TIP3   OH215887   4.395   4.059   0.744 -0.1645  0.0257  0.0201
 5294TIP3    H115888   4.443   4.067   0.662  1.2682 -1.3826  0.6732
 5294TIP3    H215889   4.439   3.988   0.791 -2.1811 -0.5525  1.1599
 5295TIP3   OH215890   5.995   4.603   1.303 -0.4686 -0.5124 -0.3248
 5295TIP3    H115891   5.954   4.689   1.316 -2.3521 -1.3212 -0.6668
 5295TIP3    H215892   5.930   4.552   1.256  1.6628 -1.3233 -2.6227
 5296TIP3   OH215893   2.901   1.595   3.194  0.2819  0.1315 -0.1378
 5296TIP3    H115894   2.917   1.517   3.142 -0.9483  0.6990 -1.4225
 5296TIP3    H215895   2.819   1.576   3.241  0.4799  0.2827  0.2693
 5297TIP3   OH215896   5.049   4.156   3.430 -0.3277  0.3159 -0.4472
 5297TIP3    H115897   5.014   4.159   3.519  0.1742  0.7386 -0.2583
 5297TIP3    H215898   5.135   4.115   3.439 -1.1773 -1.7223 -1.0597
 5298TIP3   OH215899   5.269   1.445   2.129 -0.0508  0.2210 -0.3453
 5298TIP3    H115900   5.348   1.394   2.112 -0.9905 -0.8006 -1.9497
 5298TIP3    H215901   5.287   1.531   2.092  0.8100  0.4633  0.5874
 5299TIP3   OH215902   1.607   0.208   1.562  0.0109 -0.2083  0.4185
 5299TIP3    H115903   1.603   0.133   1.622  1.5843 -0.5199  0.1732
 5299TIP3    H215904   1.674   0.265   1.600  1.4008 -0.6502 -1.2625
 5300TIP3   OH215905   1.739   5.811   3.872  0.7057  0.3146  0.1250
 5300TIP3    H115906   1.742   5.742   3.806  0.7127  0.4190  0.0184
 5300TIP3    H215907   1.808   5.872   3.848 -1.6589  2.3885 -1.9777
 5301TIP3   OH215908   2.001   0.095   2.284  0.2170 -0.2194 -0.7289
 5301TIP3    H115909   1.997   0.143   2.201  2.3495  0.4732 -0.4761
 5301TIP3    H215910   2.006   0.003   2.258 -0.5135 -0.1132 -1.3038
 5302TIP3   OH215911   2.810   3.665   3.384  0.4307  0.3948  0.0646
 5302TIP3    H115912   2.772   3.669   3.472  0.3029  1.8731 -0.0251
 5302TIP3    H215913   2.801   3.755   3.350 -0.3505 -0.3362 -1.8029
 5303TIP3   OH215914   4.684   0.469   3.196  0.0955 -0.0708  0.0693
 5303TIP3    H115915   4.621   0.496   3.129  1.1435 -1.6102 -1.6547
 5303TIP3    H215916   4.764   0.516   3.172  0.5025 -0.7029  0.1873
 5304TIP3   OH215917   2.900   5.267   3.555 -0.2250  0.0537 -0.3216
 5304TIP3    H115918   2.938   5.349   3.586 -0.7436  0.9105 -1.8646
 5304TIP3    H215919   2.949   5.199   3.602 -0.2108  1.2289  1.4425
 5305TIP3   OH215920   4.029   1.900   2.863  0.6181 -0.0951 -0.2961
 5305TIP3    H115921   4.010   1.967   2.929  0.0912  0.0352 -0.5751
 5305TIP3    H215922   4.082   1.835   2.910 -1.6678 -1.1784  0.9179
 5306TIP3   OH215923   5.897   3.168   1.254  0.2108 -0.3737 -0.4155
 5306TIP3    H115924   5.987   3.150   1.280 -0.1490 -2.8720 -0.6688
 5306TIP3    H215925   5.893   3.141   1.162 -0.7130  0.0444 -0.5050
 5307TIP3   OH215926   3.458   3.275   0.986 -0.3432  0.2846  0.2757
 5307TIP3    H115927   3.390   3.240   1.045 -0.0987  1.5441  1.3501
 5307TIP3    H215928   3.438   3.368   0.979  2.1334  1.0246  1.8934
 5308TIP3   OH215929   6.292   0.076   1.013 -0.4484  0.1344  0.0796
 5308TIP3    H115930   6.263  -0.000   1.063  1.6439 -0.7538  0.0283
 5308TIP3    H215931   6.284   0.149   1.074 -0.9114 -0.3901  0.6659
 5309TIP3   OH215932   4.948   0.263   0.860  0.2805  0.4078 -0.1639
 5309TIP3    H115933   5.028   0.309   0.838 -0.2691 -0.2466 -4.3432
 5309TIP3    H215934   4.878   0.317   0.823 -0.7486 -1.4153 -1.0157
 5310TIP3   OH215935   3.416   2.928   0.813 -0.6216  0.5440 -0.2760
 5310TIP3    H115936   3.394   2.857   0.753 -1.5328 -0.3839  1.1006
 5310TIP3    H215937   3.331   2.959   0.846 -0.1219  0.1730  1.4579
 5311TIP3   OH215938   5.518   4.663   0.245 -0.4596  0.1679 -0.3725
 5311TIP3    H115939   5.532   4.611   0.165 -2.1466  0.5486 -0.9750
 5311TIP3    H215940   5.469   4.604   0.302 -2.5374  1.0678 -1.1260
 5312TIP3   OH215941   1.033   3.153   4.918 -0.3051 -0.0938  0.1849
 5312TIP3    H115942   1.040   3.071   4.966 -0.8543  0.4668  1.2608
 5312TIP3    H215943   1.122   3.188   4.917 -0.3001 -0.0615  0.9234
 5313TIP3   OH215944   4.455   4.842   2.383  0.2916 -0.0597 -0.3414
 5313TIP3    H115945   4.471   4.930   2.417  0.5498  0.5660 -1.9592
 5313TIP3    H215946   4.521   4.830   2.315 -0.9235 -0.7270 -1.4641
 5314TIP3   OH215947   2.750   5.425   4.820 -0.0987  0.2300 -0.2888
 5314TIP3    H115948   2.843   5.432   4.837 -0.0970 -0.8090  0.2462
 5314TIP3    H215949   2.723   5.345   4.866 -2.0097  2.4316  2.7543
 5315TIP3   OH215950   0.253   5.480   1.218  0.3787 -0.3812 -0.3327
 5315TIP3    H115951   0.173   5.513   1.260  1.5570  1.6177  0.4818
 5315TIP3    H215952   0.221   5.426   1.146 -1.7114  0.1662  0.1094
 5316TIP3   OH215953   0.739   4.108   1.108 -0.0634  0.5078  0.1617
 5316TIP3    H115954   0.689   4.033   1.139 -0.5450  0.2313 -1.1891
 5316TIP3    H215955   0.827   4.095   1.142 -0.3789 -0.1759  0.7240
 5317TIP3   OH215956   5.538   2.909   1.015 -0.3803 -0.1422  0.2132
 5317TIP3    H115957   5.591   2.938   0.940  0.9918  0.3811  1.3383
 5317TIP3    H215958   5.451   2.895   0.979  0.5672 -1.3388 -1.7833
 5318TIP3   OH215959   0.353   5.546   3.978 -0.1755 -0.4764 -0.0968
 5318TIP3    H115960   0.403   5.478   4.024  0.0937 -0.6226 -0.5947
 5318TIP3    H215961   0.408   5.570   3.904  0.6001  1.6256  1.0769
 5319TIP3   OH215962   3.856   4.756   1.635 -0.5267 -0.2763  0.3801
 5319TIP3    H115963   3.904   4.732   1.556 -0.2408  1.9703 -0.2005
 5319TIP3    H215964   3.924   4.778   1.699 -0.7046  1.1831  0.1202
 5320TIP3   OH215965   0.410   0.281   1.776 -0.1905  0.0181  0.0388
 5320TIP3    H115966   0.407   0.249   1.866  1.9687 -0.2664  0.0769
 5320TIP3    H215967   0.443   0.370   1.783 -1.6149  0.6009 -0.3898
 5321TIP3   OH215968   0.278   1.728   0.785 -0.0544 -0.0480  0.8356
 5321TIP3    H115969   0.221   1.729   0.708  1.7531 -0.0811 -0.5486
 5321TIP3    H215970   0.245   1.800   0.839 -0.5712  0.8166 -0.5654
 5322TIP3   OH215971   3.462   3.938   1.903  0.3051  0.4264 -0.1778
 5322TIP3    H115972   3.550   3.903   1.889  1.2842  1.7254  2.1526
 5322TIP3    H215973   3.456   4.014   1.846  0.9267  0.6632  0.0666
 5323TIP3   OH215974   4.283   5.428   0.243 -0.0459  0.6867 -0.4308
 5323TIP3    H115975   4.262   5.342   0.208 -0.9239  0.5153  0.4603
 5323TIP3    H215976   4.378   5.432   0.241  0.1645 -1.2011  1.4788
 5324TIP3   OH215977   3.336   2.294   1.290 -0.5819  0.5365 -0.1556
 5324TIP3    H115978   3.423   2.311   1.256 -1.0676  1.8400 -0.7971
 5324TIP3    H215979   3.332   2.198   1.298  1.6330  0.5229  1.9346
 5325TIP3   OH215980   4.940   1.348   4.158  0.3339  0.1913 -0.2148
 5325TIP3    H115981   4.889   1.412   4.208  2.1736  3.9952 -2.7526
 5325TIP3    H215982   5.029   1.357   4.193  0.7953 -0.3125 -1.2413
 5326TIP3   OH215983   5.810   5.502   0.376  0.3706 -1.0659 -0.0875
 5326TIP3    H115984   5.723   5.467   0.355  0.3408 -1.1652  0.1915
 5326TIP3    H215985   5.837   5.453   0.454  0.7082 -1.0863 -0.2177
 5327TIP3   OH215986   5.955   3.288   4.518  0.3146  0.4508  0.2070
 5327TIP3    H115987   5.892   3.238   4.465  1.6088 -0.9853 -0.0445
 5327TIP3    H215988   5.925   3.275   4.608 -0.2384  0.4930  0.0344
 5328TIP3   OH215989   0.191   2.889   0.342  0.0072  0.2562  0.2590
 5328TIP3    H115990   0.278   2.897   0.304  0.1039  0.3005  0.4900
 5328TIP3    H215991   0.146   2.969   0.316 -0.6787 -0.6995 -1.6855
 5329TIP3   OH215992   2.035   4.966   4.540  0.2618 -0.4418 -0.1083
 5329TIP3    H115993   1.977   4.992   4.468 -1.4979  0.5311  1.5604
 5329TIP3    H215994   2.006   4.879   4.565  0.1079 -0.3174  0.1511
 5330TIP3   OH215995   2.053   2.423   3.752 -0.0474 -0.0603 -0.7425
 5330TIP3    H115996   2.117   2.460   3.813 -0.9199  2.6267 -1.3353
 5330TIP3    H215997   2.105   2.400   3.674  0.2719  1.9966 -1.1841
 5331TIP3   OH215998   3.768   2.281   3.400  0.4462  0.0477 -0.4634
 5331TIP3    H115999   3.821   2.335   3.458 -0.6997  0.3837  0.2907
 5331TIP3    H216000   3.696   2.337   3.373 -0.7375 -1.0481  0.2955
 5332TIP3   OH216001   5.325   1.245   4.606 -0.5265  0.0154  0.5279
 5332TIP3    H116002   5.253   1.302   4.579 -1.3138 -0.9701  0.4777
 5332TIP3    H216003   5.380   1.236   4.528 -0.7732  0.1455  0.3391
 5333TIP3   OH216004   2.703   2.435   3.546  0.1615  0.3942  0.8676
 5333TIP3    H116005   2.733   2.391   3.626 -0.4038  0.5978  1.1893
 5333TIP3    H216006   2.770   2.501   3.529  0.8678 -0.3797  0.5436
 5334TIP3   OH216007   2.682   2.291   4.226 -0.4550  0.5463 -0.5916
 5334TIP3    H116008   2.610   2.308   4.287 -0.1574 -0.3600  0.0235
 5334TIP3    H216009   2.707   2.378   4.193  0.6884  1.3172  2.0790
 5335TIP3   OH216010   0.537   5.435   0.936 -0.5812 -0.0885 -0.1156
 5335TIP3    H116011   0.519   5.363   0.996  0.4906  0.7217  1.2546
 5335TIP3    H216012   0.461   5.439   0.878 -0.7713 -2.1351 -0.0637
 5336TIP3   OH216013   3.877   4.719   0.028  0.2035 -0.0384  0.4298
 5336TIP3    H116014   3.791   4.713   0.068  1.1922  2.9095  3.4471
 5336TIP3    H216015   3.932   4.758   0.095  3.7948 -1.1485 -1.5995
 5337TIP3   OH216016   2.501   3.566   0.756 -0.2637  0.0450  1.0290
 5337TIP3    H116017   2.480   3.476   0.781 -1.3780 -0.1853 -0.5556
 5337TIP3    H216018   2.576   3.557   0.697 -1.4299 -0.0859 -0.5197
 5338TIP3   OH216019   5.818   1.057   0.510  0.2138 -0.3028  0.3300
 5338TIP3    H116020   5.790   1.039   0.420  1.3035  0.3949 -0.1783
 5338TIP3    H216021   5.909   1.028   0.512  0.4911  0.5725  0.9231
 5339TIP3   OH216022   3.280   3.280   4.865 -0.4981  0.2062 -0.1201
 5339TIP3    H116023   3.367   3.311   4.838 -1.3319  1.5334 -1.3896
 5339TIP3    H216024   3.271   3.194   4.824  0.2580 -0.0218  0.1619
 5340TIP3   OH216025   1.138   1.257   2.197  0.1885 -0.0491  0.2458
 5340TIP3    H116026   1.094   1.185   2.153  2.1787  0.0406 -2.0583
 5340TIP3    H216027   1.095   1.336   2.162  0.5166 -0.0223 -0.0950
 5341TIP3   OH216028   6.352   4.318   4.929 -0.2212 -0.5233  0.0881
 5341TIP3    H116029   6.304   4.259   4.870 -1.2002 -1.2199  1.5379
 5341TIP3    H216030   6.355   4.401   4.881 -1.0526 -1.0410 -0.9194
 5342TIP3   OH216031   0.040   5.369   3.377  0.0702 -0.1257 -0.9061
 5342TIP3    H116032   0.014   5.445   3.429 -0.4474  0.0436 -1.4042
 5342TIP3    H216033   0.103   5.322   3.433 -1.6303 -0.8091  0.5550
 5343TIP3   OH216034   0.069   3.703   1.090 -0.3659 -0.1688  0.2025
 5343TIP3    H116035   0.037   3.698   1.180  0.4699 -2.5052  0.4267
 5343TIP3    H216036   0.162   3.725   1.099 -0.6857  1.4725 -0.2153
 5344TIP3   OH216037   3.831   4.159   1.652  0.4565  0.6454  0.5082
 5344TIP3    H116038   3.816   4.235   1.708  0.3988  0.1574  1.1782
 5344TIP3    H216039   3.889   4.103   1.704 -1.1356 -0.7074  0.9311
 5345TIP3   OH216040   1.463   0.734   3.259 -0.7408 -0.4481 -0.7147
 5345TIP3    H116041   1.432   0.653   3.299 -0.5483 -0.4127 -0.4934
 5345TIP3    H216042   1.508   0.780   3.329  2.0744 -1.6515 -1.5583
 5346TIP3   OH216043   1.671   2.644   2.011 -0.3271  0.3372  0.1517
 5346TIP3    H116044   1.609   2.583   2.050 -0.5433 -0.6165 -1.5673
 5346TIP3    H216045   1.755   2.622   2.050 -0.6361 -0.1182  0.5754
 5347TIP3   OH216046   4.896   1.014   0.470 -0.2860 -0.2762  0.0954
 5347TIP3    H116047   4.923   0.924   0.491 -0.6872 -0.4149  0.0243
 5347TIP3    H216048   4.972   1.052   0.427  0.2337 -0.2711  0.9988
 5348TIP3   OH216049   0.551   5.752   4.217  0.3787  0.2174  0.3097
 5348TIP3    H116050   0.645   5.736   4.225  0.2193 -1.1630 -0.2542
 5348TIP3    H216051   0.529   5.805   4.293  1.3985 -0.5183  1.1507
 5349TIP3   OH216052   3.588   3.393   3.148 -0.4902  0.4299  0.1508
 5349TIP3    H116053   3.545   3.397   3.063 -0.8117  0.6917  0.3234
 5349TIP3    H216054   3.594   3.484   3.176  0.4482  0.4341 -0.0010
 5350TIP3   OH216055   1.246   0.760   0.428  0.0324  0.4529 -0.2383
 5350TIP3    H116056   1.181   0.814   0.383 -0.6630 -0.3170 -0.1665
 5350TIP3    H216057   1.197   0.685   0.461  1.2650 -1.1055 -1.7603
 5351TIP3   OH216058   4.275   0.408   3.536 -0.2370  0.9010 -0.0488
 5351TIP3    H116059   4.360   0.396   3.494  0.1270 -0.2072  0.9447
 5351TIP3    H216060   4.278   0.497   3.571  1.0269  0.4736  1.0358
 5352TIP3   OH216061   2.034   0.591   4.842  0.3333  0.4316 -0.3257
 5352TIP3    H116062   2.011   0.526   4.907  1.1647  0.5754  0.1338
 5352TIP3    H216063   2.097   0.649   4.887  1.5550  0.0537 -1.4788
 5353TIP3   OH216064   2.992   0.473   5.179  0.3249 -0.4509  0.1278
 5353TIP3    H116065   2.980   0.412   5.106  1.4546 -0.6802  0.1240
 5353TIP3    H216066   3.012   0.418   5.254  1.0779 -0.0996  0.1860
 5354TIP3   OH216067   3.543   5.159   2.162 -0.2352  0.1992 -0.4081
 5354TIP3    H116068   3.555   5.096   2.091  0.2056  1.0562 -1.1120
 5354TIP3    H216069   3.629   5.199   2.175  0.1049 -1.0513  1.7132
 5355TIP3   OH216070   2.223   5.451   3.183  0.3440 -0.1611 -0.1441
 5355TIP3    H116071   2.238   5.545   3.180  0.7128 -0.2273 -0.5832
 5355TIP3    H216072   2.309   5.413   3.162  0.0824 -0.5871 -0.4470
 5356TIP3   OH216073   5.858   0.102   0.689 -0.4876  0.5691  0.2986
 5356TIP3    H116074   5.834   0.038   0.757 -0.9276  0.3912 -0.0178
 5356TIP3    H216075   5.927   0.155   0.729 -1.3968  1.0850  1.2460
 5357TIP3   OH216076   0.376   2.836   1.354 -0.5876  0.0207 -0.5328
 5357TIP3    H116077   0.286   2.823   1.322 -0.2874 -0.0259 -1.3789
 5357TIP3    H216078   0.372   2.918   1.403 -1.4315 -0.7558  0.7523
 5358TIP3   OH216079   3.134   3.835   3.535 -0.2216 -0.4610 -0.3589
 5358TIP3    H116080   3.131   3.836   3.439  1.4577 -0.7092 -0.4331
 5358TIP3    H216081   3.065   3.896   3.561 -0.0836  0.3297 -1.7476
 5359TIP3   OH216082   5.075   0.338   2.283  0.4124  0.1924 -0.2928
 5359TIP3    H116083   5.088   0.313   2.192  0.7472  0.0632 -0.2128
 5359TIP3    H216084   5.129   0.416   2.294  0.7956 -0.0964 -0.0699
 5360TIP3   OH216085   2.946   2.330   3.010  0.1943  0.0772  0.1707
 5360TIP3    H116086   2.960   2.284   3.093  1.0599  0.1726  0.0915
 5360TIP3    H216087   2.860   2.370   3.019 -0.2429 -0.9115  0.5491
 5361TIP3   OH216088   4.825   3.475   0.447 -0.4340  0.5885  0.8309
 5361TIP3    H116089   4.877   3.408   0.402 -1.3250 -0.2766  1.0742
 5361TIP3    H216090   4.888   3.546   0.463  0.0504  0.6814 -1.2230
 5362TIP3   OH216091   1.536   1.680   1.178  0.1091  0.4534  0.0356
 5362TIP3    H116092   1.457   1.635   1.148  0.0060  0.0849  0.8503
 5362TIP3    H216093   1.607   1.619   1.159 -0.1621 -0.6863  2.3459
 5363TIP3   OH216094   2.970   3.405   3.601  0.1902  0.2885  0.1445
 5363TIP3    H116095   2.887   3.446   3.578  0.7024  1.1580 -0.2159
 5363TIP3    H216096   3.024   3.477   3.634  0.5031 -0.4183  1.2440
 5364TIP3   OH216097   5.737   2.576   3.372 -0.0252 -0.1143  0.4747
 5364TIP3    H116098   5.656   2.544   3.413  1.0978 -0.6667  2.4272
 5364TIP3    H216099   5.753   2.661   3.414 -1.4589  1.8432 -2.5941
 5365TIP3   OH216100   5.703   3.012   1.373 -0.0068 -0.1265 -0.1505
 5365TIP3    H116101   5.677   3.088   1.426  2.0399  0.2810  0.3609
 5365TIP3    H216102   5.765   3.047   1.310 -0.8365 -0.9998 -1.4929
 5366TIP3   OH216103   3.823   0.500   2.903 -0.2862  0.3014  0.0277
 5366TIP3    H116104   3.798   0.589   2.927  0.0310  0.0782  1.2473
 5366TIP3    H216105   3.815   0.497   2.808 -1.6424  1.2169  0.0931
 5367TIP3   OH216106   5.655   2.191   2.903  0.0548  0.1209  0.4056
 5367TIP3    H116107   5.684   2.105   2.871  0.8346  0.4451  0.2195
 5367TIP3    H216108   5.720   2.214   2.970  0.9997  1.4481 -0.9228
 5368TIP3   OH216109   0.167   3.821   0.347 -0.2779 -0.1345  0.3694
 5368TIP3    H116110   0.218   3.770   0.284  0.2214 -1.1959  1.6055
 5368TIP3    H216111   0.110   3.757   0.390 -0.3081  0.4978  1.2962
 5369TIP3   OH216112   1.072   3.037   0.329 -0.4423  0.1356  0.4835
 5369TIP3    H116113   1.027   3.002   0.252  1.0187  0.3440 -0.5231
 5369TIP3    H216114   1.021   3.114   0.354 -0.5462  0.4980 -0.7602
 5370TIP3   OH216115   3.908   4.178   2.558  0.2407  0.4485 -0.3327
 5370TIP3    H116116   3.921   4.120   2.483 -0.0222 -1.1793  0.8348
 5370TIP3    H216117   3.816   4.203   2.554 -0.3076 -1.3143  0.5656
 5371TIP3   OH216118   4.206   1.484   0.529  0.8236  0.1249 -0.1209
 5371TIP3    H116119   4.177   1.428   0.456  0.8772  0.5191 -0.4503
 5371TIP3    H216120   4.221   1.569   0.488 -1.3376  0.9761  0.7638
 5372TIP3   OH216121   5.287   2.830   3.285  0.0993 -0.2049  0.2651
 5372TIP3    H116122   5.259   2.874   3.205  1.5249 -0.4869 -0.4265
 5372TIP3    H216123   5.357   2.770   3.256  2.0634  1.1191  1.9579
 5373TIP3   OH216124   0.432   4.034   3.283  0.3537 -0.1439 -0.0753
 5373TIP3    H116125   0.507   4.015   3.339  0.7992  0.1873 -0.5506
 5373TIP3    H216126   0.401   3.948   3.255  0.0163 -0.3176  0.8156
 5374TIP3   OH216127   1.680   2.623   5.141  0.6743 -0.0174  0.5324
 5374TIP3    H116128   1.684   2.687   5.212 -0.2259  0.0887  0.4986
 5374TIP3    H216129   1.654   2.541   5.185  1.2406 -0.2277  0.4874
 5375TIP3   OH216130   3.878   5.804   4.613 -0.3482  0.1757  0.7132
 5375TIP3    H116131   3.872   5.889   4.658  0.8695  1.0108 -0.6477
 5375TIP3    H216132   3.867   5.825   4.521 -1.2504 -1.3281  0.4485
 5376TIP3   OH216133   5.279   0.708   3.428 -0.1278 -0.0621  0.0954
 5376TIP3    H116134   5.284   0.802   3.413  1.3986 -0.2372 -0.7084
 5376TIP3    H216135   5.251   0.699   3.519  0.3399  1.1884  0.3783
 5377TIP3   OH216136   1.966   5.869   0.182  0.1283 -0.0322 -0.3056
 5377TIP3    H116137   1.988   5.948   0.232  1.2968 -1.7065  2.0652
 5377TIP3    H216138   2.047   5.818   0.182 -0.0731 -0.5093 -3.3780
 5378TIP3   OH216139   3.475   0.063   5.083 -0.2456 -0.0496 -0.4892
 5378TIP3    H116140   3.522   0.119   5.145 -1.1286 -1.8850  1.9977
 5378TIP3    H216141   3.382   0.075   5.106 -0.8834  1.1068 -3.2123
 5379TIP3   OH216142   5.377   3.077   2.812  0.1402 -0.0022 -0.9545
 5379TIP3    H116143   5.370   3.122   2.728  1.4907 -0.2665 -1.2289
 5379TIP3    H216144   5.394   2.986   2.790  0.0795 -0.1594 -0.3856
 5380TIP3   OH216145   4.441   0.473   3.019 -0.1328 -0.1990 -0.1404
 5380TIP3    H116146   4.488   0.519   2.949  1.2183 -0.5986  0.4556
 5380TIP3    H216147   4.392   0.405   2.973 -0.3610  0.4089 -0.8186
 5381TIP3   OH216148   3.279   2.654   0.794 -0.1835 -0.3443 -0.1503
 5381TIP3    H116149   3.259   2.562   0.812 -1.8156 -0.3539 -1.7338
 5381TIP3    H216150   3.217   2.703   0.847 -1.9832 -0.2933 -2.1665
 5382TIP3   OH216151   5.405   3.864   1.480 -0.0931 -0.1490 -0.0508
 5382TIP3    H116152   5.391   3.847   1.573 -1.1825  0.6845 -0.0437
 5382TIP3    H216153   5.498   3.844   1.466 -0.0738 -0.9302  1.0601
 5383TIP3   OH216154   5.241   5.848   2.222  0.1390 -0.2986 -0.1107
 5383TIP3    H116155   5.241   5.829   2.128 -1.8425 -0.1077 -0.1901
 5383TIP3    H216156   5.254   5.942   2.228 -1.0218 -0.1210 -0.2709
 5384TIP3   OH216157   1.382   4.214   2.457  0.4000  0.2848  0.2024
 5384TIP3    H116158   1.458   4.171   2.497  0.4534  0.7710  0.6332
 5384TIP3    H216159   1.307   4.176   2.502  0.5014  1.5690  1.5220
 5385TIP3   OH216160   4.601   1.274   2.979 -0.0354 -0.1874 -0.2090
 5385TIP3    H116161   4.612   1.196   2.924  1.4857 -1.3598  1.6081
 5385TIP3    H216162   4.616   1.348   2.920 -2.2954 -1.1484 -2.1691
 5386TIP3   OH216163   4.303   4.105   2.158 -0.4386  0.1929  0.1438
 5386TIP3    H116164   4.313   4.145   2.244 -2.1362  0.4408  0.2596
 5386TIP3    H216165   4.366   4.150   2.102  1.1472 -0.4087  1.3666
 5387TIP3   OH216166   5.185   0.432   1.979  0.0966 -0.4287 -0.2520
 5387TIP3    H116167   5.103   0.386   1.963 -1.1272  1.5660 -0.0151
 5387TIP3    H216168   5.160   0.510   2.029  2.0645  0.4746 -0.5728
 5388TIP3   OH216169   6.028   3.691   1.045 -0.2923  0.2226 -0.7072
 5388TIP3    H116170   6.040   3.623   1.111 -0.0684 -0.3201 -1.3101
 5388TIP3    H216171   5.957   3.660   0.990  0.8689 -0.2873 -1.9547
 5389TIP3   OH216172   5.228   4.034   3.605 -0.2779  0.2946  0.2868
 5389TIP3    H116173   5.265   4.074   3.684  1.0652 -2.4318  1.1725
 5389TIP3    H216174   5.210   3.944   3.631 -2.0862 -0.0583 -1.8972
 5390TIP3   OH216175   3.909   4.848   1.178 -0.0724  0.2119  0.0887
 5390TIP3    H116176   3.937   4.894   1.099  1.9828  2.1758  1.8307
 5390TIP3    H216177   3.816   4.829   1.163 -0.3183  2.5260 -1.8573
 5391TIP3   OH216178   5.369   4.821   1.689 -0.1474 -0.0109 -0.2153
 5391TIP3    H116179   5.417   4.836   1.771  2.7823 -2.5257 -1.2837
 5391TIP3    H216180   5.410   4.743   1.651 -4.0870 -1.3758 -2.1763
 5392TIP3   OH216181   2.080   5.280   4.164 -0.0552 -0.6683 -0.2335
 5392TIP3    H116182   2.151   5.343   4.150 -0.9415  0.3796 -0.0761
 5392TIP3    H216183   2.031   5.314   4.238 -0.3186 -1.7656  0.1180
 5393TIP3   OH216184   1.878   1.071   4.478  0.2505 -0.2121  0.1373
 5393TIP3    H116185   1.874   1.001   4.543  0.8706 -1.3995 -1.0543
 5393TIP3    H216186   1.840   1.147   4.522 -0.2746 -1.2415  1.5285
 5394TIP3   OH216187   5.540   0.348   1.355  0.0122  0.3639  0.5627
 5394TIP3    H116188   5.488   0.395   1.421  0.3738 -0.0803  1.1708
 5394TIP3    H216189   5.625   0.393   1.355 -0.1059  0.5924  0.1350
 5395TIP3   OH216190   5.481   4.482   1.141 -0.0189  0.9137  0.3717
 5395TIP3    H116191   5.440   4.396   1.152 -0.1774  1.0046  0.4830
 5395TIP3    H216192   5.510   4.506   1.229 -0.0283  1.0041  0.3501
 5396TIP3   OH216193   6.039   1.543   1.684 -0.6350 -0.2798  0.1620
 5396TIP3    H116194   6.030   1.561   1.777 -1.0679 -2.0034  0.4900
 5396TIP3    H216195   6.127   1.575   1.661  0.6268 -2.2999  1.8229
 5397TIP3   OH216196   2.775   5.459   3.390  0.2354 -0.1702 -0.3111
 5397TIP3    H116197   2.806   5.419   3.471 -0.8099 -0.2010  0.0814
 5397TIP3    H216198   2.836   5.427   3.323  1.1598 -0.0662  0.4680
 5398TIP3   OH216199   2.964   3.023   4.295 -0.4720  0.8029 -0.1341
 5398TIP3    H116200   3.036   3.049   4.238 -1.5640  1.7182 -1.1578
 5398TIP3    H216201   2.997   3.035   4.384  0.7535  0.8261 -0.5791
 5399TIP3   OH216202   5.690   2.678   0.707  0.1719 -0.8704 -0.3328
 5399TIP3    H116203   5.677   2.683   0.802 -1.1113 -5.0423 -0.1042
 5399TIP3    H216204   5.780   2.708   0.694  0.6659 -0.9563  2.3028
 5400TIP3   OH216205   5.652   1.696   0.760  0.2356  0.3465  0.2082
 5400TIP3    H116206   5.737   1.685   0.804  0.5089  0.5216 -0.2757
 5400TIP3    H216207   5.600   1.621   0.791  0.7395 -0.0611  0.0928
 5401TIP3   OH216208   4.038   3.472   2.798 -0.0546  0.6917 -0.2665
 5401TIP3    H116209   3.951   3.441   2.823 -0.9600  2.9494 -0.4177
 5401TIP3    H216210   4.087   3.392   2.781 -2.1080 -0.6581 -0.2499
 5402TIP3   OH216211   3.643   2.131   2.776 -0.2704 -0.1962  0.4072
 5402TIP3    H116212   3.713   2.186   2.812 -0.1591 -1.5368  2.3684
 5402TIP3    H216213   3.567   2.190   2.771 -0.2270  0.1294  2.7171
 5403TIP3   OH216214   4.680   3.376   4.283  0.3504  0.2667  0.8484
 5403TIP3    H116215   4.657   3.459   4.326  0.5898  1.2784 -0.8881
 5403TIP3    H216216   4.711   3.320   4.355  2.4242  2.4708  1.8166
 5404TIP3   OH216217   4.217   1.310   0.749 -0.0248 -0.2927 -0.4560
 5404TIP3    H116218   4.216   1.367   0.672 -0.1258  0.1792 -0.1067
 5404TIP3    H216219   4.281   1.350   0.808  1.5048 -1.7004 -1.0756
 5405TIP3   OH216220   0.560   5.808   5.110  0.0176  0.2995  0.2299
 5405TIP3    H116221   0.591   5.760   5.187 -1.5242 -1.4159 -0.1336
 5405TIP3    H216222   0.491   5.865   5.144 -1.2915 -1.1083  0.0736
 5406TIP3   OH216223   2.048   0.134   1.209 -0.2537  0.1044  0.4241
 5406TIP3    H116224   2.004   0.139   1.125 -0.2678 -0.4408  0.3903
 5406TIP3    H216225   2.051   0.040   1.229 -0.6607  0.2507  1.2476
 5407TIP3   OH216226   5.160   5.121   1.645  0.6626 -0.2100 -0.3370
 5407TIP3    H116227   5.215   5.153   1.573  1.8634  1.7101  1.3155
 5407TIP3    H216228   5.222   5.089   1.710 -0.0981  1.6503  1.4253
 5408TIP3   OH216229   2.575   2.399   0.775  0.0837 -0.0111  0.5640
 5408TIP3    H116230   2.573   2.378   0.681  0.2262  1.0276  0.3124
 5408TIP3    H216231   2.484   2.412   0.798  0.1649  1.8310  0.0382
 5409TIP3   OH216232   5.153   5.106   3.076  0.0910  0.9046 -0.0620
 5409TIP3    H116233   5.237   5.108   3.030 -0.1888  0.4536 -0.6087
 5409TIP3    H216234   5.112   5.189   3.056  0.4627  1.1927  0.3309
 5410TIP3   OH216235   3.295   3.208   1.852  0.0578 -0.5200  0.5865
 5410TIP3    H116236   3.225   3.229   1.913 -0.1386  1.8760 -0.3468
 5410TIP3    H216237   3.252   3.202   1.767  0.9580  1.4143 -0.0750
 5411TIP3   OH216238   2.537   2.096   3.937 -0.5422  0.1738 -0.3485
 5411TIP3    H116239   2.501   2.044   3.865  0.0606  0.5016 -0.8970
 5411TIP3    H216240   2.539   2.037   4.011 -0.3780 -0.4171 -0.8215
 5412TIP3   OH216241   0.604   5.875   1.613 -0.3909 -0.3042 -0.0324
 5412TIP3    H116242   0.669   5.833   1.669 -0.2729 -0.8347 -0.5546
 5412TIP3    H216243   0.615   5.834   1.528  0.7160  1.8195 -0.9877
 5413TIP3   OH216244   0.798   3.856   3.297  0.6250 -0.5299  0.6504
 5413TIP3    H116245   0.769   3.878   3.208  1.4105  0.2425  0.5772
 5413TIP3    H216246   0.762   3.926   3.352 -0.5469 -1.4326  1.0894
 5414TIP3   OH216247   5.357   0.869   4.354 -0.0571  0.2509 -0.1720
 5414TIP3    H116248   5.335   0.850   4.445 -2.7279 -1.1572 -1.0005
 5414TIP3    H216249   5.310   0.949   4.334  0.5751  0.5915 -0.3377
 5415TIP3   OH216250   6.162   4.063   0.682  0.0837 -0.2288  0.3284
 5415TIP3    H116251   6.203   3.996   0.737  0.5078 -0.1036  0.1713
 5415TIP3    H216252   6.159   4.141   0.737  0.0566 -0.2400  0.3429
 5416TIP3   OH216253   5.294   3.953   0.166 -0.8257  0.3969 -0.0772
 5416TIP3    H116254   5.345   3.910   0.235 -1.0378 -0.3097 -0.3513
 5416TIP3    H216255   5.285   4.043   0.196  0.8520  0.6331 -0.1777
 5417TIP3   OH216256   4.337   3.941   4.280  0.0022 -0.0578 -0.2832
 5417TIP3    H116257   4.361   3.853   4.249 -1.2992 -0.6567  0.2917
 5417TIP3    H216258   4.406   3.998   4.248  1.4704 -1.4629  0.2675
 5418TIP3   OH216259   2.339   4.709   1.366 -0.0604  0.0185 -0.4967
 5418TIP3    H116260   2.252   4.713   1.405  0.8912 -0.5933  1.8920
 5418TIP3    H216261   2.361   4.800   1.345 -1.5101  0.0998 -1.7924
 5419TIP3   OH216262   5.819   3.303   2.508  0.3084 -0.0091 -0.3108
 5419TIP3    H116263   5.822   3.397   2.489  0.8176  0.0984  0.2844
 5419TIP3    H216264   5.908   3.282   2.536 -0.0600 -0.4554  0.5502
 5420TIP3   OH216265   4.593   1.644   1.364  0.1571 -0.0971 -0.1517
 5420TIP3    H116266   4.621   1.735   1.352  0.9636 -0.3354 -0.1426
 5420TIP3    H216267   4.513   1.636   1.312  0.9836  0.1715 -1.4932
 5421TIP3   OH216268   0.297   3.067   0.762  0.3772 -0.7271  0.2220
 5421TIP3    H116269   0.253   2.993   0.719 -1.4777 -0.1439  0.9810
 5421TIP3    H216270   0.272   3.143   0.710  0.8585 -0.4296  0.4223
 5422TIP3   OH216271   3.128   1.649   0.961 -0.2560 -0.0517 -0.2396
 5422TIP3    H116272   3.102   1.699   1.038  0.8504 -0.5446  0.4802
 5422TIP3    H216273   3.068   1.678   0.892 -1.3291  0.3274  0.8178
 5423TIP3   OH216274   1.451   3.964   0.613 -0.0301  0.2693  0.1505
 5423TIP3    H116275   1.401   3.966   0.695  0.4092 -0.5382  0.4507
 5423TIP3    H216276   1.521   4.028   0.626 -0.6001  0.9368 -0.0231
 5424TIP3   OH216277   3.182   1.949   0.884 -0.1571  0.0889 -0.3674
 5424TIP3    H116278   3.130   2.001   0.823 -0.2313 -0.4281 -0.7520
 5424TIP3    H216279   3.245   1.903   0.828  0.4145  0.3580  0.0474
 5425TIP3   OH216280   4.538   2.032   2.064 -0.2629  0.2161 -0.3699
 5425TIP3    H116281   4.557   2.064   2.152  1.0906  1.4547 -1.0517
 5425TIP3    H216282   4.530   1.938   2.074 -0.3510  0.3517  1.1071
 5426TIP3   OH216283   1.941   5.195   5.055  0.0495  0.1559 -0.3880
 5426TIP3    H116284   1.947   5.249   5.134  1.3207 -0.3006 -0.1525
 5426TIP3    H216285   2.013   5.133   5.063 -1.6932 -1.9636 -0.3993
 5427TIP3   OH216286   4.660   2.471   2.010  0.1664  0.1877  0.0429
 5427TIP3    H116287   4.674   2.561   1.979 -0.3807  0.6029  0.9664
 5427TIP3    H216288   4.733   2.422   1.973  0.0445  0.8485 -1.1233
 5428TIP3   OH216289   1.485   3.306   3.850 -0.0235 -0.0546 -0.2638
 5428TIP3    H116290   1.530   3.291   3.768 -1.0096 -1.6288 -0.5563
 5428TIP3    H216291   1.553   3.338   3.910  1.4474 -2.0406 -0.7664
 5429TIP3   OH216292   2.769   1.105   2.357  0.3087  0.3000 -0.3485
 5429TIP3    H116293   2.830   1.056   2.302  0.8212  1.4746 -0.8656
 5429TIP3    H216294   2.825   1.166   2.405 -0.2237 -0.1853  0.9100
 5430TIP3   OH216295   5.984   2.845   4.894  0.0579  0.5411 -0.1812
 5430TIP3    H116296   6.026   2.853   4.979  2.4987  0.7539 -1.3029
 5430TIP3    H216297   6.032   2.906   4.837  0.1419 -1.2883 -2.2327
 5431TIP3   OH216298   0.529   5.048   0.209 -0.2948 -0.2120  0.3058
 5431TIP3    H116299   0.467   5.005   0.269 -0.6270 -0.9920 -0.5697
 5431TIP3    H216300   0.517   5.002   0.126 -0.0589  1.0631 -0.4471
 5432TIP3   OH216301   5.229   5.450   3.555  0.1774 -0.2033 -0.1332
 5432TIP3    H116302   5.307   5.394   3.550  0.6274  0.5117 -3.4739
 5432TIP3    H216303   5.157   5.394   3.526  0.2241  0.2521 -1.1717
 5433TIP3   OH216304   6.025   5.084   0.570  0.2493 -0.4506  0.0349
 5433TIP3    H116305   5.936   5.075   0.535 -0.2584 -0.3956  1.2536
 5433TIP3    H216306   6.078   5.024   0.518 -0.4910 -0.4358 -0.7510
 5434TIP3   OH216307   4.578   0.943   0.947 -0.1267  0.7376 -0.0771
 5434TIP3    H116308   4.525   0.981   0.878  0.2889 -0.9103 -1.3583
 5434TIP3    H216309   4.515   0.911   1.011 -0.4984  3.8115  1.2993
 5435TIP3   OH216310   6.100   1.798   2.351 -0.5029 -0.0457  0.1019
 5435TIP3    H116311   6.054   1.722   2.387  0.7666 -1.0365 -0.2955
 5435TIP3    H216312   6.102   1.782   2.256  0.0176  0.3474  0.0440
 5436TIP3   OH216313   4.662   3.990   0.294 -0.3159  0.1003  0.6573
 5436TIP3    H116314   4.733   4.053   0.299  0.7837 -1.0229 -0.1246
 5436TIP3    H216315   4.706   3.905   0.290 -1.7480 -0.7505  1.9291
 5437TIP3   OH216316   5.168   5.997   5.022 -0.7572  0.2938 -0.3382
 5437TIP3    H116317   5.120   5.943   4.959 -0.9023 -0.2405  0.2211
 5437TIP3    H216318   5.191   5.937   5.093  0.6151  0.5648 -0.5223
 5438TIP3   OH216319   5.652   5.054   2.520  0.0434 -0.2448 -0.7009
 5438TIP3    H116320   5.584   5.004   2.563  0.1875 -0.6505 -0.9389
 5438TIP3    H216321   5.734   5.016   2.551  0.2724  1.9942  1.7314
 5439TIP3   OH216322   1.231   1.568   2.071 -0.0659 -0.2029 -0.1612
 5439TIP3    H116323   1.247   1.512   1.994 -0.7460 -1.8814  0.8598
 5439TIP3    H216324   1.318   1.587   2.106  0.2464  0.5037 -1.2688
 5440TIP3   OH216325   3.562   0.266   1.266 -0.4258  0.4215 -0.2447
 5440TIP3    H116326   3.581   0.354   1.300 -0.1422  0.0028  0.7182
 5440TIP3    H216327   3.534   0.217   1.343 -0.4751 -0.3694 -0.7620
 5441TIP3   OH216328   2.321   4.647   4.384 -0.2580  0.6099  0.3547
 5441TIP3    H116329   2.237   4.604   4.399 -0.8339  1.2167 -1.0145
 5441TIP3    H216330   2.374   4.581   4.340 -0.0031  0.2341  1.2000
 5442TIP3   OH216331   1.480   0.803   0.600  0.1010  0.1728  0.6679
 5442TIP3    H116332   1.479   0.771   0.690 -1.5734  0.0393  0.6326
 5442TIP3    H216333   1.409   0.756   0.556  1.1863 -0.1125 -0.8605
 5443TIP3   OH216334   3.690   2.039   2.498 -0.0541  0.7459  0.0735
 5443TIP3    H116335   3.622   1.976   2.476 -0.6005  1.1919  0.4297
 5443TIP3    H216336   3.674   2.059   2.591 -1.0128  2.6949 -0.4468
 5444TIP3   OH216337   4.768   0.286   4.334 -0.3806  0.0653 -0.4610
 5444TIP3    H116338   4.820   0.336   4.397  0.9700 -1.7001 -0.1090
 5444TIP3    H216339   4.683   0.276   4.375  0.1163 -0.0363  0.5623
 5445TIP3   OH216340   2.055   3.648   2.546 -0.5463 -0.3502 -0.2320
 5445TIP3    H116341   2.097   3.662   2.462 -0.2512 -1.3746 -0.2715
 5445TIP3    H216342   2.086   3.562   2.575 -1.0885 -0.2693  0.6520
 5446TIP3   OH216343   5.057   4.186   1.536 -0.2165  0.2129  0.0964
 5446TIP3    H116344   4.991   4.119   1.555  0.9359 -0.6577  1.1508
 5446TIP3    H216345   5.133   4.138   1.506  0.1366  1.1701 -0.5940
 5447TIP3   OH216346   3.014   4.374   4.826 -0.1470  0.4494  0.5070
 5447TIP3    H116347   3.067   4.383   4.905 -0.9246  0.9479  0.9797
 5447TIP3    H216348   3.040   4.448   4.771 -1.5053  1.6660  1.4350
 5448TIP3   OH216349   2.176   0.436   1.053 -0.0064  0.1475 -0.5942
 5448TIP3    H116350   2.152   0.513   1.002  0.4718  1.8493  1.5559
 5448TIP3    H216351   2.194   0.471   1.141  0.6990 -2.3725  0.3501
 5449TIP3   OH216352   3.581   4.063   4.706  0.4480 -0.0459 -0.5955
 5449TIP3    H116353   3.659   4.104   4.742  0.4695  0.1770 -0.8911
 5449TIP3    H216354   3.581   3.974   4.742 -0.5421  0.7301  1.4651
 5450TIP3   OH216355   3.886   2.120   1.973  0.2458  0.0164  0.7082
 5450TIP3    H116356   3.950   2.131   2.043  0.0884 -0.0889  0.8666
 5450TIP3    H216357   3.880   2.206   1.932  0.5821 -0.0018  0.6134
 5451TIP3   OH216358   4.825   1.087   4.660  0.7123  0.6190  0.1059
 5451TIP3    H116359   4.878   1.077   4.739  0.5897  0.1676  0.1322
 5451TIP3    H216360   4.889   1.096   4.589  0.8584  2.6283  0.4167
 5452TIP3   OH216361   3.829   0.711   3.369 -0.0742 -0.5740 -0.5133
 5452TIP3    H116362   3.892   0.642   3.347  1.9451 -0.2031  3.2702
 5452TIP3    H216363   3.752   0.664   3.401  0.2928 -1.0595 -0.3383
 5453TIP3   OH216364   1.577   4.631   0.288 -0.6785  0.7915  0.1241
 5453TIP3    H116365   1.632   4.559   0.256 -1.0528  0.8625 -0.7089
 5453TIP3    H216366   1.633   4.678   0.350  0.0620  0.6134 -0.3958
 5454TIP3   OH216367   1.743   3.519   4.548 -0.0225 -0.0964  0.5763
 5454TIP3    H116368   1.743   3.545   4.456 -0.8499 -0.3272  0.5033
 5454TIP3    H216369   1.834   3.495   4.566  0.2002  0.2166 -0.1009
 5455TIP3   OH216370   2.897   1.841   0.586  0.7134  0.5505 -0.0920
 5455TIP3    H116371   2.908   1.899   0.510  0.4224 -1.3909 -1.7086
 5455TIP3    H216372   2.982   1.798   0.596  0.7950  0.8971  0.8214
 5456TIP3   OH216373   1.637   2.825   0.456  0.0493  0.2890  0.0709
 5456TIP3    H116374   1.543   2.810   0.465  0.0954 -0.3105 -0.4441
 5456TIP3    H216375   1.661   2.786   0.372  0.3083  2.6052 -1.0345
 5457TIP3   OH216376   3.190   1.519   5.119 -0.4383  0.1111  0.0785
 5457TIP3    H116377   3.214   1.428   5.137 -2.4075 -0.5058 -0.1261
 5457TIP3    H216378   3.273   1.563   5.100  0.3780 -2.2530 -2.6054
 5458TIP3   OH216379   0.744   5.450   2.236 -0.1536 -0.4420 -0.0267
 5458TIP3    H116380   0.760   5.374   2.292 -0.3161 -0.0631  0.5478
 5458TIP3    H216381   0.761   5.419   2.147  1.5596 -0.6828  0.3413
 5459TIP3   OH216382   0.633   2.828   3.158 -0.2625  0.3131 -0.6293
 5459TIP3    H116383   0.596   2.906   3.199  1.1312  0.3329  0.7019
 5459TIP3    H216384   0.660   2.856   3.071 -2.2050  0.5941 -1.1638
 5460TIP3   OH216385   0.184   0.441   4.404  0.2671 -0.3723 -0.8201
 5460TIP3    H116386   0.141   0.526   4.391  0.2344 -0.1284  0.6757
 5460TIP3    H216387   0.236   0.453   4.484  1.6078 -1.2486 -1.5328
 5461TIP3   OH216388   0.805   0.360   3.923 -0.0001 -0.0276 -0.8790
 5461TIP3    H116389   0.865   0.406   3.982 -0.1540 -1.1552  0.2024
 5461TIP3    H216390   0.836   0.269   3.924 -1.8115 -0.6890 -0.1144
 5462TIP3   OH216391   5.958   4.227   2.570 -0.3379 -0.0559  0.3182
 5462TIP3    H116392   5.943   4.142   2.529  1.9427  0.0213 -0.8461
 5462TIP3    H216393   5.906   4.225   2.650 -2.2924 -1.5536 -0.8978
 5463TIP3   OH216394   1.707   3.901   3.237  0.3395  0.5347 -0.2912
 5463TIP3    H116395   1.615   3.926   3.245 -0.1181 -0.8421 -1.0739
 5463TIP3    H216396   1.728   3.860   3.321 -0.2566 -0.6582 -0.7059
 5464TIP3   OH216397   1.018   3.894   1.949  0.1408  0.1653 -0.3463
 5464TIP3    H116398   0.971   3.824   1.995  0.0386 -0.0659 -0.7911
 5464TIP3    H216399   1.098   3.907   2.000 -1.3780  2.1174  1.7481
 5465TIP3   OH216400   6.351   2.548   4.466 -0.1405  0.6376  0.6467
 5465TIP3    H116401   6.426   2.595   4.429 -0.7586  2.1171  1.2209
 5465TIP3    H216402   6.278   2.610   4.460 -0.8498 -0.0290  1.9872
 5466TIP3   OH216403   0.151   1.280   0.997  0.0199  0.4972  0.0606
 5466TIP3    H116404   0.168   1.368   0.964  0.4047 -0.1646 -1.5566
 5466TIP3    H216405   0.224   1.263   1.057  0.1482  1.1108  0.0903
 5467TIP3   OH216406   1.930   3.914   2.201 -0.3580  0.0005 -0.0011
 5467TIP3    H116407   1.886   3.917   2.286  1.3497 -0.4587  0.9632
 5467TIP3    H216408   1.918   3.824   2.171 -1.6984  0.3887 -0.6916
 5468TIP3   OH216409   0.008   0.125   4.621  0.3581  0.0003 -0.2183
 5468TIP3    H116410   0.080   0.124   4.684  0.8821  0.4376 -0.8011
 5468TIP3    H216411  -0.065   0.165   4.669  0.7266  0.2472  0.1415
 5469TIP3   OH216412   4.840   2.100   4.532  0.5076  0.6865  0.0688
 5469TIP3    H116413   4.930   2.070   4.543  0.1616  0.2010  1.9656
 5469TIP3    H216414   4.836   2.182   4.582 -0.1984  0.4851  0.3550
 5470TIP3   OH216415   1.405   5.974   1.723  0.2539  0.2183 -0.1272
 5470TIP3    H116416   1.406   5.987   1.818  1.3764  2.2793 -0.3693
 5470TIP3    H216417   1.321   5.931   1.706 -0.9390  1.7106  1.5810
 5471TIP3   OH216418   1.685   5.907   1.930  0.4418 -0.1734 -0.2459
 5471TIP3    H116419   1.705   5.997   1.902 -0.8140 -0.3149 -1.7786
 5471TIP3    H216420   1.733   5.852   1.869 -1.3815 -0.4998 -1.4642
 5472TIP3   OH216421   1.000   3.949   0.765 -0.5223  0.3212  0.6735
 5472TIP3    H116422   0.965   3.940   0.677  0.7434  1.3100  0.0483
 5472TIP3    H216423   0.937   4.005   0.810 -0.2616  1.3035 -0.1571
 5473TIP3   OH216424   4.529   0.425   3.409 -0.1765 -0.4246 -0.1215
 5473TIP3    H116425   4.566   0.468   3.332 -0.6644 -0.2030 -0.2377
 5473TIP3    H216426   4.599   0.368   3.442  1.8163  2.9590  2.0917
 5474TIP3   OH216427   2.052   1.124   0.236  0.1262  0.7774  0.3533
 5474TIP3    H116428   2.094   1.162   0.159  1.0148  0.6831  0.7694
 5474TIP3    H216429   2.110   1.147   0.309  0.8784 -1.5628  0.5869
 5475TIP3   OH216430   4.939   1.456   3.004 -0.4922  0.5160 -0.1376
 5475TIP3    H116431   4.979   1.542   2.991 -1.6593  1.1836  0.4628
 5475TIP3    H216432   5.002   1.394   2.968  1.0870  1.4979  0.8581
 5476TIP3   OH216433   3.904   1.418   2.082  0.6009 -0.4717 -0.2956
 5476TIP3    H116434   3.939   1.338   2.122 -0.9384 -0.5530  1.0210
 5476TIP3    H216435   3.878   1.472   2.157 -0.4010  0.3175 -1.1889
 5477TIP3   OH216436   3.522   0.208   4.636 -0.2781  0.1824 -0.2240
 5477TIP3    H116437   3.550   0.176   4.722 -0.7132  1.7376  0.5309
 5477TIP3    H216438   3.581   0.281   4.618  0.6919 -0.9418 -1.8985
 5478TIP3   OH216439   5.981   0.214   3.668 -0.0052  0.0328  0.2614
 5478TIP3    H116440   5.903   0.163   3.649  1.0199 -0.9903 -1.4409
 5478TIP3    H216441   5.954   0.305   3.654 -0.7658 -0.3356 -0.7626
 5479TIP3   OH216442   5.096   0.876   1.751  0.3118  0.1701  0.1546
 5479TIP3    H116443   5.138   0.838   1.828 -0.9511  0.0407  0.8081
 5479TIP3    H216444   5.099   0.806   1.685 -0.1013 -0.3303  0.6528
 5480TIP3   OH216445   4.491   2.227   1.734  0.2519  0.5370  0.2149
 5480TIP3    H116446   4.552   2.296   1.708  0.8440 -0.7223 -2.0282
 5480TIP3    H216447   4.539   2.145   1.720 -0.6129 -0.4015  2.2888
 5481TIP3   OH216448   3.988   2.124   3.031  0.0751 -0.4199  0.1900
 5481TIP3    H116449   3.925   2.195   3.014 -1.1905 -1.1521  1.6037
 5481TIP3    H216450   4.064   2.168   3.069  0.8114  0.5723 -2.2068
 5482TIP3   OH216451   1.506   3.045   3.433 -0.0829  0.4008 -0.1169
 5482TIP3    H116452   1.518   3.052   3.338 -1.2120  1.7852 -0.1848
 5482TIP3    H216453   1.449   2.969   3.445 -2.1234  1.7753 -0.7727
 5483TIP3   OH216454   0.732   5.413   4.867  0.3822 -0.0785 -0.4792
 5483TIP3    H116455   0.817   5.384   4.899  0.6335  0.4839 -0.6176
 5483TIP3    H216456   0.724   5.504   4.898 -1.1968 -0.8431  1.5436
 5484TIP3   OH216457   0.449   2.903   1.108 -0.2512  0.4034  0.6829
 5484TIP3    H116458   0.408   2.988   1.093  2.9784  2.2016  1.3456
 5484TIP3    H216459   0.406   2.869   1.187 -2.0642  1.0017  0.0164
 5485TIP3   OH216460   3.690   2.784   0.662  0.2481 -0.4234  0.5626
 5485TIP3    H116461   3.778   2.748   0.658 -0.2083 -1.6004  0.6899
 5485TIP3    H216462   3.650   2.741   0.738 -0.9120 -1.0448 -0.3637
 5486TIP3   OH216463   1.605   2.707   0.829 -0.3610 -0.1803 -0.0227
 5486TIP3    H116464   1.661   2.780   0.803  0.0849 -0.2620  0.6634
 5486TIP3    H216465   1.659   2.657   0.891 -0.6934 -1.0320 -0.4069
 5487TIP3   OH216466   5.024   0.510   4.958 -0.4493  0.0733 -0.0888
 5487TIP3    H116467   5.047   0.537   4.869  0.2584 -1.1986 -0.3083
 5487TIP3    H216468   5.071   0.573   5.014 -1.6594  1.4774 -0.5854
 5488TIP3   OH216469   3.203   2.637   3.119 -0.2635  0.2598 -0.1374
 5488TIP3    H116470   3.297   2.634   3.101  0.1050 -1.0571  1.6934
 5488TIP3    H216471   3.184   2.729   3.136  0.7964  0.4774 -0.0932
 5489TIP3   OH216472   0.569   2.320   2.457  0.3261 -0.4223  0.2634
 5489TIP3    H116473   0.499   2.257   2.472  0.4930 -0.7867 -0.4721
 5489TIP3    H216474   0.524   2.402   2.436  0.0854 -1.0483 -1.8742
 5490TIP3   OH216475   3.830   0.884   1.631 -0.2294  0.0340  0.4333
 5490TIP3    H116476   3.821   0.957   1.692 -1.0236  1.0227 -0.8037
 5490TIP3    H216477   3.778   0.910   1.555  3.0346  0.2306 -1.9408
 5491TIP3   OH216478   2.722   3.582   0.558  0.1309 -0.1246  0.5070
 5491TIP3    H116479   2.794   3.644   0.573 -0.5753  1.0486 -0.7524
 5491TIP3    H216480   2.766   3.501   0.530  1.0515 -0.1064  1.8093
 5492TIP3   OH216481   1.857   4.726   3.927 -1.4390 -0.3391  0.3971
 5492TIP3    H116482   1.836   4.798   3.986 -0.7451  1.1942 -1.1375
 5492TIP3    H216483   1.818   4.751   3.843  1.3001 -0.2389 -0.9733
 5493TIP3   OH216484   3.279   0.997   2.676  0.7183  0.4592 -0.0815
 5493TIP3    H116485   3.330   1.071   2.642  1.2993  1.2206  2.2095
 5493TIP3    H216486   3.298   0.925   2.617  0.1412  2.1107 -2.4037
 5494TIP3   OH216487   5.608   4.518   2.351  0.3101 -0.1562 -0.1919
 5494TIP3    H116488   5.591   4.558   2.437 -0.1995  0.2018 -0.4564
 5494TIP3    H216489   5.522   4.513   2.309  0.3926 -1.3084 -0.2683
 5495TIP3   OH216490   2.669   4.027   4.058 -0.1484 -0.1205  0.1276
 5495TIP3    H116491   2.672   3.932   4.060  2.8946 -0.1927 -1.5818
 5495TIP3    H216492   2.620   4.048   3.978 -2.3170 -0.1124  1.3723
 5496TIP3   OH216493   2.373   1.541   1.539 -0.0103  0.3610  0.3242
 5496TIP3    H116494   2.424   1.569   1.464 -0.3482  0.5209  0.1518
 5496TIP3    H216495   2.406   1.453   1.559 -0.4316  0.0112 -0.4822
 5497TIP3   OH216496   4.236   4.418   4.623 -0.2268 -0.1113 -0.2814
 5497TIP3    H116497   4.317   4.436   4.671 -0.3839  0.6562 -0.2918
 5497TIP3    H216498   4.166   4.440   4.685 -0.4336  0.9394 -0.8559
 5498TIP3   OH216499   6.150   3.488   0.812  0.0932 -0.3525  0.4305
 5498TIP3    H116500   6.091   3.563   0.818 -0.7001 -0.7688 -1.4964
 5498TIP3    H216501   6.118   3.427   0.878 -1.3632 -0.3517 -0.2257
 5499TIP3   OH216502   6.313   3.085   1.950 -0.4935 -0.1848 -0.8524
 5499TIP3    H116503   6.350   3.006   1.910  1.1374  0.1178 -0.0065
 5499TIP3    H216504   6.278   3.056   2.034 -1.3379 -0.2755 -1.2188
 5500TIP3   OH216505   2.114   0.572   5.204 -0.4301  0.1346 -0.1620
 5500TIP3    H116506   2.074   0.485   5.208 -1.7444  0.7013 -0.5630
 5500TIP3    H216507   2.140   0.582   5.113 -1.3508  0.6105 -0.3834
 5501TIP3   OH216508   3.806   2.469   0.398  0.0965 -0.3243  0.0742
 5501TIP3    H116509   3.764   2.389   0.430  0.4325 -0.6558 -0.3119
 5501TIP3    H216510   3.739   2.537   0.410  0.1863 -0.4458  1.4065
 5502TIP3   OH216511   6.008   2.482   4.225  0.1351 -0.0511 -0.2880
 5502TIP3    H116512   5.975   2.505   4.312 -0.8985 -1.6526 -0.2192
 5502TIP3    H216513   6.087   2.430   4.241  0.1686 -0.0093 -0.3160
 5503TIP3   OH216514   4.936   2.910   2.627  0.1328  0.1148 -0.1466
 5503TIP3    H116515   4.922   2.821   2.659 -0.1669  0.2912  0.2128
 5503TIP3    H216516   4.870   2.963   2.672  0.6749  0.6158  0.0705
 5504TIP3   OH216517   5.055   5.348   2.996 -0.1091 -0.1557 -0.6840
 5504TIP3    H116518   5.133   5.402   3.007  0.7171 -1.4955  0.4798
 5504TIP3    H216519   4.988   5.391   3.050  0.2502  0.2192 -0.5344
 5505TIP3   OH216520   0.402   4.266   3.652  0.3550 -0.4626 -0.2961
 5505TIP3    H116521   0.365   4.178   3.651  1.9870 -1.2045  0.8019
 5505TIP3    H216522   0.443   4.275   3.566  0.3491 -0.8410 -0.3395
 5506TIP3   OH216523   0.565   2.597   4.811  0.2744 -0.5197  0.0990
 5506TIP3    H116524   0.479   2.565   4.839 -0.3753 -0.9069 -2.1654
 5506TIP3    H216525   0.620   2.519   4.806 -0.1063 -0.7203 -1.3014
 5507TIP3   OH216526   3.529   4.311   2.732  0.1783 -0.3835  0.5811
 5507TIP3    H116527   3.613   4.325   2.777  0.0274 -0.2170  0.8165
 5507TIP3    H216528   3.551   4.309   2.639  0.5736 -1.2911  0.6806
 5508TIP3   OH216529   0.328   5.229   1.308 -0.3334  0.1524 -0.4672
 5508TIP3    H116530   0.311   5.322   1.291 -1.5335  0.1238  0.5222
 5508TIP3    H216531   0.248   5.185   1.280 -0.2414 -0.4561  0.2267
 5509TIP3   OH216532   0.109   2.884   1.309  0.0204 -0.5978  0.5992
 5509TIP3    H116533   0.026   2.868   1.265  0.5776  1.5082 -1.3862
 5509TIP3    H216534   0.093   2.959   1.366 -0.0118 -1.6858  2.0839
 5510TIP3   OH216535   2.817   5.634   1.440  0.0054 -0.4159 -0.4959
 5510TIP3    H116536   2.736   5.684   1.449 -0.2826 -0.6409 -1.6021
 5510TIP3    H216537   2.886   5.700   1.437  0.0542 -0.2748  1.8856
 5511TIP3   OH216538   6.135   0.835   1.026  0.3555  0.0281  0.3460
 5511TIP3    H116539   6.215   0.862   0.979  0.3534 -0.5295  0.0137
 5511TIP3    H216540   6.152   0.858   1.117  0.4888  0.8472  0.1263
 5512TIP3   OH216541   4.709   5.722   1.801 -0.3112 -0.0626  0.4691
 5512TIP3    H116542   4.675   5.707   1.889  0.1681  1.3891  0.9241
 5512TIP3    H216543   4.789   5.772   1.814  0.2090 -0.5284 -0.7605
 5513TIP3   OH216544   3.523   3.517   5.129  0.1957  0.1094 -0.4141
 5513TIP3    H116545   3.589   3.467   5.177  0.2567  0.6146  0.0369
 5513TIP3    H216546   3.567   3.600   5.108 -0.1971  0.3355 -0.3596
 5514TIP3   OH216547   1.207   1.372   5.110 -0.2673  0.1911  0.3714
 5514TIP3    H116548   1.278   1.372   5.174 -0.5520 -0.8726  0.7085
 5514TIP3    H216549   1.205   1.283   5.076 -2.3211 -0.2090  1.3656
 5515TIP3   OH216550   3.473   0.921   3.399 -0.4143  0.1663 -0.3396
 5515TIP3    H116551   3.432   0.868   3.330 -0.4969  0.7143 -0.7215
 5515TIP3    H216552   3.442   0.882   3.481 -0.5510 -0.3135 -0.6116
 5516TIP3   OH216553   3.059   1.031   1.878 -0.4083 -0.7099 -0.4411
 5516TIP3    H116554   3.106   0.985   1.947  0.0318 -0.5007 -0.6014
 5516TIP3    H216555   2.972   0.991   1.878 -0.6878 -0.1643  0.7770
 5517TIP3   OH216556   3.968   3.370   1.001 -0.6457 -0.0067  0.2810
 5517TIP3    H116557   3.962   3.293   1.058  2.0224 -0.6620 -0.2098
 5517TIP3    H216558   4.024   3.431   1.048  0.3084  0.0890 -0.9402
 5518TIP3   OH216559   5.868   2.965   4.153  0.2929 -0.8976  0.2114
 5518TIP3    H116560   5.856   2.884   4.104 -2.5588  0.6188 -1.9170
 5518TIP3    H216561   5.936   3.012   4.105  1.2781 -1.5844  0.8986
 5519TIP3   OH216562   2.770   0.446   0.057  0.2139 -0.4283  0.0942
 5519TIP3    H116563   2.853   0.402   0.041 -0.1048 -1.0902  0.2565
 5519TIP3    H216564   2.713   0.416  -0.014  0.6986  1.6163 -1.2657
 5520TIP3   OH216565   2.329   4.333   3.955  0.2302 -0.3888  0.5912
 5520TIP3    H116566   2.276   4.353   3.878  0.7091 -1.9682 -0.1864
 5520TIP3    H216567   2.358   4.419   3.987 -0.5264  0.3330 -0.5684
 5521TIP3   OH216568   5.575   3.191   1.570  0.0286 -0.6233  0.3299
 5521TIP3    H116569   5.497   3.246   1.558 -0.8230 -1.7520  0.5552
 5521TIP3    H216570   5.635   3.246   1.620 -1.1992 -0.2242  1.4229
 5522TIP3   OH216571   4.720   3.691   0.327  0.3190  0.7849 -0.1484
 5522TIP3    H116572   4.717   3.732   0.414  1.1829  0.9625 -0.2006
 5522TIP3    H216573   4.775   3.614   0.339 -0.6977  0.0187 -0.2257
 5523TIP3   OH216574   4.829   2.636   0.953 -0.4356  0.6879 -0.2174
 5523TIP3    H116575   4.902   2.695   0.933  1.0249 -1.3124 -1.2137
 5523TIP3    H216576   4.853   2.595   1.037 -0.7860  0.5757 -0.1694
 5524TIP3   OH216577   3.992   3.980   1.367  0.0326 -0.5818  0.5815
 5524TIP3    H116578   3.978   4.023   1.452  0.9085  1.6783 -0.3195
 5524TIP3    H216579   3.993   3.887   1.387 -2.0620 -0.2471  2.6874
 5525TIP3   OH216580   1.922   5.919   5.169 -0.4305  0.2932  0.0648
 5525TIP3    H116581   1.957   5.918   5.258  0.1203  1.3457 -0.1259
 5525TIP3    H216582   1.998   5.911   5.113 -0.7594 -0.1763 -0.3191
 5526TIP3   OH216583   0.021   1.519   2.657  0.5859 -0.2216 -0.1800
 5526TIP3    H116584   0.070   1.543   2.578 -0.6854 -1.8044 -1.5188
 5526TIP3    H216585   0.078   1.547   2.729  0.7814  3.4568 -1.5294
 5527TIP3   OH216586   2.466   0.512   0.143  0.0545 -0.1682  0.2849
 5527TIP3    H116587   2.392   0.468   0.101 -1.2594  2.3410 -0.1625
 5527TIP3    H216588   2.520   0.543   0.070  1.6516 -1.9245  0.5997
 5528TIP3   OH216589   1.156   5.557   4.081  0.4974 -0.4097  0.1177
 5528TIP3    H116590   1.113   5.587   4.161  1.0693 -0.2550  0.3706
 5528TIP3    H216591   1.142   5.463   4.081 -1.1009 -0.2107 -0.5570
 5529TIP3   OH216592   2.549   3.277   1.980  0.0335 -0.9084  0.0185
 5529TIP3    H116593   2.615   3.323   2.032 -1.4441  0.0345  1.1604
 5529TIP3    H216594   2.528   3.199   2.031 -0.1290 -0.9199 -0.0638
 5530TIP3   OH216595   2.984   3.216   2.738 -0.4609  0.2111  0.3693
 5530TIP3    H116596   3.047   3.288   2.733 -1.0330  0.6507 -1.6840
 5530TIP3    H216597   3.031   3.146   2.784  1.0945  0.9473 -0.0233
 5531TIP3   OH216598   2.620   4.332   0.861  0.8683 -0.7079  0.7212
 5531TIP3    H116599   2.607   4.321   0.955  0.4417 -1.8326  0.5398
 5531TIP3    H216600   2.715   4.340   0.851  0.9285 -0.7440  1.2348
 5532TIP3   OH216601   4.934   1.613   4.562 -0.2546  0.4913  0.6743
 5532TIP3    H116602   4.950   1.618   4.657 -1.7640 -0.5954  1.0233
 5532TIP3    H216603   4.890   1.529   4.550 -1.2821  1.2109 -0.8158
 5533TIP3   OH216604   1.068   4.449   0.244 -0.0827 -0.3794 -0.3659
 5533TIP3    H116605   1.042   4.541   0.250 -1.2357 -0.7304  0.8455
 5533TIP3    H216606   1.120   4.434   0.323 -0.7402 -0.9929 -0.0384
 5534TIP3   OH216607   1.275   2.543   2.461 -1.2755  0.0011 -0.3889
 5534TIP3    H116608   1.273   2.593   2.380 -0.9249  1.9845  0.7478
 5534TIP3    H216609   1.273   2.451   2.434 -0.4139  0.5965 -2.6431
 5535TIP3   OH216610   1.801   1.642   2.107  0.5261  0.2232  0.3216
 5535TIP3    H116611   1.792   1.552   2.075  0.8144  0.7958 -1.4737
 5535TIP3    H216612   1.853   1.633   2.188  0.1646 -1.2438  0.4279
 5536TIP3   OH216613   5.139   2.429   3.878  0.1400  0.1665 -0.0059
 5536TIP3    H116614   5.082   2.429   3.801  0.2996 -1.2898 -0.1541
 5536TIP3    H216615   5.090   2.381   3.944  0.4762  0.4344  0.4455
 5537TIP3   OH216616   0.415   1.130   5.131  0.0982 -0.0503 -0.7276
 5537TIP3    H116617   0.346   1.092   5.076 -0.7827 -0.8015  0.8355
 5537TIP3    H216618   0.411   1.080   5.213  1.9261  0.4796 -0.2589
 5538TIP3   OH216619   2.153   5.695   4.742  0.6399 -0.2078 -0.6254
 5538TIP3    H116620   2.227   5.719   4.798 -0.2881  0.5560  0.3283
 5538TIP3    H216621   2.118   5.615   4.782  0.3306  0.0141 -0.4443
 5539TIP3   OH216622   5.930   3.818   4.123  0.1210  0.4165  0.0954
 5539TIP3    H116623   5.955   3.888   4.062  2.6704  0.3562  0.9603
 5539TIP3    H216624   5.932   3.860   4.209  1.9539 -0.7315  0.6570
 5540TIP3   OH216625   1.702   0.553   1.096  0.8421  0.0184 -0.1275
 5540TIP3    H116626   1.739   0.564   1.008  0.4277  1.9304 -0.0968
 5540TIP3    H216627   1.607   0.552   1.082  0.7722  0.4442  0.3163
 5541TIP3   OH216628   6.144   0.155   1.550 -0.1636  0.5664  0.6681
 5541TIP3    H116629   6.061   0.202   1.561 -0.4508 -0.0303  1.1574
 5541TIP3    H216630   6.170   0.132   1.639  0.5341  0.7431  0.5170
 5542TIP3   OH216631   0.603   5.902   2.522  0.1334  0.0606  0.4263
 5542TIP3    H116632   0.662   5.826   2.526  0.4519  0.2747 -0.1317
 5542TIP3    H216633   0.638   5.963   2.587 -0.3118 -0.3989  1.1062
 5543TIP3   OH216634   0.361   1.230   0.820 -0.2377  0.0348 -0.3242
 5543TIP3    H116635   0.435   1.274   0.862  2.1308 -2.9877 -0.9636
 5543TIP3    H216636   0.292   1.231   0.887  1.9714 -0.9730  2.1890
 5544TIP3   OH216637   1.790   2.397   4.127 -0.1851 -0.2770 -0.6029
 5544TIP3    H116638   1.843   2.356   4.195 -0.7908 -1.7958 -1.0000
 5544TIP3    H216639   1.794   2.491   4.146 -0.8356 -0.6879  1.8825
 5545TIP3   OH216640   4.738   4.512   1.430 -0.5766 -0.5798  0.2266
 5545TIP3    H116641   4.761   4.585   1.372  1.1340 -2.1051 -1.1159
 5545TIP3    H216642   4.769   4.540   1.516  0.1843  0.2294 -0.2873
 5546TIP3   OH216643   0.825   2.794   3.368  0.0378  0.7281  0.5743
 5546TIP3    H116644   0.759   2.782   3.300  1.4820  0.4066 -0.8383
 5546TIP3    H216645   0.781   2.769   3.449 -1.8082  1.3391 -0.1986
 5547TIP3   OH216646   1.661   5.955   4.462  0.8215 -0.1144 -0.5463
 5547TIP3    H116647   1.622   5.868   4.453  1.2677 -0.3161 -0.5477
 5547TIP3    H216648   1.657   5.992   4.374  0.8897 -0.2422 -0.6030
 5548TIP3   OH216649   4.158   2.815   3.747  0.1069 -0.1674 -0.7690
 5548TIP3    H116650   4.084   2.875   3.756 -0.2782 -0.6305 -0.8217
 5548TIP3    H216651   4.144   2.749   3.815  0.9828  0.2647 -0.1393
 5549TIP3   OH216652   2.829   3.491   2.997 -0.2159 -0.1266  0.4276
 5549TIP3    H116653   2.914   3.534   2.998  0.1672 -0.7602 -1.4951
 5549TIP3    H216654   2.814   3.466   3.088  1.2758  0.6898  0.9369
 5550TIP3   OH216655   4.043   4.816   0.228 -0.6153  0.3300  0.3647
 5550TIP3    H116656   4.060   4.759   0.303 -0.4190  1.7465  1.4365
 5550TIP3    H216657   4.129   4.832   0.189 -0.4189  1.2850  1.1408
 5551TIP3   OH216658   4.724   4.982   1.543  0.1517  0.5375  0.4089
 5551TIP3    H116659   4.660   4.965   1.473  0.3532  0.6977  0.1857
 5551TIP3    H216660   4.760   5.068   1.522  0.6744  0.3085  0.3544
 5552TIP3   OH216661   5.572   5.347   4.954  0.3464  0.1544  0.9269
 5552TIP3    H116662   5.595   5.439   4.950  2.7643 -0.3550  1.6867
 5552TIP3    H216663   5.501   5.342   5.018 -0.3984  1.5486  0.2539
 5553TIP3   OH216664   3.836   2.816   3.718 -0.4274  0.3719 -0.4991
 5553TIP3    H116665   3.802   2.848   3.634 -1.5952  1.1786  0.2677
 5553TIP3    H216666   3.820   2.888   3.779 -0.1929 -0.4733  0.5683
 5554TIP3   OH216667   1.543   5.771   2.628 -0.0426 -0.0616 -0.2812
 5554TIP3    H116668   1.525   5.688   2.671 -0.6230 -0.4368 -1.2092
 5554TIP3    H216669   1.466   5.787   2.573  1.1170 -0.1541 -2.0122
 5555TIP3   OH216670   1.404   4.744   3.074  0.0124 -0.3707  0.0034
 5555TIP3    H116671   1.455   4.725   3.152  0.6282 -0.0306 -0.3097
 5555TIP3    H216672   1.439   4.684   3.008 -0.3526 -0.5027 -0.0711
 5556TIP3   OH216673   3.673   3.178   1.172  0.0270  0.0453  0.9348
 5556TIP3    H116674   3.625   3.126   1.108  0.5854  0.0091  0.5385
 5556TIP3    H216675   3.620   3.173   1.252  0.0607 -1.1269  0.8979
 5557TIP3   OH216676   0.324   4.656   2.324 -0.1725 -0.6556 -0.1274
 5557TIP3    H116677   0.299   4.620   2.409 -1.0192  1.9789  0.8298
 5557TIP3    H216678   0.252   4.713   2.299  1.1983  0.6296 -1.3783
 5558TIP3   OH216679   4.007   4.302   3.053 -0.1272  0.4891 -0.0595
 5558TIP3    H116680   4.007   4.243   3.128 -1.7906  1.0718  0.4361
 5558TIP3    H216681   4.075   4.266   2.995 -0.2233 -1.1722  0.7845
 5559TIP3   OH216682   0.067   1.337   0.663 -0.3155 -0.4274  0.6130
 5559TIP3    H116683  -0.012   1.284   0.654 -0.7095  0.0689  1.1027
 5559TIP3    H216684   0.036   1.427   0.666  0.3145 -0.1910  0.2659
 5560TIP3   OH216685   2.326   4.188   2.405 -0.5297  0.3929  0.0601
 5560TIP3    H116686   2.253   4.160   2.350  1.9199 -0.4890 -3.0818
 5560TIP3    H216687   2.348   4.275   2.372 -0.4470  0.8526  1.2969
 5561TIP3   OH216688   2.564   2.016   3.505 -0.1800 -0.3423  0.0707
 5561TIP3    H116689   2.614   2.085   3.461 -0.0537 -1.0199 -0.8840
 5561TIP3    H216690   2.630   1.956   3.540 -0.3001 -0.3492  0.2896
 5562TIP3   OH216691   6.021   4.054   2.307  0.0167 -0.6918  0.1469
 5562TIP3    H116692   5.997   3.977   2.255  0.9365 -1.1154  0.3329
 5562TIP3    H216693   6.018   4.025   2.398  1.2755 -0.8041  0.1811
 5563TIP3   OH216694   1.926   5.237   1.218  0.0234  0.1666 -0.6592
 5563TIP3    H116695   1.853   5.287   1.254 -1.5916 -0.5609 -2.7389
 5563TIP3    H216696   1.939   5.272   1.130  0.4047 -1.4836 -1.3018
 5564TIP3   OH216697   3.463   3.709   2.184 -0.3308 -0.1480  0.1181
 5564TIP3    H116698   3.467   3.673   2.096 -0.7225  0.1539 -0.0240
 5564TIP3    H216699   3.459   3.804   2.171 -0.3530 -0.1006  0.4611
 5565TIP3   OH216700   4.800   0.929   1.811  0.5592  0.1932  0.5428
 5565TIP3    H116701   4.841   0.917   1.726 -1.4060  0.8140 -0.5470
 5565TIP3    H216702   4.800   0.841   1.850  0.0898 -0.4267 -0.7873
 5566TIP3   OH216703   0.617   3.933   0.374  0.3183 -0.2396  0.2791
 5566TIP3    H116704   0.693   3.909   0.428  0.8292  1.0666  0.1746
 5566TIP3    H216705   0.632   3.888   0.291  0.4224 -0.8454  0.6123
 5567TIP3   OH216706   2.180   0.739   4.341 -0.7200  0.2489  0.0050
 5567TIP3    H116707   2.236   0.662   4.331  0.2347  0.8625  0.5226
 5567TIP3    H216708   2.124   0.719   4.416 -1.0647 -0.2769 -0.3828
 5568TIP3   OH216709   3.033   2.464   4.008  0.0696 -0.2063 -0.4409
 5568TIP3    H116710   3.057   2.488   4.097  0.1397  0.0740 -0.5334
 5568TIP3    H216711   3.011   2.371   4.013  0.3646 -0.2647 -0.1891
 5569TIP3   OH216712   0.642   4.666   4.289 -0.4224  0.1799 -0.1848
 5569TIP3    H116713   0.583   4.596   4.318 -1.6785  0.4789 -1.8613
 5569TIP3    H216714   0.590   4.718   4.228  0.9027  1.8159 -0.0000
 5570TIP3   OH216715   1.849   5.087   3.815  0.1931  0.0629 -0.2649
 5570TIP3    H116716   1.785   5.048   3.755  0.1982  0.0539 -0.2646
 5570TIP3    H216717   1.930   5.090   3.764 -0.3819  2.4023 -1.1883
 5571TIP3   OH216718   2.345   2.963   4.179 -0.0699  0.0923 -0.2651
 5571TIP3    H116719   2.261   2.919   4.165 -0.0085 -0.5840  1.2555
 5571TIP3    H216720   2.405   2.892   4.203  0.1329  0.9172  1.8269
 5572TIP3   OH216721   2.433   5.254   5.055  0.1470  0.1647  0.4140
 5572TIP3    H116722   2.389   5.239   4.972  1.3473  0.8325 -0.3572
 5572TIP3    H216723   2.362   5.260   5.119 -0.8549  0.8162 -0.7277
 5573TIP3   OH216724   5.061   0.256   3.178  0.3724  0.6603 -0.0403
 5573TIP3    H116725   5.032   0.341   3.209  1.8738  1.1351  0.1447
 5573TIP3    H216726   5.069   0.267   3.083  1.1772  0.9296  0.0542
 5574TIP3   OH216727   0.432   2.490   5.194  0.0526  0.6480  0.4649
 5574TIP3    H116728   0.393   2.572   5.162 -0.4904  0.3834  0.4529
 5574TIP3    H216729   0.480   2.456   5.118 -1.2997 -0.0203 -0.1248
 5575TIP3   OH216730   5.387   5.989   2.519  0.4639 -0.0612  0.2324
 5575TIP3    H116731   5.480   5.966   2.529 -0.0097 -1.7561  1.1490
 5575TIP3    H216732   5.355   5.930   2.451 -0.5783 -1.6611  1.9984
 5576TIP3   OH216733   5.816   1.332   0.654  0.1581 -0.5498 -0.3173
 5576TIP3    H116734   5.872   1.404   0.628 -0.2248 -0.5787 -1.2405
 5576TIP3    H216735   5.833   1.263   0.590 -1.0916 -0.4691 -0.7732
 5577TIP3   OH216736   5.165   0.918   0.674 -0.2218  0.0673 -0.7779
 5577TIP3    H116737   5.159   1.011   0.650  0.3581  0.5375  0.7610
 5577TIP3    H216738   5.130   0.871   0.599  0.6331  1.4830 -2.1125
 5578TIP3   OH216739   3.658   1.315   4.156 -0.0579  0.7343 -0.2201
 5578TIP3    H116740   3.627   1.276   4.237 -0.5969  1.0143 -0.2841
 5578TIP3    H216741   3.657   1.243   4.093  1.1583  0.3118  0.2009
 5579TIP3   OH216742   1.681   0.797   2.111  0.3066  0.0831  0.5839
 5579TIP3    H116743   1.700   0.886   2.080  0.4366  1.0751  3.2709
 5579TIP3    H216744   1.713   0.740   2.041 -1.5189  2.1152 -2.1415
 5580TIP3   OH216745   6.170   5.350   3.081 -0.0181  0.4879 -0.1403
 5580TIP3    H116746   6.167   5.255   3.067  1.4348  0.4843 -0.4984
 5580TIP3    H216747   6.212   5.385   3.003 -0.7368  1.4744 -0.1158
 5581TIP3   OH216748   0.408   2.797   4.659 -0.1841 -0.0494 -0.0801
 5581TIP3    H116749   0.464   2.729   4.695  0.3496  0.7724  0.6890
 5581TIP3    H216750   0.319   2.762   4.669 -0.1720  0.5000  3.0423
 5582TIP3   OH216751   1.210   4.198   4.104  0.6286 -0.3894 -0.2343
 5582TIP3    H116752   1.294   4.189   4.058  0.5011  2.0804 -1.0475
 5582TIP3    H216753   1.228   4.261   4.174 -0.5178  0.0457 -0.3200
 5583TIP3   OH216754   2.052   3.842   0.815  0.2045  0.1195  0.3775
 5583TIP3    H116755   2.114   3.769   0.808  0.5326  0.3672  0.7095
 5583TIP3    H216756   2.077   3.888   0.895 -0.8592 -0.2014  0.9153
 5584TIP3   OH216757   3.516   2.585   0.338 -0.4081 -0.8284 -0.4878
 5584TIP3    H116758   3.475   2.505   0.303 -0.3044 -0.2854 -1.9070
 5584TIP3    H216759   3.445   2.632   0.381 -0.3082 -2.0534  1.1181
 5585TIP3   OH216760   5.995   1.873   1.393  0.4966  0.0057 -0.1589
 5585TIP3    H116761   6.032   1.952   1.432 -1.8137 -0.5689  3.8019
 5585TIP3    H216762   5.907   1.898   1.367  0.3182 -0.8479 -0.4092
 5586TIP3   OH216763   4.985   3.516   4.616 -0.2821  0.5453 -0.6639
 5586TIP3    H116764   4.947   3.602   4.635  2.0949  1.4297  0.4403
 5586TIP3    H216765   4.931   3.455   4.668 -1.3708  1.4640 -0.6680
 5587TIP3   OH216766   1.406   3.979   3.239  0.4049  0.5323 -0.6340
 5587TIP3    H116767   1.359   3.899   3.213  2.3838 -0.9940  0.2066
 5587TIP3    H216768   1.367   4.003   3.323 -0.2429  0.4870 -0.9193
 5588TIP3   OH216769   2.411   2.294   2.321 -0.2845 -0.1907 -0.4263
 5588TIP3    H116770   2.352   2.365   2.297 -0.1360  0.1143  0.1043
 5588TIP3    H216771   2.498   2.325   2.298  0.1646  1.0750  2.5125
 5589TIP3   OH216772   1.699   4.633   2.692 -0.7501  0.0607  0.1648
 5589TIP3    H116773   1.784   4.604   2.660 -0.6636  0.9176 -0.4229
 5589TIP3    H216774   1.710   4.643   2.786 -0.2811 -0.1111  0.1273
 5590TIP3   OH216775   5.879   0.965   2.979  0.0397 -0.0566  0.3615
 5590TIP3    H116776   5.929   1.046   2.963 -0.6712 -0.1641 -3.5263
 5590TIP3    H216777   5.941   0.895   2.959 -0.5334 -0.3027 -0.6110
 5591TIP3   OH216778   5.272   2.730   1.242  0.1313 -0.0152  0.2799
 5591TIP3    H116779   5.213   2.743   1.316  0.2172  1.9588  0.0471
 5591TIP3    H216780   5.349   2.784   1.262  0.1498  0.5621 -1.2385
 5592TIP3   OH216781   3.923   1.134   2.100  0.1512 -0.0682 -0.1960
 5592TIP3    H116782   3.889   1.076   2.167  1.1076 -1.2222 -0.6881
 5592TIP3    H216783   4.018   1.129   2.108  0.3203 -0.7954 -2.0628
 5593TIP3   OH216784   1.656   5.509   1.037 -0.3805 -0.1902  0.2721
 5593TIP3    H116785   1.608   5.552   0.966 -0.4693  0.4349  0.6984
 5593TIP3    H216786   1.604   5.431   1.057 -0.8439  0.1093  0.2610
 5594TIP3   OH216787   5.343   2.821   2.610 -0.1574  0.6307  0.1983
 5594TIP3    H116788   5.265   2.815   2.664 -1.9925  2.2445 -2.1018
 5594TIP3    H216789   5.311   2.841   2.522  2.7518 -0.4488 -1.2585
 5595TIP3   OH216790   0.162   4.612   4.419 -0.0373 -0.2469 -0.0390
 5595TIP3    H116791   0.117   4.658   4.348  0.1672  0.2028  0.1217
 5595TIP3    H216792   0.099   4.545   4.447  0.3069 -1.1526 -1.3684
 5596TIP3   OH216793   1.518   5.179   3.430 -0.4430  0.3673  0.5612
 5596TIP3    H116794   1.487   5.193   3.340 -0.4899  3.0373  0.9037
 5596TIP3    H216795   1.440   5.191   3.484  0.1267  1.7473  1.1110
 5597TIP3   OH216796   4.850   0.925   0.806  0.4363  0.3867  0.5646
 5597TIP3    H116797   4.909   0.887   0.741 -0.1959 -0.9235  0.7333
 5597TIP3    H216798   4.798   0.988   0.757 -0.7402 -1.3140 -0.4636
 5598TIP3   OH216799   3.747   4.111   4.448  0.3130  0.0546 -0.2864
 5598TIP3    H116800   3.779   4.095   4.359  1.2344 -0.6848  0.1515
 5598TIP3    H216801   3.655   4.083   4.446  0.4801 -0.4711 -0.8661
 5599TIP3   OH216802   5.117   5.218   0.999 -0.5683  0.4854 -0.0492
 5599TIP3    H116803   5.179   5.149   0.974 -0.6824  0.4170 -0.1454
 5599TIP3    H216804   5.031   5.178   0.986 -0.6340  0.6326 -0.0655
 5600TIP3   OH216805   0.945   4.810   3.853  0.0617 -0.4022  0.3473
 5600TIP3    H116806   0.884   4.872   3.813 -1.6066 -2.5982 -0.6828
 5600TIP3    H216807   0.960   4.845   3.941 -1.2818  1.1384  0.0134
 5601TIP3   OH216808   1.303   2.837   3.445 -0.8880  0.1952  0.3067
 5601TIP3    H116809   1.226   2.849   3.389  0.1214  2.0801 -0.7557
 5601TIP3    H216810   1.332   2.747   3.426 -1.4882  0.2568 -1.0123
 5602TIP3   OH216811   3.768   3.452   2.714  0.1407  0.1087  0.4350
 5602TIP3    H116812   3.690   3.447   2.659  1.6070 -0.0971 -1.7731
 5602TIP3    H216813   3.784   3.362   2.742 -0.0383  0.0488  0.3481
 5603TIP3   OH216814   4.952   4.017   2.182  0.0836  0.1143  0.2873
 5603TIP3    H116815   4.878   3.986   2.234  0.5247  0.6906  1.2737
 5603TIP3    H216816   4.943   4.113   2.182  0.7760  0.1843  0.3436
 5604TIP3   OH216817   2.871   5.203   1.469 -0.0271 -0.2175 -0.2066
 5604TIP3    H116818   2.829   5.286   1.446 -2.1341 -0.3711  2.5527
 5604TIP3    H216819   2.799   5.147   1.500  1.5556 -2.4855 -0.3189
 5605TIP3   OH216820   0.081   2.929   4.536  0.3910 -0.0693  0.2935
 5605TIP3    H116821   0.141   2.858   4.513  0.5419  0.5096 -1.2690
 5605TIP3    H216822   0.133   3.009   4.524 -0.5043  0.4157 -0.4958
 5606TIP3   OH216823   2.333   2.275   3.954  0.5255 -0.0404  0.3199
 5606TIP3    H116824   2.285   2.196   3.931 -0.6128  0.8906 -0.6038
 5606TIP3    H216825   2.423   2.244   3.969  0.7257 -1.1979 -2.5190
 5607TIP3   OH216826   0.490   4.657   1.975  0.0759  0.3630 -0.3695
 5607TIP3    H116827   0.487   4.671   1.880  1.6357  2.2255 -0.1995
 5607TIP3    H216828   0.583   4.644   1.994 -0.0981  0.9652  1.0054
 5608TIP3   OH216829   1.775   0.139   0.428  0.0073 -0.9952  0.3279
 5608TIP3    H116830   1.773   0.049   0.396 -2.8046 -1.4938  1.6682
 5608TIP3    H216831   1.689   0.174   0.408  1.1815  1.6304 -0.5905
 5609TIP3   OH216832   1.072   0.300   3.566 -0.2089  0.0182 -0.3867
 5609TIP3    H116833   1.120   0.285   3.648 -1.6013 -1.4960  0.2241
 5609TIP3    H216834   0.985   0.327   3.594 -0.1019  1.5445 -1.4406
 5610TIP3   OH216835   2.912   5.314   4.225  0.0651 -0.1042  0.1549
 5610TIP3    H116836   2.950   5.230   4.202 -0.1581  0.3038 -1.9375
 5610TIP3    H216837   2.875   5.347   4.143  0.6935  2.3183  0.7550
 5611TIP3   OH216838   1.413   0.665   1.519 -0.3995  0.6918 -0.2777
 5611TIP3    H116839   1.365   0.747   1.509 -2.2093  0.0252  2.0194
 5611TIP3    H216840   1.356   0.598   1.483  0.2952  0.2237 -0.5423
 5612TIP3   OH216841   1.146   2.603   3.732  0.1257  0.0048 -0.2434
 5612TIP3    H116842   1.218   2.571   3.787  0.0659 -0.6534 -0.5296
 5612TIP3    H216843   1.122   2.527   3.679 -0.3084  0.4250 -0.6540
 5613TIP3   OH216844   0.658   3.226   4.462 -0.2125  0.4026 -0.8201
 5613TIP3    H116845   0.632   3.197   4.374 -0.2790  0.2231 -0.7428
 5613TIP3    H216846   0.587   3.196   4.519  0.4127 -0.5775 -0.5264
 5614TIP3   OH216847   2.941   4.041   1.834  0.4972 -0.0613 -0.3845
 5614TIP3    H116848   2.977   4.049   1.922  1.6820 -0.7413 -0.7829
 5614TIP3    H216849   2.874   4.109   1.829  1.0347  0.5757  0.7368
 5615TIP3   OH216850   3.607   1.923   2.027 -0.4155 -0.0948 -0.4854
 5615TIP3    H116851   3.546   1.995   2.043 -1.2576 -0.7586 -0.6625
 5615TIP3    H216852   3.685   1.966   1.993 -0.6409  0.8045  0.0948
 5616TIP3   OH216853   5.523   4.010   2.869 -0.3680 -1.0613 -0.0475
 5616TIP3    H116854   5.525   3.929   2.818  0.1141 -0.1911 -1.4639
 5616TIP3    H216855   5.432   4.019   2.897 -0.5897 -1.6722 -0.5563
 5617TIP3   OH216856   2.882   1.224   4.135 -0.2300 -0.1156  0.3920
 5617TIP3    H116857   2.935   1.282   4.081  0.2934 -0.7628  0.1987
 5617TIP3    H216858   2.800   1.214   4.087 -0.6842  1.1508  0.8494
 5618TIP3   OH216859   2.693   3.477   3.593  0.0864  0.3001  1.0482
 5618TIP3    H116860   2.618   3.525   3.627  0.2635  0.3964  1.3047
 5618TIP3    H216861   2.662   3.387   3.586 -0.0735  0.3511  1.0949
 5619TIP3   OH216862   0.131   2.770   0.946  0.1456 -0.3147  0.0194
 5619TIP3    H116863   0.150   2.853   0.904 -1.2764 -0.2624 -0.5623
 5619TIP3    H216864   0.115   2.792   1.037  1.0596 -0.1455  0.1552
 5620TIP3   OH216865   4.862   5.405   1.294 -0.2608  0.1109  0.2494
 5620TIP3    H116866   4.952   5.438   1.294  0.2756 -1.2503  0.9154
 5620TIP3    H216867   4.808   5.481   1.311  0.7294  1.0395 -0.5952
 5621TIP3   OH216868   0.692   2.491   3.631  0.2651 -0.4776 -0.0344
 5621TIP3    H116869   0.671   2.465   3.541 -0.6823 -1.6857  0.5065
 5621TIP3    H216870   0.625   2.448   3.685  2.2960 -1.9156  1.5037
 5622TIP3   OH216871   1.011   5.941   4.254  1.0947 -0.1571  0.4259
 5622TIP3    H116872   0.927   5.894   4.250  0.7864  0.4391 -0.8448
 5622TIP3    H216873   0.993   6.017   4.309  0.9592 -0.3081  0.5943
 5623TIP3   OH216874   1.028   3.186   4.425  0.2875 -0.7136 -0.1237
 5623TIP3    H116875   1.016   3.167   4.518  2.2793  1.0896  0.5783
 5623TIP3    H216876   0.947   3.156   4.384 -0.3352 -2.2799  2.0513
 5624TIP3   OH216877   4.800   5.089   4.734  0.0516  0.1078 -0.0003
 5624TIP3    H116878   4.758   5.141   4.802 -1.3568 -1.0382  0.0638
 5624TIP3    H216879   4.875   5.140   4.707 -0.5840  1.5800  0.9174
 5625TIP3   OH216880   0.205   1.994   3.726 -0.4921 -0.3047  0.3573
 5625TIP3    H116881   0.141   1.923   3.737  0.1773 -0.9795  0.0475
 5625TIP3    H216882   0.269   1.958   3.664  0.4998  0.1233  1.1039
 5626TIP3   OH216883   5.325   1.218   4.054 -0.0668 -0.8923  0.6089
 5626TIP3    H116884   5.349   1.304   4.019  0.5575 -0.5542  1.8068
 5626TIP3    H216885   5.393   1.159   4.023  0.9270 -0.4398  1.8535
 5627TIP3   OH216886   2.740   4.720   0.101  0.2819 -0.3924 -0.7922
 5627TIP3    H116887   2.669   4.675   0.054 -0.2419  1.7874 -2.2562
 5627TIP3    H216888   2.819   4.673   0.076 -0.4434 -1.7154 -0.6660
 5628TIP3   OH216889   5.229   2.027   4.048  0.1241  0.2434  0.7402
 5628TIP3    H116890   5.184   1.948   4.018  1.7570 -0.1686 -0.7752
 5628TIP3    H216891   5.256   2.071   3.967 -0.4144  2.1846  1.5573
 5629TIP3   OH216892   3.587   5.207   4.318 -0.2006  0.1926 -0.0783
 5629TIP3    H116893   3.535   5.274   4.362 -1.7101  0.7549 -2.5269
 5629TIP3    H216894   3.639   5.255   4.253  0.4675 -0.7784 -0.2960
 5630TIP3   OH216895   3.828   3.004   3.133 -0.5721 -0.0531 -0.0921
 5630TIP3    H116896   3.765   2.955   3.080  0.4931 -0.9125 -0.5902
 5630TIP3    H216897   3.911   2.958   3.122  0.0864  0.8507  0.8348
 5631TIP3   OH216898   3.994   4.038   4.582 -0.0325 -0.5500 -0.0677
 5631TIP3    H116899   3.923   4.024   4.519  0.7537 -0.5228 -0.9764
 5631TIP3    H216900   3.974   4.123   4.622 -1.0499 -0.9998  0.4317
 5632TIP3   OH216901   5.354   5.569   4.119 -0.0641  0.3107  0.1100
 5632TIP3    H116902   5.309   5.602   4.197 -1.9553  1.0313 -1.2055
 5632TIP3    H216903   5.321   5.480   4.107  2.0822 -0.7430  1.4454
 5633TIP3   OH216904   1.788   3.257   3.299 -0.7085 -0.2222  0.7011
 5633TIP3    H116905   1.783   3.162   3.307  1.1659 -0.5448 -1.0366
 5633TIP3    H216906   1.846   3.271   3.224  0.8063  2.2957  2.2156
 5634TIP3   OH216907   4.158   0.770   3.309 -0.5101 -0.0809  0.1258
 5634TIP3    H116908   4.131   0.725   3.229  0.6259 -0.2474 -0.1832
 5634TIP3    H216909   4.237   0.724   3.337 -0.1023  0.8617  0.5622
 5635TIP3   OH216910   4.281   3.141   1.466 -0.0980 -0.1586  0.0591
 5635TIP3    H116911   4.260   3.090   1.544 -2.6534  2.4699  1.2760
 5635TIP3    H216912   4.362   3.188   1.488 -0.5476  0.2040  0.9777
 5636TIP3   OH216913   1.100   4.469   2.512  0.3939  0.2271 -0.4588
 5636TIP3    H116914   1.039   4.539   2.533  0.8671  0.9179 -1.3234
 5636TIP3    H216915   1.080   4.446   2.421 -1.3993 -2.4746  0.4613
 5637TIP3   OH216916   5.473   5.109   3.979 -0.7466  0.4957  0.0630
 5637TIP3    H116917   5.517   5.181   3.934  1.7872 -1.0049 -0.1002
 5637TIP3    H216918   5.466   5.040   3.912  0.9118 -0.9115  1.2177
 5638TIP3   OH216919   5.532   5.658   2.532 -0.3627  0.1427  0.2086
 5638TIP3    H116920   5.618   5.700   2.523  0.5362 -1.1254  2.2056
 5638TIP3    H216921   5.552   5.565   2.543 -1.9767 -0.1276  1.1068
 5639TIP3   OH216922   2.246   5.572   1.521 -0.1468 -0.0702 -0.2786
 5639TIP3    H116923   2.313   5.555   1.455  0.3390 -1.9810  0.6558
 5639TIP3    H216924   2.294   5.610   1.594 -0.5254  1.0169 -0.5618
 5640TIP3   OH216925   1.897   4.087   3.131  0.2622 -0.6965 -0.4119
 5640TIP3    H116926   1.828   4.153   3.131  0.8552 -0.0594 -0.9313
 5640TIP3    H216927   1.856   4.009   3.168 -0.3391  0.0782  0.6075
 5641TIP3   OH216928   2.921   3.366   2.341  0.1684 -0.4162 -0.0912
 5641TIP3    H116929   2.865   3.396   2.270  2.0579  0.7045 -1.1746
 5641TIP3    H216930   2.971   3.444   2.367  1.4891 -1.4466  0.5736
 5642TIP3   OH216931   4.555   2.444   2.310 -0.4144 -0.6695 -0.0969
 5642TIP3    H116932   4.628   2.463   2.251  1.4879  0.1967  2.4011
 5642TIP3    H216933   4.504   2.525   2.312  0.3857 -0.1666  0.5840
 5643TIP3   OH216934   3.577   1.611   3.856  0.1255 -0.4147  0.4519
 5643TIP3    H116935   3.650   1.589   3.914  0.7865 -0.3170 -0.3289
 5643TIP3    H216936   3.514   1.655   3.913  1.5153  1.2717  0.8043
 5644TIP3   OH216937   5.495   2.120   2.618  0.0069 -0.0272  0.2836
 5644TIP3    H116938   5.454   2.191   2.667  0.4170  0.9721 -0.7888
 5644TIP3    H216939   5.448   2.117   2.535 -0.3940 -1.4211  0.5335
 5645TIP3   OH216940   2.673   0.541   3.793  0.2335  0.3418  0.1667
 5645TIP3    H116941   2.703   0.632   3.798 -0.2564  0.5114  0.0614
 5645TIP3    H216942   2.611   0.540   3.721 -2.6923  0.7805  2.4988
 5646TIP3   OH216943   2.990   1.043   1.395  0.2503  0.0429 -0.1880
 5646TIP3    H116944   3.027   0.957   1.417  2.5381  1.1689  0.6878
 5646TIP3    H216945   2.972   1.084   1.479 -0.4825  0.5869 -0.5984
 5647TIP3   OH216946   5.966   2.258   4.702  0.0075  0.3225 -0.4659
 5647TIP3    H116947   5.912   2.179   4.704  0.3311  0.0703 -1.2287
 5647TIP3    H216948   5.983   2.278   4.794  2.3598 -2.2016 -0.2319
 5648TIP3   OH216949   4.230   3.246   2.804 -0.0661  0.1888 -0.4566
 5648TIP3    H116950   4.200   3.190   2.875 -1.8171  0.5961 -0.8289
 5648TIP3    H216951   4.320   3.268   2.827 -0.1550 -0.7791  0.9268
 5649TIP3   OH216952   2.905   1.413   4.465 -0.6379 -0.1972 -0.1576
 5649TIP3    H116953   2.905   1.476   4.537 -3.3461 -1.5317  1.2015
 5649TIP3    H216954   2.874   1.463   4.389  0.4849  0.8090  0.0147
 5650TIP3   OH216955   2.302   1.754   1.684  0.1749  0.4341 -0.1413
 5650TIP3    H116956   2.332   1.666   1.660  1.7661  0.1684  2.4187
 5650TIP3    H216957   2.257   1.786   1.606  0.8743 -2.0476 -1.6879
 5651TIP3   OH216958   0.251   5.193   3.509 -0.3549  0.2355 -0.2798
 5651TIP3    H116959   0.278   5.126   3.446 -0.6290  0.7638 -0.9617
 5651TIP3    H216960   0.317   5.187   3.579 -1.1709 -1.7206  0.3926
 5652TIP3   OH216961   2.606   0.893   2.994 -0.3032 -0.4639 -0.7589
 5652TIP3    H116962   2.562   0.973   3.022  1.8201  0.6419 -0.3962
 5652TIP3    H216963   2.634   0.911   2.904 -0.1202 -0.9602 -0.8052
 5653TIP3   OH216964   5.554   2.586   2.020  0.6113 -0.2554  0.1770
 5653TIP3    H116965   5.642   2.549   2.035  0.8451  0.1977 -0.0793
 5653TIP3    H216966   5.569   2.664   1.968 -0.0453 -0.7805 -0.8381
 5654TIP3   OH216967   6.133   0.297   1.319  0.3755 -0.6586 -0.2903
 5654TIP3    H116968   6.151   0.252   1.401 -0.8002 -1.4180 -0.4310
 5654TIP3    H216969   6.209   0.277   1.264 -0.1095 -2.5005 -0.3520
 5655TIP3   OH216970   5.729   4.966   5.141  0.1017  0.1399 -0.1736
 5655TIP3    H116971   5.739   4.983   5.235  1.9550 -0.5010 -0.2193
 5655TIP3    H216972   5.649   4.914   5.134 -0.3998  0.7247  0.9714
 5656TIP3   OH216973   1.912   3.394   1.121 -0.0696  0.0015 -0.3737
 5656TIP3    H116974   1.884   3.483   1.142 -0.7864 -0.6481  1.6159
 5656TIP3    H216975   1.980   3.375   1.186 -0.3182 -1.0904 -0.4254
 5657TIP3   OH216976   0.407   5.092   0.934 -0.4865  0.2938 -0.0634
 5657TIP3    H116977   0.387   5.054   1.019 -2.1616  0.3004 -0.4171
 5657TIP3    H216978   0.452   5.022   0.886 -1.5017 -0.4705  0.0801
 5658TIP3   OH216979   5.511   1.463   0.436  0.2774  0.1026 -0.0152
 5658TIP3    H116980   5.606   1.468   0.428  0.5689 -0.1628  2.4243
 5658TIP3    H216981   5.488   1.377   0.402  0.7265  0.5929 -1.6484
 5659TIP3   OH216982   6.177   3.342   2.385 -0.1091 -0.1094 -0.1719
 5659TIP3    H116983   6.162   3.318   2.476  3.7586 -1.8519  0.2095
 5659TIP3    H216984   6.248   3.406   2.389  1.2969 -1.4553 -1.9646
 5660TIP3   OH216985   0.382   0.230   2.065 -0.2494  0.8179  0.0463
 5660TIP3    H116986   0.404   0.140   2.087  1.3942  0.5330 -2.3266
 5660TIP3    H216987   0.350   0.268   2.147  2.4542 -0.8741  2.0606
 5661TIP3   OH216988   5.242   2.547   2.571  0.3614 -0.1041 -0.1403
 5661TIP3    H116989   5.332   2.571   2.589  0.8917 -1.5581 -0.6598
 5661TIP3    H216990   5.238   2.535   2.476 -0.4862  0.3394 -0.1748
 5662TIP3   OH216991   6.122   0.553   2.067  0.2215  0.7199  0.3801
 5662TIP3    H116992   6.173   0.578   2.144  0.9669  1.3130 -0.2845
 5662TIP3    H216993   6.179   0.574   1.993 -0.6340  0.5220 -0.3498
 5663TIP3   OH216994   3.006   1.711   2.907  0.0176 -0.2889 -0.0548
 5663TIP3    H116995   2.914   1.726   2.886 -0.2172 -0.9919  0.4384
 5663TIP3    H216996   3.013   1.616   2.918  1.0302 -0.3553 -1.1332
 5664TIP3   OH216997   2.575   0.809   4.488 -0.4367 -0.3430 -0.2217
 5664TIP3    H116998   2.488   0.840   4.512  0.1676  1.6145 -0.3629
 5664TIP3    H216999   2.632   0.841   4.558  0.0682 -2.6715  0.5504
 5665TIP3   OH217000   5.325   5.827   1.374 -0.6365 -0.1207 -0.7512
 5665TIP3    H117001   5.299   5.804   1.285  0.4356 -1.1947 -0.8034
 5665TIP3    H217002   5.288   5.758   1.429 -0.6901  0.1540 -0.4351
 5666TIP3   OH217003   5.295   0.680   3.714  0.1622  0.7268  0.1901
 5666TIP3    H117004   5.316   0.608   3.773 -1.6377  0.2690  0.3427
 5666TIP3    H217005   5.335   0.757   3.754  1.4076 -0.0296  0.4560
 5667TIP3   OH217006   3.377   0.725   0.880  0.7043  0.2417  0.1245
 5667TIP3    H117007   3.446   0.674   0.838 -1.1682 -0.9795 -1.7112
 5667TIP3    H217008   3.324   0.758   0.807 -1.0075  0.5800  1.4477
 5668TIP3   OH217009   1.503   3.702   3.622  0.3162  0.0612  0.1625
 5668TIP3    H117010   1.425   3.688   3.568  1.0159  0.4848 -1.0080
 5668TIP3    H217011   1.562   3.630   3.598  0.4715  0.0072  0.6958
 5669TIP3   OH217012   0.374   5.954   2.330 -0.2757  0.6924 -0.0694
 5669TIP3    H117013   0.444   5.917   2.383  0.4980  0.2709 -1.3398
 5669TIP3    H217014   0.307   5.981   2.394  0.5436  0.0756  1.0906
 5670TIP3   OH217015   2.154   2.329   1.670 -0.4944  0.1320  0.5248
 5670TIP3    H117016   2.248   2.310   1.674 -0.6618 -1.4251 -1.6049
 5670TIP3    H217017   2.127   2.335   1.762  1.9258  2.2093  1.2149
 5671TIP3   OH217018   0.183   3.266   2.575  0.3476 -0.1603 -0.2225
 5671TIP3    H117019   0.139   3.348   2.553 -1.3707 -1.3990 -1.7678
 5671TIP3    H217020   0.276   3.289   2.583  0.0701  1.7365 -1.8054
 5672TIP3   OH217021   0.605   3.461   0.911 -0.0585 -0.1282 -0.3918
 5672TIP3    H117022   0.644   3.497   0.991 -1.3641 -1.0414  0.7023
 5672TIP3    H217023   0.679   3.453   0.850  0.9312  0.7733  0.6465
 5673TIP3   OH217024   1.941   4.090   1.716 -0.1870 -0.8213 -0.2431
 5673TIP3    H117025   1.946   4.184   1.733 -1.6174 -0.7213 -0.2828
 5673TIP3    H217026   2.032   4.064   1.698  0.6930  0.0044  2.5019
 5674TIP3   OH217027   3.302   1.139   3.341  0.3209  0.3940 -0.6911
 5674TIP3    H117028   3.239   1.085   3.294 -0.2984 -0.3062  0.8759
 5674TIP3    H217029   3.368   1.078   3.373  0.8479  0.8874 -0.8028
 5675TIP3   OH217030   5.515   4.574   0.835 -0.2398  0.7239 -0.5154
 5675TIP3    H117031   5.476   4.507   0.779  2.7910 -1.0384 -0.8055
 5675TIP3    H217032   5.494   4.546   0.924 -1.6570  1.2274 -0.6795
 5676TIP3   OH217033   5.862   5.043   2.182 -0.3239  0.6510  0.1768
 5676TIP3    H117034   5.876   5.005   2.269  1.5891 -0.5516 -0.5889
 5676TIP3    H217035   5.770   5.026   2.163 -0.2443 -1.0414  1.0754
 5677TIP3   OH217036   3.824   5.614   4.292 -0.0930  0.3233  0.7553
 5677TIP3    H117037   3.821   5.709   4.292 -3.2094  0.3879 -1.3182
 5677TIP3    H217038   3.761   5.588   4.359 -0.7966 -0.2083 -0.0952
 5678TIP3   OH217039   5.147   1.407   1.398  0.7209 -0.5474  0.5025
 5678TIP3    H117040   5.225   1.353   1.408  0.3180 -0.9302  1.6907
 5678TIP3    H217041   5.091   1.357   1.338  0.6606 -1.1076  1.0204
 5679TIP3   OH217042   5.510   3.180   3.033 -0.2969 -0.2426  0.6955
 5679TIP3    H117043   5.446   3.136   2.979 -0.8436 -0.0686  1.1892
 5679TIP3    H217044   5.573   3.112   3.057 -1.2528 -0.8165  1.6333
 5680TIP3   OH217045   3.090   1.799   1.181  0.1763  0.3703  0.1852
 5680TIP3    H117046   3.161   1.765   1.237 -0.4728  0.0349  0.8295
 5680TIP3    H217047   3.079   1.890   1.209 -1.6956 -0.4180  2.2982
 5681TIP3   OH217048   2.644   1.434   0.368  0.4380 -0.3825  0.0159
 5681TIP3    H117049   2.615   1.524   0.381  3.0148  0.4616  0.4355
 5681TIP3    H217050   2.606   1.385   0.441 -3.4510 -0.3982 -1.7696
 5682TIP3   OH217051   5.708   0.806   2.306  0.2481  0.3672  0.0104
 5682TIP3    H117052   5.688   0.741   2.239 -0.9279  0.4616  0.2430
 5682TIP3    H217053   5.771   0.865   2.264  2.3194 -1.5753  0.2185
 5683TIP3   OH217054   2.222   1.185   3.032 -0.2707  0.5232  0.2051
 5683TIP3    H117055   2.147   1.126   3.025 -1.5823  2.2836 -3.3841
 5683TIP3    H217056   2.206   1.235   3.112 -2.4456  0.1326  0.0726
 5684TIP3   OH217057   6.002   0.813   0.760  0.3371  0.0598  0.4978
 5684TIP3    H117058   5.988   0.827   0.853 -0.0396 -0.0278  0.4548
 5684TIP3    H217059   6.096   0.793   0.752  0.4619  0.5239  0.7975
 5685TIP3   OH217060  -0.003   3.819   1.363  0.0427 -0.4774  0.4730
 5685TIP3    H117061   0.061   3.766   1.410  1.5162  0.9252  0.1518
 5685TIP3    H217062  -0.042   3.875   1.430  0.0201 -0.5066  0.4842
 5686TIP3   OH217063   3.691   3.131   0.238  0.2377  0.0049 -0.6092
 5686TIP3    H117064   3.649   3.062   0.186  1.6675 -0.4478 -1.2130
 5686TIP3    H217065   3.631   3.146   0.311 -1.7163  0.4715 -2.2074
 5687TIP3   OH217066   5.603   0.680   3.791 -0.1870 -0.1239 -0.3488
 5687TIP3    H117067   5.661   0.654   3.863 -0.6488  1.0458  0.4761
 5687TIP3    H217068   5.655   0.743   3.740  0.4922 -1.6575 -1.6424
 5688TIP3   OH217069   4.347   3.903   3.257  0.2896 -0.2762 -0.7604
 5688TIP3    H117070   4.277   3.912   3.192  0.9798 -1.1888 -1.6595
 5688TIP3    H217071   4.302   3.875   3.336 -0.3787 -0.9079 -1.3443
 5689TIP3   OH217072   5.638   2.913   0.170 -0.0620 -0.1893  0.3121
 5689TIP3    H117073   5.612   2.840   0.226 -0.2585  0.0629  0.5505
 5689TIP3    H217074   5.569   2.978   0.181 -1.0647 -0.8381 -1.6041
 5690TIP3   OH217075   0.705   1.416   0.116 -0.5463  0.0533 -0.2296
 5690TIP3    H117076   0.614   1.385   0.125 -0.3437 -0.5748 -0.2804
 5690TIP3    H217077   0.757   1.336   0.122 -0.0649  0.2627 -1.4850
 5691TIP3   OH217078   5.907   5.769   1.937 -0.2555  0.3769  0.1419
 5691TIP3    H117079   5.866   5.714   2.003 -1.0828  0.8372  0.0162
 5691TIP3    H217080   5.977   5.815   1.984 -0.6683  0.5055  0.6437
 5692TIP3   OH217081   3.811   3.696   0.483  0.4742  0.3141  0.4672
 5692TIP3    H117082   3.823   3.629   0.416  1.6196 -0.1097  1.0553
 5692TIP3    H217083   3.880   3.678   0.547  0.9545  2.1844  0.5463
 5693TIP3   OH217084   1.902   2.855   2.584 -0.5867  0.0537  0.4593
 5693TIP3    H117085   1.848   2.786   2.545  1.4872 -0.4371 -1.7882
 5693TIP3    H217086   1.841   2.905   2.639 -2.6922 -2.0342  0.1920
 5694TIP3   OH217087   1.617   2.196   1.058  0.2267  0.4840 -0.2972
 5694TIP3    H117088   1.553   2.204   0.988 -1.4779  1.6927  1.3093
 5694TIP3    H217089   1.634   2.102   1.064 -1.4994  0.1057 -0.7253
 5695TIP3   OH217090   5.051   0.744   3.833  0.0155 -0.2022 -0.1776
 5695TIP3    H117091   4.994   0.735   3.756  1.1940 -0.1841 -1.0738
 5695TIP3    H217092   5.138   0.720   3.802  0.5904  0.1658  1.0686
 5696TIP3   OH217093   4.647   4.001   3.960  0.4925 -0.4464 -0.3958
 5696TIP3    H117094   4.666   4.054   4.037  1.8033 -1.8017  0.2553
 5696TIP3    H217095   4.628   4.065   3.891 -0.0885  0.8049  0.8673
 5697TIP3   OH217096   1.406   5.297   1.432 -0.0689 -0.6623 -0.2847
 5697TIP3    H117097   1.426   5.216   1.386  0.3645  0.4566 -2.1927
 5697TIP3    H217098   1.450   5.289   1.516 -1.3323 -3.0219  0.2330
 5698TIP3   OH217099   1.964   2.466   4.794  0.1578 -0.4428  0.7632
 5698TIP3    H117100   1.918   2.382   4.801  1.2895 -1.2865 -1.2091
 5698TIP3    H217101   1.939   2.513   4.874 -0.3569 -2.7160  2.0396
 5699TIP3   OH217102   5.846   4.885   2.380  0.1452  0.0084  0.0509
 5699TIP3    H117103   5.821   4.855   2.467 -2.5609  0.7755 -0.3562
 5699TIP3    H217104   5.863   4.805   2.331 -2.7502 -0.7912  0.1355
 5700TIP3   OH217105   3.110   4.085   2.785  0.2269 -0.6933 -0.3800
 5700TIP3    H117106   3.124   4.037   2.867 -1.2728 -0.6491 -0.0685
 5700TIP3    H217107   3.187   4.065   2.732  1.1101 -0.9268  0.9433
 5701TIP3   OH217108   4.136   2.940   4.718 -0.0862 -0.6815  0.1495
 5701TIP3    H117109   4.175   2.965   4.635 -0.6310  0.6761  0.2722
 5701TIP3    H217110   4.177   2.999   4.782 -0.8193 -0.6441  0.5908
 5702TIP3   OH217111   3.274   1.086   0.947  0.2039  0.0128 -0.4617
 5702TIP3    H117112   3.297   1.067   1.038 -0.1006 -1.2818 -0.6426
 5702TIP3    H217113   3.243   1.177   0.949  0.4033  0.0656  0.6871
 5703TIP3   OH217114   0.107   0.507   0.473 -0.2037 -0.2569 -0.0929
 5703TIP3    H117115   0.049   0.583   0.482  2.3477  1.8210  0.0574
 5703TIP3    H217116   0.051   0.432   0.493 -2.6948  1.6051  0.4900
 5704TIP3   OH217117   4.970   2.579   5.032 -0.6156 -0.1691 -0.2495
 5704TIP3    H117118   5.024   2.609   4.959 -3.2539 -0.2128 -2.3867
 5704TIP3    H217119   5.001   2.629   5.108  1.6606  0.5300 -1.5591
 5705TIP3   OH217120   5.386   5.327   0.537 -0.2703 -0.2210  0.4556
 5705TIP3    H117121   5.318   5.387   0.508 -0.0224 -0.2543 -0.2214
 5705TIP3    H217122   5.462   5.383   0.554  0.1544 -0.3889 -0.7848
 5706TIP3   OH217123   6.027   3.159   0.507  0.3524 -0.0461 -0.3270
 5706TIP3    H117124   6.039   3.124   0.419  1.0303  0.7486 -0.5573
 5706TIP3    H217125   6.102   3.128   0.556  1.3000  1.5370 -0.6943
 5707TIP3   OH217126   3.824   4.417   3.325  0.5074  0.3434 -0.1572
 5707TIP3    H117127   3.798   4.508   3.343  1.3437  0.6773 -0.5945
 5707TIP3    H217128   3.760   4.364   3.373 -2.1640  1.0799 -2.6510
 5708TIP3   OH217129   2.545   3.646   3.902  0.0937 -0.4921  0.3191
 5708TIP3    H117130   2.463   3.652   3.949  0.6331  1.4014  1.1348
 5708TIP3    H217131   2.569   3.553   3.905 -0.6773 -0.6700  2.4128
 5709TIP3   OH217132   5.724   4.608   4.091 -0.3097 -0.8055  0.9088
 5709TIP3    H117133   5.816   4.634   4.093 -0.6079  0.7324 -1.3911
 5709TIP3    H217134   5.676   4.690   4.105 -1.2979 -1.2154  0.0699
 5710TIP3   OH217135   2.654   0.362   1.846  0.2260 -0.8927 -0.2241
 5710TIP3    H117136   2.586   0.331   1.785  0.5387 -2.3405  0.1226
 5710TIP3    H217137   2.734   0.321   1.815  0.7760  0.0298 -0.0437
 5711TIP3   OH217138   5.229   3.453   2.718  0.7512  0.1121 -0.1836
 5711TIP3    H117139   5.268   3.522   2.664 -0.9330  1.4945  0.2887
 5711TIP3    H217140   5.234   3.375   2.663  0.7957  1.0567 -1.5826
 5712TIP3   OH217141   1.189   4.643   1.129  0.1732 -0.0637  0.2135
 5712TIP3    H117142   1.125   4.626   1.198  1.1310  1.0421  1.4307
 5712TIP3    H217143   1.137   4.660   1.051 -0.9813 -0.1870  0.9307
 5713TIP3   OH217144   4.202   3.283   4.035  0.0851 -0.3648  0.2525
 5713TIP3    H117145   4.196   3.191   4.061 -1.2246 -0.1858  0.6783
 5713TIP3    H217146   4.294   3.305   4.046  0.1666 -1.2215  1.6115
 5714TIP3   OH217147   2.345   0.608   2.173  0.0518 -0.2181  0.0655
 5714TIP3    H117148   2.380   0.588   2.260 -0.5650  1.6487  0.7922
 5714TIP3    H217149   2.421   0.606   2.115  0.5944 -0.7157  0.7761
 5715TIP3   OH217150   4.181   2.777   2.822  0.1363 -0.0530 -0.5603
 5715TIP3    H117151   4.166   2.697   2.870  1.0459 -0.2423 -0.5774
 5715TIP3    H217152   4.182   2.846   2.888  0.3535 -0.1832 -0.4284
 5716TIP3   OH217153   3.078   0.255   2.979 -0.2678  0.3247  0.3204
 5716TIP3    H117154   2.992   0.226   3.009 -1.0417 -0.8175 -2.6211
 5716TIP3    H217155   3.060   0.302   2.898  1.7478  1.8843  0.7092
 5717TIP3   OH217156   4.194   0.025   2.324  0.5142  1.2068  0.2156
 5717TIP3    H117157   4.197   0.119   2.339 -0.0433  1.5448 -1.5603
 5717TIP3    H217158   4.117  -0.005   2.371 -0.0144  1.8600 -0.2164
 5718TIP3   OH217159   2.359   3.561   0.029  0.8760 -0.6345 -0.4871
 5718TIP3    H117160   2.385   3.498   0.096  0.9360 -0.2990 -0.1940
 5718TIP3    H217161   2.391   3.645   0.061 -0.3520 -0.2466 -0.2414
 5719TIP3   OH217162   2.889   1.938   2.042  0.0058  0.1147 -0.2966
 5719TIP3    H117163   2.867   1.846   2.058 -0.3340  0.0346 -1.2028
 5719TIP3    H217164   2.981   1.936   2.016  0.3135  0.1546  0.7452
 5720TIP3   OH217165   5.570   4.093   5.198  0.1974 -0.2862 -0.1660
 5720TIP3    H117166   5.586   4.002   5.220  0.8500 -0.7826 -2.4528
 5720TIP3    H217167   5.591   4.100   5.105  1.3695  2.4778  0.1949
 5721TIP3   OH217168   4.904   4.302   2.156  0.2645  0.0748  0.9158
 5721TIP3    H117169   4.924   4.388   2.193 -0.9964  0.6139  0.4265
 5721TIP3    H217170   4.808   4.299   2.155  0.2619 -0.3830 -1.2113
 5722TIP3   OH217171   5.991   4.517   2.513 -0.4978 -0.4881  0.0371
 5722TIP3    H117172   5.967   4.530   2.605  2.3578  1.4310  0.6747
 5722TIP3    H217173   5.995   4.422   2.502  2.9155 -0.9719  3.2176
 5723TIP3   OH217174   5.830   2.478   2.098  0.1020 -0.3942  0.1446
 5723TIP3    H117175   5.815   2.389   2.065  0.7555 -0.0148 -1.2308
 5723TIP3    H217176   5.925   2.487   2.100  0.1005  1.2616 -2.6473
 5724TIP3   OH217177   3.425   4.437   1.095 -0.3849 -0.0429 -0.6425
 5724TIP3    H117178   3.487   4.500   1.058  0.0278 -0.4463 -0.6378
 5724TIP3    H217179   3.341   4.461   1.055  0.0620 -0.5358 -1.9488
 5725TIP3   OH217180   1.242   3.701   3.850  0.2574  0.2128  0.2601
 5725TIP3    H117181   1.262   3.610   3.831  0.5452  0.1447  0.8444
 5725TIP3    H217182   1.147   3.705   3.855  0.1339  0.3588 -1.7260
 5726TIP3   OH217183   5.282   5.467   3.048 -0.0804  0.3218 -0.7438
 5726TIP3    H117184   5.301   5.557   3.072  1.8569 -0.7791  2.3917
 5726TIP3    H217185   5.340   5.449   2.974  0.2110  1.3326 -0.7800
 5727TIP3   OH217186   0.529   4.501   1.647 -0.2103 -0.5279 -0.1239
 5727TIP3    H117187   0.550   4.500   1.554 -0.9665  1.6149 -0.3674
 5727TIP3    H217188   0.578   4.576   1.682 -1.8491  0.2053  0.6979
 5728TIP3   OH217189   2.197   1.969   3.556 -1.0403  0.8133 -0.1231
 5728TIP3    H117190   2.250   1.920   3.492  1.2639  1.1224  1.4307
 5728TIP3    H217191   2.125   1.910   3.578 -1.1010  0.1450 -1.9213
 5729TIP3   OH217192   3.241   5.522   4.703  0.3653  0.0645 -0.2092
 5729TIP3    H117193   3.212   5.565   4.622  0.7557  0.1264 -0.3205
 5729TIP3    H217194   3.337   5.521   4.696  0.3760 -0.5047 -0.0391
 5730TIP3   OH217195   0.972   0.769   2.803 -0.4254  0.0755  0.1840
 5730TIP3    H117196   1.005   0.815   2.726  1.0298 -2.3860 -0.7685
 5730TIP3    H217197   0.992   0.827   2.876  2.9641  0.2558 -0.7387
 5731TIP3   OH217198   0.638   4.459   5.122 -0.5125  0.2289  0.0379
 5731TIP3    H117199   0.565   4.472   5.182  0.1343 -0.0385  0.9019
 5731TIP3    H217200   0.626   4.370   5.089  0.7967 -0.8222  2.1604
 5732TIP3   OH217201   2.121   4.109   2.232  0.1331 -0.1924  0.1130
 5732TIP3    H117202   2.047   4.168   2.222  0.1933 -0.2216 -0.5284
 5732TIP3    H217203   2.082   4.022   2.240  0.1356 -0.3791 -1.6394
 5733TIP3   OH217204   4.919   3.863   0.959  0.1663  0.5749  0.3278
 5733TIP3    H117205   4.897   3.914   1.037 -1.1989  1.0572 -0.3389
 5733TIP3    H217206   4.991   3.806   0.987 -0.7963  0.1827  2.1514
 5734TIP3   OH217207   4.966   2.205   2.219 -0.4495  0.3745 -0.1858
 5734TIP3    H117208   4.903   2.158   2.273 -1.0590  1.1064 -0.2395
 5734TIP3    H217209   4.931   2.294   2.214 -0.1040  0.4612 -1.3068
 5735TIP3   OH217210   2.334   5.395   1.885  0.2524  0.9002 -0.1560
 5735TIP3    H117211   2.356   5.302   1.879 -0.5551  0.6896  0.0524
 5735TIP3    H217212   2.339   5.427   1.794  0.8986  0.7499 -0.1782
 5736TIP3   OH217213   2.748   4.489   4.359 -0.4134  0.3291 -0.5721
 5736TIP3    H117214   2.678   4.435   4.322  0.8778 -0.4657 -1.9438
 5736TIP3    H217215   2.802   4.428   4.409 -1.5607  1.2160  1.9902
 5737TIP3   OH217216   2.454   3.217   4.106  0.2176  0.2098 -0.4020
 5737TIP3    H117217   2.397   3.216   4.029  0.6797 -0.9239 -0.7394
 5737TIP3    H217218   2.426   3.142   4.158  0.6189  0.3423  0.0154
 5738TIP3   OH217219   0.042   4.920   0.482 -0.0843 -0.1381  0.0876
 5738TIP3    H117220  -0.050   4.896   0.470  0.1046 -0.5103 -0.6569
 5738TIP3    H217221   0.091   4.848   0.442  0.5405 -0.0876  0.7328
 5739TIP3   OH217222   3.932   1.025   0.173  0.5352  0.2026 -0.0321
 5739TIP3    H117223   3.918   1.016   0.079 -2.3828  0.5863  0.2934
 5739TIP3    H217224   3.874   0.959   0.213  1.2098  0.4952  1.5333
 5740TIP3   OH217225   5.959   4.043   1.348  0.3223  0.0866 -0.3846
 5740TIP3    H117226   5.908   4.079   1.421  0.3071  0.1829 -0.4425
 5740TIP3    H217227   5.894   4.000   1.292  0.4909 -1.1385  0.3319
 5741TIP3   OH217228   0.896   4.855   0.045 -0.0193 -0.4200 -0.2408
 5741TIP3    H117229   0.865   4.912   0.115 -0.3360  0.0166 -0.7278
 5741TIP3    H217230   0.837   4.873  -0.028  1.4343  0.5448 -1.2362
 5742TIP3   OH217231   3.759   3.136   3.872  0.1522  0.0190  0.2156
 5742TIP3    H117232   3.695   3.165   3.807  0.1735 -0.1416  0.1215
 5742TIP3    H217233   3.715   3.150   3.957  0.4567  1.0480  0.2162
 5743TIP3   OH217234   0.130   3.508   2.503 -0.4581 -0.2683 -0.5804
 5743TIP3    H117235   0.157   3.535   2.415  1.7288  0.0811  0.1482
 5743TIP3    H217236   0.070   3.577   2.531  1.1691  1.2702 -0.6854
 5744TIP3   OH217237   4.781   2.207   3.569 -0.1994  0.4559 -0.1128
 5744TIP3    H117238   4.810   2.180   3.656  1.4144 -1.6369 -1.2033
 5744TIP3    H217239   4.686   2.197   3.572 -0.1076 -0.3769  1.1900
 5745TIP3   OH217240   1.275   1.818   4.968  0.0148 -0.5075  0.2186
 5745TIP3    H117241   1.209   1.759   5.005  0.2789  0.1028  1.7570
 5745TIP3    H217242   1.299   1.875   5.041  0.1632  1.1628 -1.0685
 5746TIP3   OH217243   0.082   1.347   3.057  0.0067 -0.6731 -0.1141
 5746TIP3    H117244   0.101   1.333   3.149  2.8333  0.5798 -0.3984
 5746TIP3    H217245   0.081   1.259   3.019 -0.5149 -1.1513  0.9554
 5747TIP3   OH217246   3.670   0.481   5.163  0.2458 -0.6586  0.5733
 5747TIP3    H117247   3.722   0.560   5.151  0.2862 -0.3029  2.8141
 5747TIP3    H217248   3.580   0.512   5.169  0.1556 -0.8961  0.4670
 5748TIP3   OH217249   5.146   4.554   2.446 -0.3454  0.8560  0.2677
 5748TIP3    H117250   5.221   4.565   2.387  0.3131  1.0008  1.1104
 5748TIP3    H217251   5.070   4.575   2.392  0.2026  0.5561 -0.6515
 5749TIP3   OH217252   5.283   4.627   2.928  0.2720 -0.0646  0.0285
 5749TIP3    H117253   5.278   4.534   2.951  1.4959  0.5145  3.0960
 5749TIP3    H217254   5.198   4.663   2.953  0.7819  0.1250  1.5547
 5750TIP3   OH217255   3.518   4.816   0.410  0.3412  0.0654  0.7798
 5750TIP3    H117256   3.552   4.829   0.321 -1.5607 -0.7579 -0.1247
 5750TIP3    H217257   3.590   4.841   0.467  0.3764  4.7547 -0.8558
 5751TIP3   OH217258   2.968   4.447   1.196  0.8008 -0.0235 -0.6462
 5751TIP3    H117259   2.888   4.481   1.158  1.4844 -0.6420 -2.7658
 5751TIP3    H217260   2.963   4.352   1.182  0.1946 -0.5955  2.6655
 5752TIP3   OH217261   4.410   4.093   1.780  0.3850 -0.1060  0.5416
 5752TIP3    H117262   4.440   4.126   1.865 -1.2760  1.6244  0.5055
 5752TIP3    H217263   4.358   4.164   1.743 -2.3181 -2.2847 -0.1506
 5753TIP3   OH217264   2.657   4.345   2.709 -0.0971  0.1332  0.3578
 5753TIP3    H117265   2.622   4.300   2.786  1.3416 -0.6136  0.6195
 5753TIP3    H217266   2.733   4.293   2.684  0.2584  1.1393 -0.7476
 5754TIP3   OH217267   0.714   3.137   3.595 -0.1406  0.6210  0.0117
 5754TIP3    H117268   0.756   3.081   3.530 -1.8788  0.6482 -1.2102
 5754TIP3    H217269   0.736   3.096   3.679 -1.5236 -2.1457 -0.8318
 5755TIP3   OH217270   0.655   1.012   4.154  0.0157 -0.2006 -0.1989
 5755TIP3    H117271   0.560   1.002   4.153  0.1001 -1.1420 -0.8363
 5755TIP3    H217272   0.677   1.047   4.068  0.2472 -0.0073 -0.0637
 5756TIP3   OH217273   2.374   5.829   4.839 -1.0355  0.0733 -0.4335
 5756TIP3    H117274   2.411   5.913   4.865 -0.1952 -0.7261  1.0767
 5756TIP3    H217275   2.446   5.766   4.850 -2.2928 -1.2165  0.7643
 5757TIP3   OH217276   0.349   1.825   2.255  0.0510 -0.5131  0.1824
 5757TIP3    H117277   0.260   1.859   2.263 -0.5218 -2.0948  0.9412
 5757TIP3    H217278   0.388   1.840   2.341 -0.3220 -2.0076  0.6371
 5758TIP3   OH217279   1.807   5.517   4.653 -0.0947 -0.7277 -0.1737
 5758TIP3    H117280   1.866   5.451   4.690  0.4595 -0.6605 -0.9221
 5758TIP3    H217281   1.764   5.556   4.729  1.9540  0.3046  0.5329
 5759TIP3   OH217282   0.439   3.393   2.692 -0.1879 -0.1980  0.4915
 5759TIP3    H117283   0.495   3.471   2.689  0.4667 -0.6827 -0.8196
 5759TIP3    H217284   0.399   3.395   2.779 -0.2883  1.6562  0.4362
 5760TIP3   OH217285   4.889   2.570   1.209  0.3396  0.0089  0.0003
 5760TIP3    H117286   4.931   2.486   1.190 -0.8176 -0.8073  0.9273
 5760TIP3    H217287   4.913   2.589   1.300 -0.0923  0.2729  0.0592
 5761TIP3   OH217288   5.750   1.999   3.966 -0.4124  0.2846 -0.3381
 5761TIP3    H117289   5.735   1.936   4.037  1.1417 -0.2656 -0.4496
 5761TIP3    H217290   5.664   2.014   3.928 -1.0349 -0.6395  0.6576
 5762TIP3   OH217291   5.201   1.529   1.634  0.0359 -0.2696  0.7717
 5762TIP3    H117292   5.133   1.476   1.674 -0.4073  1.0890  1.9117
 5762TIP3    H217293   5.215   1.491   1.548 -1.1513 -1.4350  1.0773
 5763TIP3   OH217294   2.364   5.532   4.428 -0.0384 -0.4629  0.0852
 5763TIP3    H117295   2.342   5.455   4.376 -1.7579 -1.2589  1.8989
 5763TIP3    H217296   2.401   5.497   4.509 -0.1933  0.6508  0.6484
 5764TIP3   OH217297   5.638   0.400   2.856  0.5463 -0.0135  0.4849
 5764TIP3    H117298   5.553   0.383   2.814  0.8822  0.6055 -0.4709
 5764TIP3    H217299   5.658   0.318   2.902  0.0835 -0.6532 -0.4246
 5765TIP3   OH217300   2.473   3.835   0.579 -0.2446  0.1741 -0.5112
 5765TIP3    H117301   2.445   3.902   0.641  1.2797  0.7901 -0.4400
 5765TIP3    H217302   2.512   3.767   0.634  0.5795  0.4550 -0.7259
 5766TIP3   OH217303   1.702   3.927   2.372  0.6040  0.0571 -0.1199
 5766TIP3    H117304   1.660   3.989   2.431  0.6097  0.5218 -0.5976
 5766TIP3    H217305   1.762   3.878   2.428 -0.2205 -0.2959  0.4772
 5767TIP3   OH217306   1.768   3.598   1.863 -0.1384  0.6420  0.1236
 5767TIP3    H117307   1.733   3.512   1.885  2.1785  0.0201  1.7111
 5767TIP3    H217308   1.741   3.654   1.936 -1.3233  1.2051 -0.7213
 5768TIP3   OH217309   3.612   5.046   1.929  0.0804 -0.0430  0.4594
 5768TIP3    H117310   3.693   5.068   1.884  0.1943  1.0375  1.1575
 5768TIP3    H217311   3.552   5.020   1.860  0.9038 -0.5138 -0.0987
 5769TIP3   OH217312   3.623   0.791   1.244  0.1087  0.6573  0.0790
 5769TIP3    H117313   3.700   0.778   1.189 -0.3291  1.0256 -0.6350
 5769TIP3    H217314   3.594   0.703   1.267 -1.0661  0.3809 -2.2078
 5770TIP3   OH217315   5.988   2.407   1.767  0.5003  0.1388 -0.1698
 5770TIP3    H117316   6.076   2.375   1.743  1.0434  0.4277  1.3217
 5770TIP3    H217317   6.005   2.480   1.826 -0.7662  0.4925 -0.2277
 5771TIP3   OH217318   1.442   0.808   3.566  0.0079  0.1430  0.2487
 5771TIP3    H117319   1.458   0.890   3.521 -0.4729 -0.8690 -1.9022
 5771TIP3    H217320   1.405   0.833   3.650  2.0440  2.1561  0.6496
 5772TIP3   OH217321   4.377   5.120   0.362  0.0016 -0.4396  0.5514
 5772TIP3    H117322   4.372   5.035   0.406 -0.3187 -0.4788  0.4403
 5772TIP3    H217323   4.388   5.183   0.433 -0.8378 -0.4709  0.7147
 5773TIP3   OH217324   3.420   4.997  -0.017  0.2405 -0.2883 -0.3270
 5773TIP3    H117325   3.398   4.977   0.074  3.0198  0.8047  0.6915
 5773TIP3    H217326   3.386   5.085  -0.031 -0.9746 -0.7888 -0.7014
 5774TIP3   OH217327   5.017   2.604   2.709 -0.5263 -0.1336 -0.0556
 5774TIP3    H117328   5.070   2.649   2.774 -0.6339  0.1832 -0.1887
 5774TIP3    H217329   5.079   2.576   2.642 -0.1414 -1.9779  1.0052
 5775TIP3   OH217330   2.169   5.010   0.341 -0.0372 -0.0537  0.1544
 5775TIP3    H117331   2.226   5.047   0.408  0.2813 -2.9201  1.6336
 5775TIP3    H217332   2.153   5.082   0.281  3.3303  1.5017  0.8624
 5776TIP3   OH217333   2.818   3.195   2.978 -0.3551  0.5497 -0.3030
 5776TIP3    H117334   2.892   3.180   2.920 -0.3918 -0.1861 -0.1724
 5776TIP3    H217335   2.802   3.289   2.974  0.5122  0.6974 -0.4205
 5777TIP3   OH217336   5.968   5.628   4.478  0.4479  0.2994 -0.0507
 5777TIP3    H117337   6.060   5.603   4.485  0.7465  1.5665  0.9430
 5777TIP3    H217338   5.947   5.667   4.563 -1.3124 -0.8808  0.1046
 5778TIP3   OH217339   2.203   3.331   4.665 -0.0401  0.4936  0.5803
 5778TIP3    H117340   2.242   3.276   4.597  0.4618  0.0486  1.2129
 5778TIP3    H217341   2.267   3.328   4.737 -1.8416 -1.4111  2.2349
 5779TIP3   OH217342   6.284   4.194   2.366  0.0687 -0.0581 -0.3037
 5779TIP3    H117343   6.270   4.285   2.339 -0.0623 -0.0439 -0.1899
 5779TIP3    H217344   6.200   4.151   2.349  0.1465 -0.1699 -0.4054
 5780TIP3   OH217345   5.437   0.598   0.573  0.2898  0.4023 -0.2776
 5780TIP3    H117346   5.438   0.629   0.483  2.9794 -0.5603 -0.6938
 5780TIP3    H217347   5.525   0.616   0.605  0.6466 -2.6776  0.8395
 5781TIP3   OH217348   1.276   0.039   4.330 -0.2688 -0.7398 -0.0120
 5781TIP3    H117349   1.224   0.113   4.300  0.8922  0.3296  0.5475
 5781TIP3    H217350   1.285  -0.017   4.253  1.4177  1.2215 -1.3264
 5782TIP3   OH217351   2.863   5.413   2.233  0.2695  0.1595  0.5604
 5782TIP3    H117352   2.914   5.440   2.157  1.3742 -0.6143  1.0043
 5782TIP3    H217353   2.899   5.463   2.306  1.8661 -1.8791  1.2603
 5783TIP3   OH217354   2.384   1.888   4.345  0.0203  0.6361  0.1095
 5783TIP3    H117355   2.397   1.847   4.431 -0.8082 -0.5880 -0.3249
 5783TIP3    H217356   2.304   1.939   4.355  0.0847  0.7277  0.1538
 5784TIP3   OH217357   3.133   3.683   0.106  0.0398 -0.3906  0.1491
 5784TIP3    H117358   3.158   3.768   0.069  0.7741 -0.7606 -0.2389
 5784TIP3    H217359   3.056   3.657   0.056 -0.3135  0.1486  0.4156
 5785TIP3   OH217360   3.293   1.726   2.577 -0.0817 -0.0357 -0.5636
 5785TIP3    H117361   3.374   1.776   2.589  1.3886 -2.3741 -0.0147
 5785TIP3    H217362   3.303   1.686   2.490 -0.7059 -0.2489 -0.5395
 5786TIP3   OH217363   3.791   4.881   4.720  0.1321 -0.2269  0.0699
 5786TIP3    H117364   3.762   4.949   4.658  0.2658 -0.3125 -0.0889
 5786TIP3    H217365   3.875   4.914   4.752 -0.6838  0.6070  1.4437
 5787TIP3   OH217366   3.464   5.317   3.983 -0.1770 -0.2185 -0.0175
 5787TIP3    H117367   3.447   5.389   4.043 -0.0574 -0.3950  0.2281
 5787TIP3    H217368   3.539   5.346   3.931 -1.6318  0.8944 -1.6304
 5788TIP3   OH217369   0.846   4.060   2.130 -0.1745 -1.1609  0.0171
 5788TIP3    H117370   0.902   4.127   2.170 -0.1105 -0.3155 -1.4343
 5788TIP3    H217371   0.900   4.021   2.061 -0.8483 -1.4225 -0.3703
 5789TIP3   OH217372   3.984   5.328   4.013  0.2214  0.3700  0.0892
 5789TIP3    H117373   3.979   5.404   3.954  0.2696  0.4902  0.2412
 5789TIP3    H217374   3.995   5.253   3.954  0.5930  0.5228 -0.0386
 5790TIP3   OH217375   5.494   2.743   2.337  0.2404  0.2219  0.1370
 5790TIP3    H117376   5.470   2.730   2.429  3.0947 -1.1452  0.7878
 5790TIP3    H217377   5.567   2.684   2.322  0.7149  1.3418 -2.6939
 5791TIP3   OH217378   2.215   5.737   1.114  0.2684  0.5712  0.2611
 5791TIP3    H117379   2.209   5.821   1.068  0.3545  0.0818 -0.6508
 5791TIP3    H217380   2.284   5.690   1.068 -2.2201 -1.4949 -1.6670
 5792TIP3   OH217381   4.995   5.904   1.015 -0.4045 -0.2209  0.6833
 5792TIP3    H117382   4.924   5.962   0.990 -0.3246  0.6882  2.3913
 5792TIP3    H217383   5.058   5.961   1.060  0.9302 -1.1853  0.1130
 5793TIP3   OH217384   0.754   2.367   5.143 -0.1866 -0.0482  0.0927
 5793TIP3    H117385   0.715   2.302   5.203 -0.1500  0.5762  0.8141
 5793TIP3    H217386   0.833   2.396   5.188  1.3875 -1.5949 -1.5346
 5794TIP3   OH217387   6.195   2.747   1.709  0.2729 -0.4051 -0.3673
 5794TIP3    H117388   6.264   2.706   1.658  0.9654  1.0913 -0.6953
 5794TIP3    H217389   6.231   2.833   1.733 -0.5121 -0.5610  1.5704
 5795TIP3   OH217390   5.906   0.683   2.548  0.3279  0.4887 -0.3470
 5795TIP3    H117391   5.853   0.744   2.599  1.3839 -0.5218  2.1553
 5795TIP3    H217392   5.842   0.621   2.511 -0.4025 -0.4796  2.2677
 5796TIP3   OH217393   2.624   3.767   3.658 -0.0764 -0.0987  0.3615
 5796TIP3    H117394   2.610   3.861   3.671 -0.1318 -0.0761  0.1556
 5796TIP3    H217395   2.614   3.728   3.745 -2.1336 -0.1608  0.1619
 5797TIP3   OH217396   1.879   5.737   1.808  0.2544 -0.5360  0.5139
 5797TIP3    H117397   1.935   5.738   1.731  0.2458  0.3563  0.5027
 5797TIP3    H217398   1.936   5.709   1.880  0.5734 -0.1884  0.3993
 5798TIP3   OH217399   1.191   1.630   1.065  0.1020 -0.1088 -0.3178
 5798TIP3    H117400   1.232   1.566   1.122  0.5867  0.0794 -0.4452
 5798TIP3    H217401   1.187   1.710   1.117 -1.0170 -0.3809  0.0373
 5799TIP3   OH217402   1.919   2.326   0.350 -0.1418  0.1793 -0.1824
 5799TIP3    H117403   1.909   2.232   0.357  0.8673  0.0370 -0.4122
 5799TIP3    H217404   1.947   2.354   0.437  0.6319  0.0945 -0.3884
 5800TIP3   OH217405   0.834   1.669   3.486 -0.1951  0.6634 -0.7262
 5800TIP3    H117406   0.881   1.596   3.448 -0.6759 -0.8606  1.3982
 5800TIP3    H217407   0.745   1.636   3.499 -0.7714  2.0803 -0.9265
 5801TIP3   OH217408   2.995   4.699   5.017 -0.2511 -0.2650 -0.0670
 5801TIP3    H117409   2.968   4.659   4.934  1.7351 -0.8078 -0.5076
 5801TIP3    H217410   3.086   4.671   5.028  0.4354  2.1213  0.8700
 5802TIP3   OH217411   3.537   3.468   1.587 -0.0708  0.4653 -0.2856
 5802TIP3    H117412   3.497   3.535   1.642 -0.0898  0.1330  0.1075
 5802TIP3    H217413   3.576   3.406   1.649 -0.0349  0.1238 -0.6451
 5803TIP3   OH217414   4.224   1.042   3.657  0.1639  0.1385  0.0100
 5803TIP3    H117415   4.288   0.975   3.632 -1.2398 -1.3218  0.1593
 5803TIP3    H217416   4.163   1.045   3.583 -0.3115  0.5844  0.4158
 5804TIP3   OH217417   2.907   1.365   5.143  0.2864  0.0777  0.1013
 5804TIP3    H117418   2.995   1.395   5.117 -0.2093  0.3310 -1.3560
 5804TIP3    H217419   2.849   1.401   5.077 -0.5501 -2.7508 -0.8495
 5805TIP3   OH217420   0.096   2.752   1.563 -0.8337 -0.0778  0.1561
 5805TIP3    H117421   0.179   2.739   1.610 -0.7049 -0.2332 -0.1080
 5805TIP3    H217422   0.114   2.719   1.475 -0.9837  0.4795 -0.0856
 5806TIP3   OH217423   4.226   1.159   3.333 -0.0911  0.2620  0.0125
 5806TIP3    H117424   4.150   1.101   3.337  0.4081 -0.4318 -0.4522
 5806TIP3    H217425   4.211   1.211   3.254  0.5843 -0.8315 -0.8557
 5807TIP3   OH217426   3.625   5.317   1.730  0.6925  0.5641 -0.1746
 5807TIP3    H117427   3.677   5.245   1.766  0.1619 -0.9459 -2.1999
 5807TIP3    H217428   3.666   5.337   1.646 -1.1987  0.1868 -1.2584
 5808TIP3   OH217429   5.423   0.081   0.590  0.6610 -0.8991  0.3904
 5808TIP3    H117430   5.486   0.089   0.662  1.0968 -0.8118  0.0044
 5808TIP3    H217431   5.415   0.170   0.554  2.1241 -1.3049 -1.0594
 5809TIP3   OH217432   4.442   4.658   0.585 -0.0458 -0.3750  0.3601
 5809TIP3    H117433   4.422   4.565   0.597  0.2621 -0.3892  0.7489
 5809TIP3    H217434   4.466   4.690   0.672 -1.5670  0.4181  0.5241
 5810TIP3   OH217435   5.677   4.589   1.971  0.4390 -0.1617  0.1654
 5810TIP3    H117436   5.749   4.571   1.911  1.8264  1.5604  1.2083
 5810TIP3    H217437   5.683   4.520   2.037 -0.3559 -1.3634 -0.9660
 5811TIP3   OH217438   2.579   3.572   4.260 -0.1726  0.5464  0.3837
 5811TIP3    H117439   2.517   3.506   4.291  1.5041 -1.4026 -0.1889
 5811TIP3    H217440   2.563   3.649   4.315 -2.7285 -0.0205  0.5612
 5812TIP3   OH217441   0.258   0.700   3.233 -1.0147 -0.6366  0.1084
 5812TIP3    H117442   0.303   0.689   3.149  0.4040  1.3524  0.5396
 5812TIP3    H217443   0.276   0.618   3.279 -0.7622 -1.2588 -1.0331
 5813TIP3   OH217444   3.886   3.975   5.002  0.1572 -0.4517 -0.0872
 5813TIP3    H117445   3.845   4.060   4.986  1.8555  0.4055 -0.0620
 5813TIP3    H217446   3.878   3.930   4.918 -0.5532 -0.2049 -0.1670
 5814TIP3   OH217447   3.560   2.766   3.279  0.6182 -0.1124  0.1146
 5814TIP3    H117448   3.616   2.761   3.202 -0.7171  0.6956 -0.9537
 5814TIP3    H217449   3.508   2.846   3.267 -0.9223 -0.9279  0.9278
 5815TIP3   OH217450   6.274   4.143   4.750  0.1951 -0.7121  0.4730
 5815TIP3    H117451   6.286   4.051   4.770 -0.3420 -1.0389 -0.6179
 5815TIP3    H217452   6.261   4.146   4.655 -0.8611  0.3625  0.6210
 5816TIP3   OH217453   4.021   5.939   2.077  0.3330 -0.4190  1.0135
 5816TIP3    H117454   4.115   5.946   2.087  0.0989  2.2667  2.1574
 5816TIP3    H217455   3.994   5.872   2.141  1.1672  1.1644  3.1273
 5817TIP3   OH217456   1.137   5.663   2.821  0.0274  0.4907 -0.3998
 5817TIP3    H117457   1.224   5.690   2.851  0.6844 -0.2052 -1.6161
 5817TIP3    H217458   1.148   5.573   2.792 -1.1695  0.3064 -0.3524
 5818TIP3   OH217459   3.595   4.671   4.912 -0.6038  0.1766 -0.4142
 5818TIP3    H117460   3.529   4.737   4.933 -1.3401 -0.9071  0.8365
 5818TIP3    H217461   3.669   4.692   4.969 -0.3368  0.6569 -0.9288
 5819TIP3   OH217462   2.511   4.095   1.813 -0.7698 -0.3923 -0.5673
 5819TIP3    H117463   2.535   4.081   1.905 -1.4605  0.8732 -0.1703
 5819TIP3    H217464   2.564   4.031   1.765 -1.7123 -2.3407  0.8357
 5820TIP3   OH217465   0.821   4.117   1.463  0.3472 -0.9480 -0.0275
 5820TIP3    H117466   0.735   4.107   1.421  0.4706  0.1978 -0.5812
 5820TIP3    H217467   0.880   4.065   1.409  0.3063 -0.3647 -0.6340
 5821TIP3   OH217468   3.272   4.321   2.818  0.1534 -0.2058  0.5397
 5821TIP3    H117469   3.359   4.309   2.780  0.6993  0.6101  1.4743
 5821TIP3    H217470   3.230   4.235   2.809  0.5699 -0.2711 -1.0570
 5822TIP3   OH217471   3.563   5.597   3.673  0.2544  0.7897  0.2360
 5822TIP3    H117472   3.600   5.684   3.690  0.3662  0.8408 -0.2483
 5822TIP3    H217473   3.481   5.595   3.723  0.6075  0.9014  0.8342
 5823TIP3   OH217474   0.898   0.959   0.228  0.3313  0.1097 -0.2416
 5823TIP3    H117475   0.815   0.937   0.185  0.0064  2.2422 -0.7888
 5823TIP3    H217476   0.894   0.911   0.311  0.0819 -2.4778 -1.6206
 5824TIP3   OH217477   2.675   5.746   1.759  0.1348 -0.3300 -0.4900
 5824TIP3    H117478   2.663   5.789   1.844  2.0175 -2.3195  0.8952
 5824TIP3    H217479   2.707   5.816   1.702 -0.4270  0.9072  0.6391
 5825TIP3   OH217480   0.191   4.653   3.113 -0.1013 -0.2172  0.3798
 5825TIP3    H117481   0.158   4.566   3.134 -0.5615  0.0010  0.5738
 5825TIP3    H217482   0.127   4.713   3.151  0.7816  0.2310  1.2335
 5826TIP3   OH217483   5.026   2.842   0.321  0.5006 -0.6452  0.5066
 5826TIP3    H117484   4.987   2.761   0.288 -1.0390 -1.0821  3.1310
 5826TIP3    H217485   5.016   2.837   0.416 -1.3006  3.4269  0.7312
 5827TIP3   OH217486   2.694   0.743   3.208 -0.0099  0.2514 -0.7746
 5827TIP3    H117487   2.788   0.752   3.193 -0.0458  1.3272 -0.4526
 5827TIP3    H217488   2.654   0.786   3.132 -0.2217  0.8849 -0.3138
 5828TIP3   OH217489   2.561   1.356   1.477 -0.0516  0.5381  0.5729
 5828TIP3    H117490   2.566   1.275   1.529 -2.7874  0.2392  0.4711
 5828TIP3    H217491   2.556   1.325   1.386  1.0472  0.9347  0.3632
 5829TIP3   OH217492   1.934   5.972   3.532 -0.1883 -0.1240 -0.3163
 5829TIP3    H117493   1.867   5.936   3.474 -0.2888  0.3106 -0.4718
 5829TIP3    H217494   1.929   6.066   3.520  1.2085 -0.1292 -1.1834
 5830TIP3   OH217495   2.219   0.431   2.821  0.8984  0.7018 -0.3382
 5830TIP3    H117496   2.180   0.353   2.862  0.2058  1.9190  1.4698
 5830TIP3    H217497   2.222   0.495   2.892  2.6034  1.9395 -1.4613
 5831TIP3   OH217498   3.027   4.024   0.610 -0.8343 -0.3264 -0.1255
 5831TIP3    H117499   2.973   4.100   0.633 -1.5494 -0.6793 -0.6018
 5831TIP3    H217500   3.074   4.050   0.531 -0.2500  0.0043  0.3257
 5832TIP3   OH217501   1.017   0.504   2.755  0.2637 -0.1789 -0.0282
 5832TIP3    H117502   0.990   0.596   2.756  1.2552  0.1311 -0.3455
 5832TIP3    H217503   1.014   0.479   2.663 -0.5428 -0.6418  0.1150
 5833TIP3   OH217504   1.015   5.409   3.200  0.2952 -0.1259 -0.5073
 5833TIP3    H117505   1.044   5.468   3.270  0.6326 -0.7201 -0.1421
 5833TIP3    H217506   0.941   5.454   3.161 -0.2657 -0.0446  0.6015
 5834TIP3   OH217507   5.462   3.516   1.567 -0.6148 -0.2481  0.5122
 5834TIP3    H117508   5.375   3.503   1.530 -1.2651  0.1410  1.8248
 5834TIP3    H217509   5.450   3.502   1.661  0.6049  0.4627  0.7927
 5835TIP3   OH217510   3.693   4.974   0.037  0.0709 -0.1316 -0.3343
 5835TIP3    H117511   3.602   4.974   0.006  0.4378  0.5776 -1.4938
 5835TIP3    H217512   3.739   4.915  -0.023  0.3728 -0.4881  0.2500
 5836TIP3   OH217513   0.060   1.721   2.218 -0.4330 -0.4227  0.8323
 5836TIP3    H117514   0.050   1.633   2.254 -4.3023 -0.2406  0.6525
 5836TIP3    H217515   0.051   1.779   2.293 -1.0879 -0.1537  0.5505
 5837TIP3   OH217516   2.584   1.528   1.896 -0.4828 -0.1394  0.7012
 5837TIP3    H117517   2.508   1.562   1.942 -1.9867 -1.3306 -0.7393
 5837TIP3    H217518   2.552   1.513   1.806  1.6013 -0.2040 -0.0789
 5838TIP3   OH217519   1.967   1.281   4.247  0.2727 -0.4693 -0.5148
 5838TIP3    H117520   2.057   1.250   4.251 -0.0561 -1.3925 -0.0594
 5838TIP3    H217521   1.941   1.292   4.338  0.2331  0.7527 -0.6558
 5839TIP3   OH217522   1.864   5.222   2.461  0.2643 -0.1688 -0.2109
 5839TIP3    H117523   1.783   5.201   2.507  0.4952  0.5620  0.5670
 5839TIP3    H217524   1.900   5.137   2.435  0.0496 -0.6040  0.8541
 5840TIP3   OH217525   2.316   2.844   3.123  0.1932 -0.4564  0.2240
 5840TIP3    H117526   2.408   2.849   3.150  0.2240  0.2752 -0.0121
 5840TIP3    H217527   2.294   2.933   3.094  0.0554 -1.0838 -1.7957
 5841TIP3   OH217528   5.551   1.129   5.096 -0.4361  0.1842  0.4808
 5841TIP3    H117529   5.591   1.158   5.014  2.6711  1.0718  2.1152
 5841TIP3    H217530   5.517   1.210   5.135 -2.2113 -0.2875 -0.0242
 5842TIP3   OH217531   0.346   1.992   3.020  0.6736  0.1627 -0.0064
 5842TIP3    H117532   0.359   1.961   2.931  0.8686 -0.0401  0.0918
 5842TIP3    H217533   0.347   2.088   3.013 -1.7557  0.2101 -0.5850
 5843TIP3   OH217534   5.898   2.984   3.238  0.3476 -0.1256 -0.0883
 5843TIP3    H117535   5.876   3.078   3.237  0.1776 -0.1625  0.1299
 5843TIP3    H217536   5.830   2.944   3.184  0.5860 -0.0879 -0.4166
 5844TIP3   OH217537   3.081   2.403   1.777 -0.6966 -0.5994 -0.1430
 5844TIP3    H117538   2.989   2.428   1.785 -0.4176  0.2166  0.6384
 5844TIP3    H217539   3.121   2.429   1.860  0.1673 -1.2784 -0.3288
 5845TIP3   OH217540   4.354   1.182   1.820  0.4392 -0.2239  0.2415
 5845TIP3    H117541   4.410   1.134   1.882  0.1480  0.4108  1.0196
 5845TIP3    H217542   4.391   1.270   1.817  1.1176 -0.5320 -1.3660
 5846TIP3   OH217543   1.235   3.953   0.184  0.2657 -0.3664  0.4919
 5846TIP3    H117544   1.232   3.983   0.275  0.4749  1.3515 -0.0357
 5846TIP3    H217545   1.274   3.866   0.189  0.2167 -0.3316  2.0504
 5847TIP3   OH217546   3.600   0.335   0.051 -0.6497 -0.4991  0.0351
 5847TIP3    H117547   3.528   0.276   0.028  0.6177 -2.4013  0.7290
 5847TIP3    H217548   3.583   0.358   0.143 -1.0126  0.0469 -0.1637
 5848TIP3   OH217549   2.773   3.235   2.552  0.2139  0.1460  0.0516
 5848TIP3    H117550   2.842   3.261   2.491  0.9577 -0.3457  0.6718
 5848TIP3    H217551   2.815   3.235   2.638 -1.7654  5.0081  1.3538
 5849TIP3   OH217552   0.723   4.019   3.699  0.4528  0.4288 -0.1150
 5849TIP3    H117553   0.669   3.941   3.708 -0.2797  1.1244  2.3696
 5849TIP3    H217554   0.807   3.995   3.737  0.6980  0.4190 -0.6639
 5850TIP3   OH217555   4.383   4.216   1.047 -0.3953 -0.1600  0.4176
 5850TIP3    H117556   4.357   4.297   1.004 -0.9607 -1.0835 -1.0544
 5850TIP3    H217557   4.426   4.165   0.979 -1.5359 -1.7769  0.8357
 5851TIP3   OH217558   1.753   1.788   0.148  0.4941 -0.2843  0.6188
 5851TIP3    H117559   1.820   1.819   0.209 -0.1039 -0.8844  1.6081
 5851TIP3    H217560   1.736   1.697   0.175  0.7826 -0.8297 -0.9509
 5852TIP3   OH217561   4.381   0.678   5.150 -0.3969 -0.4378 -0.0213
 5852TIP3    H117562   4.420   0.759   5.117  2.6941 -1.7473  0.1166
 5852TIP3    H217563   4.432   0.656   5.228 -1.8646 -1.9919  0.5731
 5853TIP3   OH217564   4.558   0.377   4.553 -0.2828 -0.3898 -0.1059
 5853TIP3    H117565   4.496   0.408   4.619 -0.6331 -0.6008 -0.3353
 5853TIP3    H217566   4.533   0.421   4.472  0.0674 -0.2296 -0.1294
 5854TIP3   OH217567   1.744   0.938   2.611 -1.0201  0.7464 -0.5395
 5854TIP3    H117568   1.797   1.010   2.644  0.5531 -0.1815 -0.9268
 5854TIP3    H217569   1.750   0.870   2.679 -1.9658  0.7264 -0.4597
 5855TIP3   OH217570   5.259   4.199   4.021 -0.6317  0.1376  0.3713
 5855TIP3    H117571   5.272   4.105   4.008 -1.5499  0.0663 -0.0578
 5855TIP3    H217572   5.222   4.207   4.108 -2.1059 -0.0540 -0.2051
 5856TIP3   OH217573   1.659   2.376   0.633  0.4554  0.0136  0.2853
 5856TIP3    H117574   1.625   2.437   0.567  0.0691  1.2964  1.5997
 5856TIP3    H217575   1.735   2.421   0.670  1.0857 -0.9944  0.2507
 5857TIP3   OH217576   6.163   2.766   2.134 -0.1730 -0.0361  0.2790
 5857TIP3    H117577   6.256   2.744   2.131 -0.3168 -0.6240 -0.1681
 5857TIP3    H217578   6.160   2.859   2.154  0.5134  0.0121  0.1599
 5858TIP3   OH217579   1.895   0.011   0.783 -0.9247  0.2041  0.5745
 5858TIP3    H117580   1.961   0.026   0.716 -1.7186  1.8606  0.1073
 5858TIP3    H217581   1.943  -0.029   0.856  0.2525 -0.1418 -0.3670
 5859TIP3   OH217582   5.125   0.045   4.972 -0.3112  0.0068 -0.8914
 5859TIP3    H117583   5.037   0.008   4.970  0.5430 -2.4327  1.5441
 5859TIP3    H217584   5.167   0.009   4.894  0.1778 -3.6770  0.8548
 5860TIP3   OH217585   3.753   5.031   0.719  0.1194 -0.0900 -0.0579
 5860TIP3    H117586   3.679   5.089   0.738 -0.3686  0.5109 -3.2145
 5860TIP3    H217587   3.827   5.091   0.708  1.0995 -0.6586  2.6792
 5861TIP3   OH217588   5.171   5.239   4.315 -0.3794 -0.4627 -0.4040
 5861TIP3    H117589   5.089   5.288   4.319  0.4291  0.8463  0.8626
 5861TIP3    H217590   5.236   5.301   4.283  0.6789 -0.6240  1.2667
 5862TIP3   OH217591   1.238   0.143   5.131  0.1416  0.4137  0.0857
 5862TIP3    H117592   1.206   0.171   5.217 -2.7932 -2.0361 -0.0277
 5862TIP3    H217593   1.168   0.166   5.071  1.5588  0.8377 -1.4775
 5863TIP3   OH217594   1.907   0.873   1.559 -0.3605  0.3680  0.0781
 5863TIP3    H117595   1.829   0.822   1.580  0.4569 -1.0803 -0.2502
 5863TIP3    H217596   1.973   0.807   1.537  0.5471  1.6060 -1.0589
 5864TIP3   OH217597   3.143   0.631   4.409 -0.0408 -0.4356 -0.3099
 5864TIP3    H117598   3.116   0.539   4.417 -2.7691  0.1208 -1.8313
 5864TIP3    H217599   3.065   0.681   4.430  1.2436  1.5725 -0.0569
 5865TIP3   OH217600   3.726   1.869   4.240 -0.4778 -0.1182 -0.7431
 5865TIP3    H117601   3.750   1.889   4.149  1.5098 -0.3814 -0.3162
 5865TIP3    H217602   3.698   1.953   4.276  2.0895  0.7824 -0.6519
 5866TIP3   OH217603   3.314   4.016   3.939  0.5227 -0.1666  0.2924
 5866TIP3    H117604   3.367   3.962   3.880 -0.0543  0.4873 -0.8707
 5866TIP3    H217605   3.246   4.053   3.882  0.0070  0.5768  1.3645
 5867TIP3   OH217606   4.997   5.432   0.333 -0.0891  0.2833 -0.1152
 5867TIP3    H117607   4.963   5.519   0.313  1.9091  1.1201 -0.1215
 5867TIP3    H217608   4.920   5.380   0.355 -1.6927  1.2139 -2.9980
 5868TIP3   OH217609   4.911   0.128   4.145  0.0282  0.2322 -0.3211
 5868TIP3    H117610   4.913   0.043   4.190  0.5143 -0.2999 -1.2973
 5868TIP3    H217611   4.854   0.183   4.199  1.5952  0.0426  1.6561
 5869TIP3   OH217612   1.753   5.269   1.880 -0.2431  0.6018  0.5117
 5869TIP3    H117613   1.795   5.206   1.822 -0.4789  0.2058  0.7631
 5869TIP3    H217614   1.783   5.245   1.968 -0.0624  1.0586  0.5787
 5870TIP3   OH217615   1.088   1.928   2.030 -0.2545 -0.5739  0.5016
 5870TIP3    H117616   1.128   1.874   1.962 -1.4529  0.2699 -0.9259
 5870TIP3    H217617   1.062   1.865   2.098  0.7413 -1.4602  0.0896
 5871TIP3   OH217618   3.266   3.509   5.045 -0.0761 -0.2092  0.1237
 5871TIP3    H117619   3.356   3.497   5.075  0.1450  1.3405  0.1686
 5871TIP3    H217620   3.253   3.442   4.978  1.4707  0.2411 -0.6614
 5872TIP3   OH217621   1.679   1.970   3.532 -0.1214  0.0250  0.3977
 5872TIP3    H117622   1.775   1.974   3.533 -0.0899 -0.6266  1.0229
 5872TIP3    H217623   1.656   1.961   3.439  0.5250 -1.6673  0.3673
 5873TIP3   OH217624   3.277   2.184   1.851  0.5444  0.6399 -0.3351
 5873TIP3    H117625   3.243   2.272   1.837 -0.3003  0.4293  0.3171
 5873TIP3    H217626   3.295   2.151   1.763 -0.9649  0.7610 -0.7151
 5874TIP3   OH217627   0.193   3.229   1.268  0.3390  0.8005  0.2901
 5874TIP3    H117628   0.268   3.274   1.229 -0.0554  1.0196 -0.2239
 5874TIP3    H217629   0.226   3.194   1.351  0.7220  1.8153  0.5756
 5875TIP3   OH217630   1.391   3.193   2.269  0.4937 -0.2441 -0.0232
 5875TIP3    H117631   1.427   3.107   2.247  0.2754  0.0826 -1.8403
 5875TIP3    H217632   1.352   3.224   2.188  1.0812  1.8328  0.4192
 5876TIP3   OH217633   0.056   5.370   2.232 -0.4222 -0.4429 -0.2875
 5876TIP3    H117634   0.038   5.369   2.139  0.9515 -0.0713 -0.5896
 5876TIP3    H217635   0.138   5.321   2.242  0.0353  0.4376  0.5599
 5877TIP3   OH217636   1.440   0.096   2.900 -0.3070  0.3914 -0.1329
 5877TIP3    H117637   1.504   0.073   2.967 -0.5917  1.7072  0.6216
 5877TIP3    H217638   1.485   0.081   2.817  0.7731  0.7258  0.3787
 5878TIP3   OH217639   4.592   2.529   3.152 -0.3057 -0.0191  0.0574
 5878TIP3    H117640   4.615   2.517   3.245 -0.7090  1.6618  0.3999
 5878TIP3    H217641   4.633   2.612   3.128 -0.7536 -0.1224 -1.0970
 5879TIP3   OH217642   3.204   3.897   1.775  0.1084  0.0113  0.2943
 5879TIP3    H117643   3.137   3.913   1.708 -0.3862 -0.5403  0.6386
 5879TIP3    H217644   3.225   3.984   1.809  2.5653  0.7142 -2.5796
 5880TIP3   OH217645   2.548   4.321   0.604  0.1201  0.2887  0.5470
 5880TIP3    H117646   2.554   4.317   0.700  0.5037 -0.0800  0.5098
 5880TIP3    H217647   2.610   4.389   0.579  1.2319 -0.7225  0.4542
 5881TIP3   OH217648   3.797   2.338   2.980  0.2590  0.1404 -0.3537
 5881TIP3    H117649   3.711   2.353   3.019  0.4796 -0.7603  0.5206
 5881TIP3    H217650   3.822   2.422   2.942 -0.4510  0.7379  0.4760
 5882TIP3   OH217651   5.744   2.535   2.338  0.1222 -0.1184  0.0214
 5882TIP3    H117652   5.812   2.581   2.387 -1.1374  0.9018  0.8972
 5882TIP3    H217653   5.780   2.522   2.251  1.5495  0.0770  0.5664
 5883TIP3   OH217654   3.096   4.137   5.060 -0.0874 -0.6911 -0.0657
 5883TIP3    H117655   3.167   4.198   5.039 -0.7654 -0.1625 -0.8819
 5883TIP3    H217656   3.052   4.176   5.135 -1.6517  0.8307 -1.6964
 5884TIP3   OH217657   6.087   5.531   3.835  0.1884  0.6078 -0.3909
 5884TIP3    H117658   6.008   5.477   3.834  0.2402  0.4676  1.1740
 5884TIP3    H217659   6.064   5.608   3.784 -1.2784  1.0046  0.8117
 5885TIP3   OH217660   3.478   2.761   2.392  0.0089 -0.2643  0.6443
 5885TIP3    H117661   3.383   2.753   2.404  0.0533 -0.7720  0.6621
 5885TIP3    H217662   3.498   2.850   2.421 -0.3052 -0.5214  1.6945
 5886TIP3   OH217663   2.364   1.479   0.248 -0.3519 -0.2423 -0.4399
 5886TIP3    H117664   2.435   1.439   0.299  1.5394  2.8438 -0.3773
 5886TIP3    H217665   2.320   1.537   0.310 -1.7486 -0.7024 -0.9676
 5887TIP3   OH217666   5.233   3.204   1.269  0.3055 -0.1881  0.4065
 5887TIP3    H117667   5.203   3.171   1.184  0.8931 -0.3842  0.2689
 5887TIP3    H217668   5.324   3.231   1.253  1.1200 -2.0773  1.4072
 5888TIP3   OH217669   2.680   2.673   1.587 -0.5992 -0.7675  0.6728
 5888TIP3    H117670   2.725   2.655   1.504  1.5844 -0.3272  1.6831
 5888TIP3    H217671   2.605   2.727   1.563  0.3191 -0.1657 -0.9764
 5889TIP3   OH217672   2.902   4.767   1.708 -0.2855 -0.1655  0.1404
 5889TIP3    H117673   2.988   4.733   1.685 -0.5791  0.2706 -1.8173
 5889TIP3    H217674   2.853   4.691   1.740  0.0012 -0.9911 -1.3007
 5890TIP3   OH217675   5.745   0.993   0.249 -0.3079  0.4269  0.2027
 5890TIP3    H117676   5.789   1.074   0.224  0.0832  0.3941  0.7702
 5890TIP3    H217677   5.730   0.947   0.166  1.3335  0.1277  0.0446
 5891TIP3   OH217678   6.302   3.912   0.939 -0.8551  0.3565 -0.3752
 5891TIP3    H117679   6.253   3.869   0.868 -0.0340 -0.4056 -0.4841
 5891TIP3    H217680   6.326   3.841   0.998 -0.8595  0.8906  0.2763
 5892TIP3   OH217681   5.969   0.125   4.035 -0.1351 -0.5442 -0.4059
 5892TIP3    H117682   5.893   0.114   3.978  0.3416 -2.0597 -0.8048
 5892TIP3    H217683   6.016   0.042   4.029  0.3995 -0.4514  1.5344
 5893TIP3   OH217684   2.480   4.952   0.480  0.2151 -0.0247 -0.0990
 5893TIP3    H117685   2.462   4.891   0.408 -0.6768 -0.2799  0.3366
 5893TIP3    H217686   2.520   4.898   0.548  0.3332  0.0725 -0.0894
 5894TIP3   OH217687   2.094   3.417   0.890 -0.2880  0.3821  0.0808
 5894TIP3    H117688   2.013   3.440   0.934  0.7309  0.5641  1.9453
 5894TIP3    H217689   2.111   3.491   0.832 -0.7599  0.9780  0.6809
 5895TIP3   OH217690   2.995   4.447   2.803  0.3390 -0.0396 -0.3279
 5895TIP3    H117691   3.072   4.432   2.859 -0.3801 -2.2311  0.1596
 5895TIP3    H217692   2.990   4.369   2.748 -2.5418 -0.8179  0.8932
 5896TIP3   OH217693   5.860   5.689   4.781 -0.2532 -0.2568  0.0126
 5896TIP3    H117694   5.815   5.751   4.722  2.1252  0.4668 -1.1903
 5896TIP3    H217695   5.946   5.729   4.796  0.2988 -1.9151  1.5724
 5897TIP3   OH217696   1.489   2.928   2.271  0.0442  0.1707  0.3269
 5897TIP3    H117697   1.538   2.953   2.193  0.5905 -2.2039 -0.1416
 5897TIP3    H217698   1.451   2.843   2.251 -1.9094  0.6072  1.7586
 5898TIP3   OH217699   3.448   4.822   1.470 -0.3675 -0.8400  0.4208
 5898TIP3    H117700   3.523   4.768   1.444  1.2601  2.4108 -2.4849
 5898TIP3    H217701   3.375   4.788   1.419  0.3598 -0.9487 -0.5668
 5899TIP3   OH217702   5.852   1.939   2.864 -0.4417  0.0161  0.6767
 5899TIP3    H117703   5.925   1.906   2.917 -0.8304 -2.5413 -0.2416
 5899TIP3    H217704   5.889   1.948   2.776 -1.2009 -1.3771  0.1873
 5900TIP3   OH217705   2.013   4.798   0.209 -0.4925 -0.4283  0.1039
 5900TIP3    H117706   2.058   4.751   0.139  0.0940  1.5865 -0.9514
 5900TIP3    H217707   2.075   4.866   0.236  0.2217 -2.3992  4.1921
 5901TIP3   OH217708   5.597   4.356   0.194  0.3383  0.3076 -0.3224
 5901TIP3    H117709   5.692   4.352   0.190  0.4200 -2.7663  1.5682
 5901TIP3    H217710   5.577   4.376   0.285 -0.9358  2.9699 -1.0725
 5902TIP3   OH217711   5.675   5.202   3.524  0.1172  0.3305  0.3442
 5902TIP3    H117712   5.629   5.251   3.455 -0.2790  1.9210  1.6717
 5902TIP3    H217713   5.743   5.153   3.478 -1.3812 -0.2243 -1.3991
 5903TIP3   OH217714   5.887   4.024   3.302 -0.3782 -0.2143  0.1828
 5903TIP3    H117715   5.826   4.034   3.229  0.5307 -0.0608 -0.5619
 5903TIP3    H217716   5.870   3.936   3.336  0.8062 -1.2358 -1.7185
 5904TIP3   OH217717   4.483   2.703   2.291  0.2749 -0.2234 -0.1903
 5904TIP3    H117718   4.553   2.766   2.278  2.1611 -1.7436  1.7559
 5904TIP3    H217719   4.420   2.720   2.221  1.3406  2.8678 -0.5085
 5905TIP3   OH217720   4.283   0.041   1.634  0.0084 -0.5593  0.6237
 5905TIP3    H117721   4.295   0.118   1.689  0.9321 -1.6891  2.0983
 5905TIP3    H217722   4.189   0.035   1.621 -0.0310  1.2893 -0.2880
 5906TIP3   OH217723   5.598   0.465   3.604 -0.1413  0.9237  0.2020
 5906TIP3    H117724   5.517   0.474   3.553 -0.7020  2.5135  1.2793
 5906TIP3    H217725   5.582   0.518   3.682  2.0989  1.5874  0.2591
 5907TIP3   OH217726   4.843   2.756   2.201  0.4335  0.4115 -0.0837
 5907TIP3    H117727   4.768   2.815   2.208 -0.5982 -0.5423 -2.0519
 5907TIP3    H217728   4.878   2.773   2.114  0.4272 -1.4639 -0.4886
 5908TIP3   OH217729   1.999   3.699   4.623 -0.4457 -0.1269 -0.0847
 5908TIP3    H117730   2.040   3.732   4.543 -0.7461 -0.1494 -0.2501
 5908TIP3    H217731   1.913   3.741   4.624 -1.1371 -1.4682 -0.6853
 5909TIP3   OH217732   3.245   3.013   1.206 -0.6453 -0.0946  0.0969
 5909TIP3    H117733   3.243   3.109   1.204  0.9533 -0.0312  0.7778
 5909TIP3    H217734   3.243   2.988   1.113 -2.0609  0.5377 -0.0783
 5910TIP3   OH217735   0.715   1.484   1.255 -0.0206 -0.1507 -0.5600
 5910TIP3    H117736   0.775   1.421   1.294 -0.0065  1.0429  1.4688
 5910TIP3    H217737   0.771   1.559   1.232 -0.5279  0.4819  0.2235
 5911TIP3   OH217738   0.746   4.541   0.286 -0.1691 -0.1191 -0.8960
 5911TIP3    H117739   0.797   4.467   0.252 -1.2834 -0.9256 -0.8730
 5911TIP3    H217740   0.689   4.567   0.214  0.7395  1.2520 -1.1602
 5912TIP3   OH217741   1.528   0.870   5.135 -0.1593 -0.0418 -0.0042
 5912TIP3    H117742   1.549   0.937   5.070 -1.0149 -0.2388 -0.5085
 5912TIP3    H217743   1.605   0.865   5.191  0.9969 -0.5287 -1.5775
 5913TIP3   OH217744   3.011   0.331   4.759 -0.4876 -0.7769 -0.3072
 5913TIP3    H117745   3.047   0.416   4.783  1.1128 -0.6287 -2.8662
 5913TIP3    H217746   3.085   0.283   4.721 -1.4755 -3.1393  0.5350
 5914TIP3   OH217747   2.321   0.053   2.780 -0.3942 -0.2752 -0.0162
 5914TIP3    H117748   2.285  -0.032   2.805 -0.8882 -0.9219 -2.6936
 5914TIP3    H217749   2.246   0.111   2.776 -0.2087  0.0267  0.6837
 5915TIP3   OH217750   5.857   1.195   1.769  0.7169 -0.1374 -0.4025
 5915TIP3    H117751   5.930   1.181   1.707  1.7360  1.1521  0.4491
 5915TIP3    H217752   5.866   1.287   1.796 -2.1172  0.5200 -1.3561
 5916TIP3   OH217753   3.289   4.639   4.980 -0.4328 -0.9484 -0.0264
 5916TIP3    H117754   3.317   4.657   5.070  1.1190  0.7831 -0.7957
 5916TIP3    H217755   3.335   4.704   4.927 -2.6420 -0.8098 -1.9080
 5917TIP3   OH217756   0.895   0.811   0.440 -0.2519 -0.3109 -0.1913
 5917TIP3    H117757   0.834   0.739   0.458 -2.0144  1.1377 -0.0499
 5917TIP3    H217758   0.930   0.835   0.525 -1.5084  0.5219  0.1166
 5918TIP3   OH217759   0.720   2.438   4.498  0.0199 -0.4489  0.1375
 5918TIP3    H117760   0.719   2.360   4.553 -0.1580 -0.0596  0.7012
 5918TIP3    H217761   0.744   2.509   4.559 -0.8490  0.0918 -0.1438
 5919TIP3   OH217762   1.517   3.167   0.555 -0.7458  0.1406  0.1606
 5919TIP3    H117763   1.556   3.088   0.519 -0.7361  0.7776 -1.2984
 5919TIP3    H217764   1.588   3.210   0.602 -0.7627 -0.7148  0.9973
 5920TIP3   OH217765   2.097   4.503   4.420  0.1793  0.6274 -0.1071
 5920TIP3    H117766   2.076   4.436   4.354  2.8192 -0.2969 -0.1331
 5920TIP3    H217767   2.067   4.465   4.503  0.3958  0.0087 -0.3033
 5921TIP3   OH217768   5.775   2.102   1.441  0.1797 -0.0807  0.1217
 5921TIP3    H117769   5.766   2.044   1.366 -0.1368  1.4859 -1.0922
 5921TIP3    H217770   5.689   2.143   1.450  0.3444  0.0720  1.0887
 5922TIP3   OH217771   0.545   0.879   3.889 -0.5999 -0.0971 -0.1060
 5922TIP3    H117772   0.500   0.798   3.863 -1.6000  0.3321  0.2414
 5922TIP3    H217773   0.479   0.928   3.939  0.3833  0.3723  0.7592
 5923TIP3   OH217774   4.977   4.316   3.003 -0.2046  0.2108  0.5850
 5923TIP3    H117775   4.912   4.286   2.939 -0.0470  1.4681 -0.1933
 5923TIP3    H217776   4.928   4.366   3.067 -0.1883  0.0167  0.7497
 5924TIP3   OH217777   3.007   3.096   2.370 -0.3893  0.1458  0.2168
 5924TIP3    H117778   2.974   3.184   2.349  0.2876  0.7090  1.3648
 5924TIP3    H217779   3.100   3.111   2.391 -0.4050 -0.7541  0.9646
 5925TIP3   OH217780   4.361   0.542   0.077 -0.4849 -0.1867  0.8382
 5925TIP3    H117781   4.313   0.558   0.158  1.2502 -1.3547  2.1819
 5925TIP3    H217782   4.422   0.616   0.071 -1.2863  0.4296  0.0183
 5926TIP3   OH217783   3.572   2.608   2.184  0.3175  0.3725  0.4066
 5926TIP3    H117784   3.516   2.671   2.230 -0.7856  0.2325 -0.6832
 5926TIP3    H217785   3.629   2.661   2.129  0.6304  0.4770  0.8242
 5927TIP3   OH217786   3.781   2.547   3.974  0.2568 -0.2443  0.2551
 5927TIP3    H117787   3.789   2.617   4.039 -0.3597  0.2979 -0.2381
 5927TIP3    H217788   3.755   2.470   4.025  1.3450 -0.2379  0.8555
 5928TIP3   OH217789   0.865   3.155   0.650  0.4862  0.2460 -0.0639
 5928TIP3    H117790   0.919   3.076   0.651  0.6987  0.3902 -0.0595
 5928TIP3    H217791   0.775   3.123   0.642  0.3276 -0.1165  2.5193
 5929TIP3   OH217792   2.463   5.168   1.731  0.5498 -0.1512 -0.4111
 5929TIP3    H117793   2.483   5.233   1.663 -1.2466  0.9426  0.0195
 5929TIP3    H217794   2.469   5.084   1.686  1.6257  0.3907 -1.3422
 5930TIP3   OH217795   4.430   3.810   1.992  0.3118 -0.1776  0.1115
 5930TIP3    H117796   4.502   3.771   1.941  0.1525 -0.6615  0.2509
 5930TIP3    H217797   4.364   3.834   1.926  1.0613  1.3248 -0.1444
 5931TIP3   OH217798   5.040   0.691   2.631 -0.3209 -0.1422  0.0225
 5931TIP3    H117799   5.112   0.747   2.660 -0.2089  0.3525 -1.1628
 5931TIP3    H217800   5.078   0.636   2.563 -0.6191 -1.1715  0.6635
 5932TIP3   OH217801   2.635   0.883   4.244 -0.1291  0.5195  0.6341
 5932TIP3    H117802   2.610   0.876   4.336 -0.1023 -0.5732  0.5664
 5932TIP3    H217803   2.701   0.815   4.231 -2.5252 -1.6803 -0.9682
 5933TIP3   OH217804   5.911   5.911   0.233 -0.3689  0.3378  0.2134
 5933TIP3    H117805   5.942   5.857   0.160  0.3748  0.6270  0.3046
 5933TIP3    H217806   5.901   5.849   0.305 -1.0765  0.0549 -0.1096
 5934TIP3   OH217807   0.050   3.521   4.470  0.1652  0.0355  0.3568
 5934TIP3    H117808   0.010   3.587   4.413  1.0756 -1.6739 -2.4661
 5934TIP3    H217809   0.144   3.535   4.460  0.3514 -0.8965  0.7347
 5935TIP3   OH217810   2.142   3.870   1.409 -0.3351  0.4518 -0.0093
 5935TIP3    H117811   2.214   3.855   1.348  0.8689  1.3903  1.1026
 5935TIP3    H217812   2.102   3.784   1.421  1.4277 -0.3623  0.3129
 5936TIP3   OH217813   2.893   5.813   3.839 -0.1212  1.0308 -0.4869
 5936TIP3    H117814   2.817   5.869   3.827  0.1871  1.2037 -1.7119
 5936TIP3    H217815   2.874   5.764   3.919 -1.4926  1.0890 -0.7612
 5937TIP3   OH217816   4.832   1.475   1.191 -0.1956 -0.2740 -0.3259
 5937TIP3    H117817   4.846   1.569   1.180 -0.9624  0.0377  1.0967
 5937TIP3    H217818   4.920   1.439   1.200  0.0583  0.8478  2.7455
 5938TIP3   OH217819   1.868   1.128   2.796  1.0518  0.6842  0.2617
 5938TIP3    H117820   1.929   1.201   2.783  0.2927  1.3133  0.1764
 5938TIP3    H217821   1.895   1.088   2.878  1.3188  1.2150  0.4366
 5939TIP3   OH217822   5.586   2.819   4.234 -0.1269 -0.3138  0.5334
 5939TIP3    H117823   5.529   2.892   4.208 -0.6172 -0.8055  0.2127
 5939TIP3    H217824   5.557   2.746   4.180  3.5948  0.4126 -2.9177
 5940TIP3   OH217825   6.266   1.789   1.394  0.0822 -0.0532  0.1405
 5940TIP3    H117826   6.203   1.855   1.364  0.2056 -0.0500 -0.1103
 5940TIP3    H217827   6.349   1.816   1.355  0.2884  0.0761  0.6617
 5941TIP3   OH217828   0.234   1.392   0.073 -0.5067 -0.1167  0.2037
 5941TIP3    H117829   0.196   1.474   0.106  2.2942  0.8273  1.4035
 5941TIP3    H217830   0.217   1.328   0.143 -0.1823  0.2084  0.5836
 5942TIP3   OH217831   5.525   3.521   3.645  0.9034  0.2932 -0.2433
 5942TIP3    H117832   5.587   3.501   3.575 -0.2575 -1.4718 -0.8257
 5942TIP3    H217833   5.542   3.453   3.711  0.4202  0.5359  0.1354
 5943TIP3   OH217834   1.836   0.857   0.932  0.1767  0.0318 -0.2071
 5943TIP3    H117835   1.907   0.913   0.901 -0.5494  0.7237 -0.6749
 5943TIP3    H217836   1.776   0.851   0.858 -0.1011 -0.8087  0.0704
 5944TIP3   OH217837   3.723   1.059   4.085  0.0254 -0.3504 -0.7338
 5944TIP3    H117838   3.757   1.010   4.010 -1.0740 -2.6494  0.1800
 5944TIP3    H217839   3.771   1.025   4.160 -1.5418 -0.8511  0.0728
 5945TIP3   OH217840   1.752   5.468   2.409 -0.6134 -0.3663 -0.1877
 5945TIP3    H117841   1.823   5.408   2.386  0.5143  0.8962 -0.1184
 5945TIP3    H217842   1.725   5.441   2.497  0.1821 -0.4864  0.0221
 5946TIP3   OH217843   2.159   4.099   3.902 -0.6932 -0.5765  0.1294
 5946TIP3    H117844   2.114   4.022   3.935  0.6525 -0.2268  3.1398
 5946TIP3    H217845   2.218   4.125   3.973  0.9201  1.6161 -1.8303
 5947TIP3   OH217846   6.111   2.016   3.357  0.6223 -0.1752 -0.9907
 5947TIP3    H117847   6.085   2.103   3.388  0.9630 -0.2733 -0.4261
 5947TIP3    H217848   6.179   2.034   3.292  1.0775 -0.0368 -0.4839
 5948TIP3   OH217849   2.352   2.176   3.460 -0.0235  0.1320  0.2614
 5948TIP3    H117850   2.292   2.125   3.515  0.6418  0.7798  1.6264
 5948TIP3    H217851   2.439   2.148   3.487  0.3208  0.4091 -0.5400
 5949TIP3   OH217852   6.146   1.515   3.451 -0.3449 -0.4336  0.2120
 5949TIP3    H117853   6.088   1.586   3.479 -0.1534 -0.0186 -0.4457
 5949TIP3    H217854   6.091   1.437   3.457 -0.6206 -0.2090  0.7282
 5950TIP3   OH217855   2.784   3.766   4.031  0.5545  0.2764 -0.3760
 5950TIP3    H117856   2.703   3.740   3.987 -0.0643  0.0989  0.8265
 5950TIP3    H217857   2.841   3.689   4.024  0.7821  0.5405 -1.5722
 5951TIP3   OH217858   3.590   0.162   1.032  0.4395  0.5449  0.2127
 5951TIP3    H117859   3.575   0.210   1.114  3.9756  1.9406  0.1819
 5951TIP3    H217860   3.612   0.073   1.060 -2.2355 -0.1311  0.4599
 5952TIP3   OH217861   3.745   3.873   3.836  0.3481  0.4746 -0.3113
 5952TIP3    H117862   3.817   3.824   3.797 -0.2798 -0.0205 -0.8608
 5952TIP3    H217863   3.758   3.864   3.930  0.4985 -0.3583 -0.4064
 5953TIP3   OH217864   2.772   1.720   3.484  0.0843  0.0912  0.7919
 5953TIP3    H117865   2.818   1.800   3.510  0.8883 -0.5173  1.2653
 5953TIP3    H217866   2.804   1.653   3.544 -2.6429 -0.0395  2.2978
 5954TIP3   OH217867   6.026   1.510   0.584 -0.3508 -0.4417  0.0286
 5954TIP3    H117868   6.015   1.579   0.519 -0.1645 -1.0649 -0.6738
 5954TIP3    H217869   6.111   1.527   0.624 -1.1372  0.8627  1.2375
 5955TIP3   OH217870   4.904   1.532   0.460  0.0272  0.0992  0.2713
 5955TIP3    H117871   4.829   1.590   0.471  1.3036  1.8137  0.4243
 5955TIP3    H217872   4.882   1.453   0.510 -1.2541  0.9568  1.1107
 5956TIP3   OH217873   4.981   4.220   0.170 -0.2411  0.0902 -0.2352
 5956TIP3    H117874   4.915   4.167   0.125 -1.0656  1.5376 -0.8243
 5956TIP3    H217875   5.008   4.285   0.104  1.0407  0.1337  0.3195
 5957TIP3   OH217876   3.865   0.694   5.162  0.3356  0.7948 -0.3965
 5957TIP3    H117877   3.947   0.737   5.185 -0.2054  1.5833  0.1137
 5957TIP3    H217878   3.798   0.745   5.207 -0.5869  1.1161 -2.0632
 5958TIP3   OH217879   1.025   0.977   4.097  0.1771  0.2516 -0.2703
 5958TIP3    H117880   0.962   1.020   4.040 -1.7420 -0.4142  1.2479
 5958TIP3    H217881   1.026   1.030   4.176 -0.0436 -0.8764  0.5138
 5959TIP3   OH217882   1.460   1.945   0.120 -0.1235 -0.6610 -0.1543
 5959TIP3    H117883   1.472   2.039   0.126 -3.5999 -0.1286  0.7359
 5959TIP3    H217884   1.526   1.908   0.179  0.2825  1.2984  0.7006
 5960TIP3   OH217885   4.744   5.573   3.425 -0.0675  0.0909 -0.1350
 5960TIP3    H117886   4.683   5.619   3.368  0.5405 -0.3759 -1.1873
 5960TIP3    H217887   4.774   5.639   3.487  1.0064  1.2236 -1.7897
 5961TIP3   OH217888   5.567   4.045   4.916 -0.3562 -0.0973 -0.2567
 5961TIP3    H117889   5.515   3.979   4.871 -0.8375  0.8889 -1.1908
 5961TIP3    H217890   5.653   4.041   4.874 -0.2892 -0.3226 -0.1034
 5962TIP3   OH217891   3.504   1.609   0.040 -0.4404 -0.0347 -0.1039
 5962TIP3    H117892   3.437   1.546   0.070 -1.8792  0.8049 -1.3969
 5962TIP3    H217893   3.546   1.639   0.121 -0.7511 -1.5277  0.6509
 5963TIP3   OH217894   0.554   1.817   1.010  0.1899 -0.1703 -0.8551
 5963TIP3    H117895   0.574   1.750   0.945  0.3797  1.3972 -2.4935
 5963TIP3    H217896   0.462   1.801   1.033 -0.6078  0.5222 -3.2096
 5964TIP3   OH217897   1.342   0.850   2.005  0.2126  0.9914  0.0984
 5964TIP3    H117898   1.251   0.865   2.030 -0.0848 -0.5953  0.0800
 5964TIP3    H217899   1.386   0.826   2.086  0.1223 -0.2728 -0.1927
 5965TIP3   OH217900   0.048   2.617   1.845  0.5860 -0.2464 -0.0048
 5965TIP3    H117901   0.128   2.670   1.848  1.8010 -1.8411 -1.7761
 5965TIP3    H217902  -0.019   2.677   1.812  0.4496  1.6602  3.2312
 5966TIP3   OH217903   5.453   5.324   4.271  0.5963 -0.3586 -0.0670
 5966TIP3    H117904   5.534   5.286   4.304 -0.6628 -2.2675  1.0699
 5966TIP3    H217905   5.441   5.405   4.321  1.6060 -0.2474  0.0011
 5967TIP3   OH217906   3.308   0.624   0.478 -0.1639  0.4720 -0.0598
 5967TIP3    H117907   3.308   0.716   0.451  1.4793 -0.0269 -2.0374
 5967TIP3    H217908   3.374   0.618   0.547  0.3026  0.6329 -0.4951
 5968TIP3   OH217909   3.209   5.844   4.471 -0.6216 -0.2011 -0.1100
 5968TIP3    H117910   3.216   5.878   4.382  1.9865 -1.2175 -0.3957
 5968TIP3    H217911   3.175   5.755   4.460  1.5457 -1.0719 -0.3965
 5969TIP3   OH217912   0.809   1.326   0.428  0.0723  0.0731  0.6936
 5969TIP3    H117913   0.838   1.393   0.366  0.3802  0.3552  1.1348
 5969TIP3    H217914   0.889   1.297   0.471  0.0699 -1.2459 -0.1275
 5970TIP3   OH217915   2.878   5.687   2.049 -0.4703 -0.0002 -0.0607
 5970TIP3    H117916   2.794   5.696   2.004 -0.4007  3.0822  0.1830
 5970TIP3    H217917   2.859   5.711   2.139  0.3624 -1.0193  0.3981
 5971TIP3   OH217918   3.184   5.316   4.320 -0.1135 -0.2444 -0.0770
 5971TIP3    H117919   3.096   5.351   4.304  0.8619  1.9178 -1.1461
 5971TIP3    H217920   3.192   5.243   4.260 -0.7541  0.3641 -0.9307
 5972TIP3   OH217921   5.165   1.499   0.439  0.3910 -0.4973 -0.0898
 5972TIP3    H117922   5.184   1.423   0.383  3.8302  0.2911 -0.1931
 5972TIP3    H217923   5.071   1.514   0.427  0.2542 -2.6388 -2.7443
 5973TIP3   OH217924   1.149   1.415   4.743  0.5717 -0.0955 -0.1588
 5973TIP3    H117925   1.243   1.414   4.727  0.5746 -1.1345 -0.1508
 5973TIP3    H217926   1.118   1.330   4.710 -0.6277  0.9063 -1.7706
 5974TIP3   OH217927   2.944   5.371   3.184 -0.0002 -0.2159  0.3768
 5974TIP3    H117928   2.953   5.291   3.236  1.8853 -0.6577 -0.5598
 5974TIP3    H217929   2.919   5.340   3.097 -2.9373  0.5049  0.8618
 5975TIP3   OH217930   4.864   3.565   0.080  0.0336 -0.4225  0.6463
 5975TIP3    H117931   4.935   3.511   0.044 -0.3682 -0.9182  0.5788
 5975TIP3    H217932   4.791   3.551   0.019 -0.4829 -0.8427  1.3455
 5976TIP3   OH217933   5.721   3.207   2.263 -0.0297  0.2833  0.4521
 5976TIP3    H117934   5.813   3.222   2.238 -0.2266 -0.4105 -0.7634
 5976TIP3    H217935   5.718   3.230   2.356  1.0352  1.7546  0.1672
 5977TIP3   OH217936   0.316   3.610   4.436  0.0710 -0.1573  0.4616
 5977TIP3    H117937   0.354   3.692   4.469  0.3641 -0.6767  1.4829
 5977TIP3    H217938   0.388   3.569   4.387 -0.0931  0.2118 -0.0981
 5978TIP3   OH217939   6.067   1.821   2.988 -0.0658  0.1737 -0.3423
 5978TIP3    H117940   6.017   1.821   3.069 -0.6862  0.4587 -0.7226
 5978TIP3    H217941   6.079   1.728   2.967  1.0520  0.0547  0.6404
 5979TIP3   OH217942   5.881   2.452   5.085 -0.3761 -0.1298  0.0130
 5979TIP3    H117943   5.954   2.424   5.029 -1.2583  0.5608 -1.5426
 5979TIP3    H217944   5.849   2.532   5.044 -1.1567  0.3383  1.4632
 5980TIP3   OH217945   0.770   3.544   3.032 -0.1906 -0.0528  0.0116
 5980TIP3    H117946   0.775   3.502   3.118 -0.7720 -1.1130 -0.4562
 5980TIP3    H217947   0.684   3.586   3.031 -0.8048 -1.2846 -0.5876
 5981TIP3   OH217948   6.006   5.335   0.263  0.2947  0.2485 -0.3698
 5981TIP3    H117949   5.912   5.345   0.273  0.2302 -1.1271  0.7253
 5981TIP3    H217950   6.017   5.267   0.196  0.3177 -2.6256  2.2928
 5982TIP3   OH217951   3.431   2.125   4.165  0.3772  0.0569  0.3499
 5982TIP3    H117952   3.448   2.218   4.147  0.7316 -0.3597 -1.6694
 5982TIP3    H217953   3.467   2.079   4.089 -0.1452 -1.7156  1.1364
 5983TIP3   OH217954   0.853   3.750   2.852 -0.1708 -0.3399  0.1603
 5983TIP3    H117955   0.831   3.674   2.906  1.0082 -1.3116 -0.6721
 5983TIP3    H217956   0.780   3.811   2.865 -1.2534 -1.7002  0.6863
 5984TIP3   OH217957   2.487   3.131   2.624  0.3781  0.0865 -0.3990
 5984TIP3    H117958   2.581   3.147   2.631  0.2349  0.6165  0.4223
 5984TIP3    H217959   2.456   3.196   2.560  0.4932  0.1987 -0.3403
 5985TIP3   OH217960   3.882   3.251   2.497  0.3022  0.5118  0.5054
 5985TIP3    H117961   3.880   3.336   2.541 -3.1197 -0.9586  3.6794
 5985TIP3    H217962   3.947   3.200   2.546  0.7372  0.5729  0.0106
 5986TIP3   OH217963   2.298   1.587   4.146  0.4584 -0.4527 -0.3637
 5986TIP3    H117964   2.266   1.660   4.094 -1.7250 -0.7814  0.4157
 5986TIP3    H217965   2.302   1.514   4.084  0.4392 -0.2128 -0.6507
 5987TIP3   OH217966   5.745   3.620   2.343  0.1927 -0.2681 -0.2856
 5987TIP3    H117967   5.816   3.570   2.303 -1.0848 -1.0102 -1.6876
 5987TIP3    H217968   5.701   3.663   2.269  1.0766  2.8173  0.8096
 5988TIP3   OH217969   5.223   4.265   2.015  0.6211 -0.0089 -0.1051
 5988TIP3    H117970   5.207   4.249   2.108 -1.3493  1.6094 -0.0965
 5988TIP3    H217971   5.257   4.182   1.982  0.0611 -1.0509  1.7985
 5989TIP3   OH217972   1.682   2.163   0.434 -0.3730 -0.1795 -0.3195
 5989TIP3    H117973   1.695   2.206   0.518 -0.1111  2.4307 -1.5887
 5989TIP3    H217974   1.610   2.212   0.393  0.5318 -0.3505 -2.2305
 5990TIP3   OH217975   0.110   1.500   1.569 -0.4408 -0.4021 -0.7821
 5990TIP3    H117976   0.098   1.431   1.504 -1.4938  0.6943 -1.7939
 5990TIP3    H217977   0.143   1.575   1.519 -0.7551  0.2982  0.0266
 5991TIP3   OH217978   2.122   2.062   3.122  0.1495 -0.2230 -0.2305
 5991TIP3    H117979   2.162   1.992   3.069 -1.5547 -0.0763 -1.8159
 5991TIP3    H217980   2.183   2.134   3.116  0.4465 -0.5319 -1.2777
 5992TIP3   OH217981   0.273   5.936   3.851 -0.1840  0.3370  0.2389
 5992TIP3    H117982   0.303   5.850   3.880  0.8934  0.2638 -1.0074
 5992TIP3    H217983   0.233   5.975   3.928  1.7991 -0.1765  1.5847
 5993TIP3   OH217984   2.996   5.463   1.703  0.4203  0.4038  0.1033
 5993TIP3    H117985   3.020   5.460   1.610 -0.2106 -0.1400 -0.0529
 5993TIP3    H217986   2.900   5.465   1.703  0.3653 -1.0500  0.7548
 5994TIP3   OH217987   4.334   0.671   3.617  0.2001 -0.5453 -0.0632
 5994TIP3    H117988   4.365   0.761   3.611  0.5370 -0.3868  2.7720
 5994TIP3    H217989   4.373   0.637   3.697  0.2604 -3.3232 -1.1619
 5995TIP3   OH217990   2.319   0.411   4.957  0.1873  0.5642  0.1448
 5995TIP3    H117991   2.225   0.394   4.946 -0.3273  1.2491  2.7983
 5995TIP3    H217992   2.346   0.350   5.025  1.6485  0.5518 -0.4194
 5996TIP3   OH217993   5.556   0.259   0.330 -0.2717  0.1762  0.1011
 5996TIP3    H117994   5.630   0.243   0.389 -0.4907 -0.6745  0.1610
 5996TIP3    H217995   5.594   0.254   0.242 -0.2072 -0.0158  0.1381
 5997TIP3   OH217996   4.441   3.286   1.276 -0.1426  0.1593  0.1938
 5997TIP3    H117997   4.453   3.199   1.313 -1.1110 -0.8455 -1.6834
 5997TIP3    H217998   4.346   3.293   1.261 -0.1743  1.8251  0.9205
 5998TIP3   OH217999   1.114   3.574   2.485  0.4853  0.2617  0.6554
 5998TIP3    H118000   1.114   3.550   2.578 -1.4873 -2.2886  0.1361
 5998TIP3    H218001   1.128   3.491   2.439 -0.7891  1.0682 -1.3444
 5999TIP3   OH218002   0.025   1.525   5.107  0.1237  0.2381  0.4478
 5999TIP3    H118003  -0.054   1.541   5.159 -1.4327 -2.8854 -0.6922
 5999TIP3    H218004   0.045   1.433   5.123  2.0562  0.3009 -1.3027
 6000TIP3   OH218005   4.365   4.724   3.125  0.3085  0.2374  0.2118
 6000TIP3    H118006   4.370   4.666   3.201 -0.7650  0.1178  0.2077
 6000TIP3    H218007   4.398   4.671   3.053  2.0989  0.6102  0.7026
 6001TIP3   OH218008   5.022   1.326   0.917 -0.5694 -0.0698  0.1478
 6001TIP3    H118009   5.104   1.279   0.931  0.3844  1.6620  0.6371
 6001TIP3    H218010   5.040   1.415   0.945 -1.9152  0.9536 -1.9712
 6002TIP3   OH218011   4.461   0.777   2.130  0.3134  0.1239 -0.4814
 6002TIP3    H118012   4.473   0.703   2.070 -1.5807 -1.2640  0.7254
 6002TIP3    H218013   4.537   0.773   2.189  0.1796 -0.9657 -0.3588
 6003TIP3   OH218014   1.441   3.496   4.994  0.0940 -0.0420  0.9373
 6003TIP3    H118015   1.488   3.439   4.932  0.6182 -0.5206  1.7592
 6003TIP3    H218016   1.473   3.584   4.975  0.0295 -0.1467  0.3298
 6004TIP3   OH218017   6.307   2.405   4.227 -0.2574 -0.4815 -0.2655
 6004TIP3    H118018   6.331   2.314   4.241  2.0347  0.1525  0.2598
 6004TIP3    H218019   6.344   2.452   4.301 -0.5878  1.0022 -0.9895
 6005TIP3   OH218020   3.809   2.209   3.859  1.0016  0.1983  0.2106
 6005TIP3    H118021   3.821   2.152   3.782  1.6472  0.1525  0.3456
 6005TIP3    H218022   3.897   2.225   3.891  0.6831 -0.8227  1.7108
 6006TIP3   OH218023   0.802   1.264   4.839  0.0239 -0.1406  0.3639
 6006TIP3    H118024   0.776   1.278   4.748 -0.6768  0.5810  0.6642
 6006TIP3    H218025   0.731   1.211   4.876  0.5133 -0.7889  0.3819
 6007TIP3   OH218026   2.265   1.116   2.419 -0.0722 -0.0675 -0.4102
 6007TIP3    H118027   2.267   1.052   2.349 -0.8923 -0.8034  0.2147
 6007TIP3    H218028   2.354   1.116   2.455 -0.3604 -1.8186  0.4076
 6008TIP3   OH218029   0.981   3.727   0.993 -0.2285  0.0785 -0.8805
 6008TIP3    H118030   0.889   3.732   1.018  0.1794  2.7062  0.3593
 6008TIP3    H218031   1.026   3.696   1.072  0.3347  2.5404 -0.1443
 6009TIP3   OH218032   2.342   3.658   5.013  0.1245  0.4405  0.2059
 6009TIP3    H118033   2.311   3.741   5.050  1.2024 -0.1214  2.5925
 6009TIP3    H218034   2.438   3.664   5.019  0.3041 -0.2148 -1.4488
 6010TIP3   OH218035   0.639   1.424   3.046 -0.4877 -0.5185 -0.1829
 6010TIP3    H118036   0.690   1.506   3.048 -1.2325  0.0318 -1.7926
 6010TIP3    H218037   0.658   1.382   3.130 -0.1759  1.3601  0.7414
 6011TIP3   OH218038   3.435   2.746   1.161 -0.1688  0.7919  0.0074
 6011TIP3    H118039   3.350   2.738   1.118  0.1473 -0.2551 -0.4354
 6011TIP3    H218040   3.413   2.756   1.254 -0.7569 -1.9353  0.2501
 6012TIP3   OH218041   6.183   4.794   3.084 -0.1819 -0.0218 -0.5647
 6012TIP3    H118042   6.094   4.826   3.096 -0.2795 -0.2285 -0.7486
 6012TIP3    H218043   6.186   4.713   3.134  0.0834  0.2982 -0.0499
 6013TIP3   OH218044   2.183   2.975   0.776  0.0015  0.6150  0.0501
 6013TIP3    H118045   2.211   2.934   0.694 -0.4575 -1.2726  0.7854
 6013TIP3    H218046   2.088   2.986   0.767  0.0925  1.3893 -0.0649
 6014TIP3   OH218047   3.795   0.320   1.667  1.0324  0.2926  0.7468
 6014TIP3    H118048   3.825   0.281   1.585  0.1612  1.9498 -0.4165
 6014TIP3    H218049   3.825   0.410   1.663 -1.7637  1.3083  0.7142
 6015TIP3   OH218050   0.595   1.167   1.525  0.7006  0.7109 -0.2242
 6015TIP3    H118051   0.600   1.256   1.560  0.1784  1.1377 -1.1838
 6015TIP3    H218052   0.504   1.156   1.499  0.4452 -0.6167  1.1201
 6016TIP3   OH218053   2.413   4.243   3.606 -0.0690 -0.0946 -0.6854
 6016TIP3    H118054   2.359   4.305   3.654 -0.1214 -0.3427 -0.4251
 6016TIP3    H218055   2.496   4.290   3.591 -1.2376  1.3312 -3.4678
 6017TIP3   OH218056   4.015   4.907   2.439  0.1579 -0.0587 -0.4560
 6017TIP3    H118057   3.973   4.983   2.399  0.0891 -0.0479 -0.3611
 6017TIP3    H218058   3.951   4.836   2.430 -0.0817  0.0790  0.1366
 6018TIP3   OH218059   2.986   4.837   1.386 -0.2702  0.2519  0.0973
 6018TIP3    H118060   2.936   4.789   1.453 -0.3119  0.1391 -0.0138
 6018TIP3    H218061   3.033   4.904   1.435 -0.4872  0.3240  0.2107
 6019TIP3   OH218062   3.483   2.845   4.333  0.1372  0.9717 -0.4438
 6019TIP3    H118063   3.425   2.909   4.374 -0.8537 -0.3673  0.3724
 6019TIP3    H218064   3.569   2.886   4.333 -0.2139  1.8065  1.2470
 6020TIP3   OH218065   0.078   1.893   2.452  0.5209  0.5086 -0.3608
 6020TIP3    H118066   0.001   1.944   2.476  0.4372  0.7091 -1.0330
 6020TIP3    H218067   0.121   1.872   2.536  0.4801  1.5556 -0.0681
 6021TIP3   OH218068   5.996   0.598   3.962  0.2841  0.3820  0.1171
 6021TIP3    H118069   5.958   0.650   3.891  0.3181 -0.7127 -0.7212
 6021TIP3    H218070   6.084   0.575   3.932  0.0767 -0.6071  0.2316
 6022TIP3   OH218071   2.550   2.676   0.230  0.1784  0.4106  0.7718
 6022TIP3    H118072   2.605   2.631   0.165 -1.8539 -0.2491 -0.6004
 6022TIP3    H218073   2.576   2.768   0.225  0.5288  0.2569 -0.5247
 6023TIP3   OH218074   2.044   3.264   1.342  0.1682  0.2392 -0.5625
 6023TIP3    H118075   2.110   3.196   1.325  0.6579  0.7814 -0.9078
 6023TIP3    H218076   1.968   3.217   1.376  1.2834 -0.2559  1.4087
 6024TIP3   OH218077   0.520   2.872   1.609  0.3857  0.1303  0.1775
 6024TIP3    H118078   0.611   2.897   1.593  0.2582  0.5920  0.1513
 6024TIP3    H218079   0.469   2.952   1.592 -0.3313 -0.7878 -2.4064
 6025TIP3   OH218080   4.750   0.846   1.457 -0.4418 -0.3718  0.0608
 6025TIP3    H118081   4.672   0.801   1.425 -0.1431 -2.8627  2.3808
 6025TIP3    H218082   4.719   0.934   1.481 -2.4447 -1.1075  0.4100
 6026TIP3   OH218083   5.143   4.834   1.510 -0.2920  0.3700  0.3518
 6026TIP3    H118084   5.209   4.855   1.576 -1.0039  1.9847  0.6009
 6026TIP3    H218085   5.060   4.865   1.548 -1.0093 -0.4771 -0.4715
 6027TIP3   OH218086   5.572   2.328   2.313  0.6886  0.3309 -0.4452
 6027TIP3    H118087   5.646   2.389   2.308  2.7916 -2.0256 -0.1978
 6027TIP3    H218088   5.545   2.331   2.405  2.3089 -0.6826  0.1190
 6028TIP3   OH218089   0.246   5.023   1.564  0.0324  0.1433 -0.6536
 6028TIP3    H118090   0.321   5.037   1.506  0.4514 -2.2712 -0.8124
 6028TIP3    H218091   0.227   5.109   1.601  2.3259  0.9803 -1.2802
 6029TIP3   OH218092   6.108   4.538   3.130  0.8550  0.2334  0.3911
 6029TIP3    H118093   6.021   4.497   3.133  1.5439 -1.2654  1.0371
 6029TIP3    H218094   6.128   4.544   3.037  0.4892 -0.4076  0.2604
 6030TIP3   OH218095   0.224   0.279   1.578  0.0051  0.0841 -0.3307
 6030TIP3    H118096   0.296   0.263   1.638  2.2009  0.0799 -2.7974
 6030TIP3    H218097   0.190   0.365   1.604  0.5926 -0.0997  1.1419
 6031TIP3   OH218098   5.688   3.565   4.601 -0.5824 -0.2784 -0.2807
 6031TIP3    H118099   5.659   3.652   4.571 -0.0125 -0.1961 -0.6098
 6031TIP3    H218100   5.607   3.518   4.618 -0.9017  0.2910 -0.1888
 6032TIP3   OH218101   4.422   1.073   0.758  0.0111 -0.0580  0.3508
 6032TIP3    H118102   4.368   1.152   0.760  2.3987  1.7609 -1.5122
 6032TIP3    H218103   4.367   1.008   0.715 -2.5878 -0.0512  3.2911
 6033TIP3   OH218104   4.799   0.407   2.316 -0.3226  0.4309  0.1846
 6033TIP3    H118105   4.879   0.355   2.320  0.0588  1.0434  1.8102
 6033TIP3    H218106   4.780   0.427   2.408 -0.7303  2.6781 -0.3179
 6034TIP3   OH218107   5.487   4.823   2.908 -0.0161 -0.0204  0.3724
 6034TIP3    H118108   5.428   4.748   2.897 -0.8804  0.4958  1.3632
 6034TIP3    H218109   5.444   4.878   2.973  1.7038  0.2488  1.3270
 6035TIP3   OH218110   0.640   5.870   4.649 -0.7093 -0.3818 -0.7963
 6035TIP3    H118111   0.676   5.916   4.725 -1.0209 -0.9685 -0.2883
 6035TIP3    H218112   0.716   5.826   4.610 -0.4923  0.1680 -1.0182
 6036TIP3   OH218113   4.869   4.812   4.806 -0.4169 -0.1747  0.4527
 6036TIP3    H118114   4.961   4.829   4.824 -0.2518 -0.5443 -0.0252
 6036TIP3    H218115   4.833   4.897   4.781  0.1612 -0.2998 -0.8986
 6037TIP3   OH218116   1.036   5.323   4.585 -0.2688 -0.5912  0.4987
 6037TIP3    H118117   1.095   5.293   4.654 -0.3779 -3.7056 -0.6427
 6037TIP3    H218118   1.073   5.289   4.504 -2.6314 -1.0916 -0.4530
 6038TIP3   OH218119   0.982   0.421   0.952 -0.5250  0.1716  0.0988
 6038TIP3    H118120   1.026   0.491   0.904 -1.5912  1.7166  1.2661
 6038TIP3    H218121   0.890   0.432   0.931 -0.7015 -0.9672  0.2239
 6039TIP3   OH218122   3.396   1.940   3.241 -0.0793  0.1768 -0.3542
 6039TIP3    H118123   3.465   1.879   3.266 -0.7229 -0.6362 -0.5081
 6039TIP3    H218124   3.361   1.972   3.325 -1.5362 -1.7495 -0.1523
 6040TIP3   OH218125   5.227   1.239   0.352 -0.8846 -0.1656  0.6296
 6040TIP3    H118126   5.199   1.154   0.317  1.3036 -0.3939 -0.6915
 6040TIP3    H218127   5.267   1.218   0.437 -2.0920 -0.1716  1.2211
 6041TIP3   OH218128   2.558   5.034   1.967 -0.2229 -0.3913  0.3913
 6041TIP3    H118129   2.544   5.099   1.898 -2.6326 -0.1048  1.0486
 6041TIP3    H218130   2.549   4.949   1.924  1.4185 -0.3257 -0.1748
 6042TIP3   OH218131   4.577   2.508   2.707 -0.0163 -0.6146  0.2100
 6042TIP3    H118132   4.503   2.531   2.651  0.2594 -0.0039  0.0820
 6042TIP3    H218133   4.578   2.575   2.774  1.1728  0.1462 -0.5131
 6043TIP3   OH218134   2.704   1.740   0.058 -0.2683 -0.5434  0.4261
 6043TIP3    H118135   2.797   1.747   0.079  0.1946 -2.0670 -0.8825
 6043TIP3    H218136   2.691   1.800  -0.015 -0.7641  1.0488  1.7740
 6044TIP3   OH218137   5.713   1.991   1.887 -0.6200 -0.0584  0.0756
 6044TIP3    H118138   5.666   1.914   1.853 -1.8172  0.5004  0.3965
 6044TIP3    H218139   5.767   2.021   1.814 -1.8793  0.1417 -0.8000
 6045TIP3   OH218140   6.101   5.485   2.181  0.5186 -0.7318 -0.1827
 6045TIP3    H118141   6.165   5.554   2.164 -1.3637  0.8347 -1.3672
 6045TIP3    H218142   6.104   5.430   2.102  0.0340 -0.3394 -0.4772
 6046TIP3   OH218143   6.102   4.981   1.062 -0.2550  0.7778  0.1592
 6046TIP3    H118144   6.008   5.000   1.061 -0.2447  0.8196 -0.0706
 6046TIP3    H218145   6.128   4.982   0.970 -0.1852 -0.0308  0.1656
 6047TIP3   OH218146   2.033   2.664   4.004 -0.1174  0.0586  0.4863
 6047TIP3    H118147   2.106   2.614   3.970 -0.7240 -0.7856  0.3915
 6047TIP3    H218148   2.050   2.754   3.977  0.3604 -0.2960 -0.4206
 6048TIP3   OH218149   0.498   1.716   4.402  0.4552  0.1400 -0.4470
 6048TIP3    H118150   0.540   1.651   4.458  1.2200  0.6074 -0.4685
 6048TIP3    H218151   0.535   1.701   4.315 -1.7786 -1.5317 -1.2051
 6049TIP3   OH218152   1.053   0.277   1.765 -0.5741 -0.2672  0.3183
 6049TIP3    H118153   1.114   0.210   1.796 -1.2246 -0.1712  1.8522
 6049TIP3    H218154   1.011   0.237   1.688  0.2380 -0.9523  0.2141
 6050TIP3   OH218155   1.769   2.820   3.119 -0.2926 -0.0008 -0.0002
 6050TIP3    H118156   1.738   2.769   3.044  0.7695 -0.5879 -0.0528
 6050TIP3    H218157   1.830   2.762   3.164  1.0238  1.2422 -0.1140
 6051TIP3   OH218158   4.332   2.799   3.321  0.1914 -0.2378  0.5199
 6051TIP3    H118159   4.420   2.837   3.321  0.2595 -0.2818 -1.4691
 6051TIP3    H218160   4.322   2.762   3.234 -2.0648  0.3888  0.4494
 6052TIP3   OH218161   1.090   3.086   3.848 -0.2956  0.3406 -0.8120
 6052TIP3    H118162   1.030   3.036   3.792 -0.5135 -0.1421 -0.1705
 6052TIP3    H218163   1.176   3.050   3.829 -0.6452 -1.7015  1.0214
 6053TIP3   OH218164   2.336   5.378   0.773 -0.3341  0.2810  0.4751
 6053TIP3    H118165   2.374   5.307   0.826  0.2829 -0.0875 -0.4322
 6053TIP3    H218166   2.291   5.333   0.702 -1.1012  0.7745  0.6409
 6054TIP3   OH218167   5.124   1.367   0.120 -0.1509  0.0757  0.5427
 6054TIP3    H118168   5.039   1.324   0.122  0.1598 -0.6875 -1.0794
 6054TIP3    H218169   5.171   1.332   0.196 -0.0702 -2.1800 -0.4794
 6055TIP3   OH218170   2.470   2.759   1.086  0.6835  0.2720  0.1618
 6055TIP3    H118171   2.456   2.729   0.996  1.9331  0.2715 -0.0391
 6055TIP3    H218172   2.398   2.822   1.101 -0.6867 -1.1556 -0.1458
 6056TIP3   OH218173   0.609   5.002   3.495 -0.1037 -0.0021 -0.3453
 6056TIP3    H118174   0.652   4.930   3.450  0.4971  0.0464  0.1409
 6056TIP3    H218175   0.545   5.035   3.431 -0.2517 -0.8303 -0.6390
 6057TIP3   OH218176   5.223   5.221   3.829 -0.2745  0.1229 -0.0468
 6057TIP3    H118177   5.293   5.245   3.768 -1.5154  0.5577 -1.3868
 6057TIP3    H218178   5.240   5.130   3.851  0.5471  0.1380 -0.5799
 6058TIP3   OH218179   2.800   4.547   1.463  0.5763 -0.0833  0.0354
 6058TIP3    H118180   2.839   4.572   1.380  2.5323  0.7974  1.1534
 6058TIP3    H218181   2.835   4.461   1.482  0.7136  0.0275  0.2900
 6059TIP3   OH218182   2.982   3.959   1.583  0.2253  0.1743  0.4906
 6059TIP3    H118183   2.961   3.980   1.674 -2.4367 -1.9167  0.5039
 6059TIP3    H218184   2.899   3.930   1.546  0.4379  3.7518 -3.5626
 6060TIP3   OH218185   5.009   0.697   0.225  0.4546  0.1058 -0.1549
 6060TIP3    H118186   5.086   0.677   0.172  1.4769  1.1578  0.8902
 6060TIP3    H218187   4.936   0.695   0.163  1.2339 -1.3939 -1.0741
 6061TIP3   OH218188   4.114   3.832   3.385  0.8107  0.0312 -0.1079
 6061TIP3    H118189   4.054   3.852   3.314  0.0573 -0.4538  0.3822
 6061TIP3    H218190   4.094   3.897   3.453 -1.5882 -2.1727  1.4589
 6062TIP3   OH218191   4.244   2.105   3.538 -0.3762  1.0025 -0.1636
 6062TIP3    H118192   4.190   2.135   3.611 -3.9553  2.6149 -3.1599
 6062TIP3    H218193   4.201   2.024   3.508  1.1212  0.2767 -0.4438
 6063TIP3   OH218194   1.220   5.029   2.362  0.6422  0.1509 -0.6383
 6063TIP3    H118195   1.186   4.940   2.356 -0.5146  0.6068 -1.1023
 6063TIP3    H218196   1.304   5.020   2.406  0.6709 -1.1994 -0.9427
 6064TIP3   OH218197   5.218   3.225   4.519  0.1998  0.0569  0.0844
 6064TIP3    H118198   5.304   3.261   4.541 -0.2226  1.0387  0.1846
 6064TIP3    H218199   5.185   3.284   4.452 -0.7248  0.1351  0.6040
 6065TIP3   OH218200   5.657   1.761   1.775  0.6458 -0.2778 -0.8127
 6065TIP3    H118201   5.743   1.770   1.734  1.1746 -1.1365  0.0784
 6065TIP3    H218202   5.631   1.670   1.758  0.8750 -0.6557  0.7139
 6066TIP3   OH218203   2.893   1.901   1.622  0.2374  1.1850  0.2176
 6066TIP3    H118204   2.963   1.839   1.642 -0.4312  0.2785 -0.1561
 6066TIP3    H218205   2.866   1.878   1.532 -0.9767  1.0571  0.5874
 6067TIP3   OH218206   0.739   4.477   2.520  0.1024 -0.4314  0.4282
 6067TIP3    H118207   0.692   4.526   2.452 -0.1829 -1.1320  0.1174
 6067TIP3    H218208   0.746   4.388   2.485  2.2122 -0.2129  0.1775
 6068TIP3   OH218209   3.872   3.024   5.063 -0.1842  0.1131 -0.0428
 6068TIP3    H118210   3.929   3.000   5.136 -0.8474  0.2232  0.5287
 6068TIP3    H218211   3.786   2.987   5.087 -0.4101  0.1487 -0.7685
 6069TIP3   OH218212   3.995   3.755   3.882  0.2485 -0.0796 -0.6928
 6069TIP3    H118213   4.048   3.812   3.937 -2.5952  0.2130  1.9879
 6069TIP3    H218214   4.045   3.673   3.877  0.3226 -0.4518  3.1919
 6070TIP3   OH218215   0.804   2.208   1.594 -0.1736 -0.4796 -0.2036
 6070TIP3    H118216   0.764   2.167   1.672  1.6167  0.7414  1.4414
 6070TIP3    H218217   0.839   2.135   1.544  2.3729 -1.1603  2.3284
 6071TIP3   OH218218   3.454   2.928   2.772 -0.0097 -0.7691  0.7709
 6071TIP3    H118219   3.373   2.893   2.735  0.0272  0.5791 -0.7267
 6071TIP3    H218220   3.520   2.907   2.706  0.4089  0.1506  0.8807
 6072TIP3   OH218221   5.034   2.328   1.167 -0.2513 -0.0195  0.3982
 6072TIP3    H118222   5.070   2.241   1.151  0.3010  0.5983 -2.1274
 6072TIP3    H218223   5.108   2.378   1.202  0.1457  0.0787 -0.5576
 6073TIP3   OH218224   6.097   4.066   2.878 -0.2239 -0.4309  0.4031
 6073TIP3    H118225   6.021   4.036   2.928 -2.3201  1.4789 -1.3960
 6073TIP3    H218226   6.125   4.146   2.922 -3.6494  2.7200 -2.4320
 6074TIP3   OH218227   1.508   2.463   2.154  0.2932  0.1987 -0.6930
 6074TIP3    H118228   1.570   2.478   2.225 -0.9518  2.7883 -0.0533
 6074TIP3    H218229   1.504   2.367   2.146 -2.7971 -0.7527  5.8161
 6075TIP3   OH218230   2.755   0.561   0.308  0.4849 -0.2619 -0.1348
 6075TIP3    H118231   2.685   0.539   0.370  1.1958 -2.2706  0.0355
 6075TIP3    H218232   2.729   0.520   0.226  0.9746 -0.1810 -0.3371
 6076TIP3   OH218233   3.240   5.814   0.454  0.0570 -0.7285  0.4187
 6076TIP3    H118234   3.163   5.869   0.438 -0.3915 -1.1368  1.1338
 6076TIP3    H218235   3.286   5.857   0.526  1.5845  0.5988 -1.2586
 6077TIP3   OH218236   5.987   5.799   1.596 -0.0919  0.0980  0.1567
 6077TIP3    H118237   5.922   5.733   1.619 -0.5674  0.1981 -0.8609
 6077TIP3    H218238   5.979   5.866   1.664 -2.0212  0.7797 -0.6883
 6078TIP3   OH218239   5.745   1.529   3.787  0.2926 -0.2038  0.3318
 6078TIP3    H118240   5.710   1.440   3.789 -0.2904  0.0287  1.6043
 6078TIP3    H218241   5.705   1.572   3.863 -2.2950  2.2234 -2.1182
 6079TIP3   OH218242   4.366   1.376   3.404 -0.6876  0.3690 -0.3025
 6079TIP3    H118243   4.316   1.294   3.404 -0.4688  0.2346 -0.1015
 6079TIP3    H218244   4.393   1.388   3.313  0.3909 -0.4656 -0.1113
 6080TIP3   OH218245   2.137   0.904   1.141  0.4422 -0.4570 -0.7038
 6080TIP3    H118246   2.089   0.834   1.097  1.0528 -0.0262 -2.1287
 6080TIP3    H218247   2.072   0.947   1.197  0.1130 -2.2751  0.4008
 6081TIP3   OH218248   4.008   3.040   1.812  0.4821 -0.4701  0.0158
 6081TIP3    H118249   3.937   3.093   1.777  0.7539 -0.7890 -1.0600
 6081TIP3    H218250   4.081   3.055   1.753  0.3849 -2.5012 -0.7094
 6082TIP3   OH218251   1.986   1.247   3.227 -0.2468  0.3108  0.1696
 6082TIP3    H118252   1.950   1.298   3.155 -1.4780 -1.0376 -0.2050
 6082TIP3    H218253   1.910   1.226   3.282  0.2426 -1.0203  0.3620
 6083TIP3   OH218254   1.891   3.551   4.883  0.4101  0.0996 -0.1708
 6083TIP3    H118255   1.947   3.572   4.807 -1.1151  2.3305 -0.7892
 6083TIP3    H218256   1.835   3.480   4.853  0.0502  0.7333 -1.0323
 6084TIP3   OH218257   0.798   5.679   1.700 -0.2795  0.3036  0.4738
 6084TIP3    H118258   0.860   5.623   1.653 -0.4538  0.4700  0.0511
 6084TIP3    H218259   0.725   5.621   1.723 -0.1461  0.1986  0.6378
 6085TIP3   OH218260   1.165   2.393   0.236 -0.3538  0.4985  0.0207
 6085TIP3    H118261   1.161   2.406   0.142  1.5655  1.3910  0.0221
 6085TIP3    H218262   1.077   2.363   0.260 -2.5494  5.0741 -1.2969
 6086TIP3   OH218263   2.787   5.902   0.544  0.2167  0.8261 -0.4481
 6086TIP3    H118264   2.849   5.934   0.478  0.5934  0.8571 -0.0797
 6086TIP3    H218265   2.842   5.860   0.610 -0.2135  0.1488 -0.5134
 6087TIP3   OH218266   5.965   0.279   1.099 -0.0758  0.0813  0.2305
 6087TIP3    H118267   6.022   0.312   1.169 -0.8288  1.6606  0.1423
 6087TIP3    H218268   5.933   0.195   1.131  1.9589 -0.6649  0.4594
 6088TIP3   OH218269   2.050   3.263   3.796  0.3707  0.5066 -0.1461
 6088TIP3    H118270   2.054   3.329   3.727  1.7183  0.8016  0.1766
 6088TIP3    H218271   2.137   3.223   3.794  1.0437  1.6484  2.4669
 6089TIP3   OH218272   5.491   2.290   4.550 -0.4359 -0.5913  0.1063
 6089TIP3    H118273   5.542   2.292   4.468 -1.4380 -0.6511 -0.5371
 6089TIP3    H218274   5.543   2.341   4.612 -0.4263  0.8805 -1.0549
 6090TIP3   OH218275   2.612   0.568   2.018  0.4946 -1.2702 -0.1227
 6090TIP3    H118276   2.633   0.635   1.954  1.5392 -0.2431  1.2127
 6090TIP3    H218277   2.593   0.490   1.967  0.5073 -0.2820 -1.6810
 6091TIP3   OH218278   1.293   3.639   0.957 -0.2989 -0.0277  0.5290
 6091TIP3    H118279   1.201   3.615   0.946 -0.4064 -0.1605  1.6111
 6091TIP3    H218280   1.324   3.657   0.868 -1.0974 -0.9524  0.0448
 6092TIP3   OH218281   5.984   2.280   0.358 -0.4570  0.0685 -0.2529
 6092TIP3    H118282   5.915   2.271   0.424 -2.4417  2.6511 -1.7749
 6092TIP3    H218283   6.026   2.363   0.380  0.7357 -0.4289 -0.6148
 6093TIP3   OH218284   1.317   1.077   0.576 -0.0160 -0.2541 -0.0443
 6093TIP3    H118285   1.385   1.011   0.586 -0.7417 -0.8721  1.0989
 6093TIP3    H218286   1.266   1.047   0.500  0.6421 -0.1005 -0.5476
 6094TIP3   OH218287   2.864   2.663   2.426 -0.6249  0.1885  0.7718
 6094TIP3    H118288   2.892   2.661   2.335  0.0934  0.0554  0.9889
 6094TIP3    H218289   2.846   2.756   2.443 -1.8998  0.0636  0.1687
 6095TIP3   OH218290   3.820   5.510   0.631  0.0808 -0.2148  0.1947
 6095TIP3    H118291   3.789   5.560   0.556  1.0392 -0.7816 -0.5988
 6095TIP3    H218292   3.903   5.472   0.602  0.2744 -0.7610  1.4085
 6096TIP3   OH218293   3.230   3.312   0.742 -0.8909  0.5582 -0.4736
 6096TIP3    H118294   3.251   3.402   0.767 -2.0653  0.6943  0.0893
 6096TIP3    H218295   3.278   3.258   0.805 -1.0332  0.8156 -0.1418
 6097TIP3   OH218296   5.424   4.936   2.648  0.2706 -0.3776 -0.1652
 6097TIP3    H118297   5.459   4.913   2.734 -0.1908 -0.5626 -0.0184
 6097TIP3    H218298   5.396   4.852   2.611 -0.2544 -0.2058 -0.1647
 6098TIP3   OH218299   0.711   4.313   0.786  0.3345  0.0847 -0.4331
 6098TIP3    H118300   0.700   4.354   0.700  1.6786  0.2066 -0.5722
 6098TIP3    H218301   0.664   4.370   0.846  2.5098  2.1446 -0.5576
 6099TIP3   OH218302   2.406   5.301   0.416  0.2168 -0.0015 -0.3585
 6099TIP3    H118303   2.402   5.240   0.490 -1.5925 -0.5546 -0.8402
 6099TIP3    H218304   2.433   5.247   0.342  1.3450  0.4027 -0.2538
 6100TIP3   OH218305   5.440   1.754   3.264  0.2151 -0.7473  0.2187
 6100TIP3    H118306   5.465   1.805   3.187  1.2575  0.6069  1.3881
 6100TIP3    H218307   5.410   1.670   3.229  1.4089 -0.4688 -1.6167
 6101TIP3   OH218308   1.685   1.309   3.334  0.8234  0.1164  0.0922
 6101TIP3    H118309   1.658   1.398   3.313  1.3077  0.2992  0.2320
 6101TIP3    H218310   1.714   1.314   3.425 -2.9163 -1.0092  1.5317
 6102TIP3   OH218311   2.145   5.173   1.344 -0.2831 -0.2598  0.2048
 6102TIP3    H118312   2.141   5.217   1.429  0.9991 -0.5105  0.4091
 6102TIP3    H218313   2.061   5.194   1.302  1.0699  4.4001 -0.7100
 6103TIP3   OH218314   3.279   4.682   4.288  0.1227 -0.3655  0.0730
 6103TIP3    H118315   3.327   4.755   4.249 -2.0521  1.1045 -0.0361
 6103TIP3    H218316   3.317   4.673   4.376 -0.2997  1.6990  0.5147
 6104TIP3   OH218317   5.295   3.707   4.989 -0.0844 -0.9591 -0.4665
 6104TIP3    H118318   5.216   3.665   4.956 -0.1871 -0.0777 -1.3707
 6104TIP3    H218319   5.276   3.724   5.081 -2.1970  1.9626 -1.3024
 6105TIP3   OH218320   5.692   0.218   3.577 -0.0524  0.2902 -0.1519
 6105TIP3    H118321   5.615   0.173   3.543  0.2321 -1.0300  0.8806
 6105TIP3    H218322   5.661   0.307   3.596 -1.0525  0.0722 -0.6779
 6106TIP3   OH218323   6.249   3.675   2.549  0.4473 -0.6493  0.0424
 6106TIP3    H118324   6.270   3.683   2.455 -0.6773 -1.3864 -0.2880
 6106TIP3    H218325   6.154   3.679   2.552  0.5056  0.1628  1.2544
 6107TIP3   OH218326   5.883   3.637   1.943  0.6585 -0.0909  0.2677
 6107TIP3    H118327   5.794   3.648   1.978 -1.5921 -0.6065 -4.5243
 6107TIP3    H218328   5.899   3.543   1.948  0.3828 -0.1508  0.0830
 6108TIP3   OH218329   3.388   2.795   4.792  0.3724  0.2606 -0.0842
 6108TIP3    H118330   3.415   2.866   4.850 -2.1550  1.3214 -0.0754
 6108TIP3    H218331   3.367   2.722   4.851  0.2935  0.4611  0.1375
 6109TIP3   OH218332   4.506   0.951   0.086 -0.2055  0.3393  0.3071
 6109TIP3    H118333   4.524   1.016   0.154 -1.2998 -0.0739  1.0034
 6109TIP3    H218334   4.411   0.942   0.085 -0.0277 -2.2688  1.1915
 6110TIP3   OH218335   1.489   3.763   4.952  0.4114  0.0607  0.3059
 6110TIP3    H118336   1.578   3.780   4.920  0.8406 -1.4024  0.6541
 6110TIP3    H218337   1.432   3.802   4.885  1.2466  2.6608  0.9608
 6111TIP3   OH218338   1.846   2.871   0.807  0.3615  0.0599 -0.6885
 6111TIP3    H118339   1.898   2.834   0.736  0.4922  0.3775 -0.7609
 6111TIP3    H218340   1.836   2.963   0.784  0.6134  0.2230 -0.1732
 6112TIP3   OH218341   6.198   3.624   1.739  0.1399  0.1501  0.0729
 6112TIP3    H118342   6.164   3.701   1.784 -1.7979  0.0513 -1.1012
 6112TIP3    H218343   6.187   3.644   1.646 -0.2872 -1.4711 -0.2585
 6113TIP3   OH218344   1.663   0.170   3.317 -0.1959  0.3742  0.3476
 6113TIP3    H118345   1.713   0.176   3.236  0.4158  1.6365  0.7891
 6113TIP3    H218346   1.712   0.222   3.380 -1.0557  0.0417  1.3288
 6114TIP3   OH218347   5.278   0.810   2.678 -0.1753 -0.0457  0.3488
 6114TIP3    H118348   5.265   0.903   2.693 -0.3206  0.2615 -1.4957
 6114TIP3    H218349   5.373   0.798   2.676 -0.1385  0.3503 -0.9063
 6115TIP3   OH218350   0.090   5.277   1.101  0.0968  0.5007 -0.3266
 6115TIP3    H118351   0.040   5.274   1.019 -2.0210  1.6466  0.8225
 6115TIP3    H218352   0.063   5.198   1.148  0.3330  0.4846 -0.2165
 6116TIP3   OH218353   0.718   0.509   0.124 -0.3042  0.4289 -0.3225
 6116TIP3    H118354   0.758   0.564   0.057 -0.9691  1.1285 -0.1644
 6116TIP3    H218355   0.625   0.534   0.124 -0.5217 -0.3210  0.1197
 6117TIP3   OH218356   2.769   2.040   4.227  0.3943 -0.4977 -0.0012
 6117TIP3    H118357   2.686   1.995   4.216 -0.6442  0.7872  1.8725
 6117TIP3    H218358   2.749   2.132   4.212  2.0999 -0.3958 -2.1241
 6118TIP3   OH218359   2.449   1.636   1.112 -0.4921 -0.0978  0.4317
 6118TIP3    H118360   2.533   1.609   1.151 -0.0203  0.7764  0.0389
 6118TIP3    H218361   2.417   1.705   1.170  0.4953  1.6190 -0.9887
 6119TIP3   OH218362   4.320   2.413   5.080 -0.1427 -0.1739  0.0837
 6119TIP3    H118363   4.262   2.339   5.101 -0.2564  0.2768  1.4805
 6119TIP3    H218364   4.272   2.490   5.111  0.2554  0.4226 -0.7645
 6120TIP3   OH218365   4.249   4.210   5.160 -0.5670 -0.1902 -0.0871
 6120TIP3    H118366   4.188   4.257   5.104 -0.4256 -0.9467 -0.8878
 6120TIP3    H218367   4.323   4.189   5.103 -0.0794 -0.3149  0.5737
 6121TIP3   OH218368   4.104   2.173   1.643 -0.2855  0.5787  0.1979
 6121TIP3    H118369   4.179   2.211   1.597 -1.0903  2.3521  0.2237
 6121TIP3    H218370   4.110   2.079   1.628  1.2510  0.8151 -0.8257
 6122TIP3   OH218371   2.726   2.199   0.924 -0.4079 -0.3526  0.1080
 6122TIP3    H118372   2.672   2.263   0.877  1.2173  1.6318  0.8312
 6122TIP3    H218373   2.705   2.213   1.016  1.0508  0.2350  0.3792
 6123TIP3   OH218374   1.636   1.057   4.203 -0.3450 -0.6530 -0.5987
 6123TIP3    H118375   1.632   1.137   4.256 -2.9045 -1.4620  0.5670
 6123TIP3    H218376   1.708   1.073   4.142  1.2025  1.3021  1.5449
 6124TIP3   OH218377   3.502   5.812   0.367 -0.3659 -0.1090 -0.2475
 6124TIP3    H118378   3.413   5.812   0.400  0.3039  1.5995  1.8051
 6124TIP3    H218379   3.557   5.817   0.446  1.6692 -2.7829 -1.3056
 6125TIP3   OH218380   1.798   5.233   2.159  0.4158  0.6750  0.3487
 6125TIP3    H118381   1.734   5.174   2.199  0.1239  0.4480 -0.4447
 6125TIP3    H218382   1.881   5.186   2.166  0.2756  0.4008  0.2066
 6126TIP3   OH218383   2.189   1.191   4.385  0.1101 -0.1794 -0.5421
 6126TIP3    H118384   2.226   1.273   4.419 -0.1319 -0.5770  0.6966
 6126TIP3    H218385   2.157   1.145   4.462  0.9225 -1.7933 -1.1293
 6127TIP3   OH218386   5.443   0.013   0.193 -0.6420 -0.1498 -0.0521
 6127TIP3    H118387   5.501  -0.048   0.240 -1.9529 -0.5625  1.1150
 6127TIP3    H218388   5.442   0.091   0.248  0.4160  0.6631 -1.1473
 6128TIP3   OH218389   0.638   0.988   4.641 -0.5026  0.3386  0.1252
 6128TIP3    H118390   0.654   0.945   4.557 -1.4573 -0.5510  0.3683
 6128TIP3    H218391   0.622   0.915   4.702  0.7397  0.9354  1.2213
 6129TIP3   OH218392   3.699   0.397   0.608  0.0579 -0.1594  0.3253
 6129TIP3    H118393   3.678   0.308   0.636  2.4075 -0.4511  1.3900
 6129TIP3    H218394   3.783   0.388   0.562  1.0132  1.6448  1.6140
 6130TIP3   OH218395   4.129   1.568   0.164 -0.8854 -0.4273 -0.1334
 6130TIP3    H118396   4.193   1.637   0.182 -0.6711 -0.8072  0.6043
 6130TIP3    H218397   4.100   1.585   0.075  0.2608 -0.2525 -0.4896
 6131TIP3   OH218398   5.043   2.244   3.503 -0.0901 -0.1857 -0.1064
 6131TIP3    H118399   4.950   2.221   3.506 -0.4117  1.0600  2.7854
 6131TIP3    H218400   5.046   2.336   3.528  1.8385  0.4322 -2.2201
 6132TIP3   OH218401   0.120   0.352   2.906 -0.0052 -0.0676  0.2283
 6132TIP3    H118402   0.211   0.377   2.892  0.4042 -1.5023  0.2018
 6132TIP3    H218403   0.104   0.283   2.841 -0.5714 -1.0507  1.3800
 6133TIP3   OH218404   0.364   1.677   3.028 -0.3365 -0.0710  0.0515
 6133TIP3    H118405   0.423   1.602   3.040  0.3211  0.3597 -0.3992
 6133TIP3    H218406   0.391   1.740   3.094 -2.4441 -1.1095  2.0672
 6134TIP3   OH218407   3.307   1.650   4.381  0.3939  0.3639 -0.5059
 6134TIP3    H118408   3.394   1.665   4.344 -0.0362  0.8679 -1.3692
 6134TIP3    H218409   3.301   1.711   4.454  0.8194  0.2266 -0.3562
 6135TIP3   OH218410   6.090   3.093   3.992  0.0033 -0.0014 -0.5738
 6135TIP3    H118411   6.148   3.102   3.917  0.8952 -0.0561  0.0922
 6135TIP3    H218412   6.002   3.103   3.956  0.3584 -0.9662 -1.7800
 6136TIP3   OH218413   4.850   3.836   3.650 -0.3462 -0.0388  0.3940
 6136TIP3    H118414   4.848   3.932   3.658  2.1557  0.1099  0.1232
 6136TIP3    H218415   4.892   3.821   3.566  1.1190 -1.3476  1.3206
 6137TIP3   OH218416   0.160   1.566   3.975  0.0596 -0.2129 -0.1328
 6137TIP3    H118417   0.185   1.582   4.066  0.2604  0.5390 -0.3154
 6137TIP3    H218418   0.219   1.497   3.946  0.7970  0.3683 -0.0414
 6138TIP3   OH218419   5.525   0.856   1.154  0.5572 -0.0951  0.0264
 6138TIP3    H118420   5.501   0.902   1.074 -3.6194  0.6335  1.4410
 6138TIP3    H218421   5.602   0.904   1.187 -0.1280  2.2014 -1.4814
 6139TIP3   OH218422   4.138   5.734   2.228  0.2695  0.5172  0.5896
 6139TIP3    H118423   4.086   5.788   2.288 -1.4293  0.5647 -0.8619
 6139TIP3    H218424   4.228   5.767   2.238 -0.1595  1.3171  2.1909
 6140TIP3   OH218425   4.741   1.681   2.976  0.1316  0.1146  0.3645
 6140TIP3    H118426   4.787   1.764   2.992 -0.0995  0.1364  0.9348
 6140TIP3    H218427   4.785   1.644   2.900  0.8685  0.3111  0.6790
 6141TIP3   OH218428   5.168   0.536   4.705  0.1318 -0.0377  0.0039
 6141TIP3    H118429   5.151   0.617   4.657 -0.0897  0.7143  1.2868
 6141TIP3    H218430   5.253   0.506   4.675  0.6391  1.1903  0.1873
 6142TIP3   OH218431   1.088   4.516   2.868 -0.4224  0.0537 -0.3684
 6142TIP3    H118432   1.033   4.573   2.924 -0.7999 -1.1699  0.5567
 6142TIP3    H218433   1.155   4.483   2.927 -2.0831 -2.9965  0.0174
 6143TIP3   OH218434   5.632   0.670   0.748 -0.0391  0.3950  0.0771
 6143TIP3    H118435   5.678   0.753   0.749  0.1062  0.3124  0.4242
 6143TIP3    H218436   5.585   0.667   0.832  0.3742 -0.1009  0.2967
 6144TIP3   OH218437   3.609   3.930   2.515  0.7336 -0.3260 -0.6950
 6144TIP3    H118438   3.576   4.016   2.490  0.1025  0.3523  2.1922
 6144TIP3    H218439   3.655   3.899   2.437  0.1625  2.1869 -2.1396
 6145TIP3   OH218440   3.070   2.495   4.287  0.3187 -0.3082  0.0544
 6145TIP3    H118441   3.079   2.449   4.370  0.0641  2.7787  1.9563
 6145TIP3    H218442   3.160   2.520   4.263  0.5676 -2.3718 -1.4467
 6146TIP3   OH218443   0.207   2.712   4.372  0.1576 -0.1656  0.5332
 6146TIP3    H118444   0.287   2.672   4.406  0.4700  0.4045  0.4651
 6146TIP3    H218445   0.235   2.759   4.294 -0.0056  1.0889  1.2044
 6147TIP3   OH218446   5.626   2.848   1.921  0.1796 -0.2213  0.3177
 6147TIP3    H118447   5.544   2.896   1.911 -0.4036 -1.1907  0.2052
 6147TIP3    H218448   5.686   2.889   1.859  0.1524  1.2385  1.2132
 6148TIP3   OH218449   3.429   5.013   2.656  0.0309  0.3720  0.2584
 6148TIP3    H118450   3.402   5.082   2.594 -0.7513 -0.4957 -0.3843
 6148TIP3    H218451   3.353   4.956   2.664 -0.7345  1.6285  3.7946
 6149TIP3   OH218452   2.271   5.054   4.139  0.0649 -0.2791 -0.0978
 6149TIP3    H118453   2.318   5.085   4.062 -0.0307  0.6298  0.1870
 6149TIP3    H218454   2.186   5.098   4.134  0.2022  0.0988  0.7153
 6150TIP3   OH218455   2.349   0.608   1.497  0.0410  0.2657  0.3841
 6150TIP3    H118456   2.388   0.669   1.434 -1.0651  0.5062 -0.0890
 6150TIP3    H218457   2.384   0.522   1.472 -0.0079  0.4237 -0.2457
 6151TIP3   OH218458   2.551   3.269   0.379 -0.3361 -0.3734 -0.3532
 6151TIP3    H118459   2.635   3.255   0.336  1.1823  1.6651  1.7218
 6151TIP3    H218460   2.552   3.209   0.454 -0.7008 -0.3128 -0.2954
 6152TIP3   OH218461   6.301   5.849   1.277 -0.1585 -0.0541 -0.5588
 6152TIP3    H118462   6.220   5.815   1.315 -0.7984  0.8885 -1.0285
 6152TIP3    H218463   6.368   5.830   1.343 -0.6247 -1.4122 -0.4304
 6153TIP3   OH218464   3.215   1.343   0.874  0.1076  0.0849  0.3409
 6153TIP3    H118465   3.209   1.408   0.944 -2.2197 -0.2698  0.5454
 6153TIP3    H218466   3.274   1.382   0.809  0.3705  1.4786  1.3784
 6154TIP3   OH218467   1.617   1.905   1.059 -0.2694 -0.2969  0.6863
 6154TIP3    H118468   1.709   1.896   1.081 -0.2343 -0.4501  0.4768
 6154TIP3    H218469   1.573   1.837   1.109 -0.2407 -0.3755  0.6042
 6155TIP3   OH218470   2.233   2.521   3.219 -0.4136 -0.1729  0.3346
 6155TIP3    H118471   2.212   2.587   3.153 -1.6030  1.1707  1.9514
 6155TIP3    H218472   2.301   2.561   3.273 -0.5914 -0.5838  0.8773
 6156TIP3   OH218473   0.805   5.258   0.805  0.0302 -0.6723 -0.2238
 6156TIP3    H118474   0.815   5.300   0.720  0.3349 -0.0005  0.1388
 6156TIP3    H218475   0.741   5.312   0.852  1.4645  0.2594  0.7681
 6157TIP3   OH218476   4.298   2.743   1.650  0.8299 -0.0822  0.1559
 6157TIP3    H118477   4.374   2.733   1.593  0.6209 -0.0164 -0.1375
 6157TIP3    H218478   4.290   2.658   1.694  0.2427 -0.5744 -0.8619
 6158TIP3   OH218479   4.980   5.923   0.295  0.3678 -0.2889  0.1559
 6158TIP3    H118480   5.067   5.899   0.263 -0.2323 -0.6305 -1.2739
 6158TIP3    H218481   4.981   5.899   0.388  1.4603 -1.2006 -0.0760
 6159TIP3   OH218482   1.747   4.635   1.933  0.2714 -0.4515 -0.4777
 6159TIP3    H118483   1.727   4.660   2.023  0.6573  0.3853 -0.6177
 6159TIP3    H218484   1.663   4.643   1.887  0.4248  0.8184 -0.5647
 6160TIP3   OH218485   1.840   2.292   0.962 -0.5050 -0.0776 -0.5423
 6160TIP3    H118486   1.751   2.258   0.972 -2.3115  3.7239 -1.6875
 6160TIP3    H218487   1.848   2.312   0.869  1.6633 -0.4360 -0.4909
 6161TIP3   OH218488   3.685   2.017   3.515  0.1399  0.2697  0.5358
 6161TIP3    H118489   3.699   1.925   3.541 -0.3477 -0.3972 -1.4003
 6161TIP3    H218490   3.626   2.051   3.582  1.1205 -0.5011  1.8658
 6162TIP3   OH218491   5.422   0.664   1.699  0.2839 -0.0523 -0.6668
 6162TIP3    H118492   5.394   0.733   1.759 -1.3845 -0.6318 -0.7393
 6162TIP3    H218493   5.457   0.711   1.623 -1.6258  0.7551 -1.0967
 6163TIP3   OH218494   4.504   0.669   2.820 -0.2826  0.5984  0.4722
 6163TIP3    H118495   4.597   0.675   2.797  0.1510 -2.4447  0.9213
 6163TIP3    H218496   4.460   0.651   2.737 -0.1755  0.0726  0.5252
 6164TIP3   OH218497   2.063   5.552   2.964 -0.6250  0.5614 -0.0865
 6164TIP3    H118498   2.059   5.646   2.980  0.5772  0.6205 -0.0089
 6164TIP3    H218499   2.112   5.517   3.038 -0.9767 -0.1119 -0.1663
 6165TIP3   OH218500   3.588   1.945   1.493 -0.0908  0.5383 -0.1770
 6165TIP3    H118501   3.622   1.992   1.417 -0.3053  1.8826  0.5339
 6165TIP3    H218502   3.641   1.977   1.567  0.9928 -1.6758  0.1058
 6166TIP3   OH218503   1.906   4.189   0.228 -0.3110  0.2138 -0.6690
 6166TIP3    H118504   1.902   4.153   0.139  2.2892 -0.3237 -0.6555
 6166TIP3    H218505   1.854   4.129   0.281 -1.4260  0.2259 -1.7079
 6167TIP3   OH218506   1.168   2.792   0.904  0.2945 -0.1679  0.4929
 6167TIP3    H118507   1.119   2.712   0.923 -0.5600 -0.1303 -1.2999
 6167TIP3    H218508   1.230   2.766   0.836 -0.5428  0.8276 -0.6986
 6168TIP3   OH218509   6.139   1.847   4.057  0.0548 -0.1728  0.5352
 6168TIP3    H118510   6.231   1.820   4.054  0.2056  0.3910 -0.6268
 6168TIP3    H218511   6.104   1.820   3.972 -0.4786  0.8734  0.4025
 6169TIP3   OH218512   4.764   5.025   0.493  0.1952  0.2166 -0.4472
 6169TIP3    H118513   4.824   5.080   0.544 -2.8516  0.9034  2.7838
 6169TIP3    H218514   4.725   5.085   0.430  0.9682  0.3752 -0.7891
 6170TIP3   OH218515   2.703   4.125   3.699  0.2988  0.8390  0.2276
 6170TIP3    H118516   2.677   4.207   3.658 -0.0116 -0.2260 -1.8392
 6170TIP3    H218517   2.632   4.105   3.760 -0.6649  1.0732 -0.7896
 6171TIP3   OH218518   1.893   1.909   3.190 -0.2594 -0.1436  0.2828
 6171TIP3    H118519   1.970   1.964   3.179 -0.6938  0.2117 -1.1974
 6171TIP3    H218520   1.820   1.964   3.160 -0.7945 -1.2419 -0.4784
 6172TIP3   OH218521   4.391   2.985   0.228  0.0017  0.6861 -0.0643
 6172TIP3    H118522   4.450   3.026   0.291  0.4063  0.4385 -0.2797
 6172TIP3    H218523   4.329   2.936   0.281  1.1136 -0.5756  0.1101
 6173TIP3   OH218524   2.962   0.910   2.831  0.6131 -0.1108  0.3925
 6173TIP3    H118525   2.961   1.006   2.841  0.1494 -0.3123  2.6787
 6173TIP3    H218526   2.993   0.877   2.915  1.3760 -1.9843 -0.5704
 6174TIP3   OH218527   0.197   0.240   3.948 -0.3566  0.4645  1.3489
 6174TIP3    H118528   0.225   0.254   4.038 -0.3459  2.4772  1.0904
 6174TIP3    H218529   0.110   0.201   3.955  0.4025 -1.1621  2.1840
 6175TIP3   OH218530   1.135   0.562   2.490 -0.2604  0.1113 -0.1019
 6175TIP3    H118531   1.108   0.509   2.416 -1.0342 -0.1332  0.3439
 6175TIP3    H218532   1.182   0.502   2.548 -1.9434 -0.3436  0.8478
 6176TIP3   OH218533   3.199   5.560   0.336  0.3698  0.0058  0.6348
 6176TIP3    H118534   3.292   5.543   0.326  0.6026  0.5771  1.7164
 6176TIP3    H218535   3.194   5.645   0.381 -0.6402 -0.5406  1.5998
 6177TIP3   OH218536   6.257   1.493   1.360  0.1215  0.2691 -0.3679
 6177TIP3    H118537   6.168   1.527   1.370 -0.1662 -0.8197  1.0557
 6177TIP3    H218538   6.302   1.559   1.308 -0.4931  2.7401  1.9823
 6178TIP3   OH218539   6.213   0.767   3.412 -0.3219  0.3823 -0.3062
 6178TIP3    H118540   6.188   0.731   3.497 -0.8928 -0.3956 -0.7872
 6178TIP3    H218541   6.268   0.842   3.433 -0.1501 -0.0183  0.7461
 6179TIP3   OH218542   2.659   2.926   2.716  0.1467 -0.1504  0.4006
 6179TIP3    H118543   2.605   2.950   2.792  0.4625  0.7645  0.3474
 6179TIP3    H218544   2.622   2.977   2.644 -1.4859 -2.5237 -0.5883
 6180TIP3   OH218545   0.395   1.816   2.574  0.7307  0.6796  0.1017
 6180TIP3    H118546   0.463   1.779   2.630  0.6384 -0.3554 -0.4507
 6180TIP3    H218547   0.315   1.810   2.627  0.6157 -0.4291 -0.1738
 6181TIP3   OH218548   1.367   3.123   4.061  0.2044  0.3469  0.2373
 6181TIP3    H118549   1.279   3.145   4.090  0.1447  0.8097 -0.2740
 6181TIP3    H218550   1.423   3.189   4.101  0.4503 -0.4681  1.2899
 6182TIP3   OH218551   2.619   4.197   4.588  0.0437 -0.1380 -0.4653
 6182TIP3    H118552   2.545   4.229   4.640 -1.4660 -0.4549 -2.3355
 6182TIP3    H218553   2.692   4.252   4.616 -1.4107  1.7870 -0.2130
 6183TIP3   OH218554   5.393   2.369   2.027 -0.3580  0.6907  0.2007
 6183TIP3    H118555   5.455   2.442   2.014 -0.8717  1.1812  0.4471
 6183TIP3    H218556   5.368   2.343   1.939  0.3393  0.3579  0.0888
 6184TIP3   OH218557   3.455   4.725   2.371 -0.2479  0.0678  0.6897
 6184TIP3    H118558   3.490   4.739   2.459  0.1974  0.1664  0.4979
 6184TIP3    H218559   3.493   4.795   2.318  2.0607 -1.8027 -0.2985
 6185TIP3   OH218560   4.635   4.665   4.494 -0.2456 -0.2277 -0.4873
 6185TIP3    H118561   4.621   4.611   4.416 -1.5602  0.7476 -0.9559
 6185TIP3    H218562   4.729   4.659   4.510 -0.0707 -1.0861 -1.6825
 6186TIP3   OH218563   5.024   3.524   3.951  0.0655  0.0954  0.6351
 6186TIP3    H118564   4.954   3.461   3.970 -0.2560 -0.0385 -0.8435
 6186TIP3    H218565   5.036   3.518   3.856  0.6694  1.6137  0.5920
 6187TIP3   OH218566   3.463   3.875   3.762  0.2858  0.3473  0.3606
 6187TIP3    H118567   3.433   3.814   3.694 -0.5865 -0.5419  1.4926
 6187TIP3    H218568   3.552   3.844   3.784  1.1444  1.4922 -1.2989
 6188TIP3   OH218569   6.233   0.469   0.807  0.6573 -0.4974 -0.4567
 6188TIP3    H118570   6.317   0.476   0.853 -1.0961 -0.8223  3.1401
 6188TIP3    H218571   6.204   0.560   0.797  0.7224 -0.4525 -0.2415
 6189TIP3   OH218572   6.233   2.076   0.920  0.1759 -0.2363  0.0137
 6189TIP3    H118573   6.295   2.139   0.957  0.8274 -0.7590 -0.1708
 6189TIP3    H218574   6.226   2.100   0.828  0.0543 -0.1408  0.0473
 6190TIP3   OH218575   5.156   2.826   2.801  0.4746  0.2352 -0.3896
 6190TIP3    H118576   5.076   2.879   2.800  1.4299  1.8096  1.6291
 6190TIP3    H218577   5.189   2.834   2.890  1.6265 -2.3745 -0.5000
 6191TIP3   OH218578   3.775   1.753   1.294  0.5424  0.2901 -0.6290
 6191TIP3    H118579   3.784   1.749   1.390  0.6461 -0.7915 -0.6756
 6191TIP3    H218580   3.700   1.698   1.275  0.1045  1.0502 -1.1252
 6192TIP3   OH218581   2.564   2.633   2.705  0.2856 -0.5170  0.2757
 6192TIP3    H118582   2.598   2.713   2.667  1.6922 -0.9021  0.6678
 6192TIP3    H218583   2.531   2.659   2.791  1.2531 -0.4352  0.6360
 6193TIP3   OH218584   3.541   3.318   1.834  1.1043 -0.5907  0.0529
 6193TIP3    H118585   3.600   3.251   1.869 -1.1054 -4.9033 -3.4573
 6193TIP3    H218586   3.454   3.292   1.864  0.2579  1.4864 -0.4467
 6194TIP3   OH218587   4.666   4.130   0.985 -0.0764 -0.2268  0.2975
 6194TIP3    H118588   4.683   4.153   0.894 -2.1948  3.1215  0.5461
 6194TIP3    H218589   4.716   4.194   1.036  3.1590 -3.5954  1.7818
 6195TIP3   OH218590   1.447   4.865   5.173 -0.2234 -0.3716 -0.1118
 6195TIP3    H118591   1.500   4.933   5.214 -0.0294  0.4365 -1.6271
 6195TIP3    H218592   1.508   4.818   5.116 -0.8930 -0.0952 -1.0845
 6196TIP3   OH218593   0.223   4.311   4.037 -0.4177 -0.0678 -0.5725
 6196TIP3    H118594   0.196   4.362   3.961  1.3064 -0.0320 -1.2123
 6196TIP3    H218595   0.313   4.338   4.053 -0.9570  0.5088  1.9984
 6197TIP3   OH218596   1.044   0.612   0.734 -0.1904  0.4923  0.1164
 6197TIP3    H118597   1.063   0.579   0.646 -0.7495 -0.9127  0.5014
 6197TIP3    H218598   0.969   0.670   0.723 -0.5533 -0.0483 -0.2567
 6198TIP3   OH218599   2.785   0.600   1.371 -0.2341  0.2018  0.6140
 6198TIP3    H118600   2.851   0.595   1.302 -1.6880  1.2939 -0.9627
 6198TIP3    H218601   2.733   0.520   1.361  0.7273 -0.5842  1.7538
 6199TIP3   OH218602   2.978   1.131   0.176 -0.4678  0.4758 -0.5816
 6199TIP3    H118603   2.887   1.143   0.204 -0.2969  1.9677 -0.5658
 6199TIP3    H218604   2.975   1.141   0.081 -0.3585  0.2164 -0.6125
 6200TIP3   OH218605   3.967   4.121   3.797  0.4714 -0.1437  0.2102
 6200TIP3    H118606   3.874   4.128   3.779  0.3564  0.7815  1.1173
 6200TIP3    H218607   3.973   4.061   3.872  0.4350  1.3059  1.4173
 6201TIP3   OH218608   5.850   4.443   3.209  0.1853  0.2272  0.2566
 6201TIP3    H118609   5.773   4.462   3.156 -1.0494  0.5967  2.1068
 6201TIP3    H218610   5.824   4.370   3.265  0.8809  0.8762  1.4654
 6202TIP3   OH218611   5.439   1.818   2.649  0.3753 -0.6705 -0.5618
 6202TIP3    H118612   5.460   1.910   2.637  0.5721 -0.6182  0.1281
 6202TIP3    H218613   5.440   1.805   2.744 -1.5879 -0.9199 -0.5195
 6203TIP3   OH218614   2.151   1.389   2.433  0.0724 -0.7058 -0.1169
 6203TIP3    H118615   2.193   1.413   2.350  3.0088  1.4199  1.7835
 6203TIP3    H218616   2.189   1.305   2.456  0.7262 -0.3896 -0.0260
 6204TIP3   OH218617   5.697   5.652   4.991  0.4356  0.0303 -0.2915
 6204TIP3    H118618   5.638   5.728   4.992 -1.2258 -1.2206 -0.1258
 6204TIP3    H218619   5.773   5.682   4.939  0.5346  2.2766  1.0013
 6205TIP3   OH218620   4.694   4.354   3.483 -0.1821 -0.3395 -0.3536
 6205TIP3    H118621   4.600   4.371   3.493 -0.0285 -0.6576  2.6974
 6205TIP3    H218622   4.737   4.432   3.517  0.6220 -0.7525 -0.3848
 6206TIP3   OH218623   2.895   4.323   3.760  0.5488 -0.5016  0.9477
 6206TIP3    H118624   2.836   4.248   3.763  1.1045 -0.9754  0.4595
 6206TIP3    H218625   2.870   4.377   3.835 -0.5387 -0.6549  0.7158
 6207TIP3   OH218626   5.553   3.254   3.408  0.4856 -0.2551  0.1477
 6207TIP3    H118627   5.530   3.161   3.404 -0.3999 -0.1383  1.6237
 6207TIP3    H218628   5.568   3.271   3.502 -2.3663  1.7279  0.3881
 6208TIP3   OH218629   3.625   4.403   3.675 -0.3575  0.1500 -0.0774
 6208TIP3    H118630   3.635   4.308   3.673  0.0587  0.1993 -0.4366
 6208TIP3    H218631   3.531   4.417   3.664 -0.2718 -0.1927 -1.4028
 6209TIP3   OH218632   2.585   2.689   0.645  0.3863 -0.3125  0.1396
 6209TIP3    H118633   2.592   2.758   0.711 -0.8542 -0.0314  0.0001
 6209TIP3    H218634   2.667   2.641   0.653  0.6554  0.2779  1.2525
 6210TIP3   OH218635   5.472   1.027   0.922 -0.8592 -0.4333 -0.1891
 6210TIP3    H118636   5.446   0.945   0.879 -2.2558  0.7597 -1.7608
 6210TIP3    H218637   5.493   1.086   0.850  1.0606  0.3587  0.9352
 6211TIP3   OH218638   1.919   4.038   0.638 -0.4443 -0.1180 -0.5891
 6211TIP3    H118639   2.002   3.995   0.657 -0.3467 -0.2505 -1.2800
 6211TIP3    H218640   1.852   3.976   0.667 -0.3090 -0.8358 -1.7443
 6212TIP3   OH218641   2.432   0.238   4.725 -0.0134  0.2461  0.1588
 6212TIP3    H118642   2.390   0.167   4.773 -1.7972  0.9431 -0.2825
 6212TIP3    H218643   2.389   0.317   4.757 -1.2025  0.7599 -2.3930
 6213TIP3   OH218644   4.291   3.583   4.100  0.1677 -0.3055 -0.7009
 6213TIP3    H118645   4.280   3.663   4.049  0.0317 -0.4381 -0.8789
 6213TIP3    H218646   4.202   3.551   4.115  0.2268 -0.4793 -0.7188
 6214TIP3   OH218647   5.003   0.039   4.541  0.1394 -0.0059  0.0500
 6214TIP3    H118648   4.995   0.133   4.528 -2.8095 -0.1266  0.2708
 6214TIP3    H218649   4.990   0.027   4.635 -1.4523 -0.7318 -0.2382
 6215TIP3   OH218650   2.185   5.110   2.383  0.2453 -0.3314 -0.1259
 6215TIP3    H118651   2.259   5.112   2.444 -0.1227 -0.4782  0.3356
 6215TIP3    H218652   2.171   5.017   2.366 -0.1109 -0.3317  0.1435
 6216TIP3   OH218653   1.746   0.127   4.620  0.2213  0.3702 -0.3019
 6216TIP3    H118654   1.729   0.128   4.714  1.7273 -0.4339  0.0155
 6216TIP3    H218655   1.662   0.103   4.581 -0.4415  0.7405  0.8257
 6217TIP3   OH218656   1.308   1.820   3.267  0.0430  0.5665  0.1730
 6217TIP3    H118657   1.311   1.726   3.284 -0.3198  0.6139  0.5187
 6217TIP3    H218658   1.221   1.847   3.298 -1.2173  0.4498 -2.9139
 6218TIP3   OH218659   4.774   5.517   4.953 -0.0747 -0.9000  0.1643
 6218TIP3    H118660   4.803   5.520   4.862 -2.2579  0.1560 -0.5713
 6218TIP3    H218661   4.830   5.453   4.995  1.0228 -1.3589 -1.9169
 6219TIP3   OH218662   3.891   0.760   4.774 -0.1058 -0.0769 -0.2833
 6219TIP3    H118663   3.857   0.705   4.704  0.4826 -2.4667  1.1905
 6219TIP3    H218664   3.938   0.700   4.831  3.1655  2.4193 -0.0775
 6220TIP3   OH218665   1.683   2.687   3.937  0.6169  0.2976 -0.2650
 6220TIP3    H118666   1.641   2.709   3.854 -4.7461 -4.0577  0.6487
 6220TIP3    H218667   1.717   2.599   3.923  0.4718 -0.1291  1.8123
 6221TIP3   OH218668   6.339   3.574   0.155 -0.0672  0.6579 -0.2420
 6221TIP3    H118669   6.261   3.519   0.152  0.4437 -0.1668  0.7236
 6221TIP3    H218670   6.379   3.564   0.069 -0.9340  0.9502 -0.6845
 6222TIP3   OH218671   6.107   5.868   4.571 -0.3176  0.1297 -0.4283
 6222TIP3    H118672   6.195   5.863   4.609  0.1927  0.0345 -1.5982
 6222TIP3    H218673   6.074   5.953   4.601 -0.2253 -0.2562  0.8257
 6223TIP3   OH218674   0.560   4.422   0.995  0.3264 -0.6824 -0.5157
 6223TIP3    H118675   0.494   4.395   0.932 -0.6021  0.8062 -0.2434
 6223TIP3    H218676   0.513   4.429   1.078  1.1444 -0.9661 -0.0122
 6224TIP3   OH218677   3.111   5.211   0.367 -0.2217  0.0720 -0.5006
 6224TIP3    H118678   3.059   5.237   0.442  0.5086  3.2906 -0.9578
 6224TIP3    H218679   3.047   5.180   0.302 -0.9685 -1.3526  0.8424
 6225TIP3   OH218680   3.545   3.265   3.779  0.2091  0.0566  0.0374
 6225TIP3    H118681   3.514   3.302   3.861  1.2737 -0.2193  0.5753
 6225TIP3    H218682   3.504   3.319   3.711 -0.6927  0.2709  0.7365
 6226TIP3   OH218683   4.343   2.780   3.062 -0.1591 -0.1349  0.1043
 6226TIP3    H118684   4.276   2.849   3.065 -0.4637 -0.3367 -1.2815
 6226TIP3    H218685   4.408   2.812   3.000  1.8488  0.7101  2.4855
 6227TIP3   OH218686   3.881   2.144   5.177 -0.2340 -0.1856 -0.2287
 6227TIP3    H118687   3.892   2.089   5.099 -1.5134 -2.3112  0.9870
 6227TIP3    H218688   3.794   2.182   5.167  0.4730  1.3563 -0.8498
 6228TIP3   OH218689   5.895   0.474   3.586  0.9021  0.1647 -0.1882
 6228TIP3    H118690   5.932   0.504   3.502 -0.2782 -1.0612 -1.1849
 6228TIP3    H218691   5.806   0.510   3.587  0.8067 -0.0808  0.4052
 6229TIP3   OH218692   0.766   1.770   1.190 -0.6016 -0.0098 -0.2570
 6229TIP3    H118693   0.685   1.783   1.140 -0.5462  2.8918  0.2354
 6229TIP3    H218694   0.810   1.855   1.187  3.0234 -1.7193 -1.3701
 6230TIP3   OH218695   6.217   4.135   1.307 -0.5487  0.0509  0.5893
 6230TIP3    H118696   6.124   4.114   1.295 -0.6720  0.4852  0.7956
 6230TIP3    H218697   6.255   4.054   1.341 -0.3974 -0.8858 -1.6405
 6231TIP3   OH218698   5.359   0.403   2.763  0.1700  0.8487  0.2603
 6231TIP3    H118699   5.429   0.443   2.711  1.1088  0.0342  0.8416
 6231TIP3    H218700   5.293   0.377   2.700  1.3859 -0.3215 -0.5872
 6232TIP3   OH218701   5.941   2.199   1.248 -0.8795  0.0434 -0.8150
 6232TIP3    H118702   5.879   2.158   1.188 -1.2715 -1.7571  0.7302
 6232TIP3    H218703   5.930   2.152   1.331  1.6184  0.5272 -0.1107
 6233TIP3   OH218704   5.846   3.558   2.741  0.8936  0.3286  0.0524
 6233TIP3    H118705   5.888   3.589   2.821 -0.7206  0.5575  0.8515
 6233TIP3    H218706   5.806   3.475   2.765 -0.0172  0.6362 -0.3701
 6234TIP3   OH218707   1.503   0.921   4.784 -0.4416  0.0759  1.0044
 6234TIP3    H118708   1.574   0.857   4.786  0.0976  0.6546  0.5751
 6234TIP3    H218709   1.533   0.991   4.842  0.5316  1.5485 -1.1578
 6235TIP3   OH218710  -0.024   5.915   4.012  0.3069  0.0678  0.6227
 6235TIP3    H118711   0.054   5.879   4.053 -0.7288  1.0272  3.6977
 6235TIP3    H218712  -0.018   6.010   4.029 -1.4779  0.1563  0.9408
 6236TIP3   OH218713   2.854   5.239   0.576 -0.0589 -0.0506 -0.7229
 6236TIP3    H118714   2.853   5.315   0.634 -0.3716 -0.4017 -0.2605
 6236TIP3    H218715   2.887   5.167   0.631  0.8879 -0.1085 -1.3370
 6237TIP3   OH218716   0.815   1.912   2.829 -0.6760  0.0129 -0.3317
 6237TIP3    H118717   0.793   1.899   2.921  1.0212  1.2797  0.3263
 6237TIP3    H218718   0.910   1.902   2.826 -0.5228  1.4887 -1.6410
 6238TIP3   OH218719   1.211   4.040   2.627 -0.8026  0.5036 -0.3490
 6238TIP3    H118720   1.117   4.039   2.643 -0.6845 -0.9454  0.4939
 6238TIP3    H218721   1.250   4.029   2.714  0.1724  1.8470 -0.5982
 6239TIP3   OH218722   5.938   2.596   0.947 -0.1157 -0.3429  0.0826
 6239TIP3    H118723   5.902   2.610   1.035  1.5478  0.8998  0.6454
 6239TIP3    H218724   5.945   2.501   0.938 -2.2233 -0.5648  0.4365
 6240TIP3   OH218725   2.937   3.436   0.727  0.6466  0.4883  0.3391
 6240TIP3    H118726   2.949   3.444   0.633 -3.4460  2.0770 -0.2464
 6240TIP3    H218727   2.983   3.511   0.764  1.9488  0.0715 -0.3828
 6241TIP3   OH218728   5.769   5.495   3.608 -0.3676  0.2544 -0.0478
 6241TIP3    H118729   5.771   5.424   3.544 -0.7566  0.8107 -0.6895
 6241TIP3    H218730   5.759   5.451   3.692  2.2204 -0.6281 -0.1129
 6242TIP3   OH218731   1.330   5.942   0.594  0.3569  0.5058 -0.1714
 6242TIP3    H118732   1.369   5.925   0.508 -0.7425  0.1825 -0.6245
 6242TIP3    H218733   1.261   5.876   0.603 -0.3356  1.2774  0.4237
 6243TIP3   OH218734   2.317   1.565   4.867 -0.4757  0.2548  0.1464
 6243TIP3    H118735   2.329   1.646   4.917  1.2335 -0.0743  0.3297
 6243TIP3    H218736   2.394   1.560   4.811 -0.4950 -1.3080  0.2266
 6244TIP3   OH218737   4.262   3.862   1.773  0.3187  0.2055 -0.3613
 6244TIP3    H118738   4.329   3.929   1.767 -0.6543  1.2190 -0.2118
 6244TIP3    H218739   4.276   3.806   1.697  2.0082 -0.2640  0.2599
 6245TIP3   OH218740   1.611   5.591   0.352 -0.5610 -0.2608 -0.1288
 6245TIP3    H118741   1.606   5.597   0.447 -0.9899  3.0360 -0.2417
 6245TIP3    H218742   1.704   5.600   0.332 -0.4118 -1.4685 -0.0386
 6246TIP3   OH218743   1.778   0.465   1.493 -0.9294 -0.0807 -0.1775
 6246TIP3    H118744   1.684   0.482   1.483 -0.3350  3.5805 -0.9933
 6246TIP3    H218745   1.791   0.461   1.588 -1.7618  0.8339 -0.0056
 6247TIP3   OH218746   1.251   4.135   1.332  0.4859  0.3779  0.6004
 6247TIP3    H118747   1.205   4.056   1.360  0.3350  1.1913  2.8378
 6247TIP3    H218748   1.269   4.183   1.413  2.9398  1.3830 -0.4376
 6248TIP3   OH218749   0.537   3.667   3.888  0.4762  0.0647  0.1315
 6248TIP3    H118750   0.573   3.585   3.924  1.5276 -0.0073 -1.0109
 6248TIP3    H218751   0.598   3.691   3.818 -0.2444  1.4268 -0.0610
 6249TIP3   OH218752   5.747   5.975   3.839 -0.1283 -0.3076 -0.9353
 6249TIP3    H118753   5.667   5.944   3.796 -0.2222 -0.8749 -0.3615
 6249TIP3    H218754   5.720   6.052   3.889 -0.4392 -0.8243 -0.2966
 6250TIP3   OH218755   0.798   5.101   0.212  0.2029  0.0012  0.3028
 6250TIP3    H118756   0.703   5.097   0.204  0.1611  2.0755 -0.8750
 6250TIP3    H218757   0.823   5.179   0.163  2.5174 -0.4348  0.6769
 6251TIP3   OH218758   5.901   0.575   2.866  0.0905  0.0656  0.2219
 6251TIP3    H118759   5.874   0.608   2.951  1.1023 -1.0500  1.0019
 6251TIP3    H218760   5.824   0.528   2.833 -1.3482  2.9621 -0.8784
 6252TIP3   OH218761   1.578   0.230   1.958  0.2871  0.2978 -0.1772
 6252TIP3    H118762   1.555   0.321   1.939 -0.5637 -0.1434 -1.3859
 6252TIP3    H218763   1.597   0.229   2.051  1.3569  1.9269 -0.3312
 6253TIP3   OH218764   4.399   3.807   0.281 -0.0001 -0.1729  0.0428
 6253TIP3    H118765   4.370   3.770   0.365  0.7403  0.3109  0.5270
 6253TIP3    H218766   4.492   3.824   0.294 -0.1971  1.3637 -0.3324
 6254TIP3   OH218767   3.489   4.437   4.420 -0.1202 -0.4246  0.7700
 6254TIP3    H118768   3.512   4.416   4.329 -1.9541 -0.8853  0.3575
 6254TIP3    H218769   3.546   4.510   4.443 -1.8474  2.0073 -1.9254
 6255TIP3   OH218770   5.647   5.171   4.381  0.3536  0.0454 -0.1521
 6255TIP3    H118771   5.592   5.097   4.355 -1.2005  0.2919  2.1731
 6255TIP3    H218772   5.728   5.130   4.413  0.0539 -0.5753 -0.1738
 6256TIP3   OH218773   0.807   1.642   1.510  0.0454  0.0273 -0.9105
 6256TIP3    H118774   0.783   1.655   1.418 -4.4033  2.2977  0.2796
 6256TIP3    H218775   0.764   1.560   1.534  1.9732 -1.0531 -0.9613
 6257TIP3   OH218776   0.168   2.676   4.702  0.0268  0.6499 -0.2736
 6257TIP3    H118777   0.120   2.594   4.690  0.9392  0.2024 -1.0187
 6257TIP3    H218778   0.120   2.722   4.770 -2.1019  0.7205 -1.7326
 6258TIP3   OH218779   4.807   0.436   0.700  0.7069 -0.2506 -0.6926
 6258TIP3    H118780   4.818   0.445   0.606  0.9898  0.1426 -0.6275
 6258TIP3    H218781   4.775   0.522   0.729  0.2709 -0.4775 -0.4767
 6259TIP3   OH218782   5.752   5.822   0.613 -0.0306  0.1612 -0.0542
 6259TIP3    H118783   5.783   5.904   0.654  0.0585 -0.1806  0.5792
 6259TIP3    H218784   5.832   5.780   0.581 -0.1742  0.7878 -1.2805
 6260TIP3   OH218785   5.243   4.060   1.372  0.1314  0.0566 -0.0024
 6260TIP3    H118786   5.165   4.025   1.330 -1.3546 -0.1442  2.7003
 6260TIP3    H218787   5.293   3.982   1.397  0.4983  0.1420 -0.4571
 6261TIP3   OH218788   1.893   5.183   3.499 -0.3505 -0.5070 -0.2462
 6261TIP3    H118789   1.922   5.241   3.429  0.8646 -1.6917 -0.7565
 6261TIP3    H218790   1.960   5.191   3.567 -1.7635  1.0175  1.0822
 6262TIP3   OH218791   5.571   5.529   1.508 -0.2483 -0.4386 -0.6998
 6262TIP3    H118792   5.610   5.617   1.509 -1.3661  0.0854 -1.4703
 6262TIP3    H218793   5.525   5.524   1.425 -1.1364 -1.3447 -0.1760
 6263TIP3   OH218794   2.108   2.410   3.441  0.3033  0.7631 -0.0586
 6263TIP3    H118795   2.017   2.430   3.461 -0.9600 -1.6990 -2.7179
 6263TIP3    H218796   2.122   2.446   3.353  1.5234  0.1053 -0.1560
 6264TIP3   OH218797   3.828   3.152   2.863  0.1286  0.1443  0.2103
 6264TIP3    H118798   3.872   3.091   2.804 -0.3117 -0.8841  0.9156
 6264TIP3    H218799   3.866   3.133   2.949  0.5608  1.4284  0.3272
 6265TIP3   OH218800   2.151   0.352   3.595 -0.0236  0.4619  0.0395
 6265TIP3    H118801   2.128   0.444   3.610 -2.8104 -0.0427 -0.5763
 6265TIP3    H218802   2.097   0.303   3.656  1.4820 -0.8270  0.4113
 6266TIP3   OH218803   3.059   2.487   0.339 -0.0987  0.2995  0.2036
 6266TIP3    H118804   3.071   2.431   0.263  1.2365  1.3396 -0.3731
 6266TIP3    H218805   3.111   2.445   0.408 -1.9154 -1.0673  0.8294
 6267TIP3   OH218806   3.327   4.243   0.472  0.1884 -0.1589  0.1661
 6267TIP3    H118807   3.418   4.214   0.470 -0.1107 -1.2046  0.8760
 6267TIP3    H218808   3.326   4.315   0.535  0.0868 -1.8886  2.2571
 6268TIP3   OH218809   1.920   4.482   4.650 -0.8832 -0.0270 -0.0182
 6268TIP3    H118810   1.947   4.417   4.715 -3.0402 -2.7222 -1.6049
 6268TIP3    H218811   1.832   4.508   4.677 -0.8179  0.7475 -0.5177
 6269TIP3   OH218812   3.622   0.066   0.276  0.2618  1.0748  0.0892
 6269TIP3    H118813   3.656  -0.020   0.301  0.9639  1.0008 -1.0367
 6269TIP3    H218814   3.699   0.117   0.255 -0.2120  1.5519 -0.5431
 6270TIP3   OH218815   1.462   4.571   0.535  0.6618 -0.7311 -0.0559
 6270TIP3    H118816   1.479   4.607   0.448  3.1386 -0.9222  0.2804
 6270TIP3    H218817   1.488   4.639   0.596 -2.3514 -0.0485  0.6584
 6271TIP3   OH218818   0.339   1.345   3.878 -0.3992  0.3462  0.5726
 6271TIP3    H118819   0.359   1.350   3.784  0.9157 -0.0094  0.8182
 6271TIP3    H218820   0.281   1.269   3.885  1.7768 -1.4569  0.3578
 6272TIP3   OH218821   1.569   2.001   3.789 -0.0760  0.0104  0.5380
 6272TIP3    H118822   1.630   1.944   3.836  2.2337  1.3398 -0.6410
 6272TIP3    H218823   1.589   1.984   3.696 -3.2289 -1.2296 -0.0286
 6273TIP3   OH218824   1.494   4.208   3.409 -0.5397  0.3126  0.4229
 6273TIP3    H118825   1.516   4.122   3.444 -1.6110  1.4826  4.4824
 6273TIP3    H218826   1.399   4.212   3.412 -0.6374  0.9563 -1.7885
 6274TIP3   OH218827   2.708   1.865   4.737 -0.1013  0.5770 -0.3015
 6274TIP3    H118828   2.789   1.830   4.700  1.4106  2.5327  1.0068
 6274TIP3    H218829   2.683   1.936   4.677  0.1751  1.1704  0.2782
 6275TIP3   OH218830   1.514   3.936   0.941  0.1719  0.2474  0.1116
 6275TIP3    H118831   1.422   3.958   0.954  0.3464  1.1231 -0.1064
 6275TIP3    H218832   1.559   4.020   0.936  0.9541 -0.1684 -0.0201
 6276TIP3   OH218833   5.637   5.492   4.083 -0.5776  0.4995 -0.4193
 6276TIP3    H118834   5.542   5.479   4.092 -0.7234  1.3056 -0.6430
 6276TIP3    H218835   5.673   5.466   4.168 -1.2432  2.0912  0.4054
 6277TIP3   OH218836   4.492   1.130   2.638 -0.1051 -0.3681 -0.5876
 6277TIP3    H118837   4.399   1.112   2.648 -0.1748 -0.4580 -1.3158
 6277TIP3    H218838   4.516   1.086   2.556  0.9798 -1.8727  0.4940
 6278TIP3   OH218839   2.049   4.130   3.431  0.1188 -0.4747  0.2597
 6278TIP3    H118840   1.997   4.126   3.512 -1.8793 -0.5167 -0.9635
 6278TIP3    H218841   2.001   4.076   3.369  1.7649 -0.6632 -0.9088
 6279TIP3   OH218842   5.136   5.422   1.179  0.0553 -0.6398  0.1748
 6279TIP3    H118843   5.108   5.487   1.115 -0.4766 -0.7849  0.2508
 6279TIP3    H218844   5.152   5.343   1.128 -1.2233 -1.0109  0.3076
 6280TIP3   OH218845   0.987   5.931   1.524 -0.3570 -0.1720  0.0705
 6280TIP3    H118846   1.029   6.015   1.510 -2.1583  1.0165  1.3516
 6280TIP3    H218847   1.046   5.867   1.483  2.4417  1.3759  1.3995
 6281TIP3   OH218848   4.969   0.352   4.573  0.6019  0.0134 -0.0432
 6281TIP3    H118849   4.924   0.297   4.636  0.4822  0.5803  0.3758
 6281TIP3    H218850   5.037   0.396   4.624  1.3656 -0.5212 -0.5814
 6282TIP3   OH218851   5.540   4.875   4.796 -0.3786  0.0188  0.6044
 6282TIP3    H118852   5.518   4.832   4.878 -1.1639  0.0788  0.4391
 6282TIP3    H218853   5.550   4.803   4.733 -0.5188  0.0098  0.5914
 6283TIP3   OH218854   4.191   3.534   1.080 -0.1649  0.5373 -1.0200
 6283TIP3    H118855   4.181   3.510   1.172 -0.0399  2.8354 -0.3276
 6283TIP3    H218856   4.269   3.487   1.050  0.4020  0.5481  0.3746
 6284TIP3   OH218857   3.824   4.561   0.532 -0.3044 -0.4625 -0.1326
 6284TIP3    H118858   3.754   4.533   0.473 -1.3698 -0.0576  0.9154
 6284TIP3    H218859   3.812   4.656   0.539  1.6987 -0.0119 -1.6284
 6285TIP3   OH218860   5.116   2.046   2.917 -0.4754 -0.0693  0.3847
 6285TIP3    H118861   5.201   2.054   2.960 -1.2204 -1.6906  2.3184
 6285TIP3    H218862   5.129   2.085   2.831  2.7975 -1.9493 -0.1462
 6286TIP3   OH218863   0.791   0.984   2.982 -0.0285  0.0930  0.2174
 6286TIP3    H118864   0.771   1.027   2.899  0.8753  0.7348  0.3127
 6286TIP3    H218865   0.887   0.985   2.987 -0.0074 -1.5209  0.4557
 6287TIP3   OH218866   2.294   3.672   2.386 -0.0163  0.8857 -0.1003
 6287TIP3    H118867   2.302   3.741   2.320  0.8996  0.0510 -0.9003
 6287TIP3    H218868   2.293   3.591   2.334 -0.9074  0.2799  0.8255
 6288TIP3   OH218869   2.160   3.614   3.639  0.2611  0.1646 -0.3763
 6288TIP3    H118870   2.094   3.667   3.684  0.9767  0.1230  0.7401
 6288TIP3    H218871   2.222   3.678   3.603 -0.5564  0.2273 -1.7646
 6289TIP3   OH218872   6.239   1.463   3.724  0.0702  0.1461  0.7967
 6289TIP3    H118873   6.184   1.481   3.648  0.1425 -0.9293  0.4725
 6289TIP3    H218874   6.181   1.472   3.799 -0.8238 -1.8648  0.4118
 6290TIP3   OH218875   2.442   5.697   3.832  0.0119  0.9675 -0.0728
 6290TIP3    H118876   2.348   5.698   3.810  0.1950 -0.3705 -1.0475
 6290TIP3    H218877   2.480   5.636   3.769  1.4878  1.1898  0.5769
 6291TIP3   OH218878   5.666   4.838   1.582 -0.7556 -0.1813  0.4837
 6291TIP3    H118879   5.700   4.927   1.570  1.4546 -1.2272 -1.8167
 6291TIP3    H218880   5.612   4.844   1.660  0.8389  2.7615  1.5211
 6292TIP3   OH218881   2.209   2.874   1.025  0.6306  0.3212  0.6711
 6292TIP3    H118882   2.126   2.908   1.059  0.0314 -1.2295  0.8477
 6292TIP3    H218883   2.220   2.917   0.940 -2.7888 -2.7626 -1.6554
 6293TIP3   OH218884   5.186   2.339   2.909 -0.2487  0.6730  0.4370
 6293TIP3    H118885   5.116   2.399   2.882 -0.1337  0.6762  0.1412
 6293TIP3    H218886   5.141   2.272   2.961 -0.3050  1.3122  1.2458
 6294TIP3   OH218887   4.782   3.574   3.672  0.4495 -0.3601 -0.2228
 6294TIP3    H118888   4.828   3.658   3.676  1.4230 -0.8243 -1.3429
 6294TIP3    H218889   4.715   3.587   3.605 -0.0099 -0.2035  0.2560
 6295TIP3   OH218890   3.496   3.678   2.480 -0.4099 -0.0021  0.0767
 6295TIP3    H118891   3.481   3.655   2.388 -0.6569 -1.0767  0.3776
 6295TIP3    H218892   3.547   3.759   2.476 -1.2305  0.4838 -0.9963
 6296TIP3   OH218893   2.172   3.479   1.255 -0.4296 -0.5947  0.0709
 6296TIP3    H118894   2.139   3.544   1.317 -1.3574 -0.9386 -0.0470
 6296TIP3    H218895   2.149   3.395   1.295  2.7329 -0.9882  1.3596
 6297TIP3   OH218896   4.587   1.098   5.135  0.5114  0.0518  0.3537
 6297TIP3    H118897   4.594   1.169   5.071  3.2138  0.1254  0.6317
 6297TIP3    H218898   4.651   1.121   5.203  1.2969 -2.5004  0.5762
 6298TIP3   OH218899   1.829   2.561   3.248  0.0601 -0.1237 -0.4314
 6298TIP3    H118900   1.862   2.564   3.337  0.1340  1.2632 -0.4836
 6298TIP3    H218901   1.735   2.544   3.258  0.2374 -1.0096 -0.1549
 6299TIP3   OH218902   0.321   2.732   2.086 -0.1640 -0.2113 -0.7761
 6299TIP3    H118903   0.380   2.755   2.158 -1.3211 -0.5917  0.3382
 6299TIP3    H218904   0.372   2.748   2.007  0.4713  2.2488  0.0233
 6300TIP3   OH218905   2.963   2.243   0.804  0.3149  0.2786  0.3924
 6300TIP3    H118906   2.893   2.233   0.869 -0.0152  1.4675  0.2423
 6300TIP3    H218907   2.920   2.283   0.729  1.0860  0.7120  0.1763
 6301TIP3   OH218908   0.767   4.275   3.871 -0.2592 -0.3274 -0.0816
 6301TIP3    H118909   0.706   4.207   3.843  0.6381 -1.1528 -0.0867
 6301TIP3    H218910   0.717   4.356   3.865 -1.6139 -1.0666  0.7268
 6302TIP3   OH218911   1.944   4.339   1.269 -0.4897  0.1649 -0.5657
 6302TIP3    H118912   1.966   4.248   1.252  0.5478  0.1466  0.6754
 6302TIP3    H218913   1.858   4.337   1.309  0.2288 -0.4635  1.0338
 6303TIP3   OH218914   2.679   1.165   0.530 -0.5565  0.2159  0.7908
 6303TIP3    H118915   2.641   1.113   0.460 -1.5592  0.7193  0.9439
 6303TIP3    H218916   2.688   1.103   0.603 -1.0899  0.0920  0.7542
 6304TIP3   OH218917   0.517   2.336   0.018  0.0965 -0.9385 -0.0948
 6304TIP3    H118918   0.554   2.288   0.092 -2.0531 -0.1057  1.6343
 6304TIP3    H218919   0.455   2.275  -0.022  0.3331 -0.9679 -0.4143
 6305TIP3   OH218920   3.964   0.183   5.097  0.3031  0.5401 -0.0158
 6305TIP3    H118921   4.006   0.205   5.014  0.5866  0.9523  0.2350
 6305TIP3    H218922   3.985   0.091   5.111  2.2685  1.0489  0.7547
 6306TIP3   OH218923   0.999   2.419   3.546  0.1362  0.1414 -0.0548
 6306TIP3    H118924   0.920   2.422   3.600 -0.1621 -0.2046 -0.4638
 6306TIP3    H218925   0.987   2.342   3.491  1.2609 -0.5556  0.6440
 6307TIP3   OH218926   3.991   0.713   0.450 -0.6041  0.1196  0.1702
 6307TIP3    H118927   4.057   0.722   0.381 -0.3818 -1.0735  0.2124
 6307TIP3    H218928   3.916   0.764   0.418 -0.3039  0.0389 -0.6883
 6308TIP3   OH218929   4.331   5.067   0.957 -0.2719 -0.1981 -0.0032
 6308TIP3    H118930   4.365   5.094   0.872  1.8678  0.0772  0.8675
 6308TIP3    H218931   4.392   5.107   1.020 -1.1161 -1.3528  1.5998
 6309TIP3   OH218932   4.429   4.498   0.951  0.0707 -0.3168  0.2287
 6309TIP3    H118933   4.498   4.444   0.913 -0.8356  0.0907 -2.1491
 6309TIP3    H218934   4.450   4.588   0.925  0.8145  0.4008  2.9865
 6310TIP3   OH218935   5.668   2.955   4.859 -0.2258 -0.0811 -0.2270
 6310TIP3    H118936   5.638   3.038   4.895 -0.7307  0.6717 -2.3108
 6310TIP3    H218937   5.763   2.963   4.855 -0.3071  0.6099 -0.8882
 6311TIP3   OH218938   3.983   3.957   1.826 -0.9184 -0.4847 -0.1793
 6311TIP3    H118939   4.072   3.950   1.791 -0.8227  3.6431 -1.3071
 6311TIP3    H218940   3.995   3.962   1.921  0.1960  0.6755 -0.3500
 6312TIP3   OH218941   2.032   4.485   0.930 -0.0318  0.4382  0.6001
 6312TIP3    H118942   2.008   4.404   0.886  1.9950  0.3281 -0.3959
 6312TIP3    H218943   2.003   4.554   0.870  2.6154  0.2903 -1.0006
 6313TIP3   OH218944   6.327   0.013   4.944 -0.5888 -0.2396 -0.2888
 6313TIP3    H118945   6.332   0.073   4.870 -0.4351 -1.2439 -1.1146
 6313TIP3    H218946   6.339   0.069   5.021  0.5167  0.6573 -1.0745
 6314TIP3   OH218947   3.094   5.914   0.760 -0.4630 -0.7620 -0.6988
 6314TIP3    H118948   3.092   5.955   0.846  0.4287 -3.7549  0.8850
 6314TIP3    H218949   3.108   5.987   0.699 -2.0019  1.5548  1.5386
 6315TIP3   OH218950   1.873   2.009   3.930 -0.1202 -0.4515 -0.4037
 6315TIP3    H118951   1.876   1.914   3.947  4.8961 -0.4814 -0.0198
 6315TIP3    H218952   1.817   2.044   4.000 -0.5292 -2.9551  0.6427
 6316TIP3   OH218953   0.139   0.720   4.408  0.3002 -0.6807 -0.1424
 6316TIP3    H118954   0.089   0.721   4.489  0.5132 -3.3475  0.1089
 6316TIP3    H218955   0.229   0.741   4.435  0.3590 -1.4913  0.3216
 6317TIP3   OH218956   5.921   3.584   3.188 -0.1587  0.2665 -0.2217
 6317TIP3    H118957   5.998   3.617   3.140 -1.4867  0.1734 -2.5343
 6317TIP3    H218958   5.940   3.492   3.202 -0.9777 -0.5296 -3.4446
 6318TIP3   OH218959   2.823   3.110   2.099  0.0698  0.1613  0.4898
 6318TIP3    H118960   2.771   3.125   2.179 -0.6768  0.0930  0.0299
 6318TIP3    H218961   2.844   3.016   2.102  0.4954  0.2644  0.8659
 6319TIP3   OH218962   1.645   3.755   0.089 -0.0939  0.4938 -0.5546
 6319TIP3    H118963   1.588   3.796   0.154 -1.2240  2.0522 -2.4035
 6319TIP3    H218964   1.733   3.784   0.113 -0.5473  1.4423  0.0253
 6320TIP3   OH218965   4.262   3.608   2.699 -0.0322 -0.0524  0.3379
 6320TIP3    H118966   4.300   3.655   2.773 -0.7777 -1.3144  1.5866
 6320TIP3    H218967   4.175   3.582   2.730 -1.1965  1.1439 -1.7431
 6321TIP3   OH218968   5.834   0.629   3.117 -0.1368 -0.0129 -0.1987
 6321TIP3    H118969   5.925   0.659   3.121 -0.2032  0.2295 -0.4695
 6321TIP3    H218970   5.839   0.536   3.139  0.3058 -0.2380 -1.1827
 6322TIP3   OH218971   3.902   3.447   1.873  0.2513  0.3558  0.4664
 6322TIP3    H118972   3.879   3.448   1.780 -1.2898  0.4053  0.8230
 6322TIP3    H218973   3.962   3.521   1.883 -1.1283  1.6388 -0.1543
 6323TIP3   OH218974   2.293   0.229   2.131  0.3301 -0.1249 -0.1415
 6323TIP3    H118975   2.255   0.317   2.125  2.1015  0.6043 -1.4468
 6323TIP3    H218976   2.324   0.222   2.221 -2.4896 -0.6386  0.9000
 6324TIP3   OH218977   0.421   0.682   0.494  0.5152  0.0368  0.6379
 6324TIP3    H118978   0.330   0.693   0.519  0.4404  1.7610 -0.2495
 6324TIP3    H218979   0.471   0.715   0.568  0.3405  1.7910  0.0227
 6325TIP3   OH218980   0.462   1.467   0.561  0.2383 -0.0116 -0.6295
 6325TIP3    H118981   0.487   1.531   0.494 -1.0388  0.3101 -0.8280
 6325TIP3    H218982   0.370   1.448   0.542 -0.6964  1.3336  2.0110
 6326TIP3   OH218983   0.632   4.921   1.183  0.0002  0.2131 -0.1440
 6326TIP3    H118984   0.575   4.852   1.149 -0.8833  0.5964  0.5230
 6326TIP3    H218985   0.715   4.878   1.201  0.4128 -0.0854 -2.4530
 6327TIP3   OH218986   5.633   3.759   2.796  0.2278  0.4098 -0.0687
 6327TIP3    H118987   5.728   3.770   2.790  0.3248 -0.9169 -1.6742
 6327TIP3    H218988   5.619   3.665   2.783 -1.3631  0.7324 -0.9398
 6328TIP3   OH218989   2.702   0.995   2.715 -0.0427 -0.2074 -0.1057
 6328TIP3    H118990   2.730   1.086   2.719 -0.4672 -0.0117 -1.3981
 6328TIP3    H218991   2.783   0.945   2.717  0.1645  0.0865  2.2354
 6329TIP3   OH218992   4.829   1.937   3.724  0.3787 -0.2614  0.1379
 6329TIP3    H118993   4.774   1.923   3.801 -1.4258  2.2261 -0.5534
 6329TIP3    H218994   4.771   1.921   3.650  0.3465  2.7183 -0.6193
 6330TIP3   OH218995   0.135   3.386   3.051  0.2359 -0.2616  0.0946
 6330TIP3    H118996   0.132   3.428   2.965  1.0747  2.5703  1.3294
 6330TIP3    H218997   0.220   3.412   3.087 -0.2086 -1.1374  1.9082
 6331TIP3   OH218998   1.467   2.538   3.661  0.7437  0.3105  0.1416
 6331TIP3    H118999   1.459   2.547   3.566 -0.4437 -1.3887  0.0319
 6331TIP3    H219000   1.511   2.453   3.673  0.4521  0.2825  1.1077
 6332TIP3   OH219001   1.810   2.157   1.887 -0.7128  0.2163  0.8761
 6332TIP3    H119002   1.822   2.079   1.834 -2.1139 -1.3596  2.7213
 6332TIP3    H219003   1.755   2.215   1.834 -2.2913 -1.4149  0.6392
 6333TIP3   OH219004   2.489   0.013   2.037  0.4617 -0.3240 -0.4040
 6333TIP3    H119005   2.485   0.005   2.132 -0.2521  0.8186 -0.3083
 6333TIP3    H219006   2.565   0.068   2.020  0.2956 -0.1047 -0.4500
 6334TIP3   OH219007   0.591   2.207   1.421  0.2912  0.2593 -0.6821
 6334TIP3    H119008   0.587   2.302   1.419  0.8927  0.3411  0.7839
 6334TIP3    H219009   0.668   2.186   1.473 -0.5270 -1.0065  0.1048
 6335TIP3   OH219010   0.906   2.320   2.108  0.1919  0.2067 -0.1054
 6335TIP3    H119011   0.984   2.375   2.120  0.6269 -0.3270 -0.4585
 6335TIP3    H219012   0.924   2.270   2.029 -0.0745 -0.6484  0.3688
 6336TIP3   OH219013   4.532   2.140   3.523  0.2205  0.3014  0.0836
 6336TIP3    H119014   4.445   2.179   3.528 -0.1101 -0.2688 -0.8102
 6336TIP3    H219015   4.518   2.047   3.539  1.1183  0.5999  3.1184
 6337TIP3   OH219016   0.790   2.337   4.269 -0.4799  0.2820  0.1446
 6337TIP3    H119017   0.772   2.368   4.358  0.0069  0.3337  0.2287
 6337TIP3    H219018   0.855   2.399   4.235  1.1184 -1.0689  0.6017
 6338TIP3   OH219019   1.626   4.084   2.573 -0.0656  0.0764  0.2654
 6338TIP3    H119020   1.644   4.156   2.633 -2.3354 -0.3421  1.5713
 6338TIP3    H219021   1.587   4.015   2.627 -2.3324 -0.2868 -1.6088
 6339TIP3   OH219022   2.397   3.306   0.153 -0.4955 -0.1338 -0.1919
 6339TIP3    H119023   2.309   3.274   0.172 -0.1558 -0.6013  0.6428
 6339TIP3    H219024   2.441   3.307   0.238  0.5629 -0.7271 -0.7207
 6340TIP3   OH219025   2.530   5.502   3.634 -0.1717 -0.3280 -0.3840
 6340TIP3    H119026   2.614   5.529   3.596 -0.5038  3.4631  1.1778
 6340TIP3    H219027   2.469   5.506   3.561  0.5527 -0.8234 -1.0396
 6341TIP3   OH219028   3.729   2.283   2.395  0.9087 -0.1376 -0.1894
 6341TIP3    H119029   3.822   2.300   2.379  1.3482 -1.4823  0.7145
 6341TIP3    H219030   3.727   2.192   2.426 -0.5114  0.4137  1.4920
 6342TIP3   OH219031   1.142   3.467   4.824 -0.0238 -0.0505  0.5121
 6342TIP3    H119032   1.137   3.509   4.739  1.2709  1.2218  1.0294
 6342TIP3    H219033   1.218   3.409   4.819 -1.4601 -1.9868 -0.0074
 6343TIP3   OH219034   2.286   3.008   3.410  0.3104 -0.0290 -0.4060
 6343TIP3    H119035   2.203   3.044   3.380 -1.0971 -1.4653  1.5494
 6343TIP3    H219036   2.308   2.940   3.346 -0.8442 -0.6796 -0.1299
 6344TIP3   OH219037   1.760   4.440   0.545  0.6133 -0.0484 -0.6400
 6344TIP3    H119038   1.677   4.405   0.514  0.3680 -0.0662  0.0241
 6344TIP3    H219039   1.751   4.535   0.536  0.7979 -0.0806 -1.2381
 6345TIP3   OH219040   3.538   1.624   1.810  0.1398  0.0843 -0.6992
 6345TIP3    H119041   3.630   1.624   1.836  0.3423  0.4550 -1.3947
 6345TIP3    H219042   3.490   1.603   1.891  0.7424  1.4050  0.0396
 6346TIP3   OH219043   1.934   5.587   3.997  0.6269 -0.4434  0.0412
 6346TIP3    H119044   1.865   5.556   3.940 -0.0345  0.4146  0.3557
 6346TIP3    H219045   1.897   5.581   4.085  0.5377  1.0440  0.1208
 6347TIP3   OH219046   1.451   5.729   4.263 -0.2128  0.3829 -0.2440
 6347TIP3    H119047   1.533   5.696   4.299 -0.2920  0.0620 -0.3554
 6347TIP3    H219048   1.464   5.728   4.168 -0.2360  0.6150 -0.2487
 6348TIP3   OH219049   4.966   5.988  -0.004 -0.0581 -0.2441  0.2353
 6348TIP3    H119050   5.000   5.917   0.051 -0.4616 -0.4466  0.2231
 6348TIP3    H219051   4.937   6.055   0.058 -0.2130 -0.3336  0.2575
 6349TIP3   OH219052   3.929   1.311   2.579  0.0160 -0.3332 -0.3076
 6349TIP3    H119053   3.992   1.329   2.650 -2.5046  1.3237  1.6890
 6349TIP3    H219054   3.862   1.256   2.621 -1.5393  0.6817 -1.3733
 6350TIP3   OH219055   0.692   4.057   1.713  0.5474  0.1083  0.2564
 6350TIP3    H119056   0.730   3.979   1.755  0.9556 -0.4836 -1.1517
 6350TIP3    H219057   0.739   4.065   1.630 -1.1381  0.4577 -0.7039
 6351TIP3   OH219058   5.457   0.883   2.108  0.2642 -0.2103  0.1373
 6351TIP3    H119059   5.426   0.918   2.191 -1.0568 -0.3143 -0.2865
 6351TIP3    H219060   5.452   0.788   2.119 -0.0869 -0.2239 -0.1108
 6352TIP3   OH219061   6.245   0.723   0.712  0.1234  0.2879 -0.0855
 6352TIP3    H119062   6.320   0.761   0.757 -0.2641  1.6854 -0.5512
 6352TIP3    H219063   6.258   0.744   0.620 -0.2301 -0.5373 -0.3338
 6353TIP3   OH219064   6.291   2.485   4.719  0.5938 -0.0200  0.4918
 6353TIP3    H119065   6.305   2.517   4.630  1.5969  0.4163  0.7915
 6353TIP3    H219066   6.226   2.417   4.710  2.3772 -1.6476 -0.9338
 6354TIP3   OH219067   0.904   5.363   0.168 -0.4769 -0.1634 -0.5927
 6354TIP3    H119068   0.881   5.445   0.124  0.0010  0.7623  0.8245
 6354TIP3    H219069   0.886   5.380   0.261  2.9689 -0.3793  0.2427
 6355TIP3   OH219070   5.389   5.393   1.281  0.8011  0.0625 -0.6996
 6355TIP3    H119071   5.406   5.334   1.207  0.6457 -0.3535 -0.4077
 6355TIP3    H219072   5.313   5.445   1.254  0.9422  0.1308 -0.9610
 6356TIP3   OH219073   2.282   3.231   1.570 -0.5122 -0.3892 -0.0414
 6356TIP3    H119074   2.199   3.194   1.600 -1.5707  0.6193 -1.5907
 6356TIP3    H219075   2.302   3.185   1.489 -1.0658  1.2893 -1.1869
 6357TIP3   OH219076   5.763   5.261   0.889 -0.2262  0.1573  0.4838
 6357TIP3    H119077   5.748   5.267   0.984 -0.7682  2.4619  0.3117
 6357TIP3    H219078   5.682   5.224   0.854 -0.9836  1.5137  0.7301
 6358TIP3   OH219079   3.628   0.777   4.985  0.2859  0.8163  0.0819
 6358TIP3    H119080   3.611   0.800   4.894 -0.2889 -0.4296 -0.1508
 6358TIP3    H219081   3.720   0.799   4.999  0.3229  1.2184 -0.7283
 6359TIP3   OH219082   3.557   2.238   4.596  0.0362 -0.1957  0.7169
 6359TIP3    H119083   3.494   2.171   4.621 -0.0092 -0.0137  1.0966
 6359TIP3    H219084   3.531   2.315   4.646 -0.2099  0.2499 -0.0806
 6360TIP3   OH219085   2.543   4.573   1.597 -0.7317  0.2574 -0.5338
 6360TIP3    H119086   2.637   4.574   1.580 -0.6898  0.2805 -0.3004
 6360TIP3    H219087   2.508   4.645   1.543 -0.8306 -0.7040 -1.8031
 6361TIP3   OH219088   4.603   1.902   1.360  0.1383 -0.3031 -0.0171
 6361TIP3    H119089   4.570   1.988   1.338  2.0279  0.2074 -1.1332
 6361TIP3    H219090   4.618   1.905   1.454  0.4048  0.6892 -0.0795
 6362TIP3   OH219091   4.982   0.017   3.304  0.5730  0.1059 -0.6928
 6362TIP3    H119092   4.996   0.081   3.234 -1.7117 -1.3686 -2.6739
 6362TIP3    H219093   4.966   0.070   3.382  2.1954  1.8376 -1.4633
 6363TIP3   OH219094   4.548   3.029   1.696 -0.3919 -0.2441 -0.5018
 6363TIP3    H119095   4.468   2.978   1.705 -1.3526  0.8867 -2.0518
 6363TIP3    H219096   4.601   3.005   1.772 -2.4146 -0.6024  0.8765
 6364TIP3   OH219097   6.162   5.103   2.112 -0.9894 -1.1879  0.1793
 6364TIP3    H119098   6.235   5.054   2.073 -1.4028 -1.6299 -0.0574
 6364TIP3    H219099   6.152   5.179   2.056 -1.1274 -1.4622 -0.1747
 6365TIP3   OH219100   4.481   1.583   3.212  0.2129  0.2659 -0.0366
 6365TIP3    H119101   4.504   1.666   3.171 -1.2441  0.6733 -0.0673
 6365TIP3    H219102   4.564   1.550   3.247  0.7229  1.9832  0.4623
 6366TIP3   OH219103   2.746   5.958   4.970 -0.3414  0.1826  0.0364
 6366TIP3    H119104   2.795   5.875   4.966  1.1128  1.0278 -0.6384
 6366TIP3    H219105   2.688   5.955   4.894  1.2259  0.6394 -1.2496
 6367TIP3   OH219106   2.309   0.740   1.744  0.1147  0.5690 -0.0053
 6367TIP3    H119107   2.250   0.679   1.788 -0.6716  0.4417 -1.1739
 6367TIP3    H219108   2.320   0.703   1.656  0.1290  1.7755 -0.5314
 6368TIP3   OH219109   5.310   0.212   4.244 -0.3250 -0.4275  0.2253
 6368TIP3    H119110   5.252   0.274   4.291 -0.7539 -0.0219 -0.8149
 6368TIP3    H219111   5.353   0.163   4.314 -2.1980 -0.9962  1.0500
 6369TIP3   OH219112   3.546   5.091   2.889  0.3441  0.8328 -0.2156
 6369TIP3    H119113   3.636   5.058   2.887 -0.1337 -0.5417 -0.0673
 6369TIP3    H219114   3.517   5.086   2.798  0.3301  1.0230 -0.2214
 6370TIP3   OH219115   2.459   3.029   0.057  0.3313 -0.0637  0.0012
 6370TIP3    H119116   2.450   3.089  -0.017  2.7061 -1.6084 -1.6577
 6370TIP3    H219117   2.391   2.963   0.043 -0.1122  0.3885 -0.0109
 6371TIP3   OH219118   1.972   1.846   3.633  0.4226  0.2265  0.1517
 6371TIP3    H119119   1.933   1.761   3.616  1.1773  0.0229 -0.6224
 6371TIP3    H219120   1.919   1.883   3.704  0.4281 -1.1022  0.8640
 6372TIP3   OH219121   5.165   0.105   1.234 -0.7674  0.7460  0.3888
 6372TIP3    H119122   5.182   0.196   1.209  0.4321  0.0713 -1.5451
 6372TIP3    H219123   5.230   0.087   1.302 -0.1111  0.9653 -0.1678
 6373TIP3   OH219124   5.332   2.362   0.535  0.4086  0.3606 -0.2835
 6373TIP3    H119125   5.237   2.355   0.532  0.1275  2.9601  0.2847
 6373TIP3    H219126   5.363   2.277   0.504 -2.0779  0.1136 -2.4991
 6374TIP3   OH219127   1.072   0.824   3.621 -0.4371  0.4730  0.0778
 6374TIP3    H119128   1.054   0.896   3.560  0.2608 -0.3559 -1.1545
 6374TIP3    H219129   0.986   0.784   3.635 -0.4443 -0.1844 -1.5334
 6375TIP3   OH219130   0.403   4.910   1.985  0.1312  0.0938 -0.3126
 6375TIP3    H119131   0.447   4.828   2.006 -1.8169 -1.5947 -2.2756
 6375TIP3    H219132   0.341   4.887   1.915 -3.0428  2.4477  1.4150
 6376TIP3   OH219133   1.102   1.885   3.406 -0.0805  0.0563  0.1702
 6376TIP3    H119134   1.100   1.855   3.497  2.0691 -2.3408 -0.4610
 6376TIP3    H219135   1.033   1.835   3.363  2.6924 -3.5797 -0.6098
 6377TIP3   OH219136   2.146   3.441   1.971  0.2091 -0.5148  0.0538
 6377TIP3    H119137   2.173   3.443   1.879  0.2292  0.2012  0.0700
 6377TIP3    H219138   2.051   3.433   1.968  0.2977 -1.6646 -0.0149
 6378TIP3   OH219139   4.410   5.903   4.488 -0.1467 -1.1667  0.3454
 6378TIP3    H119140   4.483   5.929   4.433  0.6525 -1.1888  1.3636
 6378TIP3    H219141   4.332   5.932   4.440  0.4700 -1.7809 -1.1005
 6379TIP3   OH219142   4.363   3.357   3.706 -0.4082  0.4134 -0.2915
 6379TIP3    H119143   4.415   3.372   3.627  0.0807 -0.6798 -0.1896
 6379TIP3    H219144   4.287   3.306   3.675 -0.2005 -0.0435 -0.0597
 6380TIP3   OH219145   1.832   1.639   3.086 -0.3598 -0.2927 -0.1777
 6380TIP3    H119146   1.872   1.725   3.098  0.3406 -0.7792  1.0283
 6380TIP3    H219147   1.738   1.658   3.076 -0.1257  0.6594 -0.6974
 6381TIP3   OH219148   0.831   5.491   0.415  0.2880 -0.0384  0.3727
 6381TIP3    H119149   0.818   5.427   0.486  1.4737  0.8237  1.3904
 6381TIP3    H219150   0.769   5.561   0.435  1.0042  0.4573  0.8666
 6382TIP3   OH219151   4.512   3.549   3.905 -0.0560  0.0163 -0.1635
 6382TIP3    H119152   4.533   3.485   3.837 -1.4367  2.1053 -2.7349
 6382TIP3    H219153   4.436   3.512   3.949  0.6478 -1.2154  0.0661
 6383TIP3   OH219154   4.797   2.971   3.650 -0.2013 -0.1119 -1.1112
 6383TIP3    H119155   4.714   2.989   3.694  0.1342  1.3985 -1.0396
 6383TIP3    H219156   4.834   2.897   3.698 -1.2433 -0.4502 -0.8050
 6384TIP3   OH219157   1.328   1.073   4.625 -0.3189  0.2337  0.5247
 6384TIP3    H119158   1.386   1.025   4.684 -0.9397 -2.0945 -0.6616
 6384TIP3    H219159   1.252   1.095   4.679 -1.0289 -2.1563  0.6253
 6385TIP3   OH219160   4.505   4.951   4.540  0.5236  0.0299  0.0046
 6385TIP3    H119161   4.537   4.864   4.564  1.5623  0.2113 -0.6708
 6385TIP3    H219162   4.575   4.989   4.488  0.6203  1.7895  1.3352
 6386TIP3   OH219163   0.197   1.996   4.130  1.2307 -0.8627  0.5712
 6386TIP3    H119164   0.124   1.953   4.085 -0.4306  1.1221  1.2536
 6386TIP3    H219165   0.255   1.924   4.156 -1.4038 -2.7127  1.6545
 6387TIP3   OH219166   3.555   2.647   0.871  0.3504 -0.6099 -0.3037
 6387TIP3    H119167   3.473   2.670   0.828 -0.3544 -0.3300  1.1232
 6387TIP3    H219168   3.531   2.581   0.936  1.2142 -0.4267  0.2228
 6388TIP3   OH219169   1.073   3.350   0.964 -0.9040  0.2223  0.6900
 6388TIP3    H119170   1.161   3.314   0.953 -0.6407  1.5109 -3.5711
 6388TIP3    H219171   1.086   3.428   1.018  0.0002 -1.0920  2.4698
 6389TIP3   OH219172   4.045   3.523   3.486 -0.1996  0.2398 -0.2265
 6389TIP3    H119173   4.064   3.529   3.392  0.0868 -2.0793 -0.3657
 6389TIP3    H219174   4.113   3.577   3.527  1.1153 -0.5622 -1.2480
 6390TIP3   OH219175   2.936   3.732   1.853 -0.1822  0.0286  0.3302
 6390TIP3    H119176   2.908   3.678   1.927  1.7059 -0.9433  0.4132
 6390TIP3    H219177   2.972   3.811   1.893 -1.7539  0.8101  0.2706
 6391TIP3   OH219178   3.297   1.725   1.323 -0.4312 -0.3790  0.1462
 6391TIP3    H119179   3.352   1.713   1.400 -0.7132 -1.3471  0.2075
 6391TIP3    H219180   3.335   1.667   1.257  0.1779  0.8774 -0.6696
 6392TIP3   OH219181   1.412   5.080   0.658 -0.4922 -0.1736 -0.1632
 6392TIP3    H119182   1.319   5.101   0.654 -0.4313 -0.1187 -2.1416
 6392TIP3    H219183   1.455   5.158   0.623  0.3401 -0.0965  0.9791
 6393TIP3   OH219184   4.903   3.913   2.849 -0.3422 -0.0053  0.3649
 6393TIP3    H119185   4.925   3.823   2.874  0.3744  0.0564 -0.0236
 6393TIP3    H219186   4.987   3.954   2.829 -0.6998  0.6332  0.1303
 6394TIP3   OH219187   2.162   5.943   4.999 -0.3053  0.0681  0.0239
 6394TIP3    H119188   2.223   5.883   4.956 -0.4373 -1.3909  1.7620
 6394TIP3    H219189   2.100   5.966   4.930  0.8899 -0.2054 -1.1984
 6395TIP3   OH219190   2.322   3.740   1.224 -0.0248  0.2168 -0.1117
 6395TIP3    H119191   2.287   3.651   1.226  0.6287 -0.0874 -1.1718
 6395TIP3    H219192   2.398   3.738   1.283 -0.3357  0.2149  0.2853
 6396TIP3   OH219193   4.528   4.823   1.677 -0.1588  0.3621  0.5770
 6396TIP3    H119194   4.579   4.804   1.755  1.5682  2.1550 -0.0263
 6396TIP3    H219195   4.580   4.888   1.629 -2.9358  2.2677 -0.1644
 6397TIP3   OH219196   0.039   4.349   2.828 -0.4456  0.0803 -0.4169
 6397TIP3    H119197  -0.035   4.410   2.836  0.1543  0.7533  0.0940
 6397TIP3    H219198   0.072   4.340   2.917  0.3814  0.1530 -0.7121
 6398TIP3   OH219199   3.945   2.404   0.141 -0.1095 -0.2217  0.7353
 6398TIP3    H119200   3.925   2.423   0.232  2.6651  2.7870  0.9036
 6398TIP3    H219201   3.873   2.443   0.092 -0.9153 -0.6484  1.5341
 6399TIP3   OH219202   5.060   4.446   4.985  0.1448  0.0461 -0.0335
 6399TIP3    H119203   5.019   4.498   5.054  0.1362  1.7702 -1.2598
 6399TIP3    H219204   5.151   4.476   4.984  0.3423 -0.5607 -0.2251
 6400TIP3   OH219205   0.221   5.664   1.572  0.0528  0.1952 -0.2982
 6400TIP3    H119206   0.225   5.714   1.490  0.0870 -1.4170 -1.3482
 6400TIP3    H219207   0.148   5.703   1.620  0.6691  1.8279 -0.6224
 6401TIP3   OH219208   2.444   0.948   2.004  0.0693  0.0613 -0.7296
 6401TIP3    H119209   2.386   1.003   1.952  1.7653  2.8234  0.0953
 6401TIP3    H219210   2.505   1.009   2.045  1.0996 -2.3249  1.5843
 6402TIP3   OH219211   4.858   3.572   1.108  0.1393 -0.8761 -1.0437
 6402TIP3    H119212   4.769   3.606   1.097  0.1408 -0.6840 -0.4794
 6402TIP3    H219213   4.847   3.477   1.114 -0.0320 -0.8510 -0.9521
 6403TIP3   OH219214   4.685   1.095   1.518  0.3416  0.0639 -0.3030
 6403TIP3    H119215   4.776   1.096   1.547  0.3205 -1.0856 -0.1269
 6403TIP3    H219216   4.667   1.185   1.490  1.6503  0.2080 -0.7353
 6404TIP3   OH219217   3.859   3.843   0.127  0.0968  0.4677  0.5418
 6404TIP3    H119218   3.931   3.783   0.143 -1.4304 -1.9343 -0.9537
 6404TIP3    H219219   3.804   3.835   0.206  0.0480  0.0818  0.4736
 6405TIP3   OH219220   1.054   4.726   1.722  0.1572  0.6662 -0.0913
 6405TIP3    H119221   1.100   4.689   1.647  0.2970 -0.8878  0.7216
 6405TIP3    H219222   0.979   4.773   1.685 -1.2129 -2.1464 -1.1230
 6406TIP3   OH219223   6.225   2.346   1.645 -0.1564  0.4701 -0.6332
 6406TIP3    H119224   6.190   2.422   1.598  0.1481  0.8312 -0.2798
 6406TIP3    H219225   6.315   2.370   1.666  0.2040 -0.3256 -1.2441
 6407TIP3   OH219226   0.960   2.900   0.708  0.1976 -0.4295  0.8438
 6407TIP3    H119227   0.921   2.814   0.721 -0.8474 -0.0283  0.5042
 6407TIP3    H219228   1.051   2.890   0.736  0.0715 -1.6138  0.8827
 6408TIP3   OH219229   5.571   3.736   0.934 -0.0638 -0.0005  0.1211
 6408TIP3    H119230   5.611   3.717   1.019  0.5349 -0.4278 -0.2586
 6408TIP3    H219231   5.523   3.657   0.911 -0.4016  0.1909  0.1558
 6409TIP3   OH219232   5.861   6.003   1.775 -0.0653  0.5411 -0.1502
 6409TIP3    H119233   5.842   6.060   1.849 -0.4745  0.6050 -0.2997
 6409TIP3    H219234   5.866   5.915   1.812 -0.2961  0.5697 -0.0525
 6410TIP3   OH219235   0.854   2.215   2.659 -0.4233  0.3075 -0.4027
 6410TIP3    H119236   0.949   2.215   2.660 -0.3420 -1.8446 -2.0400
 6410TIP3    H219237   0.830   2.213   2.566 -1.9557 -2.3731 -0.0478
 6411TIP3   OH219238   2.636   5.321   3.830  0.0810 -0.2202 -0.6299
 6411TIP3    H119239   2.690   5.281   3.762 -1.9305 -2.2024 -1.1515
 6411TIP3    H219240   2.594   5.395   3.787  2.3406  1.4517 -0.1787
 6412TIP3   OH219241   1.886   4.640   1.679  0.3566  0.5031 -0.3299
 6412TIP3    H119242   1.840   4.563   1.647  2.7512 -1.4848  0.7706
 6412TIP3    H219243   1.843   4.661   1.762  1.5841 -1.6105  0.9195
 6413TIP3   OH219244   4.589   3.558   1.007  0.5846 -0.2193  0.4666
 6413TIP3    H119245   4.554   3.473   0.982 -0.4470  0.4848 -0.5599
 6413TIP3    H219246   4.522   3.596   1.064  0.0848  0.7335 -0.7239
 6414TIP3   OH219247   2.762   2.651   1.327  0.1945  1.2482 -0.2331
 6414TIP3    H119248   2.710   2.728   1.302 -2.0124  0.0170  0.2786
 6414TIP3    H219249   2.727   2.581   1.272  1.2868  0.3351  0.2091
 6415TIP3   OH219250   5.446   4.316   0.719  0.1881 -0.2166 -0.0416
 6415TIP3    H119251   5.351   4.312   0.724  0.2295  0.1991  2.5944
 6415TIP3    H219252   5.472   4.233   0.679 -1.2552 -0.5430 -0.3265
 6416TIP3   OH219253   4.891   4.935   2.400  0.1959  0.3691  0.1936
 6416TIP3    H119254   4.880   4.841   2.412  0.6614  0.6285  3.5501
 6416TIP3    H219255   4.971   4.957   2.447  2.5066  1.9631 -3.9722
 6417TIP3   OH219256   4.613   3.885   2.775  0.3456 -0.1235 -0.6031
 6417TIP3    H119257   4.643   3.884   2.684 -1.0305  0.6167 -1.0935
 6417TIP3    H219258   4.653   3.808   2.815  2.8308  0.7582 -1.1921
 6418TIP3   OH219259   3.879   4.296   0.633  0.1490  0.0129 -0.0226
 6418TIP3    H119260   3.865   4.341   0.550 -2.0700 -1.4028 -0.4907
 6418TIP3    H219261   3.834   4.351   0.698  0.5811  0.3316  0.0120
 6419TIP3   OH219262   5.365   5.670   0.879  0.5005  0.5084 -0.5924
 6419TIP3    H119263   5.436   5.685   0.817  1.0675  1.9532  0.3435
 6419TIP3    H219264   5.337   5.580   0.863  2.0185  0.1744 -1.5158
 6420TIP3   OH219265   2.669   3.387   1.091 -0.1991 -0.7247  0.0844
 6420TIP3    H119266   2.581   3.426   1.093  0.7799  1.8307 -1.4978
 6420TIP3    H219267   2.676   3.347   1.005 -0.1541 -1.9000  0.6182
 6421TIP3   OH219268   4.526   1.900   2.330 -0.2432 -0.4788 -0.0790
 6421TIP3    H119269   4.456   1.837   2.311 -1.7049  1.7904 -2.9605
 6421TIP3    H219270   4.493   1.951   2.404  0.1065 -1.7748  1.0138
 6422TIP3   OH219271   0.635   4.628   4.656 -0.0900 -1.1818  0.3181
 6422TIP3    H119272   0.711   4.685   4.645  0.6624 -2.2067  0.0213
 6422TIP3    H219273   0.618   4.630   4.750 -0.3891 -0.0918  0.2550
 6423TIP3   OH219274   5.223   3.293   3.126  0.3672 -0.3918  0.0030
 6423TIP3    H119275   5.314   3.282   3.154  0.2507  0.0186  0.5472
 6423TIP3    H219276   5.173   3.233   3.182  0.0231  1.0928  1.3497
 6424TIP3   OH219277   2.007   3.047   1.032 -0.4591 -0.2845  0.5444
 6424TIP3    H119278   1.921   3.049   1.074 -0.5307  0.8880  0.3584
 6424TIP3    H219279   2.015   3.132   0.989  0.0294 -1.0679 -0.9882
 6425TIP3   OH219280   1.139   1.217   2.833 -0.3296 -0.6790  0.3144
 6425TIP3    H119281   1.092   1.223   2.915  0.7641  1.3728  0.8649
 6425TIP3    H219282   1.230   1.236   2.856  0.1026 -0.6837 -1.2579
 6426TIP3   OH219283   0.036   0.152   2.723  0.7745 -0.3805  0.2194
 6426TIP3    H119284  -0.049   0.134   2.764  0.7328 -0.2285  0.1986
 6426TIP3    H219285   0.033   0.104   2.641  1.5275 -2.1329  1.1468
 6427TIP3   OH219286   3.813   5.662   5.119 -0.1069  0.6982 -0.1355
 6427TIP3    H119287   3.886   5.685   5.061  0.1514  2.3223  0.7721
 6427TIP3    H219288   3.850   5.601   5.182  0.1524  0.5378 -0.4419
 6428TIP3   OH219289   5.589   3.827   4.601 -0.0251 -0.3478 -0.2671
 6428TIP3    H119290   5.529   3.851   4.671 -0.3636  1.4006 -1.1010
 6428TIP3    H219291   5.545   3.854   4.520  1.3736 -0.0650 -0.9778
 6429TIP3   OH219292   0.485   1.062   3.529  0.5048 -0.1996 -0.2577
 6429TIP3    H119293   0.403   1.042   3.575  0.7527  1.1295  0.7963
 6429TIP3    H219294   0.456   1.090   3.442 -0.1099 -0.4867 -0.1558
 6430TIP3   OH219295   2.788   4.905   4.712  0.2326 -0.1452 -0.2604
 6430TIP3    H119296   2.732   4.924   4.788  0.5994  0.6257 -0.1714
 6430TIP3    H219297   2.797   4.810   4.713  0.7384 -0.1037  1.0369
 6431TIP3   OH219298   0.606   5.710   3.077 -0.1471 -0.0769  0.6482
 6431TIP3    H119299   0.536   5.671   3.130 -1.3026  0.2516 -0.5865
 6431TIP3    H219300   0.641   5.780   3.131 -1.4110  0.3585  0.9325
 6432TIP3   OH219301   3.463   3.715   3.509  0.1201  0.0205  0.9486
 6432TIP3    H119302   3.468   3.712   3.413 -2.2612  1.3485  0.7138
 6432TIP3    H219303   3.482   3.625   3.536 -0.5563 -0.7448 -0.8751
 6433TIP3   OH219304   4.620   2.659   0.247  0.4610  0.3665 -0.8087
 6433TIP3    H119305   4.699   2.606   0.235  1.3489  1.1094  1.1629
 6433TIP3    H219306   4.570   2.648   0.166  2.2973 -0.6148 -1.8734
 6434TIP3   OH219307   3.705   3.463   4.394  0.0028  0.0467 -0.0135
 6434TIP3    H119308   3.610   3.464   4.399  0.0527 -0.3457  1.9230
 6434TIP3    H219309   3.729   3.371   4.402  0.5296 -0.2323 -3.2935
 6435TIP3   OH219310   1.791   0.748   3.627  0.1762 -0.3189 -0.2755
 6435TIP3    H119311   1.791   0.844   3.625 -1.2298 -0.3001 -0.2694
 6435TIP3    H219312   1.782   0.723   3.535  0.2326 -0.4376 -0.2481
 6436TIP3   OH219313   4.953   5.385   3.466 -0.4964 -0.2241 -0.2863
 6436TIP3    H119314   4.888   5.443   3.427  0.6230  1.1679 -0.1542
 6436TIP3    H219315   4.959   5.312   3.405 -1.4085  0.1343 -0.8324
 6437TIP3   OH219316   1.118   1.874   4.432  0.7131 -0.2716 -0.1866
 6437TIP3    H119317   1.115   1.968   4.445  1.8385 -0.1719 -0.5336
 6437TIP3    H219318   1.028   1.844   4.447  0.1335  0.9752 -1.0060
 6438TIP3   OH219319   6.229   3.413   3.920 -0.0134 -0.4676  0.2195
 6438TIP3    H119320   6.246   3.327   3.882  1.2811 -0.7930  1.4377
 6438TIP3    H219321   6.147   3.402   3.968 -1.7404 -0.0144 -2.4423
 6439TIP3   OH219322   2.239   1.283   5.025 -0.2719 -0.0667  0.4100
 6439TIP3    H119323   2.258   1.239   5.108 -1.6723 -1.1585  0.1913
 6439TIP3    H219324   2.319   1.332   5.005  1.7224 -3.0654  0.3408
 6440TIP3   OH219325   2.603   3.194   4.437  0.0842  0.3818  0.2091
 6440TIP3    H119326   2.680   3.229   4.482  1.0770 -3.2441  1.6480
 6440TIP3    H219327   2.639   3.140   4.366 -1.3366  1.5332 -1.4928
 6441TIP3   OH219328   1.397   0.258   3.337 -0.1476  0.8371 -0.4157
 6441TIP3    H119329   1.480   0.213   3.319 -0.6318  0.3782 -1.6000
 6441TIP3    H219330   1.417   0.317   3.409  1.7556  2.2548 -1.9915
 6442TIP3   OH219331   5.829   0.206   2.615 -0.5195 -0.1733 -0.4581
 6442TIP3    H119332   5.916   0.231   2.646  0.2238 -0.4489 -2.2185
 6442TIP3    H219333   5.831   0.110   2.614 -0.0805 -0.1749 -2.4509
 6443TIP3   OH219334   3.184   1.366   4.650 -0.0961 -0.4532  0.9861
 6443TIP3    H119335   3.189   1.447   4.701 -1.5713 -0.2414  0.8378
 6443TIP3    H219336   3.095   1.335   4.664 -0.1376 -1.0496 -0.4830
 6444TIP3   OH219337   0.056   2.962   4.185 -0.1696 -0.2290  0.4311
 6444TIP3    H119338  -0.002   2.886   4.191 -0.6265  0.0127 -0.6229
 6444TIP3    H219339  -0.001   3.037   4.202 -0.7004  0.1793 -2.6204
 6445TIP3   OH219340   5.871   6.004   2.636  0.3683  0.1705 -0.5634
 6445TIP3    H119341   5.876   6.040   2.547  0.3656  1.5687 -0.0265
 6445TIP3    H219342   5.832   5.918   2.624 -0.1682  0.5584 -1.8686
 6446TIP3   OH219343   4.617   2.096   5.102 -0.2182 -0.0864  0.0884
 6446TIP3    H119344   4.595   2.151   5.178 -1.0711  1.5673 -1.2860
 6446TIP3    H219345   4.647   2.158   5.036 -0.8922 -1.3208 -1.4281
 6447TIP3   OH219346   4.289   3.454   1.617 -0.1484  0.5431  0.3154
 6447TIP3    H119347   4.212   3.438   1.672  1.0155  0.2590  1.9433
 6447TIP3    H219348   4.358   3.475   1.679  0.9327  1.5016 -1.1548
 6448TIP3   OH219349   0.362   1.230   1.171 -0.5990 -0.3346 -0.5596
 6448TIP3    H119350   0.338   1.209   1.261 -0.5661 -0.3601 -0.5570
 6448TIP3    H219351   0.405   1.151   1.138 -0.0154 -0.0919 -0.3875
 6449TIP3   OH219352   1.689   5.543   1.803 -0.2920  0.3779  0.1323
 6449TIP3    H119353   1.746   5.617   1.784 -0.7738  0.9288  0.7972
 6449TIP3    H219354   1.738   5.490   1.866  0.4098 -0.3311 -0.9862
 6450TIP3   OH219355   1.707   4.179   4.952 -0.6769  0.2114 -0.1663
 6450TIP3    H119356   1.697   4.100   4.899  0.7346  1.2251 -2.0835
 6450TIP3    H219357   1.619   4.216   4.957 -1.0947 -0.7097 -0.4919
 6451TIP3   OH219358   1.337   0.948   1.606 -0.6221 -0.1333  0.2990
 6451TIP3    H119359   1.270   0.901   1.654 -0.1148 -0.7534  0.4032
 6451TIP3    H219360   1.406   0.967   1.670 -0.1957 -0.4767 -0.0488
 6452TIP3   OH219361   4.893   1.767   1.343 -0.9251  0.1965  0.4018
 6452TIP3    H119362   4.837   1.780   1.266 -0.2674 -0.1636 -0.1400
 6452TIP3    H219363   4.925   1.854   1.364  2.4295 -0.1292 -2.4374
 6453TIP3   OH219364   0.295   5.487   0.464  0.3410  0.4027 -0.1743
 6453TIP3    H119365   0.306   5.427   0.537  1.5263  0.2622 -0.4440
 6453TIP3    H219366   0.329   5.439   0.388 -0.7624  0.5899 -0.7984
 6454TIP3   OH219367   0.535   2.828   0.864  0.2785  0.5616 -0.0891
 6454TIP3    H119368   0.462   2.774   0.835  1.5059 -0.2997 -1.7488
 6454TIP3    H219369   0.513   2.852   0.954 -0.6553 -2.1710  0.5126
 6455TIP3   OH219370   2.625   3.706   4.845 -0.0599  0.5955 -0.3735
 6455TIP3    H119371   2.647   3.776   4.783  0.3696  0.7290 -0.0718
 6455TIP3    H219372   2.626   3.749   4.930 -1.0673  0.5075 -0.3024
 6456TIP3   OH219373   0.049   1.439   2.349 -0.5533  0.1212 -0.4395
 6456TIP3    H119374   0.133   1.485   2.351 -0.2055 -0.5132  1.2951
 6456TIP3    H219375   0.074   1.346   2.344 -1.2052 -0.0192 -1.4750
 6457TIP3   OH219376   4.550   3.629   3.454 -0.3961  0.2039  0.1248
 6457TIP3    H119377   4.469   3.585   3.428 -0.3619 -0.8945  1.7087
 6457TIP3    H219378   4.525   3.681   3.531  0.3938 -0.1673  0.6442
 6458TIP3   OH219379   1.667   4.319   3.599 -0.2772 -0.3229 -0.0240
 6458TIP3    H119380   1.624   4.244   3.558  0.0456 -1.5076  1.6690
 6458TIP3    H219381   1.611   4.394   3.579 -1.2766 -1.2338 -0.7352
 6459TIP3   OH219382   0.661   0.049   3.988  0.6871  0.1375 -0.4094
 6459TIP3    H119383   0.631  -0.036   3.954  2.6203 -0.8270  0.1516
 6459TIP3    H219384   0.678   0.101   3.909  0.0421 -0.1860 -0.7749
 6460TIP3   OH219385   4.033   0.865   1.389  0.2756  0.1119  0.0973
 6460TIP3    H119386   4.021   0.926   1.461 -1.3757 -0.6730  0.5367
 6460TIP3    H219387   4.128   0.860   1.378  0.6375 -0.1469  2.5972
 6461TIP3   OH219388   0.965   4.065   4.544  0.0754 -0.3247 -0.4375
 6461TIP3    H119389   0.949   4.148   4.499 -0.1548 -1.5881 -2.8519
 6461TIP3    H219390   1.059   4.067   4.563 -0.1144  0.9153  0.5374
 6462TIP3   OH219391   3.972   3.298   5.115 -0.7300 -0.2194  0.0638
 6462TIP3    H119392   3.952   3.207   5.093 -4.9698  0.3928  0.6627
 6462TIP3    H219393   4.051   3.317   5.064 -0.5515 -3.7210 -1.2813
 6463TIP3   OH219394   5.956   5.094   3.965  0.1716 -0.2041  0.1482
 6463TIP3    H119395   5.909   5.122   4.043  1.6210  1.1561  0.5713
 6463TIP3    H219396   5.888   5.086   3.898 -1.0530 -1.1221  1.4279
 6464TIP3   OH219397   2.108   5.605   4.265  0.0798 -0.3411  0.4968
 6464TIP3    H119398   2.160   5.614   4.344  1.5927 -1.3308 -0.3455
 6464TIP3    H219399   2.021   5.580   4.296  0.6312 -0.6565  1.8286
 6465TIP3   OH219400   6.344   2.133   4.352 -0.5572  0.0813  0.3886
 6465TIP3    H119401   6.284   2.124   4.278  0.6790  0.2465 -0.6760
 6465TIP3    H219402   6.287   2.139   4.428 -1.8856  0.1435 -0.5667
 6466TIP3   OH219403   1.526   3.866   4.676  0.2161  0.4733 -0.3988
 6466TIP3    H119404   1.520   3.824   4.590  1.2311  0.9630 -0.7233
 6466TIP3    H219405   1.576   3.946   4.660  0.0181  0.7966  0.5690
 6467TIP3   OH219406   1.607   4.753   1.436 -0.0898 -0.0714 -0.3810
 6467TIP3    H119407   1.555   4.680   1.401  0.5514 -0.7931  0.1229
 6467TIP3    H219408   1.674   4.768   1.370 -1.0402  1.0121 -1.1386
 6468TIP3   OH219409   3.466  -0.006   3.369  0.7861  0.1616 -0.0391
 6468TIP3    H119410   3.539   0.026   3.316 -0.0248  3.6024  0.6771
 6468TIP3    H219411   3.500  -0.007   3.459  1.0250 -2.0176 -0.0979
 6469TIP3   OH219412   4.437   2.449   3.589 -0.0666 -0.1423 -0.1423
 6469TIP3    H119413   4.462   2.429   3.679  0.6282  0.1838 -0.2562
 6469TIP3    H219414   4.406   2.539   3.592 -3.3711 -1.1826  0.4062
 6470TIP3   OH219415   5.134   1.032   3.310  0.2507 -0.0248 -0.2401
 6470TIP3    H119416   5.223   1.025   3.344 -0.2144 -1.4528  0.8333
 6470TIP3    H219417   5.080   0.988   3.376 -1.3207  1.1996 -0.6354
 6471TIP3   OH219418   0.352   4.769   3.402 -0.3910  0.7916 -0.2259
 6471TIP3    H119419   0.397   4.814   3.331 -1.4548  0.7799 -0.9305
 6471TIP3    H219420   0.262   4.760   3.371 -0.2663 -1.6825 -0.0630
 6472TIP3   OH219421   1.658   3.831   1.973  0.0197  0.4496 -0.4440
 6472TIP3    H119422   1.735   3.884   1.993  0.2532  0.2543 -0.8116
 6472TIP3    H219423   1.595   3.893   1.936 -0.7025  0.9608  1.5380
 6473TIP3   OH219424   2.827   2.626   0.802  0.5265  0.1092 -0.1087
 6473TIP3    H119425   2.773   2.550   0.784 -0.3634  0.6890  0.0761
 6473TIP3    H219426   2.895   2.593   0.862  0.6683 -0.7209 -0.7127
 6474TIP3   OH219427   1.732   4.043   0.407 -0.6246  0.1791 -0.1839
 6474TIP3    H119428   1.790   4.052   0.483 -0.0101  2.4116 -0.8452
 6474TIP3    H219429   1.728   3.949   0.392  0.3904 -0.2355  1.7344
 6475TIP3   OH219430   5.587   3.198   3.685  0.4202  0.0948  0.0464
 6475TIP3    H119431   5.617   3.242   3.764  1.3255 -0.1056 -0.1740
 6475TIP3    H219432   5.647   3.124   3.675  3.9568  2.9685 -3.6814
 6476TIP3   OH219433   0.501   3.606   1.590  0.3821  0.1063  0.4903
 6476TIP3    H119434   0.494   3.585   1.682 -0.1929 -3.0545 -0.1758
 6476TIP3    H219435   0.412   3.598   1.556  0.8543 -0.4915 -0.6574
 6477TIP3   OH219436   0.227   2.826   2.966  0.1607  0.1705 -0.4771
 6477TIP3    H119437   0.133   2.810   2.956  0.3227 -0.5313 -0.9693
 6477TIP3    H219438   0.267   2.740   2.954  0.9957  0.7385 -2.1306
 6478TIP3   OH219439   3.487   3.551   2.733  0.2224 -0.1177  0.2136
 6478TIP3    H119440   3.472   3.458   2.714 -0.4348 -0.4319  2.0999
 6478TIP3    H219441   3.477   3.594   2.648  1.0388 -1.8097 -0.8031
 6479TIP3   OH219442   4.145   4.028   0.885 -0.3856  0.0495  0.5707
 6479TIP3    H119443   4.147   3.951   0.942 -1.0112 -1.0318 -0.7878
 6479TIP3    H219444   4.227   4.024   0.836 -0.2235  0.4901  0.8107
 6480TIP3   OH219445   1.577   4.360   2.724  0.1970  0.2140  0.7996
 6480TIP3    H119446   1.620   4.428   2.673 -1.2229  0.8174  0.3435
 6480TIP3    H219447   1.484   4.369   2.702 -0.6594  1.0706  4.0343
 6481TIP3   OH219448   4.682   5.612   3.010  0.3538  0.2311 -0.2117
 6481TIP3    H119449   4.596   5.653   3.006 -0.0397 -0.3942  1.0876
 6481TIP3    H219450   4.744   5.681   2.988 -0.3779  1.1583  0.5815
 6482TIP3   OH219451   1.263   5.000   3.117 -0.4833 -0.0945 -0.2844
 6482TIP3    H119452   1.306   4.914   3.119 -1.8958 -0.8257 -0.2992
 6482TIP3    H219453   1.200   4.996   3.189 -0.6851  0.8727 -0.4024
 6483TIP3   OH219454   3.529   3.078   1.396 -0.2073 -0.1849 -0.4708
 6483TIP3    H119455   3.541   3.018   1.470  0.7948  0.0634 -0.4080
 6483TIP3    H219456   3.442   3.116   1.410 -1.1624 -2.0928 -0.8828
 6484TIP3   OH219457   5.372   2.398   4.258  0.2760  0.0785 -0.1531
 6484TIP3    H119458   5.281   2.410   4.229  0.0698  1.2599  0.8754
 6484TIP3    H219459   5.374   2.310   4.294 -0.9983  0.7056  1.5742
 6485TIP3   OH219460   3.048   5.500   3.401 -0.4351 -0.1333 -0.2596
 6485TIP3    H119461   3.099   5.460   3.472 -0.8207 -1.2979 -0.6242
 6485TIP3    H219462   3.008   5.578   3.441  2.7817  1.7365 -0.3214
 6486TIP3   OH219463   2.106   1.453   1.124  0.3783 -0.0072 -0.1176
 6486TIP3    H119464   2.056   1.378   1.158 -1.2279  0.5715 -1.1103
 6486TIP3    H219465   2.178   1.413   1.075  0.8604 -0.8593  1.2209
 6487TIP3   OH219466   5.380   2.525   1.715 -0.7693  0.1924 -0.4567
 6487TIP3    H119467   5.307   2.567   1.760 -1.5952 -0.3208 -1.2881
 6487TIP3    H219468   5.374   2.433   1.742 -0.0633  0.2477 -0.0743
 6488TIP3   OH219469   0.514   1.120   2.927 -0.8500 -0.4910 -0.2443
 6488TIP3    H119470   0.572   1.101   2.853  0.3268  0.3635  0.4345
 6488TIP3    H219471   0.507   1.037   2.974 -0.1447 -0.5994 -0.3210
 6489TIP3   OH219472   3.964   1.285   3.051  0.6842 -0.2005 -0.6428
 6489TIP3    H119473   4.007   1.202   3.030  2.0066  0.1179  0.6593
 6489TIP3    H219474   3.984   1.300   3.144  1.5560  2.1861 -1.1453
 6490TIP3   OH219475   1.048   5.666   1.952  0.0342  0.4727 -0.8886
 6490TIP3    H119476   1.115   5.607   1.986 -0.6407 -0.0683 -0.4665
 6490TIP3    H219477   0.985   5.676   2.023 -0.8255  0.2050 -1.5816
 6491TIP3   OH219478   1.513   4.535   3.504  0.2528 -0.0477  0.2562
 6491TIP3    H119479   1.435   4.587   3.482  0.2680  0.5846  1.5631
 6491TIP3    H219480   1.574   4.551   3.432  0.0533  1.3460  0.3638
 6492TIP3   OH219481   4.658   1.412   0.125 -0.1749  0.1649  0.0889
 6492TIP3    H119482   4.637   1.484   0.185  0.5640  1.2266 -0.8865
 6492TIP3    H219483   4.577   1.399   0.076  0.1827  1.5354 -0.9170
 6493TIP3   OH219484   0.382   2.329   1.968 -0.1108 -0.1511  0.2003
 6493TIP3    H119485   0.457   2.354   2.023 -1.3357  2.2901  0.8706
 6493TIP3    H219486   0.381   2.233   1.972  1.2637 -0.1452  2.5162
 6494TIP3   OH219487   4.338   2.721   2.012 -0.4876 -0.1563 -0.1580
 6494TIP3    H119488   4.244   2.734   2.027 -0.6146 -1.6504  0.5354
 6494TIP3    H219489   4.348   2.626   2.008  0.8250 -0.0013 -1.4593
 6495TIP3   OH219490   1.724   3.635   1.280  0.0835 -0.1883  0.5274
 6495TIP3    H119491   1.742   3.692   1.205  0.3708  0.7761  1.3154
 6495TIP3    H219492   1.632   3.611   1.271 -1.1019  3.2460  2.0174
 6496TIP3   OH219493   3.353   2.587   3.929 -0.5387  0.1100 -0.2255
 6496TIP3    H119494   3.443   2.606   3.901  0.1144 -0.7392  1.1723
 6496TIP3    H219495   3.298   2.644   3.874  0.8139  0.3860 -1.3561
 6497TIP3   OH219496   5.419   1.976   0.052 -0.5345  0.0008  0.2092
 6497TIP3    H119497   5.450   1.894   0.014 -1.6089 -0.7641  0.9318
 6497TIP3    H219498   5.424   1.963   0.146  1.1633  1.5267  0.3778
 6498TIP3   OH219499   4.530   0.305   0.759 -0.1371 -0.0422 -0.3048
 6498TIP3    H119500   4.516   0.266   0.846 -0.7843  1.1534  0.1485
 6498TIP3    H219501   4.619   0.338   0.762 -0.5036  0.9554  0.3227
 6499TIP3   OH219502   1.300   5.777   5.004  0.1039  0.3421  0.4451
 6499TIP3    H119503   1.339   5.861   5.030  1.1959 -0.0407  0.1026
 6499TIP3    H219504   1.371   5.729   4.961 -0.6683 -0.5190  0.0744
 6500TIP3   OH219505   4.930   4.845   1.687 -0.2568 -0.2608  0.0616
 6500TIP3    H119506   4.955   4.893   1.765  2.2100 -0.4199 -0.5554
 6500TIP3    H219507   4.862   4.899   1.646  0.9143  1.6400  0.5091
 6501TIP3   OH219508   1.091   5.972   3.998  0.1332 -0.4564  0.4414
 6501TIP3    H119509   1.068   5.963   4.091  0.2931  0.3722  0.5688
 6501TIP3    H219510   1.007   5.991   3.955  0.2458  0.5091  0.6179
 6502TIP3   OH219511   5.403   4.632   3.611 -0.3018 -0.4408  0.3841
 6502TIP3    H119512   5.461   4.558   3.596  0.3868 -0.2155  1.7238
 6502TIP3    H219513   5.454   4.708   3.583 -0.2984 -0.3230  0.7059
 6503TIP3   OH219514   0.373   0.801   4.490  0.0905  0.2648 -0.3960
 6503TIP3    H119515   0.362   0.896   4.495  1.0922  0.4455 -1.1588
 6503TIP3    H219516   0.399   0.775   4.578 -0.6137  0.6315 -0.0758
 6504TIP3   OH219517   1.028   4.665   0.893  0.1432  0.0023  0.0525
 6504TIP3    H119518   0.957   4.612   0.931  0.9162 -1.7680 -0.8465
 6504TIP3    H219519   1.039   4.630   0.804  1.0718  1.3291 -0.3829
 6505TIP3   OH219520   4.513   4.470   4.043  0.1032 -0.7378  0.3233
 6505TIP3    H119521   4.479   4.405   4.104 -0.3010  1.0786  2.1576
 6505TIP3    H219522   4.435   4.512   4.006  0.3209  0.2956  0.9929
 6506TIP3   OH219523   0.265   0.948   0.117 -0.3182  0.1532 -1.0099
 6506TIP3    H119524   0.331   0.966   0.184  0.5799 -1.4992 -1.3746
 6506TIP3    H219525   0.192   1.006   0.138  0.4999  0.6714  0.5482
 6507TIP3   OH219526   4.655   4.371   1.757  0.0672 -0.5367 -0.4199
 6507TIP3    H119527   4.669   4.294   1.703  1.1169 -0.5238 -0.1945
 6507TIP3    H219528   4.702   4.442   1.711  0.6878 -0.4560  0.3187
 6508TIP3   OH219529   2.452   4.024   0.183  0.0103  0.1487 -0.3427
 6508TIP3    H119530   2.357   4.031   0.169 -0.0555  2.2201  0.7292
 6508TIP3    H219531   2.465   3.935   0.215 -1.4190 -0.5202 -1.4873
 6509TIP3   OH219532   1.399   0.488   4.217 -0.0630  0.3261 -0.0539
 6509TIP3    H119533   1.488   0.521   4.221  0.1510 -0.0454 -1.4354
 6509TIP3    H219534   1.378   0.485   4.124 -1.1016 -0.6874  0.1832
 6510TIP3   OH219535   0.132   4.418   1.011 -0.1527  0.0061  0.0438
 6510TIP3    H119536   0.147   4.483   0.942  3.4838  0.3882  0.9667
 6510TIP3    H219537   0.125   4.335   0.964 -1.1029  0.6153 -0.9420
 6511TIP3   OH219538   1.723   3.865   0.709 -0.1818  0.1687 -0.0297
 6511TIP3    H119539   1.634   3.886   0.738  0.0624  1.6293 -0.2531
 6511TIP3    H219540   1.712   3.790   0.650 -1.0655 -0.6549  1.1326
 6512TIP3   OH219541   2.718   2.112   4.942 -0.3602 -0.2158  0.2954
 6512TIP3    H119542   2.765   2.161   5.009  1.6493  1.4084 -2.1008
 6512TIP3    H219543   2.681   2.180   4.885  0.7264 -1.3933 -1.9602
 6513TIP3   OH219544   3.816   2.483   1.557 -0.0320  0.8701  1.0968
 6513TIP3    H119545   3.851   2.431   1.630  0.2382  0.0028  0.3617
 6513TIP3    H219546   3.723   2.492   1.576  0.2594  1.8320  2.2452
 6514TIP3   OH219547   0.684   0.039   1.917 -0.1424  0.0669 -0.2200
 6514TIP3    H119548   0.673   0.081   1.832  1.8009  0.6146 -0.2507
 6514TIP3    H219549   0.708   0.110   1.976 -0.8764 -0.4022  0.6697
 6515TIP3   OH219550   0.003   5.624   3.325 -0.1985 -0.4437 -0.2493
 6515TIP3    H119551   0.051   5.686   3.270  1.0407 -0.2354  1.0082
 6515TIP3    H219552   0.003   5.543   3.274  1.9418 -0.5835 -0.1385
 6516TIP3   OH219553   2.903   2.065   4.596  0.1284  0.4923 -0.3473
 6516TIP3    H119554   2.940   1.981   4.569 -1.1791 -0.7191  1.4349
 6516TIP3    H219555   2.815   2.066   4.560 -0.5713  0.1787  1.2787
 6517TIP3   OH219556   3.542   3.226   2.856 -0.0536  0.3940  0.2119
 6517TIP3    H119557   3.628   3.209   2.893  0.4825 -0.4078 -1.3161
 6517TIP3    H219558   3.521   3.147   2.806  0.1587  2.0621 -2.7568
 6518TIP3   OH219559   5.739   2.294   3.812  0.2376 -0.4889 -0.2861
 6518TIP3    H119560   5.789   2.213   3.799  1.4902  0.3304 -0.6334
 6518TIP3    H219561   5.803   2.364   3.806 -0.5742  0.4716  1.6091
 6519TIP3   OH219562   4.284   4.150   3.006  0.7347 -0.2713  0.0869
 6519TIP3    H119563   4.323   4.158   2.919 -0.4828  0.7022 -0.4044
 6519TIP3    H219564   4.203   4.100   2.991  0.4938 -0.0561  0.6498
 6520TIP3   OH219565   0.207   3.565   3.423 -0.3507  0.8664 -0.5571
 6520TIP3    H119566   0.131   3.585   3.368 -1.1790 -1.7802 -0.5186
 6520TIP3    H219567   0.169   3.530   3.504  0.9000  2.7183  0.9279
 6521TIP3   OH219568   3.436   1.310   0.216  0.9782  0.4649  0.3603
 6521TIP3    H119569   3.377   1.256   0.269  0.2460  0.3423 -0.5471
 6521TIP3    H219570   3.475   1.248   0.153  0.8007  0.8285 -0.1170
 6522TIP3   OH219571   2.915   2.227   3.971  0.5625  0.2175  0.3137
 6522TIP3    H119572   2.955   2.153   4.016  0.7636  0.0409 -0.1481
 6522TIP3    H219573   2.895   2.193   3.883 -1.1131  0.1188  0.6968
 6523TIP3   OH219574   1.590   3.124   4.713 -0.8884 -0.6690 -0.5129
 6523TIP3    H119575   1.594   3.028   4.714 -0.2031 -0.6509  0.6440
 6523TIP3    H219576   1.576   3.147   4.622 -0.7267 -1.8615 -0.8536
 6524TIP3   OH219577   2.735   1.199   0.231  0.4957  0.2661 -0.1417
 6524TIP3    H119578   2.732   1.274   0.290  1.4136  0.8864 -0.8446
 6524TIP3    H219579   2.643   1.173   0.220 -0.0575  2.4662 -1.3092
 6525TIP3   OH219580   1.516   0.952   0.107  0.2993  0.1085  0.1296
 6525TIP3    H119581   1.544   1.023   0.165  0.3885  0.3735 -0.2354
 6525TIP3    H219582   1.433   0.983   0.070  0.4450  0.1121 -0.1927
 6526TIP3   OH219583   5.261   1.949   2.026 -0.9407  0.1904 -0.1860
 6526TIP3    H119584   5.319   1.926   1.953 -2.9718 -4.9816 -0.6307
 6526TIP3    H219585   5.309   1.919   2.104 -1.0091  0.5950  0.0147
 6527TIP3   OH219586   1.008   1.088   0.883  0.3658 -0.2287  0.2597
 6527TIP3    H119587   0.992   1.152   0.952  0.3428 -1.1448  1.1399
 6527TIP3    H219588   1.099   1.104   0.856  0.6405 -0.3547  1.0632
 6528TIP3   OH219589   5.466   5.159   1.070  0.0808 -0.3396  0.8355
 6528TIP3    H119590   5.487   5.177   0.978 -1.9442 -0.0526  0.3822
 6528TIP3    H219591   5.448   5.066   1.073 -2.2013  0.0199  0.3631
 6529TIP3   OH219592   3.622   5.123   0.382  0.2455 -0.2496  0.0988
 6529TIP3    H119593   3.686   5.192   0.370  0.7288 -0.7101 -0.0035
 6529TIP3    H219594   3.663   5.045   0.345 -0.3442 -0.5667  0.0887
 6530TIP3   OH219595   4.793   2.313   3.136 -0.2283  0.6213  0.1542
 6530TIP3    H119596   4.762   2.223   3.148 -0.0698  0.1332 -2.5939
 6530TIP3    H219597   4.718   2.367   3.159 -0.4198 -0.1948  1.5673
 6531TIP3   OH219598   3.830   5.966   3.360 -0.6534 -0.4729 -0.1960
 6531TIP3    H119599   3.829   5.915   3.442  1.1589 -1.5148 -0.7636
 6531TIP3    H219600   3.922   5.963   3.332 -0.5274  2.8256 -0.4794
 6532TIP3   OH219601   0.835   5.735   4.263  0.7244  0.0217 -0.2338
 6532TIP3    H119602   0.843   5.713   4.356  0.8297 -0.1206 -0.2749
 6532TIP3    H219603   0.905   5.685   4.221  1.4082  0.9499 -0.2503
 6533TIP3   OH219604   2.265   4.070   4.178 -0.3275  0.5324 -0.2014
 6533TIP3    H119605   2.338   4.095   4.234 -0.0753 -0.4435 -0.0934
 6533TIP3    H219606   2.301   4.004   4.119 -0.8899  0.7022 -0.7498
 6534TIP3   OH219607   2.636   2.872   4.773 -1.0051  0.6207  0.3868
 6534TIP3    H119608   2.702   2.813   4.738  0.6529  2.2828  0.5669
 6534TIP3    H219609   2.578   2.890   4.699 -2.1408 -1.8993  0.5627
 6535TIP3   OH219610   1.001   4.232   3.729  0.5964 -0.2138  0.2076
 6535TIP3    H119611   1.009   4.142   3.760 -1.0097 -0.3380  0.3756
 6535TIP3    H219612   0.925   4.266   3.776  0.7088  0.9728 -0.4420
 6536TIP3   OH219613   3.897   0.938   2.684  0.4817  0.1222  0.6109
 6536TIP3    H119614   3.887   1.022   2.639 -0.2267 -0.8934 -1.1974
 6536TIP3    H219615   3.859   0.874   2.625  1.2026 -1.5285  1.8600
 6537TIP3   OH219616   3.844   0.085   4.091  0.1609 -0.2377 -0.2211
 6537TIP3    H119617   3.872   0.004   4.135  1.3460  0.6309  0.6846
 6537TIP3    H219618   3.786   0.127   4.153 -0.7181 -0.5286 -0.8297
 6538TIP3   OH219619   0.293   5.324   0.821 -0.9873  0.1906  0.1529
 6538TIP3    H119620   0.275   5.292   0.732 -0.5194  1.9105 -0.5984
 6538TIP3    H219621   0.312   5.245   0.871 -1.3928 -0.8365 -1.2382
 6539TIP3   OH219622   5.457   1.720   1.242 -0.2304  0.1492  0.0497
 6539TIP3    H119623   5.364   1.726   1.266 -0.2754 -0.8397  0.1759
 6539TIP3    H219624   5.478   1.805   1.205 -0.6629  1.0813  1.8264
 6540TIP3   OH219625   0.416   5.873   4.832  0.2210  0.5314 -0.8076
 6540TIP3    H119626   0.459   5.873   4.917  0.6815  0.5435 -1.0366
 6540TIP3    H219627   0.487   5.868   4.769 -0.1553 -2.6974 -1.1681
 6541TIP3   OH219628   1.908   2.807   3.658  0.2493  0.2992 -0.1124
 6541TIP3    H119629   1.991   2.852   3.666 -0.2990  1.2100  0.7086
 6541TIP3    H219630   1.862   2.825   3.741 -0.0272 -1.7212  0.2307
 6542TIP3   OH219631   3.865   5.844   2.302  0.1969  0.5418  0.3491
 6542TIP3    H119632   3.855   5.763   2.253  3.6220 -0.0715  0.4499
 6542TIP3    H219633   3.807   5.906   2.258 -0.5055 -1.2342 -1.3613
 6543TIP3   OH219634   0.919   0.114   1.521  0.0839  0.3937 -0.3103
 6543TIP3    H119635   0.912   0.210   1.522  0.3664  0.4159  0.7223
 6543TIP3    H219636   1.007   0.097   1.489  0.7375  0.5582  1.2889
 6544TIP3   OH219637   3.222   4.226   1.563 -0.3039  0.3782  0.0514
 6544TIP3    H119638   3.265   4.290   1.507  0.5286 -0.6982 -0.5735
 6544TIP3    H219639   3.184   4.278   1.634  0.5578  1.5295 -0.3038
 6545TIP3   OH219640   1.546   5.929   1.137  0.3570  0.3467 -0.3734
 6545TIP3    H119641   1.475   5.883   1.182  0.0628  0.2677 -0.9103
 6545TIP3    H219642   1.626   5.885   1.167  0.2347  0.8775  0.7470
 6546TIP3   OH219643   2.365   0.837   3.913  0.0250  0.3897  0.7834
 6546TIP3    H119644   2.271   0.854   3.910  0.0897  0.7735  0.9101
 6546TIP3    H219645   2.404   0.921   3.939  0.6012  0.8857 -1.4677
 6547TIP3   OH219646   5.590   2.516   1.392  0.0987 -0.4255  0.2823
 6547TIP3    H119647   5.537   2.570   1.451 -0.0540 -0.6944  0.3966
 6547TIP3    H219648   5.665   2.489   1.445  0.3913  0.0225  0.0948
 6548TIP3   OH219649   2.681   3.329   0.803 -0.6220  0.0806 -0.3210
 6548TIP3    H119650   2.662   3.262   0.738  2.0726 -0.4135 -0.7184
 6548TIP3    H219651   2.773   3.350   0.790 -0.4713  1.3181  2.1247
 6549TIP3   OH219652   5.942   0.387   4.136  0.3274 -0.2551 -0.3117
 6549TIP3    H119653   5.971   0.302   4.103  1.8664  0.0419  0.1710
 6549TIP3    H219654   5.962   0.448   4.064  1.0295 -0.0293  0.0679
 6550TIP3   OH219655   6.212   5.584   3.544  0.1919  0.2116  0.0786
 6550TIP3    H119656   6.142   5.533   3.504  0.3698 -0.1944  0.2855
 6550TIP3    H219657   6.262   5.619   3.471  0.2212 -0.1186 -0.0556
 6551TIP3   OH219658   4.489   2.627   0.017 -0.2445  0.0791 -0.0020
 6551TIP3    H119659   4.406   2.590   0.047 -0.1059  0.0186  0.3139
 6551TIP3    H219660   4.520   2.565  -0.049  0.4737 -0.9337  1.2297
 6552TIP3   OH219661   4.330   4.722   4.817  0.0832 -0.2460  0.1427
 6552TIP3    H119662   4.281   4.725   4.735  0.5871 -0.0926 -0.1515
 6552TIP3    H219663   4.397   4.655   4.803  1.3607  1.0545 -0.2481
 6553TIP3   OH219664   0.734   1.676   0.172  0.3670 -0.6441 -0.1802
 6553TIP3    H119665   0.703   1.591   0.139 -0.1883 -0.2654 -0.6689
 6553TIP3    H219666   0.776   1.656   0.255 -1.5577 -1.1737  0.7371
 6554TIP3   OH219667   3.737   0.948   4.513 -0.1966 -0.0932  0.8832
 6554TIP3    H119668   3.812   0.937   4.455  0.2213  1.6730  1.0426
 6554TIP3    H219669   3.661   0.954   4.454  0.1313  0.8860  0.5461
 6555TIP3   OH219670   2.840   3.306   5.039 -0.5594 -0.5494 -0.2499
 6555TIP3    H119671   2.836   3.286   5.133  0.1634  0.5917  0.0442
 6555TIP3    H219672   2.847   3.221   4.996 -1.3882 -1.1117  0.7020
 6556TIP3   OH219673   2.536   2.194   1.873 -0.4654  0.6339 -0.0217
 6556TIP3    H119674   2.598   2.267   1.885  0.3882 -0.0847  0.0846
 6556TIP3    H219675   2.512   2.198   1.781  0.3465  0.4699 -0.2497
 6557TIP3   OH219676   4.348   2.996   2.046  0.3193  0.3882  0.0869
 6557TIP3    H119677   4.349   2.901   2.049  0.7687  0.4098  1.2874
 6557TIP3    H219678   4.286   3.022   2.114 -1.5241  0.9522 -1.7002
 6558TIP3   OH219679   2.659   5.695   0.385 -0.2434  0.0343 -0.3425
 6558TIP3    H119680   2.684   5.679   0.294 -0.2021  0.6965 -0.4497
 6558TIP3    H219681   2.710   5.772   0.411 -0.9988  0.4508 -0.0709
 6559TIP3   OH219682   5.245   2.689   1.879 -0.0369  0.1327  0.3321
 6559TIP3    H119683   5.174   2.627   1.889 -0.4805  0.3822 -1.0942
 6559TIP3    H219684   5.252   2.731   1.965 -1.0245 -0.4909  0.7367
 6560TIP3   OH219685   2.838   2.657   4.307 -0.4441 -0.1885  0.3224
 6560TIP3    H119686   2.782   2.612   4.244  0.1948  1.6442 -1.6760
 6560TIP3    H219687   2.923   2.614   4.300 -0.2303  0.3536 -0.4913
 6561TIP3   OH219688   2.385   1.789   4.641  0.7359  0.1462 -0.2907
 6561TIP3    H119689   2.467   1.739   4.643  2.1402  2.2452 -2.0768
 6561TIP3    H219690   2.386   1.840   4.722  1.3997  0.4594 -0.4919
 6562TIP3   OH219691   1.947   2.639   5.034  0.0287 -0.1843  0.6311
 6562TIP3    H119692   1.854   2.623   5.051 -0.1944  0.9388  0.5214
 6562TIP3    H219693   1.964   2.726   5.069  0.4598  0.6459 -1.4688
 6563TIP3   OH219694   1.158   1.007   0.340  0.3619 -0.4021  0.6621
 6563TIP3    H119695   1.078   0.998   0.289  0.7942 -0.7236  0.0169
 6563TIP3    H219696   1.224   1.036   0.276  1.0238 -1.2770  0.9219
 6564TIP3   OH219697   3.597   3.154   0.791  0.1617 -0.0439  0.4281
 6564TIP3    H119698   3.567   3.063   0.779 -3.8942  1.0676  0.5783
 6564TIP3    H219699   3.552   3.183   0.871  0.2132  2.4793 -0.3828
 6565TIP3   OH219700   3.407   4.881   4.922 -0.0461 -0.0904  0.0215
 6565TIP3    H119701   3.479   4.936   4.890 -0.0627 -0.4761 -0.6835
 6565TIP3    H219702   3.351   4.941   4.970 -0.8384  0.8272 -1.9515
 6566TIP3   OH219703   0.660   0.226   0.156  0.2406 -0.6184  0.5828
 6566TIP3    H119704   0.632   0.225   0.248 -0.0164 -1.6237  0.5006
 6566TIP3    H219705   0.685   0.317   0.140 -0.8466 -0.1759  1.3073
 6567TIP3   OH219706   1.749   2.696   0.245 -0.1303  0.1672  0.9151
 6567TIP3    H119707   1.755   2.609   0.205 -0.9932 -0.1749  1.5073
 6567TIP3    H219708   1.840   2.719   0.265  0.0850 -0.7327  1.0163
 6568TIP3   OH219709   0.676   3.109   0.918 -0.3050  0.2397 -0.1387
 6568TIP3    H119710   0.667   3.016   0.896  2.0179  0.4002 -2.2012
 6568TIP3    H219711   0.637   3.155   0.844 -1.9489  0.9813  1.1301
 6569TIP3   OH219712   5.880   5.705   3.435 -0.1184 -0.6501 -0.3799
 6569TIP3    H119713   5.834   5.640   3.487  1.7407 -0.6881  1.3109
 6569TIP3    H219714   5.950   5.656   3.392  0.4603 -0.0215 -0.1689
 6570TIP3   OH219715   4.087   4.567   2.661  0.2849 -0.1050 -0.5916
 6570TIP3    H119716   4.153   4.635   2.648  0.5026 -0.0598  0.6390
 6570TIP3    H219717   4.018   4.609   2.712  1.2801 -1.2391  1.8521
 6571TIP3   OH219718   4.231   0.434   4.481  0.2863  0.3878  0.0766
 6571TIP3    H119719   4.142   0.437   4.445  0.8948 -0.6567 -1.6394
 6571TIP3    H219720   4.259   0.525   4.486 -1.3506  0.8565  1.9944
 6572TIP3   OH219721   4.612   4.746   1.934 -0.1809 -0.1015 -0.5798
 6572TIP3    H119722   4.663   4.764   2.012  0.6733 -2.1602 -0.5887
 6572TIP3    H219723   4.542   4.688   1.964  0.8472 -1.8911 -1.4604
 6573TIP3   OH219724   1.455   4.527   1.377  0.0555 -0.3115  0.2022
 6573TIP3    H119725   1.380   4.550   1.432 -0.1139 -0.2306 -0.0616
 6573TIP3    H219726   1.417   4.476   1.305  0.0684  0.9141 -0.6856
 6574TIP3   OH219727   0.036   4.263   0.609 -0.2280  0.2734 -0.1059
 6574TIP3    H119728  -0.019   4.223   0.676  2.3286  1.0976  2.7267
 6574TIP3    H219729   0.114   4.207   0.605  1.2627  2.1657  0.3867
 6575TIP3   OH219730   1.219   4.187   2.229  0.3893 -0.1934 -0.1093
 6575TIP3    H119731   1.280   4.129   2.184 -0.2093 -1.2472  0.4032
 6575TIP3    H219732   1.267   4.217   2.306  0.7317  0.0637 -0.4210
 6576TIP3   OH219733   2.198   2.431   0.511 -0.0489  0.0854 -0.5717
 6576TIP3    H119734   2.176   2.380   0.433  0.1373 -0.6306 -0.1577
 6576TIP3    H219735   2.242   2.509   0.477  1.0210 -0.7405 -1.1243
 6577TIP3   OH219736   0.676   4.253   4.724 -0.4046 -0.0539 -0.3541
 6577TIP3    H119737   0.726   4.251   4.806 -0.6083  1.6414 -0.1637
 6577TIP3    H219738   0.585   4.247   4.752 -0.4132 -1.7949 -0.6276
 6578TIP3   OH219739   3.595   4.650   2.949  0.4596 -0.3603 -0.6942
 6578TIP3    H119740   3.690   4.640   2.956  0.3296 -2.0036 -0.7881
 6578TIP3    H219741   3.572   4.713   3.017  1.2791 -2.4687  1.7288
 6579TIP3   OH219742   1.872   3.375   2.055  0.3930 -0.1398  0.1556
 6579TIP3    H119743   1.817   3.339   1.985  0.7612  0.2059 -0.3167
 6579TIP3    H219744   1.824   3.356   2.135 -1.3408  1.7741 -0.3417
 6580TIP3   OH219745   1.817   5.021   1.382  0.4539  0.2682 -0.7235
 6580TIP3    H119746   1.806   4.953   1.316 -0.5581 -0.9372  0.6131
 6580TIP3    H219747   1.818   5.103   1.333 -0.2168 -0.5860 -2.2176
 6581TIP3   OH219748   2.917   5.730   4.908 -0.5763  0.2098 -0.4013
 6581TIP3    H119749   2.879   5.684   4.983  1.0136 -0.7945 -0.1846
 6581TIP3    H219750   3.012   5.720   4.919 -0.2996  0.4684 -2.2908
 6582TIP3   OH219751   4.397   1.383   1.407 -0.3412  0.2370 -0.6872
 6582TIP3    H119752   4.376   1.323   1.335 -0.1780 -0.3833 -0.2292
 6582TIP3    H219753   4.492   1.389   1.407 -0.3112 -0.1911 -0.1885
 6583TIP3   OH219754   4.653   4.190   4.156  0.0862 -0.4259  0.3926
 6583TIP3    H119755   4.713   4.161   4.224  4.3739 -1.3268 -3.2578
 6583TIP3    H219756   4.686   4.276   4.129  0.6690 -1.4249 -2.4931
 6584TIP3   OH219757   2.799   2.557   0.104 -0.4639 -0.8411  0.0108
 6584TIP3    H119758   2.847   2.630   0.066 -0.6811 -0.3975  0.5663
 6584TIP3    H219759   2.789   2.495   0.033  0.5931 -0.7722 -0.2195
 6585TIP3   OH219760   6.242   5.715   1.592  0.6152  0.4419 -0.2389
 6585TIP3    H119761   6.219   5.801   1.626 -1.8524 -0.4715  0.6047
 6585TIP3    H219762   6.162   5.685   1.548  1.3401 -1.5207 -0.2929
 6586TIP3   OH219763   2.030   5.040   2.707  0.6485 -0.3042  0.9032
 6586TIP3    H119764   2.054   5.130   2.683  1.5412 -0.6924  0.3085
 6586TIP3    H219765   1.942   5.048   2.745  1.1947  0.9908  1.9981
 6587TIP3   OH219766   0.841   1.921   1.534 -0.5390  0.4662  0.3897
 6587TIP3    H119767   0.867   1.839   1.577  0.5503 -0.2074 -1.4732
 6587TIP3    H219768   0.747   1.911   1.520 -0.2132 -1.0875 -0.9942
 6588TIP3   OH219769   1.875   1.589   4.264  0.3799 -0.0994 -0.2439
 6588TIP3    H119770   1.892   1.531   4.338 -0.5424 -0.5682 -0.3925
 6588TIP3    H219771   1.895   1.536   4.186 -1.9059 -0.7523 -0.4344
 6589TIP3   OH219772   4.154   1.536   2.686 -0.2146 -0.5301  0.0105
 6589TIP3    H119773   4.131   1.474   2.617  1.4683 -0.0573 -1.0414
 6589TIP3    H219774   4.246   1.558   2.669 -0.4787  1.5055  0.9109
 6590TIP3   OH219775   2.444   2.897   2.303  0.3783  0.4406 -0.5135
 6590TIP3    H119776   2.514   2.961   2.317 -0.0525  1.1940 -1.6780
 6590TIP3    H219777   2.409   2.918   2.217 -0.2525 -0.9305 -0.6193
 6591TIP3   OH219778   5.979   4.702   0.613  0.3542 -0.1136  0.2519
 6591TIP3    H119779   5.907   4.643   0.594  1.0148 -0.6388 -0.6905
 6591TIP3    H219780   6.053   4.644   0.633  1.1123  0.3650 -1.0494
 6592TIP3   OH219781   3.444   4.988   1.703  0.0047  0.0659  0.0274
 6592TIP3    H119782   3.465   4.934   1.627  0.4306 -1.5288  1.2263
 6592TIP3    H219783   3.408   5.069   1.666 -1.7550 -1.4609 -1.8337
 6593TIP3   OH219784   5.315   2.080   1.623 -0.1903 -0.1069  0.0082
 6593TIP3    H119785   5.393   2.060   1.675  0.4231 -1.7135 -1.4413
 6593TIP3    H219786   5.274   1.995   1.608 -0.5755  0.3493 -1.7401
 6594TIP3   OH219787   4.329   5.591   5.100  0.2840 -0.4264  0.0739
 6594TIP3    H119788   4.376   5.543   5.032 -1.2715 -3.2245  0.7751
 6594TIP3    H219789   4.259   5.637   5.053 -0.4189 -1.8603 -0.3775
 6595TIP3   OH219790   1.002   3.581   4.455  0.1652 -0.0250  0.1727
 6595TIP3    H119791   0.942   3.521   4.499 -1.4419  0.8081 -0.8014
 6595TIP3    H219792   0.974   3.668   4.481  1.0403  0.3861 -0.1978
 6596TIP3   OH219793   2.079   2.704   3.028  0.8105  0.4509 -0.3593
 6596TIP3    H119794   2.079   2.796   3.054 -1.0631  0.0952  1.1273
 6596TIP3    H219795   2.084   2.706   2.933  4.3534  1.9324 -0.2949
 6597TIP3   OH219796   1.560   1.033   1.435 -0.0546  0.0233 -0.4145
 6597TIP3    H119797   1.524   0.960   1.486 -0.1747  0.4145  0.0721
 6597TIP3    H219798   1.631   1.067   1.490  0.3231 -0.0336 -0.8633
 6598TIP3   OH219799   1.287   1.069   0.921  0.1564 -0.3185 -0.3014
 6598TIP3    H119800   1.263   1.012   0.994  0.1508 -1.1734 -0.9496
 6598TIP3    H219801   1.376   1.042   0.899  0.7464  0.9973  0.3686
 6599TIP3   OH219802   0.200   1.282   3.306 -0.4235  0.2872  0.1263
 6599TIP3    H119803   0.182   1.292   3.400  1.8347  2.3523  0.4508
 6599TIP3    H219804   0.293   1.258   3.302 -0.8706 -1.3843 -1.5863
 6600TIP3   OH219805   4.214   5.770   4.221 -0.1609  0.3726  0.2068
 6600TIP3    H119806   4.186   5.823   4.296 -2.5874 -0.2800 -0.1608
 6600TIP3    H219807   4.164   5.689   4.229  0.1305 -0.0371 -1.6925
 6601TIP3   OH219808   2.616   4.141   5.048  0.0843  0.1301 -0.0482
 6601TIP3    H119809   2.585   4.224   5.013 -0.6949 -0.0369  0.2121
 6601TIP3    H219810   2.608   4.151   5.143  2.1685  0.5768  0.1168
 6602TIP3   OH219811   5.823   3.276   1.697 -0.1862  0.4416  0.2957
 6602TIP3    H119812   5.835   3.318   1.783 -0.2670  2.2729 -0.5415
 6602TIP3    H219813   5.910   3.280   1.657 -0.1737 -0.3195  0.2366
 6603TIP3   OH219814   4.007   2.314   4.417 -0.0969  0.4074 -0.6154
 6603TIP3    H119815   4.033   2.390   4.365  1.1724  0.3556 -0.0816
 6603TIP3    H219816   3.926   2.342   4.460 -1.4432  0.2907 -2.9123
 6604TIP3   OH219817   0.829   1.840   4.517  0.3081  0.1281 -0.0131
 6604TIP3    H119818   0.799   1.815   4.605 -1.5533 -0.0845 -0.6643
 6604TIP3    H219819   0.781   1.921   4.498  2.1030  1.2121 -0.1308
 6605TIP3   OH219820   3.404   0.375   0.815 -0.1151 -0.1764 -0.0213
 6605TIP3    H119821   3.463   0.308   0.780  0.9387  0.7422 -0.0563
 6605TIP3    H219822   3.458   0.453   0.821 -1.0274  0.3935  1.0648
 6606TIP3   OH219823   5.104   1.765   0.820 -0.0300  0.3782  0.0627
 6606TIP3    H119824   5.139   1.793   0.735 -0.3572 -1.1314 -0.6128
 6606TIP3    H219825   5.178   1.725   0.865  0.1504  1.2052  0.5191
 6607TIP3   OH219826   1.929   0.289   4.204  0.1467  1.1987  0.1492
 6607TIP3    H119827   1.906   0.305   4.296 -0.7083 -1.4343  0.4597
 6607TIP3    H219828   1.858   0.331   4.155 -0.7700  0.4693  0.8127
 6608TIP3   OH219829   3.708   0.606   4.314  0.8122 -0.0640  0.1086
 6608TIP3    H119830   3.778   0.588   4.252  1.8238  1.0464  0.8976
 6608TIP3    H219831   3.654   0.672   4.270 -0.0418 -1.2478 -0.6893
 6609TIP3   OH219832   1.661   3.296   2.206  0.4272 -0.0218  0.6633
 6609TIP3    H119833   1.663   3.220   2.264 -2.6767 -0.8081 -0.0797
 6609TIP3    H219834   1.615   3.363   2.257 -1.5185 -0.4294 -0.4426
 6610TIP3   OH219835   3.944   0.946   4.233 -0.0982  0.1286 -0.2514
 6610TIP3    H119836   3.999   0.887   4.283 -0.5221  1.3512  1.7861
 6610TIP3    H219837   4.003   1.016   4.204 -0.2430  0.6094  0.5670
 6611TIP3   OH219838   5.626   3.915   2.484  0.6418  0.1067 -0.2286
 6611TIP3    H119839   5.647   3.825   2.509 -2.8181 -0.3385  1.8097
 6611TIP3    H219840   5.653   3.967   2.559  1.5470  0.6448 -0.9087
 6612TIP3   OH219841   3.470   1.139   1.785 -0.0628 -0.4135 -0.9724
 6612TIP3    H119842   3.387   1.187   1.791 -0.1017 -0.6356  1.0394
 6612TIP3    H219843   3.535   1.206   1.766 -0.4497  0.0499 -0.6877
 6613TIP3   OH219844   3.587   2.491   3.296  0.1271 -0.4977 -0.1696
 6613TIP3    H119845   3.579   2.586   3.296 -2.2578 -0.6501 -0.3404
 6613TIP3    H219846   3.583   2.466   3.203 -1.0137 -0.8467 -0.0432
 6614TIP3   OH219847   0.419   3.051   2.304  0.6134 -0.0142  0.2440
 6614TIP3    H119848   0.443   3.101   2.382  1.4161  0.6799 -0.4264
 6614TIP3    H219849   0.424   3.114   2.233 -0.7661 -0.4801 -0.2972
 6615TIP3   OH219850   3.401   0.964   2.230 -0.2276  0.3085  0.2297
 6615TIP3    H119851   3.349   1.038   2.262  1.3418  2.4992 -1.8407
 6615TIP3    H219852   3.351   0.930   2.155 -0.6186 -0.3052  0.7614
 6616TIP3   OH219853   4.622   3.259   3.224 -0.1194 -0.1032 -0.1456
 6616TIP3    H119854   4.560   3.299   3.163  0.9332 -1.1970 -2.0249
 6616TIP3    H219855   4.661   3.333   3.270 -0.2503  0.8430 -1.5041
 6617TIP3   OH219856   0.009   0.990   3.447  0.3782  0.2062  0.6009
 6617TIP3    H119857  -0.009   1.080   3.473 -0.1230  0.1102  0.5865
 6617TIP3    H219858   0.091   0.996   3.397 -0.8945  1.0337 -1.5107
 6618TIP3   OH219859   0.847   2.737   4.252 -0.5400  0.1812 -0.4606
 6618TIP3    H119860   0.914   2.668   4.259 -1.5930 -0.7207  1.2829
 6618TIP3    H219861   0.874   2.803   4.315 -1.4126 -0.3293  0.4787
 6619TIP3   OH219862   2.827   5.463   3.986  0.0813 -0.5053  0.1304
 6619TIP3    H119863   2.786   5.549   3.993 -0.4940 -0.8768  1.8413
 6619TIP3    H219864   2.766   5.413   3.932  0.2360  0.0409 -0.5664
 6620TIP3   OH219865   1.532   5.344   4.568  0.0581  0.3621  0.0380
 6620TIP3    H119866   1.585   5.310   4.496  1.1760  0.2263  0.8954
 6620TIP3    H219867   1.463   5.395   4.525  0.1379 -0.4960 -1.1498
 6621TIP3   OH219868   6.267   0.605   2.310 -0.2789  0.4467 -0.1944
 6621TIP3    H119869   6.291   0.516   2.333  0.5091  0.6232 -0.2855
 6621TIP3    H219870   6.287   0.657   2.388  0.8686  0.7919 -0.6911
 6622TIP3   OH219871   0.046   0.107   1.460 -0.4233  0.1384  0.7532
 6622TIP3    H119872  -0.048   0.122   1.471 -0.5140 -0.2797  0.5962
 6622TIP3    H219873   0.088   0.162   1.525 -0.7904  0.1906  0.9437
 6623TIP3   OH219874   3.136   2.351   4.505  0.1955 -0.2072 -0.2133
 6623TIP3    H119875   3.178   2.282   4.454 -0.8777 -0.2014 -1.1328
 6623TIP3    H219876   3.153   2.327   4.596  0.1211 -1.5019 -0.5265
 6624TIP3   OH219877   4.153   4.297   2.624 -0.2567 -0.4613  0.3872
 6624TIP3    H119878   4.071   4.257   2.597 -0.4543  0.5058 -0.5447
 6624TIP3    H219879   4.130   4.387   2.647  0.1042 -0.9416  2.8475
 6625TIP3   OH219880   2.004   3.924   4.818  0.6918  0.1324  0.0680
 6625TIP3    H119881   2.045   3.838   4.804  1.3208  0.3076  0.7618
 6625TIP3    H219882   2.009   3.938   4.913 -2.6262 -0.6138  0.4612
 6626TIP3   OH219883   0.094   5.580   0.200  0.5035  0.6365 -0.1679
 6626TIP3    H119884   0.120   5.640   0.270 -0.3605  0.8889 -0.0548
 6626TIP3    H219885   0.055   5.505   0.245 -2.1968  1.8072 -0.3853
 6627TIP3   OH219886   5.462   2.609   4.417  0.6330 -0.1352 -0.7251
 6627TIP3    H119887   5.456   2.526   4.370  0.3861 -1.5368  1.5874
 6627TIP3    H219888   5.550   2.608   4.455  0.1601  0.0036  0.4051
 6628TIP3   OH219889   6.132   4.888   1.840  0.1062  0.2614  0.1439
 6628TIP3    H119890   6.147   4.959   1.778 -2.0249 -0.9769 -1.9447
 6628TIP3    H219891   6.067   4.923   1.901  1.1699  1.0037  0.8986
 6629TIP3   OH219892   0.833   5.274   1.645 -0.2516 -0.4534  0.4244
 6629TIP3    H119893   0.789   5.234   1.721 -0.7298 -0.9701 -0.1072
 6629TIP3    H219894   0.846   5.201   1.584  0.6584 -0.1552  0.2455
 6630TIP3   OH219895   2.685   1.793   1.771  0.1209  0.4177  0.9478
 6630TIP3    H119896   2.749   1.853   1.731  0.5001  0.2913  1.3574
 6630TIP3    H219897   2.670   1.726   1.705  0.2171  0.5894  0.7507
 6631TIP3   OH219898   3.640   5.021   4.892  0.0839  0.0688 -0.4283
 6631TIP3    H119899   3.693   5.062   4.961 -0.6294  0.8157 -0.3063
 6631TIP3    H219900   3.693   4.948   4.861  0.7440  0.1838  0.3936
 6632TIP3   OH219901   2.085   2.358   1.189  0.4274 -0.3192  0.1472
 6632TIP3    H119902   2.077   2.422   1.118 -0.7483 -0.2393  0.3320
 6632TIP3    H219903   2.006   2.370   1.241  0.1572 -1.9434  0.1678
 6633TIP3   OH219904   6.106   3.490   2.904  0.1341 -0.3231 -0.4708
 6633TIP3    H119905   6.095   3.412   2.958  2.5338  0.0405  0.6778
 6633TIP3    H219906   6.167   3.464   2.836  1.5762  0.6817  0.3764
 6634TIP3   OH219907   5.668   0.527   0.296 -0.3474 -0.0433  0.2652
 6634TIP3    H119908   5.588   0.479   0.318  0.1243 -0.8783  0.2151
 6634TIP3    H219909   5.657   0.549   0.203 -1.0537  0.9430  0.5604
 6635TIP3   OH219910   5.602   0.887   4.134  0.1074 -0.1112  0.2711
 6635TIP3    H119911   5.602   0.977   4.103 -0.5020  0.1844  1.0810
 6635TIP3    H219912   5.509   0.865   4.144  0.2239 -1.1179 -0.7025
 6636TIP3   OH219913   2.576   5.094   1.395  0.0625 -0.7463 -0.0278
 6636TIP3    H119914   2.531   5.046   1.464 -1.1016 -0.5011 -0.5817
 6636TIP3    H219915   2.585   5.183   1.429 -0.2489 -0.6975 -0.0682
 6637TIP3   OH219916   1.120   3.470   3.101  0.1741 -0.4773 -0.1143
 6637TIP3    H119917   1.089   3.456   3.190  0.1393 -1.3731 -0.2579
 6637TIP3    H219918   1.043   3.456   3.046 -0.3692  2.3007 -0.1812
 6638TIP3   OH219919   1.210   0.087   3.433  0.6020 -0.0692  0.0531
 6638TIP3    H119920   1.164   0.165   3.463  1.2210  0.9341 -1.4542
 6638TIP3    H219921   1.291   0.120   3.396  0.5444 -1.3308 -1.3003
 6639TIP3   OH219922   1.403   5.138   1.664 -0.2909  0.0928  0.3192
 6639TIP3    H119923   1.459   5.201   1.709  1.3181 -1.1762  0.2142
 6639TIP3    H219924   1.462   5.066   1.642 -1.3547 -0.0532 -2.4289
 6640TIP3   OH219925   5.776   4.391   0.881  0.0193  0.0924 -0.2732
 6640TIP3    H119926   5.715   4.417   0.812 -0.2351  0.3051  0.0255
 6640TIP3    H219927   5.805   4.304   0.856 -1.4402 -0.5743  0.2519
 6641TIP3   OH219928  -0.004   1.921   4.615  0.0379  0.5862 -0.0521
 6641TIP3    H119929   0.055   1.996   4.618  1.0773 -0.2301  0.6157
 6641TIP3    H219930   0.030   1.861   4.682 -1.6031  0.1215  0.4136
 6642TIP3   OH219931   2.403   2.542   1.447 -0.1098 -0.4768 -1.2002
 6642TIP3    H119932   2.319   2.531   1.403 -0.8456 -2.0119  0.4666
 6642TIP3    H219933   2.382   2.592   1.526  0.6104 -0.5716 -0.9412
 6643TIP3   OH219934   4.087   4.377   3.701  0.3901 -0.2265 -0.2744
 6643TIP3    H119935   4.065   4.299   3.752  0.7329 -0.5590 -0.6288
 6643TIP3    H219936   4.005   4.402   3.659 -0.3484  1.1216  1.8398
 6644TIP3   OH219937   3.090   2.348   1.200 -0.3224 -0.1455  0.4410
 6644TIP3    H119938   3.175   2.335   1.242  0.8486  0.1365 -1.7083
 6644TIP3    H219939   3.052   2.423   1.246  1.5085  1.0204  0.1509
 6645TIP3   OH219940   1.568   3.372   2.612  0.3499 -0.4965  0.2357
 6645TIP3    H119941   1.519   3.417   2.543  0.3493  0.0245  0.5691
 6645TIP3    H219942   1.502   3.324   2.661  0.4260 -1.3860 -0.4999
   6.35656   5.99302   5.19011   0.00000   0.00000  -2.11886   0.00000  -2.11886  -2.99651
