Generated by CHARMM-GUI FF-Converter
68209
    1GLY      N    1   7.576   5.314   4.080
    1GLY    HT1    2   7.669   5.354   4.106
    1GLY    HT2    3   7.515   5.392   4.047
    1GLY    HT3    4   7.591   5.257   3.992
    1GLY     CA    5   7.510   5.239   4.186
    1GLY    HA1    6   7.494   5.307   4.268
    1GLY    HA2    7   7.576   5.158   4.209
    1GLY      C    8   7.373   5.186   4.145
    1GLY      O    9   7.319   5.225   4.042
    2PRO      N   10   7.306   5.091   4.218
    2PRO     CD   11   7.380   5.015   4.302
    2PRO    HD1   12   7.405   5.073   4.393
    2PRO    HD2   13   7.473   4.975   4.255
    2PRO     CA   14   7.171   5.042   4.188
    2PRO     HA   15   7.168   5.011   4.085
    2PRO     CB   16   7.154   4.926   4.287
    2PRO    HB1   17   7.105   4.839   4.241
    2PRO    HB2   18   7.090   4.957   4.374
    2PRO     CG   19   7.292   4.899   4.339
    2PRO    HG1   20   7.292   4.880   4.448
    2PRO    HG2   21   7.330   4.807   4.289
    2PRO      C   22   7.064   5.148   4.210
    2PRO      O   23   7.086   5.246   4.282
    3GLY      N   24   6.949   5.130   4.124
    3GLY     HN   25   6.936   5.046   4.071
    3GLY     CA   26   6.836   5.219   4.142
    3GLY    HA1   27   6.759   5.188   4.074
    3GLY    HA2   28   6.869   5.321   4.128
    3GLY      C   29   6.772   5.208   4.279
    3GLY      O   30   6.799   5.113   4.353
    4ASP      N   31   6.696   5.304   4.309
    4ASP     HN   32   6.678   5.381   4.250
    4ASP     CA   33   6.616   5.301   4.432
    4ASP     HA   34   6.686   5.284   4.513
    4ASP     CB   35   6.547   5.436   4.454
    4ASP    HB1   36   6.473   5.431   4.536
    4ASP    HB2   37   6.493   5.466   4.361
    4ASP     CG   38   6.643   5.547   4.490
    4ASP    OD1   39   6.756   5.518   4.535
    4ASP    OD2   40   6.606   5.666   4.475
    4ASP      C   41   6.513   5.189   4.429
    4ASP      O   42   6.461   5.156   4.322
    5PRO      N   43   6.469   5.127   4.542
    5PRO     CD   44   6.532   5.151   4.665
    5PRO    HD1   45   6.504   5.254   4.696
    5PRO    HD2   46   6.643   5.141   4.658
    5PRO     CA   47   6.360   5.029   4.544
    5PRO     HA   48   6.390   4.947   4.482
    5PRO     CB   49   6.347   4.995   4.693
    5PRO    HB1   50   6.333   4.886   4.708
    5PRO    HB2   51   6.261   5.048   4.740
    5PRO     CG   52   6.474   5.046   4.755
    5PRO    HG1   53   6.458   5.083   4.859
    5PRO    HG2   54   6.547   4.961   4.760
    5PRO      C   55   6.229   5.086   4.490
    5PRO      O   56   6.207   5.207   4.494
    6GLY      N   57   6.155   4.998   4.435
    6GLY     HN   58   6.186   4.904   4.424
    6GLY     CA   59   6.023   5.036   4.387
    6GLY    HA1   60   5.977   4.949   4.343
    6GLY    HA2   61   6.036   5.117   4.317
    6GLY      C   62   5.932   5.086   4.498
    6GLY      O   63   5.963   5.071   4.616
    7SER      N   64   5.828   5.128   4.450
    7SER     HN   65   5.810   5.136   4.352
    7SER     CA   66   5.724   5.169   4.544
    7SER     HA   67   5.767   5.229   4.623
    7SER     CB   68   5.618   5.254   4.473
    7SER    HB1   69   5.535   5.283   4.542
    7SER    HB2   70   5.572   5.196   4.390
    7SER     OG   71   5.676   5.371   4.418
    7SER    HG1   72   5.693   5.431   4.491
    7SER      C   73   5.658   5.048   4.610
    7SER      O   74   5.660   4.938   4.554
    8GLY      N   75   5.613   5.070   4.736
    8GLY     HN   76   5.613   5.160   4.780
    8GLY     CA   77   5.540   4.963   4.803
    8GLY    HA1   78   5.525   4.997   4.905
    8GLY    HA2   79   5.601   4.873   4.795
    8GLY      C   80   5.404   4.936   4.743
    8GLY      O   81   5.359   5.009   4.654
    9PRO      N   82   5.346   4.847   4.784
    9PRO     CD   83   5.392   4.765   4.901
    9PRO    HD1   84   5.416   4.827   4.990
    9PRO    HD2   85   5.478   4.703   4.869
    9PRO     CA   86   5.210   4.814   4.741
    9PRO     HA   87   5.206   4.808   4.633
    9PRO     CB   88   5.184   4.678   4.808
    9PRO    HB1   89   5.214   4.598   4.739
    9PRO    HB2   90   5.077   4.664   4.836
    9PRO     CG   91   5.272   4.678   4.929
    9PRO    HG1   92   5.215   4.724   5.013
    9PRO    HG2   93   5.300   4.575   4.960
    9PRO      C   94   5.107   4.917   4.785
    9PRO      O   95   5.131   4.992   4.880
   10GLY      N   96   5.000   4.915   4.717
   10GLY     HN   97   4.985   4.849   4.644
   10GLY     CA   98   4.892   5.005   4.752
   10GLY    HA1   99   4.819   4.996   4.673
   10GLY    HA2  100   4.929   5.106   4.763
   10GLY      C  101   4.821   4.966   4.880
   10GLY      O  102   4.841   4.856   4.932
   11ASP      N  103   4.746   5.057   4.931
   11ASP     HN  104   4.734   5.146   4.889
   11ASP     CA  105   4.662   5.033   5.048
   11ASP     HA  106   4.727   4.997   5.126
   11ASP     CB  107   4.595   5.163   5.094
   11ASP    HB1  108   4.517   5.144   5.172
   11ASP    HB2  109   4.545   5.212   5.008
   11ASP     CG  110   4.693   5.261   5.155
   11ASP    OD1  111   4.801   5.219   5.202
   11ASP    OD2  112   4.661   5.383   5.156
   11ASP      C  113   4.556   4.927   5.018
   11ASP      O  114   4.508   4.916   4.905
   12PRO      N  115   4.505   4.851   5.128
   12PRO     CD  116   4.560   4.850   5.254
   12PRO    HD1  117   4.536   4.945   5.306
   12PRO    HD2  118   4.670   4.837   5.249
   12PRO     CA  119   4.394   4.758   5.105
   12PRO     HA  120   4.424   4.690   5.027
   12PRO     CB  121   4.376   4.691   5.242
   12PRO    HB1  122   4.366   4.581   5.233
   12PRO    HB2  123   4.286   4.729   5.295
   12PRO     CG  124   4.497   4.731   5.320
   12PRO    HG1  125   4.473   4.749   5.427
   12PRO    HG2  126   4.570   4.646   5.317
   12PRO      C  127   4.266   4.828   5.061
   12PRO      O  128   4.247   4.946   5.091
   13GLY      N  129   4.187   4.753   4.984
   13GLY     HN  130   4.209   4.658   4.964
   13GLY     CA  131   4.058   4.806   4.943
   13GLY    HA1  132   4.010   4.729   4.885
   13GLY    HA2  133   4.075   4.897   4.887
   13GLY      C  134   3.967   4.838   5.059
   13GLY      O  135   3.992   4.796   5.173
   14SER      N  136   3.860   4.893   5.024
   14SER     HN  137   3.842   4.925   4.931
   14SER     CA  138   3.757   4.918   5.125
   14SER     HA  139   3.804   4.954   5.214
   14SER     CB  140   3.656   5.021   5.074
   14SER    HB1  141   3.578   5.040   5.150
   14SER    HB2  142   3.606   4.983   4.982
   14SER     OG  143   3.721   5.143   5.042
   14SER    HG1  144   3.762   5.175   5.124
   14SER      C  145   3.685   4.789   5.162
   14SER      O  146   3.680   4.695   5.083
   15GLY      N  147   3.647   4.771   5.294
   15GLY     HN  148   3.666   4.841   5.363
   15GLY     CA  149   3.570   4.656   5.337
   15GLY    HA1  150   3.554   4.666   5.443
   15GLY    HA2  151   3.629   4.569   5.310
   15GLY      C  152   3.434   4.647   5.271
   15GLY      O  153   3.392   4.740   5.202
   16PRO      N  154   3.363   4.555   5.275
   16PRO     CD  155   3.408   4.443   5.362
   16PRO    HD1  156   3.435   4.475   5.465
   16PRO    HD2  157   3.492   4.388   5.315
   16PRO     CA  158   3.226   4.541   5.228
   16PRO     HA  159   3.220   4.566   5.124
   16PRO     CB  160   3.194   4.394   5.257
   16PRO    HB1  161   3.221   4.335   5.166
   16PRO    HB2  162   3.087   4.374   5.279
   16PRO     CG  163   3.286   4.356   5.369
   16PRO    HG1  164   3.233   4.376   5.465
   16PRO    HG2  165   3.312   4.248   5.365
   16PRO      C  166   3.128   4.632   5.302
   16PRO      O  167   3.156   4.676   5.413
   17GLY      N  168   3.009   4.674   5.238
   17GLY     HN  169   2.986   4.634   5.149
   17GLY     CA  170   2.903   4.753   5.298
   17GLY    HA1  171   2.830   4.773   5.221
   17GLY    HA2  172   2.948   4.842   5.340
   17GLY      C  173   2.831   4.681   5.411
   17GLY      O  174   2.845   4.560   5.425
   18ASP      N  175   2.771   4.738   5.488
   18ASP     HN  176   2.764   4.837   5.484
   18ASP     CA  177   2.688   4.684   5.595
   18ASP     HA  178   2.753   4.619   5.651
   18ASP     CB  179   2.641   4.796   5.689
   18ASP    HB1  180   2.565   4.757   5.760
   18ASP    HB2  181   2.594   4.878   5.631
   18ASP     CG  182   2.753   4.853   5.774
   18ASP    OD1  183   2.857   4.786   5.791
   18ASP    OD2  184   2.737   4.966   5.825
   18ASP      C  185   2.568   4.609   5.539
   18ASP      O  186   2.514   4.646   5.435
   19PRO      N  187   2.545   4.471   5.593
   19PRO     CD  188   2.618   4.420   5.699
   19PRO    HD1  189   2.591   4.476   5.791
   19PRO    HD2  190   2.727   4.425   5.680
   19PRO     CA  191   2.432   4.389   5.548
   19PRO     HA  192   2.442   4.371   5.442
   19PRO     CB  193   2.442   4.264   5.635
   19PRO    HB1  194   2.434   4.172   5.573
   19PRO    HB2  195   2.360   4.261   5.710
   19PRO     CG  196   2.574   4.276   5.705
   19PRO    HG1  197   2.572   4.237   5.809
   19PRO    HG2  198   2.649   4.215   5.649
   19PRO      C  199   2.298   4.459   5.569
   19PRO    OT1  200   2.298   4.574   5.620
   19PRO    OT2  201   2.193   4.397   5.534
   20SOD    SOD  202   7.531   4.225   8.367
   21SOD    SOD  203   5.602   0.435   2.113
   22SOD    SOD  204   1.051   6.769   1.908
   23SOD    SOD  205   5.839   8.556   8.632
   24SOD    SOD  206   5.537   0.445   7.234
   25SOD    SOD  207   1.468   6.991   5.048
   26SOD    SOD  208   3.017   5.105   5.393
   27SOD    SOD  209   3.198   0.572   2.820
   28SOD    SOD  210   6.130   2.945   6.159
   29SOD    SOD  211   8.195   8.045   4.334
   30SOD    SOD  212   2.794   3.436   4.280
   31SOD    SOD  213   1.925   7.055   0.671
   32SOD    SOD  214   5.267   7.392   4.238
   33SOD    SOD  215   9.051   5.111   4.799
   34SOD    SOD  216   5.556   3.938   0.162
   35SOD    SOD  217   7.282   8.003   1.619
   36SOD    SOD  218   8.126   4.232   5.060
   37SOD    SOD  219   0.049   6.878   2.468
   38SOD    SOD  220   5.685   5.738   4.733
   39SOD    SOD  221  -0.344   3.891   3.175
   40SOD    SOD  222   5.970   0.499   6.511
   41SOD    SOD  223   1.337   2.045   3.772
   42SOD    SOD  224   5.702   9.460   3.676
   43SOD    SOD  225   7.513   4.873   7.421
   44SOD    SOD  226   6.219   1.778   2.431
   45SOD    SOD  227   5.346   5.241   9.616
   46SOD    SOD  228   9.336   6.559   4.273
   47SOD    SOD  229   7.995   1.366   1.692
   48SOD    SOD  230   6.223   4.729   4.995
   49SOD    SOD  231   1.038   8.337   5.736
   50SOD    SOD  232   2.852   6.902   8.631
   51SOD    SOD  233   7.856   7.569   2.147
   52SOD    SOD  234   1.499   8.119   7.463
   53SOD    SOD  235   4.511   5.645   2.216
   54SOD    SOD  236   2.886   5.007   1.410
   55SOD    SOD  237   2.860   5.702   3.723
   56SOD    SOD  238   8.302   6.943   4.001
   57SOD    SOD  239   4.216   3.735   1.882
   58SOD    SOD  240   4.907   0.791   8.522
   59SOD    SOD  241   0.216   3.796   4.037
   60SOD    SOD  242   6.233   9.955   6.978
   61SOD    SOD  243   3.112   5.096   5.958
   62SOD    SOD  244   0.633   6.896   6.489
   63SOD    SOD  245   6.124   1.168   1.766
   64SOD    SOD  246   7.091   1.644   2.544
   65SOD    SOD  247   4.678   3.241   8.605
   66SOD    SOD  248   6.474   3.168   2.071
   67SOD    SOD  249   2.556   6.612   7.880
   68SOD    SOD  250   0.681   2.715   6.111
   69SOD    SOD  251   3.550   2.481   2.819
   70SOD    SOD  252   0.954   5.863   1.916
   71SOD    SOD  253   6.936   0.409   4.230
   72SOD    SOD  254   4.796  10.279   7.091
   73SOD    SOD  255   6.552   6.968   5.579
   74SOD    SOD  256   1.041   2.241   3.377
   75SOD    SOD  257   2.663   2.320   3.512
   76SOD    SOD  258   8.857   3.652   5.411
   77SOD    SOD  259   7.328   0.371   3.718
   78SOD    SOD  260   7.722   2.015   4.212
   79SOD    SOD  261   6.846   2.988   4.059
   80SOD    SOD  262   6.454   6.738   6.635
   81SOD    SOD  263   5.720   2.959   9.472
   82SOD    SOD  264   4.967   7.881   8.609
   83SOD    SOD  265   3.211   2.133   2.203
   84SOD    SOD  266   2.591   8.195   8.375
   85SOD    SOD  267   4.580   7.556   7.621
   86SOD    SOD  268   8.859   8.516   3.290
   87SOD    SOD  269   7.434   6.853   7.401
   88CLA    CLA  270   9.267   6.716   4.461
   89CLA    CLA  271   8.043   7.162   6.072
   90CLA    CLA  272   6.651   6.909   2.737
   91CLA    CLA  273   1.500   7.911   4.924
   92CLA    CLA  274   3.062   7.070   7.115
   93CLA    CLA  275   7.225   0.819   5.269
   94CLA    CLA  276   4.908  -0.257   2.101
   95CLA    CLA  277   2.958   2.628   2.818
   96CLA    CLA  278   2.557   5.560   0.301
   97CLA    CLA  279   1.314   2.454   5.924
   98CLA    CLA  280   8.010   1.215   2.455
   99CLA    CLA  281   2.580   7.116   0.464
  100CLA    CLA  282   2.229   0.148   6.751
  101CLA    CLA  283   9.696   3.659   6.044
  102CLA    CLA  284   2.829   4.948   8.170
  103CLA    CLA  285   0.755   2.179   3.529
  104CLA    CLA  286   1.672   8.968   7.354
  105CLA    CLA  287   4.444   3.549   2.251
  106CLA    CLA  288   6.092   1.158   2.456
  107CLA    CLA  289   6.975   7.281   5.753
  108CLA    CLA  290   3.553   7.778   9.299
  109CLA    CLA  291   1.070   5.276   5.503
  110CLA    CLA  292   5.640   8.572   8.817
  111CLA    CLA  293   2.354   3.053   0.853
  112CLA    CLA  294   5.008   1.327   1.092
  113CLA    CLA  295   6.797   9.731   6.522
  114CLA    CLA  296   8.737   4.790   5.291
  115CLA    CLA  297   3.341   1.941   1.000
  116CLA    CLA  298   4.916   7.944   6.904
  117CLA    CLA  299   3.880   0.729   4.574
  118CLA    CLA  300   1.547   6.786   5.177
  119CLA    CLA  301   3.395   6.956   8.305
  120CLA    CLA  302   0.543   2.199   6.915
  121CLA    CLA  303   2.755   2.297   6.822
  122CLA    CLA  304   2.100   5.516   5.061
  123CLA    CLA  305   4.177   6.403   3.478
  124CLA    CLA  306   5.826   6.571   5.234
  125CLA    CLA  307   0.546   5.016   2.094
  126CLA    CLA  308   9.712   6.025   6.845
  127CLA    CLA  309   9.155   4.260   1.454
  128CLA    CLA  310   0.049   6.543   2.995
  129CLA    CLA  311   6.743   6.114   1.714
  130CLA    CLA  312   0.701   7.272   1.811
  131CLA    CLA  313   7.882   6.862   3.325
  132CLA    CLA  314   2.999   1.947   3.916
  133CLA    CLA  315   1.430   7.281   7.620
  134CLA    CLA  316   8.510   5.705   6.354
  135CLA    CLA  317   9.016   8.360   3.689
  136CLA    CLA  318   6.199   8.707   3.620
  137CLA    CLA  319   2.095   4.007   7.536
  138CLA    CLA  320   7.677   6.817   7.469
  139CLA    CLA  321   2.909   5.304   2.288
  140CLA    CLA  322   6.001   0.473   2.798
  141CLA    CLA  323   7.080   7.039   1.473
  142CLA    CLA  324   2.534   6.718   6.015
  143CLA    CLA  325   5.228   7.629   4.866
  144CLA    CLA  326   9.632   5.520   7.170
  145CLA    CLA  327   3.388   2.196   2.647
  146CLA    CLA  328   9.994   5.815   4.136
  147CLA    CLA  329   7.564   0.279   3.708
  148CLA    CLA  330   6.370   4.030   8.020
  149CLA    CLA  331   7.715   7.285   1.367
  150CLA    CLA  332   3.240   0.415   3.606
  151CLA    CLA  333   1.767   6.455   0.597
  152CLA    CLA  334   8.495   1.749   3.905
  153TIP3   OH2  335   4.576   0.063   1.710
  153TIP3    H1  336   4.485   0.034   1.723
  153TIP3    H2  337   4.561   0.139   1.651
  154TIP3   OH2  338   4.657  -0.527   2.178
  154TIP3    H1  339   4.658  -0.438   2.217
  154TIP3    H2  340   4.581  -0.516   2.116
  155TIP3   OH2  341   5.005   0.332   2.040
  155TIP3    H1  342   5.004   0.234   2.044
  155TIP3    H2  343   4.920   0.350   2.085
  156TIP3   OH2  344   4.133   0.104   2.195
  156TIP3    H1  345   4.126   0.201   2.205
  156TIP3    H2  346   4.048   0.076   2.231
  157TIP3   OH2  347   4.893  -0.555   2.334
  157TIP3    H1  348   4.816  -0.527   2.281
  157TIP3    H2  349   4.922  -0.633   2.285
  158TIP3   OH2  350   4.404  -0.544   2.569
  158TIP3    H1  351   4.376  -0.637   2.570
  158TIP3    H2  352   4.501  -0.551   2.554
  159TIP3   OH2  353   4.690   0.675   2.142
  159TIP3    H1  354   4.684   0.697   2.047
  159TIP3    H2  355   4.763   0.731   2.172
  160TIP3   OH2  356   4.281  -0.141   2.214
  160TIP3    H1  357   4.230  -0.174   2.288
  160TIP3    H2  358   4.230  -0.062   2.190
  161TIP3   OH2  359   4.400   0.116   2.090
  161TIP3    H1  360   4.304   0.102   2.094
  161TIP3    H2  361   4.416   0.160   2.176
  162TIP3   OH2  362   5.012   0.052   2.082
  162TIP3    H1  363   4.939  -0.009   2.106
  162TIP3    H2  364   5.042   0.007   2.000
  163TIP3   OH2  365   4.524   0.372   1.992
  163TIP3    H1  366   4.451   0.307   1.980
  163TIP3    H2  367   4.509   0.431   1.915
  164TIP3   OH2  368   4.544   0.335   1.585
  164TIP3    H1  369   4.505   0.392   1.514
  164TIP3    H2  370   4.639   0.347   1.563
  165TIP3   OH2  371   3.365   0.366   2.507
  165TIP3    H1  372   3.437   0.375   2.573
  165TIP3    H2  373   3.301   0.312   2.557
  166TIP3   OH2  374   3.798   0.331   2.600
  166TIP3    H1  375   3.891   0.319   2.625
  166TIP3    H2  376   3.797   0.289   2.514
  167TIP3   OH2  377   4.435   0.240   2.338
  167TIP3    H1  378   4.428   0.166   2.402
  167TIP3    H2  379   4.516   0.286   2.367
  168TIP3   OH2  380   4.058  -0.143   2.544
  168TIP3    H1  381   4.032  -0.155   2.450
  168TIP3    H2  382   4.131  -0.207   2.552
  169TIP3   OH2  383   4.558  -0.151   2.127
  169TIP3    H1  384   4.604  -0.089   2.069
  169TIP3    H2  385   4.470  -0.108   2.138
  170TIP3   OH2  386   4.407  -0.215   2.537
  170TIP3    H1  387   4.492  -0.220   2.490
  170TIP3    H2  388   4.421  -0.279   2.609
  171TIP3   OH2  389   4.672  -0.529   2.586
  171TIP3    H1  390   4.721  -0.609   2.606
  171TIP3    H2  391   4.741  -0.471   2.549
  172TIP3   OH2  392   4.700  -0.275   2.320
  172TIP3    H1  393   4.637  -0.224   2.265
  172TIP3    H2  394   4.777  -0.269   2.258
  173TIP3   OH2  395   4.805   0.416   1.540
  173TIP3    H1  396   4.825   0.464   1.623
  173TIP3    H2  397   4.840   0.477   1.473
  174TIP3   OH2  398   4.844   0.464   1.814
  174TIP3    H1  399   4.789   0.381   1.813
  174TIP3    H2  400   4.911   0.432   1.876
  175TIP3   OH2  401   4.877   0.123   2.390
  175TIP3    H1  402   4.802   0.131   2.452
  175TIP3    H2  403   4.915   0.213   2.392
  176TIP3   OH2  404   4.924  -0.072   1.675
  176TIP3    H1  405   4.937  -0.119   1.591
  176TIP3    H2  406   4.853  -0.011   1.649
  177TIP3   OH2  407   4.730   0.226   1.863
  177TIP3    H1  408   4.655   0.251   1.920
  177TIP3    H2  409   4.690   0.151   1.814
  178TIP3   OH2  410   5.131  -0.404   2.309
  178TIP3    H1  411   5.038  -0.420   2.283
  178TIP3    H2  412   5.177  -0.465   2.250
  179TIP3   OH2  413   4.863  -0.567   1.985
  179TIP3    H1  414   4.825  -0.499   2.043
  179TIP3    H2  415   4.893  -0.509   1.911
  180TIP3   OH2  416   4.106   0.378   2.263
  180TIP3    H1  417   4.153   0.378   2.349
  180TIP3    H2  418   4.172   0.426   2.207
  181TIP3   OH2  419   4.287   0.523   2.119
  181TIP3    H1  420   4.357   0.473   2.074
  181TIP3    H2  421   4.339   0.581   2.177
  182TIP3   OH2  422   4.276   0.347   1.844
  182TIP3    H1  423   4.181   0.321   1.842
  182TIP3    H2  424   4.271   0.437   1.809
  183TIP3   OH2  425   4.500   0.542   1.772
  183TIP3    H1  426   4.468   0.621   1.722
  183TIP3    H2  427   4.507   0.476   1.701
  184TIP3   OH2  428   4.758   0.409   2.148
  184TIP3    H1  429   4.679   0.373   2.101
  184TIP3    H2  430   4.734   0.504   2.149
  185TIP3   OH2  431   5.494   0.121   1.666
  185TIP3    H1  432   5.462   0.210   1.642
  185TIP3    H2  433   5.422   0.094   1.727
  186TIP3   OH2  434   5.705   0.243   1.808
  186TIP3    H1  435   5.641   0.303   1.850
  186TIP3    H2  436   5.644   0.183   1.761
  187TIP3   OH2  437   5.430  -0.155   1.878
  187TIP3    H1  438   5.439  -0.101   1.958
  187TIP3    H2  439   5.371  -0.226   1.908
  188TIP3   OH2  440   5.494   0.406   1.911
  188TIP3    H1  441   5.474   0.414   1.814
  188TIP3    H2  442   5.407   0.376   1.944
  189TIP3   OH2  443   5.113  -0.066   1.859
  189TIP3    H1  444   5.037  -0.073   1.795
  189TIP3    H2  445   5.120  -0.159   1.890
  190TIP3   OH2  446   4.942   0.172   1.498
  190TIP3    H1  447   5.027   0.202   1.536
  190TIP3    H2  448   4.883   0.243   1.527
  191TIP3   OH2  449   5.908   0.380   1.652
  191TIP3    H1  450   5.894   0.468   1.694
  191TIP3    H2  451   5.852   0.323   1.707
  192TIP3   OH2  452   5.287   0.136   1.844
  192TIP3    H1  453   5.342   0.109   1.920
  192TIP3    H2  454   5.220   0.063   1.845
  193TIP3   OH2  455   6.482   0.941   1.638
  193TIP3    H1  456   6.480   0.955   1.542
  193TIP3    H2  457   6.565   0.985   1.663
  194TIP3   OH2  458   5.447   0.059   2.062
  194TIP3    H1  459   5.525   0.073   2.119
  194TIP3    H2  460   5.377   0.044   2.130
  195TIP3   OH2  461   5.188  -0.301   1.989
  195TIP3    H1  462   5.233  -0.285   2.073
  195TIP3    H2  463   5.094  -0.299   2.021
  196TIP3   OH2  464   6.188   0.406   1.623
  196TIP3    H1  465   6.091   0.413   1.624
  196TIP3    H2  466   6.210   0.460   1.705
  197TIP3   OH2  467   5.670   0.503   1.520
  197TIP3    H1  468   5.700   0.553   1.442
  197TIP3    H2  469   5.749   0.450   1.538
  198TIP3   OH2  470   6.318   0.683   1.519
  198TIP3    H1  471   6.291   0.595   1.486
  198TIP3    H2  472   6.326   0.731   1.435
  199TIP3   OH2  473   5.146   0.306   1.626
  199TIP3    H1  474   5.176   0.238   1.688
  199TIP3    H2  475   5.151   0.386   1.681
  200TIP3   OH2  476   5.109   0.609   2.041
  200TIP3    H1  477   5.180   0.580   2.099
  200TIP3    H2  478   5.063   0.524   2.027
  201TIP3   OH2  479   6.239   0.513   1.861
  201TIP3    H1  480   6.235   0.435   1.922
  201TIP3    H2  481   6.323   0.556   1.888
  202TIP3   OH2  482   5.240   0.029   2.241
  202TIP3    H1  483   5.255  -0.068   2.245
  202TIP3    H2  484   5.153   0.033   2.197
  203TIP3   OH2  485   5.848   0.109   2.015
  203TIP3    H1  486   5.818   0.130   1.924
  203TIP3    H2  487   5.910   0.036   1.999
  204TIP3   OH2  488   5.368  -0.228   2.213
  204TIP3    H1  489   5.428  -0.302   2.197
  204TIP3    H2  490   5.385  -0.210   2.307
  205TIP3   OH2  491   6.205   0.047   2.014
  205TIP3    H1  492   6.281   0.072   1.959
  205TIP3    H2  493   6.243   0.030   2.103
  206TIP3   OH2  494   5.646  -0.437   2.232
  206TIP3    H1  495   5.576  -0.502   2.256
  206TIP3    H2  496   5.644  -0.447   2.135
  207TIP3   OH2  497   4.872   0.304   1.249
  207TIP3    H1  498   4.869   0.223   1.302
  207TIP3    H2  499   4.929   0.360   1.305
  208TIP3   OH2  500   6.685   0.374   1.969
  208TIP3    H1  501   6.591   0.384   1.996
  208TIP3    H2  502   6.719   0.465   1.970
  209TIP3   OH2  503   5.284   0.363   2.092
  209TIP3    H1  504   5.200   0.335   2.050
  209TIP3    H2  505   5.272   0.323   2.180
  210TIP3   OH2  506   5.451   0.394   1.635
  210TIP3    H1  507   5.390   0.451   1.586
  210TIP3    H2  508   5.535   0.427   1.595
  211TIP3   OH2  509   5.903   0.639   1.748
  211TIP3    H1  510   5.943   0.635   1.838
  211TIP3    H2  511   5.971   0.687   1.698
  212TIP3   OH2  512   6.084   0.790   1.609
  212TIP3    H1  513   6.162   0.741   1.575
  212TIP3    H2  514   6.129   0.848   1.673
  213TIP3   OH2  515   5.139   0.642   1.639
  213TIP3    H1  516   5.054   0.676   1.602
  213TIP3    H2  517   5.130   0.675   1.729
  214TIP3   OH2  518   5.371   0.624   1.485
  214TIP3    H1  519   5.287   0.638   1.535
  214TIP3    H2  520   5.347   0.662   1.398
  215TIP3   OH2  521   5.779   0.653   1.311
  215TIP3    H1  522   5.705   0.669   1.248
  215TIP3    H2  523   5.795   0.743   1.343
  216TIP3   OH2  524   6.034   0.648   1.222
  216TIP3    H1  525   5.942   0.633   1.256
  216TIP3    H2  526   6.078   0.672   1.305
  217TIP3   OH2  527   6.281   0.799   1.265
  217TIP3    H1  528   6.241   0.883   1.236
  217TIP3    H2  529   6.221   0.734   1.220
  218TIP3   OH2  530   5.054   0.457   1.393
  218TIP3    H1  531   5.086   0.424   1.479
  218TIP3    H2  532   5.117   0.411   1.332
  219TIP3   OH2  533   5.232   0.335   1.239
  219TIP3    H1  534   5.245   0.242   1.212
  219TIP3    H2  535   5.322   0.371   1.233
  220TIP3   OH2  536   5.491   0.436   1.265
  220TIP3    H1  537   5.504   0.348   1.304
  220TIP3    H2  538   5.502   0.493   1.342
  221TIP3   OH2  539   6.567   0.672   1.657
  221TIP3    H1  540   6.498   0.633   1.601
  221TIP3    H2  541   6.542   0.766   1.649
  222TIP3   OH2  542   6.899   0.882   1.567
  222TIP3    H1  543   6.989   0.884   1.608
  222TIP3    H2  544   6.881   0.788   1.579
  223TIP3   OH2  545   2.620   1.582   2.163
  223TIP3    H1  546   2.572   1.505   2.127
  223TIP3    H2  547   2.613   1.645   2.088
  224TIP3   OH2  548   2.841   1.873   2.186
  224TIP3    H1  549   2.837   1.778   2.205
  224TIP3    H2  550   2.762   1.905   2.235
  225TIP3   OH2  551   2.531   2.231   2.292
  225TIP3    H1  552   2.530   2.257   2.197
  225TIP3    H2  553   2.582   2.303   2.333
  226TIP3   OH2  554   2.867   1.591   2.258
  226TIP3    H1  555   2.770   1.595   2.241
  226TIP3    H2  556   2.899   1.568   2.167
  227TIP3   OH2  557   2.359   1.927   2.161
  227TIP3    H1  558   2.272   1.885   2.146
  227TIP3    H2  559   2.362   1.996   2.091
  228TIP3   OH2  560   1.647   1.873   2.734
  228TIP3    H1  561   1.735   1.875   2.775
  228TIP3    H2  562   1.670   1.833   2.649
  229TIP3   OH2  563   2.275   1.806   2.488
  229TIP3    H1  564   2.277   1.733   2.553
  229TIP3    H2  565   2.359   1.853   2.506
  230TIP3   OH2  566   2.306   1.396   2.772
  230TIP3    H1  567   2.378   1.362   2.716
  230TIP3    H2  568   2.268   1.316   2.808
  231TIP3   OH2  569   2.556   1.051   2.787
  231TIP3    H1  570   2.519   0.980   2.732
  231TIP3    H2  571   2.584   1.117   2.723
  232TIP3   OH2  572   2.538   1.302   2.468
  232TIP3    H1  573   2.474   1.350   2.413
  232TIP3    H2  574   2.623   1.331   2.428
  233TIP3   OH2  575   2.668   1.983   1.673
  233TIP3    H1  576   2.701   2.002   1.762
  233TIP3    H2  577   2.745   2.002   1.617
  234TIP3   OH2  578   2.678   2.013   1.969
  234TIP3    H1  579   2.625   1.931   1.958
  234TIP3    H2  580   2.751   1.977   2.022
  235TIP3   OH2  581   2.716   1.686   2.539
  235TIP3    H1  582   2.643   1.696   2.603
  235TIP3    H2  583   2.757   1.775   2.540
  236TIP3   OH2  584   2.535   1.778   1.992
  236TIP3    H1  585   2.466   1.803   2.057
  236TIP3    H2  586   2.486   1.725   1.928
  237TIP3   OH2  587   2.782   1.357   2.368
  237TIP3    H1  588   2.859   1.296   2.381
  237TIP3    H2  589   2.822   1.435   2.324
  238TIP3   OH2  590   2.929   1.143   2.439
  238TIP3    H1  591   2.880   1.075   2.390
  238TIP3    H2  592   3.019   1.104   2.432
  239TIP3   OH2  593   1.951   1.964   2.414
  239TIP3    H1  594   2.003   1.952   2.496
  239TIP3    H2  595   2.021   1.994   2.352
  240TIP3   OH2  596   2.140   2.089   2.261
  240TIP3    H1  597   2.215   2.030   2.243
  240TIP3    H2  598   2.182   2.151   2.324
  241TIP3   OH2  599   2.348   2.092   1.945
  241TIP3    H1  600   2.276   2.158   1.933
  241TIP3    H2  601   2.383   2.093   1.852
  242TIP3   OH2  602   2.603   1.966   2.300
  242TIP3    H1  603   2.522   1.931   2.256
  242TIP3    H2  604   2.582   2.061   2.299
  243TIP3   OH2  605   3.905   1.376   1.104
  243TIP3    H1  606   3.873   1.465   1.082
  243TIP3    H2  607   3.827   1.323   1.081
  244TIP3   OH2  608   3.842   1.370   1.468
  244TIP3    H1  609   3.871   1.324   1.549
  244TIP3    H2  610   3.849   1.297   1.404
  245TIP3   OH2  611   3.164   1.224   1.795
  245TIP3    H1  612   3.181   1.180   1.881
  245TIP3    H2  613   3.248   1.267   1.776
  246TIP3   OH2  614   4.108   1.634   1.122
  246TIP3    H1  615   4.089   1.567   1.189
  246TIP3    H2  616   4.127   1.712   1.177
  247TIP3   OH2  617   3.164   1.629   1.593
  247TIP3    H1  618   3.108   1.581   1.530
  247TIP3    H2  619   3.247   1.640   1.542
  248TIP3   OH2  620   3.759   2.104   1.144
  248TIP3    H1  621   3.813   2.037   1.096
  248TIP3    H2  622   3.740   2.059   1.227
  249TIP3   OH2  623   3.655   1.569   1.495
  249TIP3    H1  624   3.698   1.486   1.466
  249TIP3    H2  625   3.737   1.618   1.514
  250TIP3   OH2  626   4.676   0.881   1.489
  250TIP3    H1  627   4.702   0.966   1.531
  250TIP3    H2  628   4.696   0.900   1.395
  251TIP3   OH2  629   4.083   1.061   1.535
  251TIP3    H1  630   4.125   0.980   1.570
  251TIP3    H2  631   4.054   1.030   1.450
  252TIP3   OH2  632   4.749   1.091   1.658
  252TIP3    H1  633   4.665   1.138   1.637
  252TIP3    H2  634   4.753   1.107   1.753
  253TIP3   OH2  635   3.772   1.607   0.982
  253TIP3    H1  636   3.803   1.582   0.894
  253TIP3    H2  637   3.728   1.694   0.962
  254TIP3   OH2  638   3.525   1.478   1.731
  254TIP3    H1  639   3.456   1.539   1.766
  254TIP3    H2  640   3.556   1.526   1.652
  255TIP3   OH2  641   4.327   0.838   1.274
  255TIP3    H1  642   4.324   0.762   1.333
  255TIP3    H2  643   4.385   0.901   1.321
  256TIP3   OH2  644   3.350   1.671   1.825
  256TIP3    H1  645   3.315   1.729   1.756
  256TIP3    H2  646   3.270   1.661   1.879
  257TIP3   OH2  647   4.179   1.880   1.297
  257TIP3    H1  648   4.089   1.871   1.335
  257TIP3    H2  649   4.168   1.963   1.247
  258TIP3   OH2  650   4.464   0.793   1.659
  258TIP3    H1  651   4.374   0.809   1.625
  258TIP3    H2  652   4.520   0.813   1.582
  259TIP3   OH2  653   3.906   1.937   0.994
  259TIP3    H1  654   3.941   1.853   0.958
  259TIP3    H2  655   3.949   2.000   0.932
  260TIP3   OH2  656   4.029   1.726   0.872
  260TIP3    H1  657   4.039   1.649   0.813
  260TIP3    H2  658   4.060   1.687   0.957
  261TIP3   OH2  659   4.404   1.796   1.636
  261TIP3    H1  660   4.392   1.717   1.579
  261TIP3    H2  661   4.385   1.869   1.574
  262TIP3   OH2  662   4.597   1.429   1.482
  262TIP3    H1  663   4.515   1.484   1.486
  262TIP3    H2  664   4.628   1.451   1.391
  263TIP3   OH2  665   4.047   1.294   0.888
  263TIP3    H1  666   4.031   1.325   0.979
  263TIP3    H2  667   4.133   1.247   0.896
  264TIP3   OH2  668   4.278   1.312   1.774
  264TIP3    H1  669   4.272   1.397   1.820
  264TIP3    H2  670   4.190   1.310   1.730
  265TIP3   OH2  671   3.395   1.664   1.437
  265TIP3    H1  672   3.384   1.638   1.345
  265TIP3    H2  673   3.489   1.642   1.454
  266TIP3   OH2  674   3.404   1.246   1.641
  266TIP3    H1  675   3.447   1.219   1.560
  266TIP3    H2  676   3.455   1.326   1.667
  267TIP3   OH2  677   3.937   1.879   1.414
  267TIP3    H1  678   3.920   1.957   1.470
  267TIP3    H2  679   3.923   1.804   1.475
  268TIP3   OH2  680   3.548   1.800   1.961
  268TIP3    H1  681   3.487   1.860   2.007
  268TIP3    H2  682   3.484   1.745   1.909
  269TIP3   OH2  683   3.307   1.368   2.060
  269TIP3    H1  684   3.302   1.455   2.105
  269TIP3    H2  685   3.214   1.342   2.054
  270TIP3   OH2  686   3.632   1.836   0.934
  270TIP3    H1  687   3.670   1.900   0.995
  270TIP3    H2  688   3.537   1.855   0.944
  271TIP3   OH2  689   3.310   1.979   2.040
  271TIP3    H1  690   3.305   1.970   1.942
  271TIP3    H2  691   3.255   1.903   2.069
  272TIP3   OH2  692   4.215   1.743   0.272
  272TIP3    H1  693   4.213   1.838   0.293
  272TIP3    H2  694   4.301   1.713   0.304
  273TIP3   OH2  695   2.952   1.525   2.015
  273TIP3    H1  696   2.879   1.524   1.949
  273TIP3    H2  697   2.974   1.429   2.015
  274TIP3   OH2  698   4.640   2.139   1.680
  274TIP3    H1  699   4.639   2.042   1.691
  274TIP3    H2  700   4.556   2.162   1.726
  275TIP3   OH2  701   3.747   1.927   1.817
  275TIP3    H1  702   3.746   2.019   1.849
  275TIP3    H2  703   3.674   1.888   1.870
  276TIP3   OH2  704   3.504   2.081   0.720
  276TIP3    H1  705   3.437   2.014   0.744
  276TIP3    H2  706   3.481   2.153   0.781
  277TIP3   OH2  707   3.767   2.013   0.691
  277TIP3    H1  708   3.671   2.027   0.700
  277TIP3    H2  709   3.781   1.942   0.756
  278TIP3   OH2  710   4.529   1.271   1.955
  278TIP3    H1  711   4.449   1.286   1.902
  278TIP3    H2  712   4.543   1.175   1.942
  279TIP3   OH2  713   3.145   1.711   2.004
  279TIP3    H1  714   3.195   1.669   2.077
  279TIP3    H2  715   3.068   1.650   1.999
  280TIP3   OH2  716   4.060   0.635   1.974
  280TIP3    H1  717   4.129   0.586   2.022
  280TIP3    H2  718   3.979   0.586   1.995
  281TIP3   OH2  719   4.304   1.049   1.882
  281TIP3    H1  720   4.252   1.044   1.965
  281TIP3    H2  721   4.274   1.133   1.843
  282TIP3   OH2  722   3.463   1.019   1.820
  282TIP3    H1  723   3.377   1.033   1.856
  282TIP3    H2  724   3.464   1.081   1.742
  283TIP3   OH2  725   4.009   1.273   2.120
  283TIP3    H1  726   3.984   1.197   2.177
  283TIP3    H2  727   4.104   1.278   2.138
  284TIP3   OH2  728   3.248   1.079   2.026
  284TIP3    H1  729   3.322   1.117   2.075
  284TIP3    H2  730   3.219   1.005   2.082
  285TIP3   OH2  731   4.008   1.268   1.688
  285TIP3    H1  732   4.034   1.194   1.628
  285TIP3    H2  733   3.976   1.216   1.765
  286TIP3   OH2  734   4.168   0.804   1.567
  286TIP3    H1  735   4.120   0.805   1.654
  286TIP3    H2  736   4.110   0.752   1.510
  287TIP3   OH2  737   4.327   2.489   1.780
  287TIP3    H1  738   4.325   2.510   1.685
  287TIP3    H2  739   4.405   2.540   1.809
  288TIP3   OH2  740   3.290   1.604   2.209
  288TIP3    H1  741   3.371   1.629   2.257
  288TIP3    H2  742   3.226   1.600   2.284
  289TIP3   OH2  743   3.899   1.151   1.322
  289TIP3    H1  744   3.976   1.179   1.266
  289TIP3    H2  745   3.879   1.063   1.287
  290TIP3   OH2  746   3.741   0.932   1.809
  290TIP3    H1  747   3.656   0.980   1.792
  290TIP3    H2  748   3.805   1.005   1.817
  291TIP3   OH2  749   4.366   1.578   1.474
  291TIP3    H1  750   4.390   1.626   1.392
  291TIP3    H2  751   4.281   1.536   1.450
  292TIP3   OH2  752   3.885   1.673   1.838
  292TIP3    H1  753   3.870   1.621   1.918
  292TIP3    H2  754   3.829   1.752   1.851
  293TIP3   OH2  755   3.032   1.287   2.160
  293TIP3    H1  756   3.087   1.293   2.240
  293TIP3    H2  757   3.018   1.190   2.153
  294TIP3   OH2  758   3.762   1.394   2.162
  294TIP3    H1  759   3.705   1.353   2.094
  294TIP3    H2  760   3.850   1.366   2.129
  295TIP3   OH2  761   4.030   1.930   1.730
  295TIP3    H1  762   3.935   1.913   1.742
  295TIP3    H2  763   4.051   1.976   1.814
  296TIP3   OH2  764   4.654   1.850   1.724
  296TIP3    H1  765   4.556   1.843   1.716
  296TIP3    H2  766   4.680   1.816   1.635
  297TIP3   OH2  767   4.143   1.802   0.542
  297TIP3    H1  768   4.117   1.743   0.614
  297TIP3    H2  769   4.130   1.746   0.464
  298TIP3   OH2  770   4.133   1.438   1.395
  298TIP3    H1  771   4.040   1.420   1.413
  298TIP3    H2  772   4.161   1.355   1.352
  299TIP3   OH2  773   3.528   2.007   1.617
  299TIP3    H1  774   3.561   2.080   1.561
  299TIP3    H2  775   3.609   1.976   1.660
  300TIP3   OH2  776   3.919   1.652   1.570
  300TIP3    H1  777   3.913   1.650   1.668
  300TIP3    H2  778   3.990   1.588   1.554
  301TIP3   OH2  779   4.165   2.182   1.624
  301TIP3    H1  780   4.089   2.121   1.618
  301TIP3    H2  781   4.147   2.243   1.550
  302TIP3   OH2  782   4.230   2.023   0.260
  302TIP3    H1  783   4.281   2.104   0.240
  302TIP3    H2  784   4.150   2.064   0.300
  303TIP3   OH2  785   4.064   1.509   0.718
  303TIP3    H1  786   4.075   1.425   0.766
  303TIP3    H2  787   4.137   1.501   0.653
  304TIP3   OH2  788   2.962   1.870   1.784
  304TIP3    H1  789   3.026   1.799   1.764
  304TIP3    H2  790   3.012   1.925   1.846
  305TIP3   OH2  791   4.082   0.859   1.823
  305TIP3    H1  792   4.167   0.890   1.858
  305TIP3    H2  793   4.064   0.780   1.878
  306TIP3   OH2  794   3.933   1.115   1.897
  306TIP3    H1  795   3.950   1.167   1.978
  306TIP3    H2  796   3.983   1.033   1.914
  307TIP3   OH2  797   4.569   1.002   1.872
  307TIP3    H1  798   4.471   1.003   1.884
  307TIP3    H2  799   4.572   0.955   1.787
  308TIP3   OH2  800   4.207   1.177   1.267
  308TIP3    H1  801   4.182   1.084   1.258
  308TIP3    H2  802   4.292   1.165   1.315
  309TIP3   OH2  803   4.184   2.155   1.218
  309TIP3    H1  804   4.139   2.199   1.143
  309TIP3    H2  805   4.277   2.171   1.193
  310TIP3   OH2  806   3.433   2.152   2.218
  310TIP3    H1  807   3.522   2.142   2.255
  310TIP3    H2  808   3.439   2.092   2.141
  311TIP3   OH2  809   4.072   2.055   1.974
  311TIP3    H1  810   4.065   1.982   2.039
  311TIP3    H2  811   4.153   2.101   2.003
  312TIP3   OH2  812   3.095   1.584   2.401
  312TIP3    H1  813   3.108   1.488   2.402
  312TIP3    H2  814   3.007   1.592   2.358
  313TIP3   OH2  815   3.698   1.669   2.165
  313TIP3    H1  816   3.655   1.681   2.078
  313TIP3    H2  817   3.729   1.576   2.162
  314TIP3   OH2  818   4.191   1.675   1.775
  314TIP3    H1  819   4.257   1.728   1.727
  314TIP3    H2  820   4.111   1.730   1.765
  315TIP3   OH2  821   3.199   1.309   2.379
  315TIP3    H1  822   3.279   1.259   2.356
  315TIP3    H2  823   3.227   1.348   2.465
  316TIP3   OH2  824   3.532   1.211   2.047
  316TIP3    H1  825   3.460   1.279   2.049
  316TIP3    H2  826   3.559   1.215   1.954
  317TIP3   OH2  827   4.060   1.611   2.177
  317TIP3    H1  828   4.132   1.584   2.118
  317TIP3    H2  829   4.056   1.537   2.240
  318TIP3   OH2  830   3.663   0.992   2.163
  318TIP3    H1  831   3.653   0.910   2.111
  318TIP3    H2  832   3.621   1.059   2.105
  319TIP3   OH2  833   3.637   0.754   1.976
  319TIP3    H1  834   3.690   0.815   1.918
  319TIP3    H2  835   3.570   0.728   1.912
  320TIP3   OH2  836   3.735   1.376   1.875
  320TIP3    H1  837   3.798   1.350   1.808
  320TIP3    H2  838   3.663   1.415   1.821
  321TIP3   OH2  839   4.280   1.285   2.230
  321TIP3    H1  840   4.324   1.199   2.230
  321TIP3    H2  841   4.347   1.341   2.189
  322TIP3   OH2  842   4.319   1.537   1.966
  322TIP3    H1  843   4.261   1.588   1.905
  322TIP3    H2  844   4.406   1.555   1.923
  323TIP3   OH2  845   3.541   1.111   2.392
  323TIP3    H1  846   3.475   1.039   2.402
  323TIP3    H2  847   3.578   1.090   2.304
  324TIP3   OH2  848   3.797   0.542   2.040
  324TIP3    H1  849   3.749   0.625   2.019
  324TIP3    H2  850   3.756   0.480   1.977
  325TIP3   OH2  851   3.924   1.050   2.253
  325TIP3    H1  852   3.911   1.039   2.349
  325TIP3    H2  853   3.834   1.025   2.222
  326TIP3   OH2  854   4.167   1.005   2.111
  326TIP3    H1  855   4.088   0.999   2.168
  326TIP3    H2  856   4.237   0.966   2.167
  327TIP3   OH2  857   4.401   0.940   2.262
  327TIP3    H1  858   4.408   0.843   2.279
  327TIP3    H2  859   4.392   0.978   2.352
  328TIP3   OH2  860   3.384   0.892   2.439
  328TIP3    H1  861   3.383   0.798   2.409
  328TIP3    H2  862   3.418   0.880   2.529
  329TIP3   OH2  863   3.887   0.548   2.301
  329TIP3    H1  864   3.962   0.486   2.290
  329TIP3    H2  865   3.852   0.548   2.209
  330TIP3   OH2  866   3.957   0.768   2.454
  330TIP3    H1  867   3.935   0.698   2.389
  330TIP3    H2  868   3.881   0.829   2.446
  331TIP3   OH2  869   4.438   2.242   1.168
  331TIP3    H1  870   4.463   2.277   1.255
  331TIP3    H2  871   4.496   2.292   1.109
  332TIP3   OH2  872   4.468   2.265   1.451
  332TIP3    H1  873   4.421   2.180   1.445
  332TIP3    H2  874   4.541   2.238   1.510
  333TIP3   OH2  875   4.514   1.941   2.026
  333TIP3    H1  876   4.439   1.948   2.088
  333TIP3    H2  877   4.552   2.030   2.030
  334TIP3   OH2  878   4.338   1.480   0.656
  334TIP3    H1  879   4.421   1.525   0.636
  334TIP3    H2  880   4.369   1.409   0.716
  335TIP3   OH2  881   4.466   1.318   0.845
  335TIP3    H1  882   4.393   1.274   0.895
  335TIP3    H2  883   4.520   1.357   0.915
  336TIP3   OH2  884   4.511   1.712   1.283
  336TIP3    H1  885   4.562   1.647   1.230
  336TIP3    H2  886   4.498   1.784   1.219
  337TIP3   OH2  887   4.343   2.015   1.477
  337TIP3    H1  888   4.270   2.054   1.528
  337TIP3    H2  889   4.294   1.966   1.407
  338TIP3   OH2  890   4.283   1.173   0.999
  338TIP3    H1  891   4.256   1.081   0.989
  338TIP3    H2  892   4.264   1.190   1.093
  339TIP3   OH2  893   4.560   1.602   1.853
  339TIP3    H1  894   4.633   1.536   1.843
  339TIP3    H2  895   4.583   1.668   1.787
  340TIP3   OH2  896   4.747   1.410   1.878
  340TIP3    H1  897   4.670   1.359   1.912
  340TIP3    H2  898   4.818   1.343   1.889
  341TIP3   OH2  899   4.435   1.083   1.385
  341TIP3    H1  900   4.522   1.107   1.346
  341TIP3    H2  901   4.449   1.112   1.477
  342TIP3   OH2  902   4.499   1.213   1.621
  342TIP3    H1  903   4.419   1.246   1.667
  342TIP3    H2  904   4.530   1.293   1.575
  343TIP3   OH2  905   3.123   0.953   2.444
  343TIP3    H1  906   3.218   0.938   2.428
  343TIP3    H2  907   3.087   0.865   2.428
  344TIP3   OH2  908   4.955   0.807   2.173
  344TIP3    H1  909   5.003   0.735   2.127
  344TIP3    H2  910   4.921   0.860   2.098
  345TIP3   OH2  911   4.820   0.943   1.982
  345TIP3    H1  912   4.733   0.982   2.000
  345TIP3    H2  913   4.792   0.872   1.921
  346TIP3   OH2  914   4.030   2.113   0.831
  346TIP3    H1  915   4.070   2.090   0.745
  346TIP3    H2  916   4.088   2.181   0.864
  347TIP3   OH2  917   3.107   1.935   2.240
  347TIP3    H1  918   3.020   1.903   2.206
  347TIP3    H2  919   3.117   1.879   2.319
  348TIP3   OH2  920   3.300   1.954   1.769
  348TIP3    H1  921   3.251   2.023   1.720
  348TIP3    H2  922   3.385   1.960   1.720
  349TIP3   OH2  923   3.744   2.194   1.903
  349TIP3    H1  924   3.791   2.194   1.989
  349TIP3    H2  925   3.810   2.241   1.847
  350TIP3   OH2  926   3.922   2.341   1.758
  350TIP3    H1  927   3.990   2.290   1.711
  350TIP3    H2  928   3.977   2.397   1.816
  351TIP3   OH2  929   4.719   0.709   1.858
  351TIP3    H1  930   4.627   0.700   1.826
  351TIP3    H2  931   4.750   0.616   1.845
  352TIP3   OH2  932   2.980   2.211   1.786
  352TIP3    H1  933   2.893   2.233   1.747
  352TIP3    H2  934   2.968   2.247   1.874
  353TIP3   OH2  935   3.217   2.185   1.644
  353TIP3    H1  936   3.128   2.198   1.685
  353TIP3    H2  937   3.199   2.211   1.551
  354TIP3   OH2  938   3.641   2.210   1.445
  354TIP3    H1  939   3.569   2.223   1.379
  354TIP3    H2  940   3.651   2.301   1.478
  355TIP3   OH2  941   3.907   2.155   1.494
  355TIP3    H1  942   3.812   2.165   1.473
  355TIP3    H2  943   3.946   2.226   1.441
  356TIP3   OH2  944   4.123   2.348   1.408
  356TIP3    H1  945   4.102   2.429   1.358
  356TIP3    H2  946   4.142   2.284   1.335
  357TIP3   OH2  947   2.911   2.008   1.549
  357TIP3    H1  948   2.921   1.966   1.637
  357TIP3    H2  949   2.987   1.964   1.504
  358TIP3   OH2  950   3.099   1.870   1.422
  358TIP3    H1  951   3.114   1.776   1.404
  358TIP3    H2  952   3.183   1.909   1.392
  359TIP3   OH2  953   3.352   1.980   1.385
  359TIP3    H1  954   3.386   1.906   1.332
  359TIP3    H2  955   3.401   1.971   1.469
  360TIP3   OH2  956   4.462   0.515   1.403
  360TIP3    H1  957   4.500   0.550   1.320
  360TIP3    H2  958   4.373   0.487   1.375
  361TIP3   OH2  959   4.575   0.599   1.178
  361TIP3    H1  960   4.580   0.540   1.100
  361TIP3    H2  961   4.611   0.684   1.145
  362TIP3   OH2  962   4.171   2.071   0.591
  362TIP3    H1  963   4.160   1.974   0.579
  362TIP3    H2  964   4.117   2.105   0.517
  363TIP3   OH2  965   3.392   0.624   2.422
  363TIP3    H1  966   3.368   0.531   2.439
  363TIP3    H2  967   3.489   0.621   2.440
  364TIP3   OH2  968   3.649   0.611   2.510
  364TIP3    H1  969   3.729   0.584   2.461
  364TIP3    H2  970   3.640   0.537   2.574
  365TIP3   OH2  971   4.452   0.668   2.292
  365TIP3    H1  972   4.472   0.635   2.382
  365TIP3    H2  973   4.539   0.661   2.247
  366TIP3   OH2  974   4.394   2.221   1.785
  366TIP3    H1  975   4.316   2.187   1.736
  366TIP3    H2  976   4.372   2.316   1.785
  367TIP3   OH2  977   5.638   1.604   0.569
  367TIP3    H1  978   5.612   1.692   0.536
  367TIP3    H2  979   5.568   1.549   0.530
  368TIP3   OH2  980   5.666   1.594   0.926
  368TIP3    H1  981   5.679   1.551   1.011
  368TIP3    H2  982   5.615   1.527   0.879
  369TIP3   OH2  983   4.953   1.521   1.337
  369TIP3    H1  984   4.984   1.430   1.355
  369TIP3    H2  985   5.014   1.545   1.265
  370TIP3   OH2  986   5.904   1.888   0.609
  370TIP3    H1  987   5.880   1.822   0.675
  370TIP3    H2  988   5.926   1.965   0.664
  371TIP3   OH2  989   4.930   1.898   1.024
  371TIP3    H1  990   4.920   1.800   1.029
  371TIP3    H2  991   5.026   1.905   1.018
  372TIP3   OH2  992   4.631   1.095   0.804
  372TIP3    H1  993   4.591   1.184   0.807
  372TIP3    H2  994   4.556   1.041   0.830
  373TIP3   OH2  995   4.716   1.380   0.979
  373TIP3    H1  996   4.797   1.334   1.011
  373TIP3    H2  997   4.750   1.416   0.897
  374TIP3   OH2  998   5.551   2.359   0.627
  374TIP3    H1  999   5.599   2.287   0.580
  374TIP3    H2 1000   5.537   2.319   0.714
  375TIP3   OH2 1001   5.453   1.821   0.977
  375TIP3    H1 1002   5.480   1.742   0.927
  375TIP3    H2 1003   5.541   1.857   0.999
  376TIP3   OH2 1004   6.428   1.165   1.017
  376TIP3    H1 1005   6.492   1.222   1.064
  376TIP3    H2 1006   6.398   1.225   0.946
  377TIP3   OH2 1007   5.880   1.321   1.013
  377TIP3    H1 1008   5.911   1.229   1.024
  377TIP3    H2 1009   5.835   1.314   0.926
  378TIP3   OH2 1010   5.204   0.976   0.976
  378TIP3    H1 1011   5.180   1.056   0.923
  378TIP3    H2 1012   5.147   0.910   0.930
  379TIP3   OH2 1013   5.287   1.386   0.845
  379TIP3    H1 1014   5.367   1.357   0.892
  379TIP3    H2 1015   5.235   1.303   0.838
  380TIP3   OH2 1016   6.553   1.366   1.152
  380TIP3    H1 1017   6.467   1.410   1.140
  380TIP3    H2 1018   6.566   1.375   1.248
  381TIP3   OH2 1019   5.210   0.959   1.423
  381TIP3    H1 1020   5.158   0.998   1.349
  381TIP3    H2 1021   5.151   0.982   1.498
  382TIP3   OH2 1022   5.565   1.822   0.411
  382TIP3    H1 1023   5.515   1.789   0.334
  382TIP3    H2 1024   5.508   1.898   0.437
  383TIP3   OH2 1025   5.324   1.744   1.228
  383TIP3    H1 1026   5.246   1.798   1.253
  383TIP3    H2 1027   5.344   1.777   1.138
  384TIP3   OH2 1028   5.083   1.057   1.209
  384TIP3    H1 1029   5.057   1.148   1.181
  384TIP3    H2 1030   5.129   1.029   1.127
  385TIP3   OH2 1031   5.135   1.931   1.306
  385TIP3    H1 1032   5.108   2.014   1.264
  385TIP3    H2 1033   5.057   1.914   1.362
  386TIP3   OH2 1034   4.554   1.622   0.557
  386TIP3    H1 1035   4.501   1.628   0.475
  386TIP3    H2 1036   4.562   1.714   0.586
  387TIP3   OH2 1037   5.977   2.137   0.782
  387TIP3    H1 1038   5.887   2.127   0.822
  387TIP3    H2 1039   5.965   2.222   0.735
  388TIP3   OH2 1040   6.228   1.041   1.158
  388TIP3    H1 1041   6.146   1.058   1.108
  388TIP3    H2 1042   6.296   1.075   1.096
  389TIP3   OH2 1043   5.573   0.714   1.144
  389TIP3    H1 1044   5.546   0.626   1.109
  389TIP3    H2 1045   5.487   0.744   1.181
  390TIP3   OH2 1046   5.681   2.184   0.462
  390TIP3    H1 1047   5.729   2.103   0.436
  390TIP3    H2 1048   5.737   2.252   0.416
  391TIP3   OH2 1049   5.827   1.966   0.354
  391TIP3    H1 1050   5.753   1.907   0.331
  391TIP3    H2 1051   5.852   1.934   0.443
  392TIP3   OH2 1052   6.202   2.052   1.122
  392TIP3    H1 1053   6.186   1.973   1.065
  392TIP3    H2 1054   6.180   2.125   1.061
  393TIP3   OH2 1055   5.490   1.457   0.373
  393TIP3    H1 1056   5.407   1.505   0.352
  393TIP3    H2 1057   5.530   1.449   0.284
  394TIP3   OH2 1058   6.390   1.681   0.963
  394TIP3    H1 1059   6.308   1.735   0.973
  394TIP3    H2 1060   6.419   1.712   0.874
  395TIP3   OH2 1061   5.828   1.515   0.402
  395TIP3    H1 1062   5.755   1.554   0.456
  395TIP3    H2 1063   5.905   1.544   0.452
  396TIP3   OH2 1064   6.077   1.565   1.260
  396TIP3    H1 1065   6.068   1.651   1.304
  396TIP3    H2 1066   5.988   1.560   1.218
  397TIP3   OH2 1067   5.070   1.532   0.760
  397TIP3    H1 1068   5.033   1.465   0.700
  397TIP3    H2 1069   5.145   1.481   0.799
  398TIP3   OH2 1070   5.200   1.942   0.915
  398TIP3    H1 1071   5.175   1.889   0.837
  398TIP3    H2 1072   5.288   1.905   0.935
  399TIP3   OH2 1073   5.736   2.134   0.901
  399TIP3    H1 1074   5.716   2.211   0.955
  399TIP3    H2 1075   5.719   2.059   0.961
  400TIP3   OH2 1076   5.342   2.053   1.448
  400TIP3    H1 1077   5.280   2.114   1.491
  400TIP3    H2 1078   5.279   1.997   1.397
  401TIP3   OH2 1079   5.107   1.605   1.564
  401TIP3    H1 1080   5.097   1.694   1.604
  401TIP3    H2 1081   5.018   1.591   1.527
  402TIP3   OH2 1082   5.422   2.064   0.455
  402TIP3    H1 1083   5.492   2.127   0.479
  402TIP3    H2 1084   5.357   2.120   0.411
  403TIP3   OH2 1085   5.138   2.225   1.534
  403TIP3    H1 1086   5.104   2.219   1.443
  403TIP3    H2 1087   5.059   2.200   1.587
  404TIP3   OH2 1088   4.943   1.360   0.562
  404TIP3    H1 1089   4.879   1.419   0.516
  404TIP3    H2 1090   4.886   1.290   0.595
  405TIP3   OH2 1091   4.718   1.754   1.479
  405TIP3    H1 1092   4.653   1.729   1.410
  405TIP3    H2 1093   4.756   1.666   1.504
  406TIP3   OH2 1094   4.570   1.944   1.113
  406TIP3    H1 1095   4.666   1.937   1.104
  406TIP3    H2 1096   4.559   2.024   1.166
  407TIP3   OH2 1097   6.436   2.395   1.169
  407TIP3    H1 1098   6.433   2.298   1.179
  407TIP3    H2 1099   6.352   2.419   1.213
  408TIP3   OH2 1100   5.542   2.180   1.304
  408TIP3    H1 1101   5.540   2.273   1.336
  408TIP3    H2 1102   5.469   2.142   1.357
  409TIP3   OH2 1103   5.298   2.311   0.253
  409TIP3    H1 1104   5.253   2.289   0.170
  409TIP3    H2 1105   5.267   2.401   0.272
  410TIP3   OH2 1106   4.740   2.161   0.638
  410TIP3    H1 1107   4.786   2.151   0.724
  410TIP3    H2 1108   4.683   2.082   0.638
  411TIP3   OH2 1109   5.486   2.228  -0.076
  411TIP3    H1 1110   5.558   2.177  -0.120
  411TIP3    H2 1111   5.524   2.233   0.014
  412TIP3   OH2 1112   5.555   2.265   0.184
  412TIP3    H1 1113   5.463   2.269   0.218
  412TIP3    H2 1114   5.597   2.205   0.248
  413TIP3   OH2 1115   6.327   1.527   1.444
  413TIP3    H1 1116   6.247   1.547   1.393
  413TIP3    H2 1117   6.341   1.433   1.422
  414TIP3   OH2 1118   4.920   1.937   1.473
  414TIP3    H1 1119   4.971   1.915   1.554
  414TIP3    H2 1120   4.848   1.871   1.476
  415TIP3   OH2 1121   5.320   0.762   1.250
  415TIP3    H1 1122   5.230   0.729   1.226
  415TIP3    H2 1123   5.293   0.844   1.294
  416TIP3   OH2 1124   5.855   0.879   1.452
  416TIP3    H1 1125   5.916   0.840   1.516
  416TIP3    H2 1126   5.767   0.858   1.490
  417TIP3   OH2 1127   6.085   1.313   1.391
  417TIP3    H1 1128   6.012   1.349   1.442
  417TIP3    H2 1129   6.084   1.375   1.315
  418TIP3   OH2 1130   5.273   1.303   1.275
  418TIP3    H1 1131   5.206   1.293   1.346
  418TIP3    H2 1132   5.213   1.320   1.199
  419TIP3   OH2 1133   5.145   1.158   0.785
  419TIP3    H1 1134   5.050   1.140   0.805
  419TIP3    H2 1135   5.152   1.118   0.696
  420TIP3   OH2 1136   5.585   1.271   0.550
  420TIP3    H1 1137   5.529   1.340   0.509
  420TIP3    H2 1138   5.631   1.239   0.471
  421TIP3   OH2 1139   5.810   1.518   1.595
  421TIP3    H1 1140   5.779   1.452   1.661
  421TIP3    H2 1141   5.899   1.538   1.627
  422TIP3   OH2 1142   5.796   1.274   0.742
  422TIP3    H1 1143   5.719   1.309   0.693
  422TIP3    H2 1144   5.807   1.189   0.693
  423TIP3   OH2 1145   5.080   1.298   1.479
  423TIP3    H1 1146   5.085   1.367   1.546
  423TIP3    H2 1147   5.060   1.218   1.532
  424TIP3   OH2 1148   4.673   0.822   1.063
  424TIP3    H1 1149   4.742   0.860   1.123
  424TIP3    H2 1150   4.714   0.828   0.977
  425TIP3   OH2 1151   5.815   1.523   1.180
  425TIP3    H1 1152   5.835   1.450   1.118
  425TIP3    H2 1153   5.769   1.475   1.251
  426TIP3   OH2 1154   5.455   1.000   0.853
  426TIP3    H1 1155   5.367   0.991   0.894
  426TIP3    H2 1156   5.513   0.982   0.928
  427TIP3   OH2 1157   4.905   1.039   0.833
  427TIP3    H1 1158   4.808   1.051   0.828
  427TIP3    H2 1159   4.918   0.943   0.827
  428TIP3   OH2 1160   5.178   1.037   0.540
  428TIP3    H1 1161   5.276   1.029   0.540
  428TIP3    H2 1162   5.159   1.068   0.451
  429TIP3   OH2 1163   5.948   1.052   1.056
  429TIP3    H1 1164   5.904   1.069   1.142
  429TIP3    H2 1165   5.883   0.990   1.016
  430TIP3   OH2 1166   6.125   2.745   1.266
  430TIP3    H1 1167   6.119   2.766   1.171
  430TIP3    H2 1168   6.201   2.798   1.294
  431TIP3   OH2 1169   5.081   1.860   1.690
  431TIP3    H1 1170   5.160   1.890   1.739
  431TIP3    H2 1171   5.016   1.854   1.763
  432TIP3   OH2 1172   5.565   1.317   0.959
  432TIP3    H1 1173   5.591   1.251   0.894
  432TIP3    H2 1174   5.557   1.264   1.041
  433TIP3   OH2 1175   5.067   0.792   0.821
  433TIP3    H1 1176   5.049   0.704   0.859
  433TIP3    H2 1177   5.125   0.772   0.746
  434TIP3   OH2 1178   5.523   1.203   1.234
  434TIP3    H1 1179   5.433   1.243   1.243
  434TIP3    H2 1180   5.579   1.269   1.280
  435TIP3   OH2 1181   5.258   1.601   0.332
  435TIP3    H1 1182   5.192   1.529   0.326
  435TIP3    H2 1183   5.242   1.633   0.424
  436TIP3   OH2 1184   6.162   1.831   0.962
  436TIP3    H1 1185   6.183   1.880   0.880
  436TIP3    H2 1186   6.075   1.791   0.940
  437TIP3   OH2 1187   5.682   1.928   1.327
  437TIP3    H1 1188   5.662   1.880   1.408
  437TIP3    H2 1189   5.620   2.003   1.331
  438TIP3   OH2 1190   4.963   1.622   1.006
  438TIP3    H1 1191   4.996   1.602   0.916
  438TIP3    H2 1192   4.974   1.532   1.045
  439TIP3   OH2 1193   5.422   1.757   0.184
  439TIP3    H1 1194   5.369   1.839   0.174
  439TIP3    H2 1195   5.356   1.695   0.221
  440TIP3   OH2 1196   4.822   1.545   1.624
  440TIP3    H1 1197   4.848   1.523   1.716
  440TIP3    H2 1198   4.760   1.473   1.602
  441TIP3   OH2 1199   5.556   1.649   1.640
  441TIP3    H1 1200   5.488   1.597   1.593
  441TIP3    H2 1201   5.637   1.617   1.596
  442TIP3   OH2 1202   5.825   2.186   1.216
  442TIP3    H1 1203   5.731   2.168   1.229
  442TIP3    H2 1204   5.847   2.231   1.300
  443TIP3   OH2 1205   6.451   2.105   1.212
  443TIP3    H1 1206   6.353   2.099   1.203
  443TIP3    H2 1207   6.476   2.074   1.122
  444TIP3   OH2 1208   5.938   2.057   0.039
  444TIP3    H1 1209   5.916   2.023   0.124
  444TIP3    H2 1210   5.869   2.010  -0.016
  445TIP3   OH2 1211   5.926   1.697   0.884
  445TIP3    H1 1212   5.833   1.671   0.897
  445TIP3    H2 1213   5.959   1.617   0.839
  446TIP3   OH2 1214   5.051   1.923   0.631
  446TIP3    H1 1215   5.050   2.003   0.577
  446TIP3    H2 1216   4.957   1.903   0.637
  447TIP3   OH2 1217   4.667   1.260   0.417
  447TIP3    H1 1218   4.705   1.352   0.412
  447TIP3    H2 1219   4.579   1.272   0.380
  448TIP3   OH2 1220   5.202   1.695   0.579
  448TIP3    H1 1221   5.158   1.781   0.598
  448TIP3    H2 1222   5.163   1.638   0.648
  449TIP3   OH2 1223   5.321   2.268   1.102
  449TIP3    H1 1224   5.362   2.339   1.048
  449TIP3    H2 1225   5.399   2.232   1.147
  450TIP3   OH2 1226   4.973   2.161   0.483
  450TIP3    H1 1227   4.887   2.167   0.529
  450TIP3    H2 1228   5.003   2.254   0.485
  451TIP3   OH2 1229   5.717   1.902   1.057
  451TIP3    H1 1230   5.709   1.901   1.155
  451TIP3    H2 1231   5.788   1.838   1.042
  452TIP3   OH2 1232   5.761   1.863  -0.018
  452TIP3    H1 1233   5.784   1.792   0.048
  452TIP3    H2 1234   5.678   1.826  -0.052
  453TIP3   OH2 1235   5.962   2.437   1.110
  453TIP3    H1 1236   5.885   2.377   1.106
  453TIP3    H2 1237   5.943   2.499   1.036
  454TIP3   OH2 1238   6.004   2.262  -0.188
  454TIP3    H1 1239   6.070   2.324  -0.244
  454TIP3    H2 1240   5.918   2.340  -0.185
  455TIP3   OH2 1241   5.044   1.047   1.633
  455TIP3    H1 1242   4.946   1.052   1.639
  455TIP3    H2 1243   5.064   0.979   1.699
  456TIP3   OH2 1244   5.863   1.694   0.192
  456TIP3    H1 1245   5.809   1.740   0.258
  456TIP3    H2 1246   5.952   1.733   0.205
  457TIP3   OH2 1247   4.764   2.133   1.259
  457TIP3    H1 1248   4.808   2.050   1.284
  457TIP3    H2 1249   4.794   2.192   1.329
  458TIP3   OH2 1250   5.027   1.774  -0.064
  458TIP3    H1 1251   5.107   1.718  -0.077
  458TIP3    H2 1252   5.017   1.771   0.033
  459TIP3   OH2 1253   4.999   1.778   0.214
  459TIP3    H1 1254   5.071   1.748   0.272
  459TIP3    H2 1255   5.007   1.876   0.221
  460TIP3   OH2 1256   4.761   1.515   0.424
  460TIP3    H1 1257   4.694   1.551   0.486
  460TIP3    H2 1258   4.759   1.582   0.354
  461TIP3   OH2 1259   5.876   1.117   1.319
  461TIP3    H1 1260   5.970   1.132   1.337
  461TIP3    H2 1261   5.859   1.030   1.362
  462TIP3   OH2 1262   5.265   1.979   0.169
  462TIP3    H1 1263   5.177   2.011   0.196
  462TIP3    H2 1264   5.274   2.020   0.081
  463TIP3   OH2 1265   5.451   1.028   0.575
  463TIP3    H1 1266   5.504   1.109   0.572
  463TIP3    H2 1267   5.455   1.008   0.671
  464TIP3   OH2 1268   5.718   1.360   1.374
  464TIP3    H1 1269   5.728   1.410   1.457
  464TIP3    H2 1270   5.761   1.274   1.392
  465TIP3   OH2 1271   5.004   2.052   0.228
  465TIP3    H1 1272   4.975   2.122   0.167
  465TIP3    H2 1273   4.989   2.094   0.315
  466TIP3   OH2 1274   6.357   1.267   1.356
  466TIP3    H1 1275   6.260   1.260   1.363
  466TIP3    H2 1276   6.374   1.211   1.279
  467TIP3   OH2 1277   6.012   1.461   0.755
  467TIP3    H1 1278   5.934   1.401   0.752
  467TIP3    H2 1279   6.076   1.405   0.803
  468TIP3   OH2 1280   4.727   1.699   0.221
  468TIP3    H1 1281   4.803   1.760   0.231
  468TIP3    H2 1282   4.764   1.640   0.152
  469TIP3   OH2 1283   5.980   2.409   0.703
  469TIP3    H1 1284   5.936   2.455   0.628
  469TIP3    H2 1285   6.074   2.427   0.680
  470TIP3   OH2 1286   5.057   0.680   1.228
  470TIP3    H1 1287   5.025   0.642   1.143
  470TIP3    H2 1288   5.046   0.604   1.289
  471TIP3   OH2 1289   4.600   1.908   0.613
  471TIP3    H1 1290   4.521   1.931   0.664
  471TIP3    H2 1291   4.575   1.940   0.524
  472TIP3   OH2 1292   4.750   2.434   1.679
  472TIP3    H1 1293   4.836   2.430   1.725
  472TIP3    H2 1294   4.725   2.340   1.677
  473TIP3   OH2 1295   5.239   2.404   1.724
  473TIP3    H1 1296   5.332   2.378   1.727
  473TIP3    H2 1297   5.207   2.348   1.650
  474TIP3   OH2 1298   5.215   1.978  -0.119
  474TIP3    H1 1299   5.142   1.913  -0.109
  474TIP3    H2 1300   5.281   1.927  -0.168
  475TIP3   OH2 1301   5.872   2.311   1.459
  475TIP3    H1 1302   5.863   2.239   1.525
  475TIP3    H2 1303   5.950   2.360   1.491
  476TIP3   OH2 1304   5.706   2.102  -0.159
  476TIP3    H1 1305   5.707   2.007  -0.174
  476TIP3    H2 1306   5.738   2.136  -0.243
  477TIP3   OH2 1307   4.882   1.843   1.882
  477TIP3    H1 1308   4.900   1.746   1.881
  477TIP3    H2 1309   4.795   1.846   1.837
  478TIP3   OH2 1310   4.859   1.494   0.068
  478TIP3    H1 1311   4.922   1.466   0.136
  478TIP3    H2 1312   4.916   1.534   0.001
  479TIP3   OH2 1313   5.492   1.926   1.652
  479TIP3    H1 1314   5.445   1.941   1.568
  479TIP3    H2 1315   5.519   1.832   1.645
  480TIP3   OH2 1316   5.262   1.655  -0.092
  480TIP3    H1 1317   5.335   1.706  -0.052
  480TIP3    H2 1318   5.312   1.576  -0.125
  481TIP3   OH2 1319   5.989   1.931   1.265
  481TIP3    H1 1320   6.051   1.987   1.215
  481TIP3    H2 1321   5.906   1.981   1.254
  482TIP3   OH2 1322   4.998   1.581   1.865
  482TIP3    H1 1323   5.068   1.520   1.839
  482TIP3    H2 1324   5.027   1.609   1.954
  483TIP3   OH2 1325   5.081   1.400   0.313
  483TIP3    H1 1326   5.042   1.364   0.394
  483TIP3    H2 1327   5.067   1.328   0.247
  484TIP3   OH2 1328   5.345   1.471   1.537
  484TIP3    H1 1329   5.260   1.521   1.542
  484TIP3    H2 1330   5.368   1.482   1.443
  485TIP3   OH2 1331   5.857   1.869   1.665
  485TIP3    H1 1332   5.925   1.839   1.603
  485TIP3    H2 1333   5.851   1.795   1.728
  486TIP3   OH2 1334   5.467   1.251   1.647
  486TIP3    H1 1335   5.458   1.171   1.591
  486TIP3    H2 1336   5.420   1.318   1.595
  487TIP3   OH2 1337   5.465   1.038   1.456
  487TIP3    H1 1338   5.484   1.082   1.371
  487TIP3    H2 1339   5.370   1.013   1.444
  488TIP3   OH2 1340   5.514   1.589   1.338
  488TIP3    H1 1341   5.565   1.574   1.258
  488TIP3    H2 1342   5.441   1.645   1.302
  489TIP3   OH2 1343   6.073   1.542   1.700
  489TIP3    H1 1344   6.131   1.492   1.761
  489TIP3    H2 1345   6.134   1.602   1.656
  490TIP3   OH2 1346   6.116   1.792   1.454
  490TIP3    H1 1347   6.056   1.843   1.394
  490TIP3    H2 1348   6.202   1.812   1.410
  491TIP3   OH2 1349   5.345   1.362   1.882
  491TIP3    H1 1350   5.271   1.299   1.893
  491TIP3    H2 1351   5.371   1.344   1.790
  492TIP3   OH2 1352   5.597   0.808   1.526
  492TIP3    H1 1353   5.545   0.887   1.500
  492TIP3    H2 1354   5.532   0.736   1.512
  493TIP3   OH2 1355   5.718   1.315   1.747
  493TIP3    H1 1356   5.696   1.296   1.840
  493TIP3    H2 1357   5.633   1.288   1.706
  494TIP3   OH2 1358   5.179   1.147   1.930
  494TIP3    H1 1359   5.179   1.057   1.893
  494TIP3    H2 1360   5.209   1.130   2.021
  495TIP3   OH2 1361   5.684   0.808   1.786
  495TIP3    H1 1362   5.753   0.739   1.777
  495TIP3    H2 1363   5.645   0.805   1.696
  496TIP3   OH2 1364   5.761   1.032   1.929
  496TIP3    H1 1365   5.732   0.957   1.873
  496TIP3    H2 1366   5.681   1.089   1.930
  497TIP3   OH2 1367   4.965   2.255   0.046
  497TIP3    H1 1368   5.060   2.254   0.019
  497TIP3    H2 1369   4.923   2.288  -0.034
  498TIP3   OH2 1370   4.472   1.605   0.288
  498TIP3    H1 1371   4.555   1.650   0.263
  498TIP3    H2 1372   4.430   1.600   0.200
  499TIP3   OH2 1373   4.370   2.248   0.667
  499TIP3    H1 1374   4.300   2.186   0.634
  499TIP3    H2 1375   4.413   2.193   0.736
  500TIP3   OH2 1376   4.504   2.106   0.857
  500TIP3    H1 1377   4.490   2.028   0.913
  500TIP3    H2 1378   4.553   2.163   0.919
  501TIP3   OH2 1379   6.233   2.497   0.657
  501TIP3    H1 1380   6.259   2.534   0.743
  501TIP3    H2 1381   6.291   2.545   0.595
  502TIP3   OH2 1382   6.264   2.522   0.939
  502TIP3    H1 1383   6.217   2.436   0.932
  502TIP3    H2 1384   6.338   2.496   0.996
  503TIP3   OH2 1385   6.312   2.196   1.513
  503TIP3    H1 1386   6.235   2.204   1.573
  503TIP3    H2 1387   6.349   2.287   1.517
  504TIP3   OH2 1388   6.309   1.969   0.772
  504TIP3    H1 1389   6.356   1.908   0.713
  504TIP3    H2 1390   6.294   2.045   0.714
  505TIP3   OH2 1391   6.139   2.271   0.965
  505TIP3    H1 1392   6.067   2.312   1.015
  505TIP3    H2 1393   6.089   2.222   0.895
  506TIP3   OH2 1394   6.217   1.429   0.556
  506TIP3    H1 1395   6.165   1.390   0.482
  506TIP3    H2 1396   6.144   1.455   0.616
  507TIP3   OH2 1397   4.694   1.504   1.229
  507TIP3    H1 1398   4.699   1.471   1.137
  507TIP3    H2 1399   4.789   1.514   1.251
  508TIP3   OH2 1400   6.356   1.858   1.341
  508TIP3    H1 1401   6.430   1.794   1.330
  508TIP3    H2 1402   6.378   1.926   1.275
  509TIP3   OH2 1403   6.543   1.667   1.363
  509TIP3    H1 1404   6.467   1.615   1.400
  509TIP3    H2 1405   6.615   1.602   1.377
  510TIP3   OH2 1406   6.227   1.332   0.878
  510TIP3    H1 1407   6.302   1.371   0.830
  510TIP3    H2 1408   6.237   1.370   0.967
  511TIP3   OH2 1409   6.294   1.471   1.110
  511TIP3    H1 1410   6.213   1.506   1.154
  511TIP3    H2 1411   6.325   1.551   1.061
  512TIP3   OH2 1412   4.911   1.197   1.910
  512TIP3    H1 1413   5.008   1.187   1.904
  512TIP3    H2 1414   4.885   1.110   1.947
  513TIP3   OH2 1415   6.732   1.070   1.669
  513TIP3    H1 1416   6.796   1.002   1.638
  513TIP3    H2 1417   6.716   1.122   1.587
  514TIP3   OH2 1418   4.872   0.891   1.237
  514TIP3    H1 1419   4.933   0.815   1.246
  514TIP3    H2 1420   4.939   0.963   1.230
  515TIP3   OH2 1421   4.683   1.162   1.302
  515TIP3    H1 1422   4.736   1.133   1.227
  515TIP3    H2 1423   4.718   1.251   1.318
  516TIP3   OH2 1424   6.616   1.208   1.464
  516TIP3    H1 1425   6.523   1.233   1.480
  516TIP3    H2 1426   6.601   1.133   1.404
  517TIP3   OH2 1427   5.823   2.365   0.322
  517TIP3    H1 1428   5.865   2.347   0.235
  517TIP3    H2 1429   5.877   2.437   0.356
  518TIP3   OH2 1430   4.879   0.746   1.625
  518TIP3    H1 1431   4.826   0.738   1.706
  518TIP3    H2 1432   4.813   0.784   1.564
  519TIP3   OH2 1433   4.918   2.173   1.704
  519TIP3    H1 1434   4.830   2.141   1.680
  519TIP3    H2 1435   4.922   2.148   1.798
  520TIP3   OH2 1436   5.095   2.204   1.252
  520TIP3    H1 1437   5.044   2.276   1.211
  520TIP3    H2 1438   5.180   2.217   1.205
  521TIP3   OH2 1439   5.543   2.447   1.387
  521TIP3    H1 1440   5.585   2.450   1.475
  521TIP3    H2 1441   5.608   2.497   1.333
  522TIP3   OH2 1442   5.720   2.599   1.243
  522TIP3    H1 1443   5.788   2.546   1.200
  522TIP3    H2 1444   5.773   2.655   1.303
  523TIP3   OH2 1445   6.494   0.979   1.365
  523TIP3    H1 1446   6.419   0.954   1.308
  523TIP3    H2 1447   6.562   0.913   1.340
  524TIP3   OH2 1448   4.776   2.466   1.268
  524TIP3    H1 1449   4.686   2.498   1.244
  524TIP3    H2 1450   4.775   2.484   1.363
  525TIP3   OH2 1451   5.011   2.442   1.128
  525TIP3    H1 1452   4.925   2.454   1.174
  525TIP3    H2 1453   4.988   2.471   1.038
  526TIP3   OH2 1454   5.437   2.469   0.925
  526TIP3    H1 1455   5.366   2.486   0.860
  526TIP3    H2 1456   5.447   2.557   0.967
  527TIP3   OH2 1457   5.703   2.412   0.979
  527TIP3    H1 1458   5.608   2.423   0.959
  527TIP3    H2 1459   5.741   2.487   0.932
  528TIP3   OH2 1460   5.919   2.604   0.894
  528TIP3    H1 1461   5.899   2.686   0.845
  528TIP3    H2 1462   5.938   2.541   0.821
  529TIP3   OH2 1463   4.686   2.257   1.018
  529TIP3    H1 1464   4.712   2.229   1.108
  529TIP3    H2 1465   4.756   2.211   0.966
  530TIP3   OH2 1466   4.877   2.125   0.873
  530TIP3    H1 1467   4.892   2.040   0.920
  530TIP3    H2 1468   4.968   2.160   0.866
  531TIP3   OH2 1469   5.146   2.222   0.871
  531TIP3    H1 1470   5.173   2.130   0.858
  531TIP3    H2 1471   5.185   2.239   0.959
  532TIP3   OH2 1472   5.745   0.874   0.978
  532TIP3    H1 1473   5.682   0.827   1.035
  532TIP3    H2 1474   5.748   0.816   0.900
  533TIP3   OH2 1475   4.980   0.566   0.984
  533TIP3    H1 1476   4.889   0.535   0.970
  533TIP3    H2 1477   5.029   0.483   0.975
  534TIP3   OH2 1478   4.473   2.020   0.404
  534TIP3    H1 1479   4.388   1.986   0.373
  534TIP3    H2 1480   4.456   2.115   0.401
  535TIP3   OH2 1481   5.227   2.228  -0.017
  535TIP3    H1 1482   5.320   2.246  -0.045
  535TIP3    H2 1483   5.215   2.144  -0.066
  536TIP3   OH2 1484   5.961   2.334   0.085
  536TIP3    H1 1485   5.966   2.233   0.065
  536TIP3    H2 1486   5.903   2.358   0.018
  537TIP3   OH2 1487   5.173   0.870   1.872
  537TIP3    H1 1488   5.139   0.798   1.927
  537TIP3    H2 1489   5.267   0.870   1.896
  538TIP3   OH2 1490   5.427   0.865   1.986
  538TIP3    H1 1491   5.507   0.854   1.932
  538TIP3    H2 1492   5.439   0.800   2.056
  539TIP3   OH2 1493   4.565   2.076   0.062
  539TIP3    H1 1494   4.532   2.093   0.150
  539TIP3    H2 1495   4.636   2.013   0.077
  540TIP3   OH2 1496   6.238   0.963   1.777
  540TIP3    H1 1497   6.254   0.917   1.862
  540TIP3    H2 1498   6.323   0.939   1.731
  541TIP3   OH2 1499   6.190   2.477   1.272
  541TIP3    H1 1500   6.112   2.443   1.223
  541TIP3    H2 1501   6.169   2.572   1.272
  542TIP3   OH2 1502   6.753   1.760   0.798
  542TIP3    H1 1503   6.779   1.682   0.852
  542TIP3    H2 1504   6.830   1.817   0.812
  543TIP3   OH2 1505   6.723   2.176   0.516
  543TIP3    H1 1506   6.711   2.081   0.540
  543TIP3    H2 1507   6.819   2.177   0.502
  544TIP3   OH2 1508   7.371   2.574   0.123
  544TIP3    H1 1509   7.367   2.477   0.116
  544TIP3    H2 1510   7.341   2.585   0.214
  545TIP3   OH2 1511   7.103   1.997   0.708
  545TIP3    H1 1512   7.029   2.054   0.737
  545TIP3    H2 1513   7.148   2.055   0.645
  546TIP3   OH2 1514   6.929   2.188   0.790
  546TIP3    H1 1515   6.904   2.274   0.751
  546TIP3    H2 1516   6.850   2.174   0.848
  547TIP3   OH2 1517   7.939   2.309   0.619
  547TIP3    H1 1518   7.878   2.266   0.557
  547TIP3    H2 1519   7.929   2.402   0.592
  548TIP3   OH2 1520   6.991   2.190   0.408
  548TIP3    H1 1521   6.973   2.145   0.324
  548TIP3    H2 1522   7.088   2.184   0.412
  549TIP3   OH2 1523   7.461   2.401   0.370
  549TIP3    H1 1524   7.498   2.485   0.404
  549TIP3    H2 1525   7.497   2.338   0.436
  550TIP3   OH2 1526   7.136   2.307   0.935
  550TIP3    H1 1527   7.078   2.371   0.980
  550TIP3    H2 1528   7.070   2.255   0.885
  551TIP3   OH2 1529   6.895   1.867   1.037
  551TIP3    H1 1530   6.898   1.953   1.084
  551TIP3    H2 1531   6.799   1.848   1.042
  552TIP3   OH2 1532   6.934   2.480   1.020
  552TIP3    H1 1533   6.900   2.476   0.929
  552TIP3    H2 1534   6.854   2.457   1.073
  553TIP3   OH2 1535   6.514   2.010   0.966
  553TIP3    H1 1536   6.445   1.988   0.900
  553TIP3    H2 1537   6.547   1.921   0.993
  554TIP3   OH2 1538   6.369   2.198   0.605
  554TIP3    H1 1539   6.464   2.203   0.591
  554TIP3    H2 1540   6.350   2.281   0.652
  555TIP3   OH2 1541   8.233   2.662   0.655
  555TIP3    H1 1542   8.234   2.564   0.666
  555TIP3    H2 1543   8.148   2.683   0.699
  556TIP3   OH2 1544   7.337   2.435   0.795
  556TIP3    H1 1545   7.340   2.529   0.823
  556TIP3    H2 1546   7.264   2.400   0.850
  557TIP3   OH2 1547   6.529   2.426   0.131
  557TIP3    H1 1548   6.574   2.411   0.217
  557TIP3    H2 1549   6.474   2.345   0.127
  558TIP3   OH2 1550   6.718   2.192   0.959
  558TIP3    H1 1551   6.768   2.173   1.042
  558TIP3    H2 1552   6.644   2.128   0.964
  559TIP3   OH2 1553   7.602   1.802   1.102
  559TIP3    H1 1554   7.577   1.719   1.148
  559TIP3    H2 1555   7.699   1.799   1.112
  560TIP3   OH2 1556   6.842   1.555   0.973
  560TIP3    H1 1557   6.893   1.618   1.027
  560TIP3    H2 1558   6.846   1.475   1.029
  561TIP3   OH2 1559   7.922   3.001   0.756
  561TIP3    H1 1560   7.919   3.024   0.661
  561TIP3    H2 1561   7.998   3.054   0.787
  562TIP3   OH2 1562   6.879   2.113   1.178
  562TIP3    H1 1563   6.958   2.144   1.226
  562TIP3    H2 1564   6.814   2.113   1.251
  563TIP3   OH2 1565   7.457   2.177   0.819
  563TIP3    H1 1566   7.465   2.147   0.910
  563TIP3    H2 1567   7.408   2.261   0.828
  564TIP3   OH2 1568   6.740   1.910   0.563
  564TIP3    H1 1569   6.768   1.858   0.487
  564TIP3    H2 1570   6.742   1.845   0.636
  565TIP3   OH2 1571   6.625   1.799   1.107
  565TIP3    H1 1572   6.650   1.783   1.200
  565TIP3    H2 1573   6.561   1.726   1.092
  566TIP3   OH2 1574   7.352   1.909   1.127
  566TIP3    H1 1575   7.306   1.871   1.050
  566TIP3    H2 1576   7.444   1.877   1.108
  567TIP3   OH2 1577   7.639   2.487   0.707
  567TIP3    H1 1578   7.554   2.442   0.697
  567TIP3    H2 1579   7.639   2.516   0.800
  568TIP3   OH2 1580   8.244   2.386   0.698
  568TIP3    H1 1581   8.158   2.365   0.736
  568TIP3    H2 1582   8.243   2.331   0.616
  569TIP3   OH2 1583   6.789   2.213   0.132
  569TIP3    H1 1584   6.786   2.289   0.070
  569TIP3    H2 1585   6.696   2.187   0.135
  570TIP3   OH2 1586   7.119   2.521   0.587
  570TIP3    H1 1587   7.159   2.593   0.535
  570TIP3    H2 1588   7.197   2.487   0.635
  571TIP3   OH2 1589   6.735   2.420  -0.046
  571TIP3    H1 1590   6.655   2.432   0.010
  571TIP3    H2 1591   6.779   2.507  -0.038
  572TIP3   OH2 1592   7.561   2.238   0.574
  572TIP3    H1 1593   7.507   2.207   0.651
  572TIP3    H2 1594   7.631   2.170   0.572
  573TIP3   OH2 1595   7.768   2.701   0.594
  573TIP3    H1 1596   7.699   2.631   0.606
  573TIP3    H2 1597   7.731   2.756   0.521
  574TIP3   OH2 1598   6.849   1.319   1.125
  574TIP3    H1 1599   6.752   1.320   1.127
  574TIP3    H2 1600   6.865   1.234   1.169
  575TIP3   OH2 1601   6.559   2.390   0.747
  575TIP3    H1 1602   6.606   2.310   0.774
  575TIP3    H2 1603   6.589   2.453   0.813
  576TIP3   OH2 1604   7.784   2.685   0.191
  576TIP3    H1 1605   7.738   2.735   0.121
  576TIP3    H2 1606   7.877   2.705   0.168
  577TIP3   OH2 1607   6.415   2.177   0.117
  577TIP3    H1 1608   6.326   2.166   0.153
  577TIP3    H2 1609   6.392   2.192   0.023
  578TIP3   OH2 1610   6.545   2.692   1.170
  578TIP3    H1 1611   6.633   2.688   1.214
  578TIP3    H2 1612   6.523   2.597   1.165
  579TIP3   OH2 1613   7.031   2.661   1.212
  579TIP3    H1 1614   7.126   2.642   1.219
  579TIP3    H2 1615   7.006   2.603   1.137
  580TIP3   OH2 1616   7.663   2.576   0.962
  580TIP3    H1 1617   7.659   2.500   1.025
  580TIP3    H2 1618   7.746   2.621   0.988
  581TIP3   OH2 1619   6.678   2.100   1.369
  581TIP3    H1 1620   6.696   2.004   1.369
  581TIP3    H2 1621   6.591   2.103   1.324
  582TIP3   OH2 1622   7.288   2.184   1.140
  582TIP3    H1 1623   7.243   2.197   1.054
  582TIP3    H2 1624   7.317   2.090   1.135
  583TIP3   OH2 1625   7.764   2.199   0.805
  583TIP3    H1 1626   7.827   2.258   0.759
  583TIP3    H2 1627   7.679   2.239   0.781
  584TIP3   OH2 1628   6.797   1.833   1.348
  584TIP3    H1 1629   6.871   1.774   1.328
  584TIP3    H2 1630   6.822   1.865   1.437
  585TIP3   OH2 1631   7.113   1.695   1.018
  585TIP3    H1 1632   7.044   1.763   1.031
  585TIP3    H2 1633   7.170   1.742   0.952
  586TIP3   OH2 1634   7.652   2.121   1.147
  586TIP3    H1 1635   7.727   2.093   1.093
  586TIP3    H2 1636   7.642   2.047   1.209
  587TIP3   OH2 1637   7.274   1.538   1.170
  587TIP3    H1 1638   7.256   1.453   1.125
  587TIP3    H2 1639   7.226   1.599   1.110
  588TIP3   OH2 1640   7.266   1.845   0.857
  588TIP3    H1 1641   7.339   1.843   0.792
  588TIP3    H2 1642   7.202   1.901   0.807
  589TIP3   OH2 1643   7.868   1.796   1.197
  589TIP3    H1 1644   7.917   1.724   1.241
  589TIP3    H2 1645   7.935   1.864   1.183
  590TIP3   OH2 1646   7.902   2.037   0.970
  590TIP3    H1 1647   7.835   2.083   0.915
  590TIP3    H2 1648   7.975   2.038   0.906
  591TIP3   OH2 1649   7.122   1.637   1.378
  591TIP3    H1 1650   7.059   1.562   1.386
  591TIP3    H2 1651   7.168   1.614   1.295
  592TIP3   OH2 1652   7.526   1.592   1.261
  592TIP3    H1 1653   7.493   1.572   1.350
  592TIP3    H2 1654   7.446   1.569   1.210
  593TIP3   OH2 1655   6.978   1.410   1.422
  593TIP3    H1 1656   6.968   1.315   1.397
  593TIP3    H2 1657   7.010   1.397   1.514
  594TIP3   OH2 1658   7.570   1.304   1.433
  594TIP3    H1 1659   7.563   1.236   1.363
  594TIP3    H2 1660   7.486   1.354   1.426
  595TIP3   OH2 1661   6.162   2.510   0.154
  595TIP3    H1 1662   6.098   2.445   0.119
  595TIP3    H2 1663   6.209   2.453   0.220
  596TIP3   OH2 1664   6.296   2.371   0.348
  596TIP3    H1 1665   6.286   2.287   0.395
  596TIP3    H2 1666   6.349   2.423   0.410
  597TIP3   OH2 1667   8.051   2.778   0.154
  597TIP3    H1 1668   8.060   2.805   0.247
  597TIP3    H2 1669   8.104   2.847   0.111
  598TIP3   OH2 1670   8.063   2.785   0.431
  598TIP3    H1 1671   8.021   2.696   0.431
  598TIP3    H2 1672   8.142   2.767   0.484
  599TIP3   OH2 1673   8.107   2.453   0.997
  599TIP3    H1 1674   8.032   2.460   1.059
  599TIP3    H2 1675   8.145   2.543   1.002
  600TIP3   OH2 1676   7.947   2.538   0.468
  600TIP3    H1 1677   7.879   2.593   0.513
  600TIP3    H2 1678   7.891   2.495   0.399
  601TIP3   OH2 1679   6.491   1.755   0.719
  601TIP3    H1 1680   6.507   1.716   0.631
  601TIP3    H2 1681   6.583   1.770   0.749
  602TIP3   OH2 1682   6.709   1.458   1.403
  602TIP3    H1 1683   6.806   1.447   1.392
  602TIP3    H2 1684   6.685   1.368   1.434
  603TIP3   OH2 1685   6.470   1.424   0.781
  603TIP3    H1 1686   6.439   1.450   0.692
  603TIP3    H2 1687   6.481   1.510   0.825
  604TIP3   OH2 1688   6.714   2.427   1.188
  604TIP3    H1 1689   6.623   2.398   1.169
  604TIP3    H2 1690   6.721   2.408   1.282
  605TIP3   OH2 1691   6.892   2.458   0.737
  605TIP3    H1 1692   6.841   2.531   0.696
  605TIP3    H2 1693   6.977   2.474   0.691
  606TIP3   OH2 1694   7.339   2.704   0.872
  606TIP3    H1 1695   7.380   2.706   0.961
  606TIP3    H2 1696   7.405   2.754   0.820
  607TIP3   OH2 1697   7.517   2.854   0.729
  607TIP3    H1 1698   7.588   2.802   0.689
  607TIP3    H2 1699   7.568   2.912   0.789
  608TIP3   OH2 1700   6.571   2.720   0.756
  608TIP3    H1 1701   6.482   2.752   0.731
  608TIP3    H2 1702   6.573   2.746   0.849
  609TIP3   OH2 1703   6.807   2.696   0.614
  609TIP3    H1 1704   6.721   2.708   0.661
  609TIP3    H2 1705   6.785   2.727   0.525
  610TIP3   OH2 1706   7.235   2.728   0.405
  610TIP3    H1 1707   7.157   2.748   0.349
  610TIP3    H2 1708   7.247   2.813   0.453
  611TIP3   OH2 1709   7.503   2.667   0.451
  611TIP3    H1 1710   7.407   2.683   0.440
  611TIP3    H2 1711   7.541   2.752   0.423
  612TIP3   OH2 1712   7.702   2.865   0.382
  612TIP3    H1 1713   7.694   2.950   0.333
  612TIP3    H2 1714   7.731   2.804   0.312
  613TIP3   OH2 1715   6.479   2.516   0.508
  613TIP3    H1 1716   6.507   2.487   0.598
  613TIP3    H2 1717   6.550   2.473   0.455
  614TIP3   OH2 1718   6.670   2.394   0.361
  614TIP3    H1 1719   6.685   2.308   0.406
  614TIP3    H2 1720   6.762   2.427   0.351
  615TIP3   OH2 1721   6.940   2.485   0.358
  615TIP3    H1 1722   6.967   2.393   0.341
  615TIP3    H2 1723   6.980   2.500   0.445
  616TIP3   OH2 1724   6.281   2.281  -0.095
  616TIP3    H1 1725   6.200   2.233  -0.126
  616TIP3    H2 1726   6.263   2.368  -0.133
  617TIP3   OH2 1727   6.954   1.140   1.411
  617TIP3    H1 1728   6.930   1.056   1.451
  617TIP3    H2 1729   7.022   1.111   1.346
  618TIP3   OH2 1730   7.251   1.128   1.488
  618TIP3    H1 1731   7.295   1.057   1.439
  618TIP3    H2 1732   7.214   1.077   1.563
  619TIP3   OH2 1733   7.987   2.734   0.759
  619TIP3    H1 1734   7.908   2.706   0.709
  619TIP3    H2 1735   7.971   2.831   0.761
  620TIP3   OH2 1736   8.340   2.947   0.654
  620TIP3    H1 1737   8.427   2.943   0.698
  620TIP3    H2 1738   8.314   2.853   0.652
  621TIP3   OH2 1739   8.458   2.349   0.865
  621TIP3    H1 1740   8.444   2.254   0.852
  621TIP3    H2 1741   8.383   2.383   0.812
  622TIP3   OH2 1742   8.505   2.623   0.687
  622TIP3    H1 1743   8.413   2.642   0.662
  622TIP3    H2 1744   8.512   2.665   0.773
  623TIP3   OH2 1745   8.347   2.980   0.221
  623TIP3    H1 1746   8.268   3.036   0.231
  623TIP3    H2 1747   8.388   2.990   0.308
  624TIP3   OH2 1748   0.693   3.445   2.369
  624TIP3    H1 1749   0.666   3.355   2.344
  624TIP3    H2 1750   0.610   3.478   2.409
  625TIP3   OH2 1751   0.372   3.789   2.442
  625TIP3    H1 1752   0.371   3.813   2.348
  625TIP3    H2 1753   0.449   3.840   2.474
  626TIP3   OH2 1754   0.568   3.247   2.698
  626TIP3    H1 1755   0.489   3.256   2.754
  626TIP3    H2 1756   0.606   3.337   2.700
  627TIP3   OH2 1757   0.442   3.525   2.455
  627TIP3    H1 1758   0.351   3.497   2.444
  627TIP3    H2 1759   0.431   3.622   2.453
  628TIP3   OH2 1760   1.933   3.192   1.282
  628TIP3    H1 1761   1.946   3.125   1.350
  628TIP3    H2 1762   1.974   3.270   1.323
  629TIP3   OH2 1763   1.592   3.658   1.288
  629TIP3    H1 1764   1.638   3.585   1.241
  629TIP3    H2 1765   1.581   3.619   1.376
  630TIP3   OH2 1766   1.535   3.143   1.660
  630TIP3    H1 1767   1.549   3.115   1.568
  630TIP3    H2 1768   1.626   3.173   1.682
  631TIP3   OH2 1769   2.527   2.435   1.637
  631TIP3    H1 1770   2.547   2.519   1.682
  631TIP3    H2 1771   2.529   2.462   1.544
  632TIP3   OH2 1772   2.592   2.646   1.810
  632TIP3    H1 1773   2.508   2.692   1.789
  632TIP3    H2 1774   2.600   2.668   1.904
  633TIP3   OH2 1775   1.393   3.061   1.987
  633TIP3    H1 1776   1.301   3.091   1.964
  633TIP3    H2 1777   1.445   3.125   1.936
  634TIP3   OH2 1778   1.172   3.239   1.978
  634TIP3    H1 1779   1.155   3.321   1.929
  634TIP3    H2 1780   1.097   3.238   2.040
  635TIP3   OH2 1781   2.018   3.439   1.446
  635TIP3    H1 1782   1.927   3.429   1.481
  635TIP3    H2 1783   2.011   3.524   1.399
  636TIP3   OH2 1784   2.329   2.367   1.827
  636TIP3    H1 1785   2.236   2.358   1.802
  636TIP3    H2 1786   2.373   2.366   1.740
  637TIP3   OH2 1787   1.735   3.482   1.133
  637TIP3    H1 1788   1.809   3.420   1.133
  637TIP3    H2 1789   1.768   3.551   1.071
  638TIP3   OH2 1790   2.242   3.358   1.792
  638TIP3    H1 1791   2.239   3.280   1.733
  638TIP3    H2 1792   2.227   3.431   1.728
  639TIP3   OH2 1793   2.443   2.988   1.634
  639TIP3    H1 1794   2.361   3.043   1.639
  639TIP3    H2 1795   2.471   3.010   1.542
  640TIP3   OH2 1796   2.147   2.873   1.939
  640TIP3    H1 1797   2.133   2.958   1.983
  640TIP3    H2 1798   2.060   2.862   1.894
  641TIP3   OH2 1799   1.774   3.436   1.564
  641TIP3    H1 1800   1.760   3.516   1.616
  641TIP3    H2 1801   1.770   3.364   1.630
  642TIP3   OH2 1802   1.388   3.356   2.109
  642TIP3    H1 1803   1.329   3.419   2.155
  642TIP3    H2 1804   1.322   3.300   2.063
  643TIP3   OH2 1805   1.143   2.937   2.221
  643TIP3    H1 1806   1.144   3.023   2.269
  643TIP3    H2 1807   1.052   2.907   2.238
  644TIP3   OH2 1808   1.183   3.524   2.197
  644TIP3    H1 1809   1.151   3.523   2.104
  644TIP3    H2 1810   1.103   3.500   2.248
  645TIP3   OH2 1811   2.480   3.696   1.831
  645TIP3    H1 1812   2.480   3.599   1.842
  645TIP3    H2 1813   2.397   3.719   1.877
  646TIP3   OH2 1814   1.589   3.485   1.968
  646TIP3    H1 1815   1.588   3.577   2.000
  646TIP3    H2 1816   1.517   3.445   2.022
  647TIP3   OH2 1817   2.370   2.828   2.107
  647TIP3    H1 1818   2.294   2.843   2.048
  647TIP3    H2 1819   2.387   2.733   2.093
  648TIP3   OH2 1820   0.967   3.248   2.160
  648TIP3    H1 1821   1.028   3.230   2.235
  648TIP3    H2 1822   0.927   3.162   2.142
  649TIP3   OH2 1823   2.138   2.599   2.026
  649TIP3    H1 1824   2.091   2.596   2.113
  649TIP3    H2 1825   2.122   2.691   1.997
  650TIP3   OH2 1826   1.852   2.832   2.267
  650TIP3    H1 1827   1.830   2.754   2.323
  650TIP3    H2 1828   1.948   2.838   2.283
  651TIP3   OH2 1829   1.898   2.824   1.852
  651TIP3    H1 1830   1.857   2.776   1.780
  651TIP3    H2 1831   1.825   2.825   1.915
  652TIP3   OH2 1832   2.168   4.048   1.930
  652TIP3    H1 1833   2.166   4.069   1.835
  652TIP3    H2 1834   2.246   4.097   1.960
  653TIP3   OH2 1835   1.127   3.170   2.369
  653TIP3    H1 1836   1.211   3.197   2.411
  653TIP3    H2 1837   1.066   3.177   2.445
  654TIP3   OH2 1838   2.223   3.146   1.630
  654TIP3    H1 1839   2.248   3.191   1.546
  654TIP3    H2 1840   2.136   3.105   1.605
  655TIP3   OH2 1841   1.692   3.213   1.988
  655TIP3    H1 1842   1.726   3.190   2.075
  655TIP3    H2 1843   1.670   3.307   1.996
  656TIP3   OH2 1844   1.611   2.956   2.312
  656TIP3    H1 1845   1.561   2.906   2.245
  656TIP3    H2 1846   1.701   2.929   2.286
  657TIP3   OH2 1847   1.866   3.469   1.891
  657TIP3    H1 1848   1.769   3.476   1.897
  657TIP3    H2 1849   1.893   3.527   1.965
  658TIP3   OH2 1850   2.494   3.405   1.875
  658TIP3    H1 1851   2.396   3.400   1.867
  658TIP3    H2 1852   2.520   3.374   1.785
  659TIP3   OH2 1853   1.998   3.019   1.557
  659TIP3    H1 1854   1.905   2.995   1.560
  659TIP3    H2 1855   2.036   2.932   1.535
  660TIP3   OH2 1856   1.373   3.562   1.770
  660TIP3    H1 1857   1.404   3.637   1.717
  660TIP3    H2 1858   1.454   3.536   1.816
  661TIP3   OH2 1859   1.788   3.203   1.727
  661TIP3    H1 1860   1.767   3.200   1.823
  661TIP3    H2 1861   1.878   3.169   1.725
  662TIP3   OH2 1862   2.003   3.739   1.774
  662TIP3    H1 1863   1.924   3.684   1.760
  662TIP3    H2 1864   1.992   3.804   1.700
  663TIP3   OH2 1865   0.801   3.425   1.938
  663TIP3    H1 1866   0.857   3.346   1.941
  663TIP3    H2 1867   0.851   3.486   1.993
  664TIP3   OH2 1868   1.908   2.431   1.990
  664TIP3    H1 1869   2.002   2.459   1.993
  664TIP3    H2 1870   1.917   2.336   1.973
  665TIP3   OH2 1871   1.740   2.634   2.081
  665TIP3    H1 1872   1.783   2.706   2.130
  665TIP3    H2 1873   1.815   2.574   2.060
  666TIP3   OH2 1874   2.406   2.562   2.023
  666TIP3    H1 1875   2.309   2.560   2.032
  666TIP3    H2 1876   2.413   2.512   1.939
  667TIP3   OH2 1877   2.059   2.747   1.525
  667TIP3    H1 1878   2.033   2.695   1.448
  667TIP3    H2 1879   2.151   2.710   1.533
  668TIP3   OH2 1880   2.024   3.710   1.366
  668TIP3    H1 1881   1.982   3.757   1.292
  668TIP3    H2 1882   2.119   3.728   1.345
  669TIP3   OH2 1883   0.795   3.737   2.345
  669TIP3    H1 1884   0.882   3.735   2.391
  669TIP3    H2 1885   0.775   3.642   2.338
  670TIP3   OH2 1886   1.278   3.705   2.390
  670TIP3    H1 1887   1.373   3.689   2.397
  670TIP3    H2 1888   1.255   3.648   2.314
  671TIP3   OH2 1889   1.915   3.612   2.123
  671TIP3    H1 1890   1.909   3.540   2.190
  671TIP3    H2 1891   1.995   3.660   2.151
  672TIP3   OH2 1892   0.921   3.140   2.552
  672TIP3    H1 1893   0.950   3.047   2.550
  672TIP3    H2 1894   0.836   3.137   2.505
  673TIP3   OH2 1895   1.532   3.227   2.318
  673TIP3    H1 1896   1.495   3.241   2.229
  673TIP3    H2 1897   1.569   3.137   2.312
  674TIP3   OH2 1898   2.026   3.238   1.921
  674TIP3    H1 1899   2.103   3.279   1.878
  674TIP3    H2 1900   1.960   3.310   1.910
  675TIP3   OH2 1901   1.051   2.865   2.548
  675TIP3    H1 1902   1.134   2.821   2.524
  675TIP3    H2 1903   1.078   2.911   2.631
  676TIP3   OH2 1904   1.398   2.770   2.203
  676TIP3    H1 1905   1.344   2.848   2.218
  676TIP3    H2 1906   1.452   2.797   2.125
  677TIP3   OH2 1907   1.899   3.166   2.322
  677TIP3    H1 1908   1.978   3.145   2.271
  677TIP3    H2 1909   1.898   3.095   2.388
  678TIP3   OH2 1910   1.520   2.559   2.326
  678TIP3    H1 1911   1.534   2.487   2.262
  678TIP3    H2 1912   1.486   2.631   2.268
  679TIP3   OH2 1913   1.579   2.880   2.038
  679TIP3    H1 1914   1.618   2.850   1.954
  679TIP3    H2 1915   1.523   2.955   2.011
  680TIP3   OH2 1916   2.122   2.844   2.381
  680TIP3    H1 1917   2.165   2.757   2.378
  680TIP3    H2 1918   2.190   2.900   2.340
  681TIP3   OH2 1919   2.156   3.101   2.115
  681TIP3    H1 1920   2.100   3.152   2.052
  681TIP3    H2 1921   2.245   3.116   2.075
  682TIP3   OH2 1922   1.374   2.693   2.536
  682TIP3    H1 1923   1.325   2.615   2.570
  682TIP3    H2 1924   1.412   2.660   2.453
  683TIP3   OH2 1925   1.777   2.611   2.410
  683TIP3    H1 1926   1.765   2.602   2.506
  683TIP3    H2 1927   1.686   2.591   2.379
  684TIP3   OH2 1928   2.012   2.568   2.263
  684TIP3    H1 1929   1.933   2.562   2.320
  684TIP3    H2 1930   2.082   2.529   2.319
  685TIP3   OH2 1931   2.230   2.494   2.416
  685TIP3    H1 1932   2.246   2.399   2.434
  685TIP3    H2 1933   2.231   2.534   2.505
  686TIP3   OH2 1934   1.269   2.472   2.648
  686TIP3    H1 1935   1.230   2.400   2.597
  686TIP3    H2 1936   1.279   2.430   2.736
  687TIP3   OH2 1937   1.741   2.122   2.460
  687TIP3    H1 1938   1.820   2.063   2.453
  687TIP3    H2 1939   1.723   2.141   2.367
  688TIP3   OH2 1940   1.800   2.335   2.615
  688TIP3    H1 1941   1.781   2.263   2.551
  688TIP3    H2 1942   1.723   2.394   2.603
  689TIP3   OH2 1943   2.275   3.804   1.321
  689TIP3    H1 1944   2.308   3.840   1.405
  689TIP3    H2 1945   2.335   3.843   1.256
  690TIP3   OH2 1946   2.308   3.824   1.605
  690TIP3    H1 1947   2.264   3.737   1.595
  690TIP3    H2 1948   2.384   3.797   1.659
  691TIP3   OH2 1949   2.353   3.499   2.174
  691TIP3    H1 1950   2.280   3.507   2.239
  691TIP3    H2 1951   2.394   3.588   2.179
  692TIP3   OH2 1952   2.350   3.271   1.429
  692TIP3    H1 1953   2.400   3.205   1.377
  692TIP3    H2 1954   2.345   3.347   1.367
  693TIP3   OH2 1955   2.185   3.572   1.628
  693TIP3    H1 1956   2.111   3.613   1.676
  693TIP3    H2 1957   2.138   3.522   1.557
  694TIP3   OH2 1958   2.399   3.160   2.003
  694TIP3    H1 1959   2.471   3.093   1.995
  694TIP3    H2 1960   2.426   3.227   1.939
  695TIP3   OH2 1961   2.586   2.969   2.027
  695TIP3    H1 1962   2.511   2.916   2.062
  695TIP3    H2 1963   2.658   2.902   2.037
  696TIP3   OH2 1964   2.296   2.625   1.550
  696TIP3    H1 1965   2.378   2.651   1.503
  696TIP3    H2 1966   2.314   2.661   1.639
  697TIP3   OH2 1967   2.349   2.772   1.773
  697TIP3    H1 1968   2.271   2.807   1.822
  697TIP3    H2 1969   2.378   2.851   1.723
  698TIP3   OH2 1970   2.835   2.365   2.287
  698TIP3    H1 1971   2.795   2.277   2.285
  698TIP3    H2 1972   2.768   2.422   2.243
  699TIP3   OH2 1973   2.655   2.500   2.137
  699TIP3    H1 1974   2.569   2.544   2.152
  699TIP3    H2 1975   2.629   2.432   2.071
  700TIP3   OH2 1976   1.861   3.670   0.981
  700TIP3    H1 1977   1.906   3.651   0.896
  700TIP3    H2 1978   1.919   3.736   1.021
  701TIP3   OH2 1979   0.966   3.471   2.369
  701TIP3    H1 1980   0.872   3.449   2.357
  701TIP3    H2 1981   0.976   3.464   2.465
  702TIP3   OH2 1982   1.140   3.505   1.916
  702TIP3    H1 1983   1.090   3.572   1.865
  702TIP3    H2 1984   1.227   3.519   1.873
  703TIP3   OH2 1985   1.587   3.750   2.051
  703TIP3    H1 1986   1.630   3.751   2.138
  703TIP3    H2 1987   1.652   3.799   1.997
  704TIP3   OH2 1988   1.765   3.898   1.908
  704TIP3    H1 1989   1.835   3.850   1.862
  704TIP3    H2 1990   1.818   3.956   1.967
  705TIP3   OH2 1991   2.564   2.269   2.011
  705TIP3    H1 1992   2.476   2.268   1.969
  705TIP3    H2 1993   2.592   2.175   1.996
  706TIP3   OH2 1994   0.813   3.774   1.912
  706TIP3    H1 1995   0.721   3.805   1.914
  706TIP3    H2 1996   0.837   3.784   2.006
  707TIP3   OH2 1997   1.066   3.747   1.795
  707TIP3    H1 1998   0.978   3.763   1.835
  707TIP3    H2 1999   1.054   3.774   1.702
  708TIP3   OH2 2000   1.481   3.768   1.595
  708TIP3    H1 2001   1.417   3.785   1.524
  708TIP3    H2 2002   1.495   3.858   1.630
  709TIP3   OH2 2003   1.749   3.709   1.644
  709TIP3    H1 2004   1.654   3.723   1.623
  709TIP3    H2 2005   1.790   3.782   1.594
  710TIP3   OH2 2006   1.960   3.903   1.557
  710TIP3    H1 2007   1.942   3.987   1.509
  710TIP3    H2 2008   1.983   3.842   1.484
  711TIP3   OH2 2009   1.216   3.565   1.533
  711TIP3    H1 2010   1.226   3.494   1.466
  711TIP3    H2 2011   1.270   3.535   1.608
  712TIP3   OH2 2012   1.993   3.630   0.735
  712TIP3    H1 2013   1.997   3.536   0.711
  712TIP3    H2 2014   1.952   3.668   0.655
  713TIP3   OH2 2015   1.463   2.190   2.665
  713TIP3    H1 2016   1.545   2.161   2.624
  713TIP3    H2 2017   1.443   2.116   2.726
  714TIP3   OH2 2018   2.294   2.226   2.445
  714TIP3    H1 2019   2.316   2.193   2.535
  714TIP3    H2 2020   2.381   2.218   2.400
  715TIP3   OH2 2021   2.234   3.779   1.935
  715TIP3    H1 2022   2.156   3.745   1.886
  715TIP3    H2 2023   2.214   3.874   1.935
  716TIP3   OH2 2024   3.503   3.155   0.705
  716TIP3    H1 2025   3.472   3.245   0.681
  716TIP3    H2 2026   3.431   3.103   0.665
  717TIP3   OH2 2027   3.501   3.152   1.079
  717TIP3    H1 2028   3.526   3.113   1.164
  717TIP3    H2 2029   3.458   3.077   1.036
  718TIP3   OH2 2030   2.799   3.050   1.449
  718TIP3    H1 2031   2.836   2.982   1.508
  718TIP3    H2 2032   2.879   3.099   1.425
  719TIP3   OH2 2033   3.745   3.450   0.760
  719TIP3    H1 2034   3.725   3.379   0.822
  719TIP3    H2 2035   3.767   3.524   0.818
  720TIP3   OH2 2036   2.771   3.459   1.178
  720TIP3    H1 2037   2.762   3.361   1.179
  720TIP3    H2 2038   2.867   3.465   1.167
  721TIP3   OH2 2039   2.579   2.969   1.138
  721TIP3    H1 2040   2.602   2.876   1.149
  721TIP3    H2 2041   2.529   2.971   1.053
  722TIP3   OH2 2042   3.390   3.915   0.777
  722TIP3    H1 2043   3.438   3.844   0.729
  722TIP3    H2 2044   3.381   3.876   0.865
  723TIP3   OH2 2045   3.297   3.376   1.129
  723TIP3    H1 2046   3.329   3.299   1.080
  723TIP3    H2 2047   3.383   3.418   1.150
  724TIP3   OH2 2048   4.312   2.696   1.126
  724TIP3    H1 2049   4.339   2.781   1.167
  724TIP3    H2 2050   4.329   2.715   1.032
  725TIP3   OH2 2051   3.714   2.880   1.162
  725TIP3    H1 2052   3.752   2.792   1.181
  725TIP3    H2 2053   3.677   2.866   1.073
  726TIP3   OH2 2054   3.040   2.532   1.129
  726TIP3    H1 2055   3.019   2.603   1.064
  726TIP3    H2 2056   3.012   2.453   1.081
  727TIP3   OH2 2057   3.739   2.627   0.751
  727TIP3    H1 2058   3.812   2.610   0.815
  727TIP3    H2 2059   3.790   2.663   0.676
  728TIP3   OH2 2060   2.682   2.726   1.235
  728TIP3    H1 2061   2.766   2.712   1.282
  728TIP3    H2 2062   2.698   2.670   1.156
  729TIP3   OH2 2063   3.122   2.937   1.024
  729TIP3    H1 2064   3.214   2.911   1.040
  729TIP3    H2 2065   3.081   2.852   0.996
  730TIP3   OH2 2066   4.386   2.907   1.294
  730TIP3    H1 2067   4.301   2.952   1.274
  730TIP3    H2 2068   4.387   2.916   1.391
  731TIP3   OH2 2069   3.044   2.522   1.564
  731TIP3    H1 2070   2.985   2.557   1.494
  731TIP3    H2 2071   2.990   2.541   1.643
  732TIP3   OH2 2072   3.397   3.374   0.571
  732TIP3    H1 2073   3.353   3.344   0.491
  732TIP3    H2 2074   3.349   3.457   0.589
  733TIP3   OH2 2075   3.153   3.297   1.361
  733TIP3    H1 2076   3.086   3.359   1.396
  733TIP3    H2 2077   3.190   3.347   1.285
  734TIP3   OH2 2078   3.955   2.629   0.917
  734TIP3    H1 2079   3.947   2.570   0.993
  734TIP3    H2 2080   4.007   2.703   0.952
  735TIP3   OH2 2081   2.917   2.635   1.348
  735TIP3    H1 2082   2.981   2.707   1.368
  735TIP3    H2 2083   2.962   2.594   1.271
  736TIP3   OH2 2084   2.978   3.488   1.457
  736TIP3    H1 2085   2.950   3.570   1.413
  736TIP3    H2 2086   2.899   3.472   1.512
  737TIP3   OH2 2087   3.817   3.695   0.934
  737TIP3    H1 2088   3.726   3.685   0.972
  737TIP3    H2 2089   3.806   3.779   0.885
  738TIP3   OH2 2090   4.102   2.604   1.296
  738TIP3    H1 2091   4.012   2.623   1.263
  738TIP3    H2 2092   4.158   2.628   1.220
  739TIP3   OH2 2093   3.418   2.246   1.289
  739TIP3    H1 2094   3.397   2.151   1.280
  739TIP3    H2 2095   3.329   2.280   1.313
  740TIP3   OH2 2096   3.520   3.743   0.610
  740TIP3    H1 2097   3.567   3.660   0.586
  740TIP3    H2 2098   3.578   3.808   0.564
  741TIP3   OH2 2099   3.658   3.528   0.508
  741TIP3    H1 2100   3.617   3.450   0.468
  741TIP3    H2 2101   3.693   3.491   0.592
  742TIP3   OH2 2102   4.041   3.611   1.273
  742TIP3    H1 2103   4.028   3.531   1.216
  742TIP3    H2 2104   4.020   3.683   1.210
  743TIP3   OH2 2105   3.337   3.017   0.537
  743TIP3    H1 2106   3.248   3.052   0.517
  743TIP3    H2 2107   3.365   2.987   0.449
  744TIP3   OH2 2108   3.300   2.798   0.344
  744TIP3    H1 2109   3.388   2.838   0.335
  744TIP3    H2 2110   3.316   2.707   0.313
  745TIP3   OH2 2111   4.236   3.248   1.119
  745TIP3    H1 2112   4.151   3.298   1.125
  745TIP3    H2 2113   4.262   3.268   1.027
  746TIP3   OH2 2114   3.681   3.089   0.507
  746TIP3    H1 2115   3.623   3.113   0.584
  746TIP3    H2 2116   3.761   3.058   0.553
  747TIP3   OH2 2117   3.915   3.127   1.410
  747TIP3    H1 2118   3.908   3.212   1.456
  747TIP3    H2 2119   3.827   3.124   1.367
  748TIP3   OH2 2120   2.913   3.083   0.912
  748TIP3    H1 2121   2.870   3.019   0.853
  748TIP3    H2 2122   2.988   3.031   0.948
  749TIP3   OH2 2123   3.041   3.497   1.066
  749TIP3    H1 2124   3.015   3.449   0.986
  749TIP3    H2 2125   3.130   3.461   1.084
  750TIP3   OH2 2126   3.061   3.048   1.280
  750TIP3    H1 2127   3.077   3.033   1.185
  750TIP3    H2 2128   3.090   3.140   1.293
  751TIP3   OH2 2129   3.574   3.692   1.050
  751TIP3    H1 2130   3.557   3.770   1.106
  751TIP3    H2 2131   3.559   3.617   1.111
  752TIP3   OH2 2132   3.183   3.611   1.598
  752TIP3    H1 2133   3.123   3.673   1.643
  752TIP3    H2 2134   3.118   3.557   1.548
  753TIP3   OH2 2135   3.535   2.938   0.332
  753TIP3    H1 2136   3.585   3.004   0.385
  753TIP3    H2 2137   3.558   2.966   0.240
  754TIP3   OH2 2138   2.940   3.167   1.700
  754TIP3    H1 2139   2.941   3.253   1.745
  754TIP3    H2 2140   2.844   3.148   1.699
  755TIP3   OH2 2141   3.261   3.623   0.602
  755TIP3    H1 2142   3.336   3.680   0.626
  755TIP3    H2 2143   3.197   3.685   0.565
  756TIP3   OH2 2144   2.979   3.782   1.684
  756TIP3    H1 2145   2.945   3.777   1.592
  756TIP3    H2 2146   2.899   3.758   1.737
  757TIP3   OH2 2147   4.037   2.185   0.374
  757TIP3    H1 2148   3.954   2.195   0.427
  757TIP3    H2 2149   4.040   2.271   0.328
  758TIP3   OH2 2150   2.758   2.918   0.704
  758TIP3    H1 2151   2.689   2.985   0.716
  758TIP3    H2 2152   2.718   2.842   0.751
  759TIP3   OH2 2153   3.832   3.555  -0.080
  759TIP3    H1 2154   3.842   3.652  -0.094
  759TIP3    H2 2155   3.924   3.524  -0.088
  760TIP3   OH2 2156   2.557   3.310   1.630
  760TIP3    H1 2157   2.496   3.287   1.557
  760TIP3    H2 2158   2.594   3.222   1.654
  761TIP3   OH2 2159   2.410   3.499   1.274
  761TIP3    H1 2160   2.503   3.490   1.249
  761TIP3    H2 2161   2.407   3.586   1.317
  762TIP3   OH2 2162   4.277   3.954   1.320
  762TIP3    H1 2163   4.274   3.857   1.324
  762TIP3    H2 2164   4.192   3.977   1.362
  763TIP3   OH2 2165   3.383   3.739   1.455
  763TIP3    H1 2166   3.382   3.832   1.486
  763TIP3    H2 2167   3.310   3.700   1.508
  764TIP3   OH2 2168   3.141   3.869   0.403
  764TIP3    H1 2169   3.095   3.849   0.319
  764TIP3    H2 2170   3.110   3.958   0.424
  765TIP3   OH2 2171   2.587   3.730   0.788
  765TIP3    H1 2172   2.628   3.712   0.875
  765TIP3    H2 2173   2.531   3.649   0.779
  766TIP3   OH2 2174   3.338   3.767   0.060
  766TIP3    H1 2175   3.397   3.708   0.007
  766TIP3    H2 2176   3.384   3.770   0.145
  767TIP3   OH2 2177   3.398   3.822   0.326
  767TIP3    H1 2178   3.307   3.828   0.362
  767TIP3    H2 2179   3.442   3.769   0.395
  768TIP3   OH2 2180   4.167   3.086   1.591
  768TIP3    H1 2181   4.086   3.099   1.539
  768TIP3    H2 2182   4.181   2.990   1.580
  769TIP3   OH2 2183   2.762   3.494   1.624
  769TIP3    H1 2184   2.813   3.472   1.704
  769TIP3    H2 2185   2.689   3.428   1.627
  770TIP3   OH2 2186   3.160   2.315   1.405
  770TIP3    H1 2187   3.071   2.282   1.379
  770TIP3    H2 2188   3.135   2.399   1.447
  771TIP3   OH2 2189   3.694   2.437   1.599
  771TIP3    H1 2190   3.761   2.401   1.661
  771TIP3    H2 2191   3.610   2.410   1.640
  772TIP3   OH2 2192   3.943   2.864   1.521
  772TIP3    H1 2193   3.889   2.857   1.603
  772TIP3    H2 2194   3.909   2.945   1.480
  773TIP3   OH2 2195   3.601   2.995   0.076
  773TIP3    H1 2196   3.542   2.986  -0.000
  773TIP3    H2 2197   3.674   3.049   0.042
  774TIP3   OH2 2198   3.098   2.827   1.427
  774TIP3    H1 2199   3.042   2.849   1.504
  774TIP3    H2 2200   3.084   2.907   1.371
  775TIP3   OH2 2201   2.973   2.718   0.942
  775TIP3    H1 2202   2.879   2.692   0.948
  775TIP3    H2 2203   2.995   2.684   0.852
  776TIP3   OH2 2204   3.475   2.811   0.663
  776TIP3    H1 2205   3.417   2.880   0.623
  776TIP3    H2 2206   3.519   2.774   0.585
  777TIP3   OH2 2207   3.644   3.087   1.755
  777TIP3    H1 2208   3.619   3.011   1.813
  777TIP3    H2 2209   3.740   3.092   1.772
  778TIP3   OH2 2210   3.630   2.835   0.901
  778TIP3    H1 2211   3.568   2.862   0.829
  778TIP3    H2 2212   3.660   2.751   0.862
  779TIP3   OH2 2213   2.915   2.862   1.631
  779TIP3    H1 2214   2.934   2.924   1.703
  779TIP3    H2 2215   2.900   2.779   1.680
  780TIP3   OH2 2216   3.645   3.080   1.329
  780TIP3    H1 2217   3.673   3.007   1.269
  780TIP3    H2 2218   3.610   3.027   1.404
  781TIP3   OH2 2219   3.312   2.560   1.001
  781TIP3    H1 2220   3.230   2.528   1.043
  781TIP3    H2 2221   3.378   2.533   1.068
  782TIP3   OH2 2222   2.734   2.583   1.011
  782TIP3    H1 2223   2.652   2.615   0.967
  782TIP3    H2 2224   2.747   2.498   0.964
  783TIP3   OH2 2225   3.042   2.626   0.701
  783TIP3    H1 2226   3.138   2.614   0.688
  783TIP3    H2 2227   3.007   2.623   0.611
  784TIP3   OH2 2228   3.796   2.614   1.202
  784TIP3    H1 2229   3.755   2.625   1.291
  784TIP3    H2 2230   3.735   2.550   1.162
  785TIP3   OH2 2231   3.967   4.302   1.417
  785TIP3    H1 2232   3.961   4.326   1.323
  785TIP3    H2 2233   4.043   4.356   1.446
  786TIP3   OH2 2234   2.923   3.415   1.841
  786TIP3    H1 2235   3.003   3.445   1.889
  786TIP3    H2 2236   2.859   3.412   1.914
  787TIP3   OH2 2237   3.393   2.872   1.100
  787TIP3    H1 2238   3.450   2.820   1.042
  787TIP3    H2 2239   3.396   2.822   1.183
  788TIP3   OH2 2240   3.366   2.761   1.386
  788TIP3    H1 2241   3.275   2.795   1.398
  788TIP3    H2 2242   3.421   2.823   1.436
  789TIP3   OH2 2243   3.100   3.173   0.482
  789TIP3    H1 2244   3.048   3.089   0.481
  789TIP3    H2 2245   3.087   3.202   0.575
  790TIP3   OH2 2246   4.002   3.392   1.112
  790TIP3    H1 2247   4.025   3.439   1.029
  790TIP3    H2 2248   3.917   3.349   1.088
  791TIP3   OH2 2249   3.593   2.474   0.312
  791TIP3    H1 2250   3.496   2.475   0.322
  791TIP3    H2 2251   3.615   2.564   0.344
  792TIP3   OH2 2252   3.513   3.480   1.476
  792TIP3    H1 2253   3.509   3.444   1.565
  792TIP3    H2 2254   3.462   3.562   1.483
  793TIP3   OH2 2255   3.638   2.710   0.442
  793TIP3    H1 2256   3.733   2.723   0.463
  793TIP3    H2 2257   3.616   2.792   0.392
  794TIP3   OH2 2258   2.814   3.189   1.162
  794TIP3    H1 2259   2.827   3.155   1.071
  794TIP3    H2 2260   2.798   3.107   1.210
  795TIP3   OH2 2261   3.254   3.312   0.313
  795TIP3    H1 2262   3.205   3.398   0.317
  795TIP3    H2 2263   3.197   3.257   0.371
  796TIP3   OH2 2264   2.671   3.099   1.769
  796TIP3    H1 2265   2.692   3.081   1.863
  796TIP3    H2 2266   2.604   3.031   1.749
  797TIP3   OH2 2267   3.397   3.211   1.789
  797TIP3    H1 2268   3.336   3.154   1.739
  797TIP3    H2 2269   3.484   3.175   1.760
  798TIP3   OH2 2270   3.665   3.739   1.367
  798TIP3    H1 2271   3.569   3.727   1.379
  798TIP3    H2 2272   3.688   3.787   1.450
  799TIP3   OH2 2273   4.075   2.804   0.282
  799TIP3    H1 2274   4.012   2.757   0.222
  799TIP3    H2 2275   4.070   2.892   0.240
  800TIP3   OH2 2276   4.289   3.665   1.361
  800TIP3    H1 2277   4.192   3.653   1.348
  800TIP3    H2 2278   4.319   3.633   1.274
  801TIP3   OH2 2279   3.781   3.621   0.188
  801TIP3    H1 2280   3.742   3.554   0.247
  801TIP3    H2 2281   3.777   3.577   0.101
  802TIP3   OH2 2282   3.769   3.251   1.033
  802TIP3    H1 2283   3.675   3.225   1.044
  802TIP3    H2 2284   3.803   3.173   0.985
  803TIP3   OH2 2285   2.891   3.480   0.782
  803TIP3    H1 2286   2.889   3.561   0.727
  803TIP3    H2 2287   2.797   3.459   0.788
  804TIP3   OH2 2288   3.040   3.253   0.732
  804TIP3    H1 2289   2.999   3.340   0.749
  804TIP3    H2 2290   3.000   3.198   0.802
  805TIP3   OH2 2291   3.162   3.826   1.252
  805TIP3    H1 2292   3.203   3.896   1.198
  805TIP3    H2 2293   3.240   3.790   1.298
  806TIP3   OH2 2294   2.816   3.718   0.633
  806TIP3    H1 2295   2.729   3.725   0.679
  806TIP3    H2 2296   2.845   3.812   0.635
  807TIP3   OH2 2297   3.557   3.460   1.207
  807TIP3    H1 2298   3.549   3.457   1.305
  807TIP3    H2 2299   3.629   3.398   1.191
  808TIP3   OH2 2300   3.525   3.357   0.091
  808TIP3    H1 2301   3.572   3.328   0.172
  808TIP3    H2 2302   3.434   3.329   0.111
  809TIP3   OH2 2303   3.803   3.995   1.260
  809TIP3    H1 2304   3.725   3.936   1.254
  809TIP3    H2 2305   3.785   4.058   1.187
  810TIP3   OH2 2306   3.868   3.834  -0.095
  810TIP3    H1 2307   3.915   3.912  -0.128
  810TIP3    H2 2308   3.788   3.876  -0.060
  811TIP3   OH2 2309   2.885   2.606   1.780
  811TIP3    H1 2310   2.788   2.611   1.789
  811TIP3    H2 2311   2.907   2.536   1.844
  812TIP3   OH2 2312   3.685   3.286   0.311
  812TIP3    H1 2313   3.675   3.220   0.382
  812TIP3    H2 2314   3.781   3.284   0.297
  813TIP3   OH2 2315   2.602   3.693   1.411
  813TIP3    H1 2316   2.647   3.609   1.429
  813TIP3    H2 2317   2.639   3.749   1.480
  814TIP3   OH2 2318   2.892   3.334   0.091
  814TIP3    H1 2319   2.911   3.244   0.063
  814TIP3    H2 2320   2.874   3.323   0.187
  815TIP3   OH2 2321   2.853   3.334   0.366
  815TIP3    H1 2322   2.922   3.306   0.428
  815TIP3    H2 2323   2.856   3.431   0.372
  816TIP3   OH2 2324   3.718   2.674   1.463
  816TIP3    H1 2325   3.805   2.700   1.497
  816TIP3    H2 2326   3.701   2.590   1.511
  817TIP3   OH2 2327   3.588   2.434   0.613
  817TIP3    H1 2328   3.593   2.457   0.519
  817TIP3    H2 2329   3.635   2.508   0.656
  818TIP3   OH2 2330   3.105   3.538   0.312
  818TIP3    H1 2331   3.017   3.565   0.346
  818TIP3    H2 2332   3.121   3.607   0.246
  819TIP3   OH2 2333   3.313   2.599   0.730
  819TIP3    H1 2334   3.375   2.672   0.712
  819TIP3    H2 2335   3.311   2.599   0.828
  820TIP3   OH2 2336   3.560   2.918   1.532
  820TIP3    H1 2337   3.580   2.967   1.614
  820TIP3    H2 2338   3.615   2.838   1.541
  821TIP3   OH2 2339   3.448   2.332   0.836
  821TIP3    H1 2340   3.431   2.413   0.886
  821TIP3    H2 2341   3.499   2.367   0.759
  822TIP3   OH2 2342   2.847   3.608   0.380
  822TIP3    H1 2343   2.816   3.677   0.318
  822TIP3    H2 2344   2.829   3.650   0.466
  823TIP3   OH2 2345   4.207   2.817   1.507
  823TIP3    H1 2346   4.109   2.819   1.521
  823TIP3    H2 2347   4.209   2.767   1.424
  824TIP3   OH2 2348   3.854   3.012   0.902
  824TIP3    H1 2349   3.776   2.954   0.911
  824TIP3    H2 2350   3.923   2.962   0.950
  825TIP3   OH2 2351   2.577   3.315   0.335
  825TIP3    H1 2352   2.660   3.349   0.372
  825TIP3    H2 2353   2.585   3.221   0.359
  826TIP3   OH2 2354   3.821   3.968   0.853
  826TIP3    H1 2355   3.778   4.013   0.778
  826TIP3    H2 2356   3.915   3.985   0.830
  827TIP3   OH2 2357   2.894   2.229   1.387
  827TIP3    H1 2358   2.850   2.186   1.310
  827TIP3    H2 2359   2.897   2.155   1.451
  828TIP3   OH2 2360   2.455   3.495   0.773
  828TIP3    H1 2361   2.382   3.448   0.815
  828TIP3    H2 2362   2.427   3.493   0.680
  829TIP3   OH2 2363   2.591   3.992   1.830
  829TIP3    H1 2364   2.677   3.989   1.876
  829TIP3    H2 2365   2.568   3.898   1.827
  830TIP3   OH2 2366   3.078   3.964   1.873
  830TIP3    H1 2367   3.171   3.939   1.881
  830TIP3    H2 2368   3.050   3.905   1.799
  831TIP3   OH2 2369   3.061   3.533   0.009
  831TIP3    H1 2370   2.997   3.471   0.050
  831TIP3    H2 2371   3.141   3.478   0.005
  832TIP3   OH2 2372   3.715   3.868   1.608
  832TIP3    H1 2373   3.701   3.797   1.674
  832TIP3    H2 2374   3.792   3.915   1.643
  833TIP3   OH2 2375   3.507   3.592  -0.072
  833TIP3    H1 2376   3.522   3.508  -0.024
  833TIP3    H2 2377   3.571   3.587  -0.144
  834TIP3   OH2 2378   2.723   3.401   2.032
  834TIP3    H1 2379   2.741   3.305   2.033
  834TIP3    H2 2380   2.635   3.403   1.987
  835TIP3   OH2 2381   3.333   3.485   1.803
  835TIP3    H1 2382   3.287   3.499   1.718
  835TIP3    H2 2383   3.360   3.391   1.797
  836TIP3   OH2 2384   3.225   3.273   0.047
  836TIP3    H1 2385   3.233   3.283   0.145
  836TIP3    H2 2386   3.191   3.183   0.039
  837TIP3   OH2 2387   3.827   3.492   1.415
  837TIP3    H1 2388   3.894   3.541   1.363
  837TIP3    H2 2389   3.748   3.547   1.401
  838TIP3   OH2 2390   2.841   3.137   2.012
  838TIP3    H1 2391   2.911   3.073   1.994
  838TIP3    H2 2392   2.866   3.168   2.102
  839TIP3   OH2 2393   2.975   2.937   0.496
  839TIP3    H1 2394   2.923   2.909   0.573
  839TIP3    H2 2395   2.960   2.866   0.432
  840TIP3   OH2 2396   3.181   3.024   1.680
  840TIP3    H1 2397   3.100   3.079   1.681
  840TIP3    H2 2398   3.224   3.054   1.596
  841TIP3   OH2 2399   3.711   3.425   1.813
  841TIP3    H1 2400   3.769   3.384   1.746
  841TIP3    H2 2401   3.695   3.351   1.874
  842TIP3   OH2 2402   3.828   3.089  -0.064
  842TIP3    H1 2403   3.833   3.044  -0.149
  842TIP3    H2 2404   3.823   3.182  -0.089
  843TIP3   OH2 2405   3.302   2.806   1.800
  843TIP3    H1 2406   3.300   2.727   1.742
  843TIP3    H2 2407   3.258   2.873   1.743
  844TIP3   OH2 2408   3.303   2.595   1.608
  844TIP3    H1 2409   3.330   2.633   1.522
  844TIP3    H2 2410   3.209   2.570   1.590
  845TIP3   OH2 2411   3.337   3.138   1.485
  845TIP3    H1 2412   3.411   3.133   1.423
  845TIP3    H2 2413   3.276   3.200   1.439
  846TIP3   OH2 2414   3.918   3.100   1.864
  846TIP3    H1 2415   3.959   3.012   1.876
  846TIP3    H2 2416   3.985   3.146   1.812
  847TIP3   OH2 2417   3.950   3.350   1.608
  847TIP3    H1 2418   3.897   3.404   1.546
  847TIP3    H2 2419   4.040   3.371   1.575
  848TIP3   OH2 2420   3.184   2.923   2.030
  848TIP3    H1 2421   3.110   2.860   2.045
  848TIP3    H2 2422   3.213   2.896   1.941
  849TIP3   OH2 2423   3.436   2.362   1.677
  849TIP3    H1 2424   3.387   2.442   1.649
  849TIP3    H2 2425   3.370   2.292   1.658
  850TIP3   OH2 2426   3.560   2.865   1.890
  850TIP3    H1 2427   3.547   2.855   1.986
  850TIP3    H2 2428   3.470   2.840   1.859
  851TIP3   OH2 2429   3.804   2.820   1.748
  851TIP3    H1 2430   3.725   2.814   1.806
  851TIP3    H2 2431   3.874   2.782   1.804
  852TIP3   OH2 2432   4.036   2.753   1.896
  852TIP3    H1 2433   4.045   2.657   1.915
  852TIP3    H2 2434   4.029   2.792   1.986
  853TIP3   OH2 2435   3.016   2.710   2.077
  853TIP3    H1 2436   3.026   2.622   2.036
  853TIP3    H2 2437   3.052   2.692   2.167
  854TIP3   OH2 2438   3.524   2.366   1.935
  854TIP3    H1 2439   3.596   2.300   1.926
  854TIP3    H2 2440   3.489   2.363   1.843
  855TIP3   OH2 2441   3.593   2.582   2.091
  855TIP3    H1 2442   3.572   2.513   2.025
  855TIP3    H2 2443   3.519   2.645   2.081
  856TIP3   OH2 2444   2.813   3.810   0.193
  856TIP3    H1 2445   2.906   3.808   0.165
  856TIP3    H2 2446   2.768   3.852   0.119
  857TIP3   OH2 2447   2.200   3.806   0.819
  857TIP3    H1 2448   2.141   3.737   0.783
  857TIP3    H2 2449   2.251   3.754   0.885
  858TIP3   OH2 2450   2.334   3.676   1.015
  858TIP3    H1 2451   2.339   3.585   1.049
  858TIP3    H2 2452   2.394   3.723   1.075
  859TIP3   OH2 2453   4.074   4.057   0.806
  859TIP3    H1 2454   4.099   4.094   0.892
  859TIP3    H2 2455   4.131   4.106   0.745
  860TIP3   OH2 2456   4.103   4.080   1.089
  860TIP3    H1 2457   4.059   3.993   1.083
  860TIP3    H2 2458   4.180   4.056   1.142
  861TIP3   OH2 2459   3.967   3.267   0.282
  861TIP3    H1 2460   4.035   3.332   0.257
  861TIP3    H2 2461   4.007   3.228   0.362
  862TIP3   OH2 2462   4.094   3.136   0.486
  862TIP3    H1 2463   4.027   3.092   0.543
  862TIP3    H2 2464   4.154   3.176   0.552
  863TIP3   OH2 2465   4.149   3.528   0.922
  863TIP3    H1 2466   4.199   3.463   0.869
  863TIP3    H2 2467   4.135   3.600   0.858
  864TIP3   OH2 2468   3.980   3.829   1.114
  864TIP3    H1 2469   3.907   3.870   1.164
  864TIP3    H2 2470   3.932   3.780   1.044
  865TIP3   OH2 2471   4.029   3.044   0.131
  865TIP3    H1 2472   3.953   3.045   0.070
  865TIP3    H2 2473   4.005   3.119   0.189
  866TIP3   OH2 2474   3.909   2.714   0.091
  866TIP3    H1 2475   3.863   2.751   0.015
  866TIP3    H2 2476   3.881   2.620   0.085
  867TIP3   OH2 2477   3.911   2.990   0.633
  867TIP3    H1 2478   3.914   2.892   0.627
  867TIP3    H2 2479   3.895   3.004   0.729
  868TIP3   OH2 2480   2.535   3.065   1.386
  868TIP3    H1 2481   2.536   3.037   1.292
  868TIP3    H2 2482   2.632   3.067   1.403
  869TIP3   OH2 2483   4.194   3.422   1.501
  869TIP3    H1 2484   4.266   3.355   1.499
  869TIP3    H2 2485   4.222   3.484   1.433
  870TIP3   OH2 2486   4.384   3.228   1.518
  870TIP3    H1 2487   4.306   3.174   1.546
  870TIP3    H2 2488   4.454   3.161   1.528
  871TIP3   OH2 2489   3.840   2.454   0.096
  871TIP3    H1 2490   3.925   2.419   0.129
  871TIP3    H2 2491   3.774   2.409   0.149
  872TIP3   OH2 2492   3.907   2.708   0.531
  872TIP3    H1 2493   3.944   2.618   0.546
  872TIP3    H2 2494   3.964   2.738   0.459
  873TIP3   OH2 2495   4.068   2.883   1.023
  873TIP3    H1 2496   4.154   2.911   0.984
  873TIP3    H2 2497   4.079   2.919   1.113
  874TIP3   OH2 2498   4.135   3.027   1.257
  874TIP3    H1 2499   4.055   3.059   1.304
  874TIP3    H2 2500   4.165   3.108   1.211
  875TIP3   OH2 2501   2.748   2.754   2.057
  875TIP3    H1 2502   2.845   2.747   2.055
  875TIP3    H2 2503   2.725   2.669   2.100
  876TIP3   OH2 2504   4.590   2.618   1.812
  876TIP3    H1 2505   4.644   2.549   1.767
  876TIP3    H2 2506   4.560   2.672   1.736
  877TIP3   OH2 2507   4.014   2.455   0.565
  877TIP3    H1 2508   4.057   2.439   0.651
  877TIP3    H2 2509   3.950   2.381   0.563
  878TIP3   OH2 2510   2.716   2.439   1.397
  878TIP3    H1 2511   2.788   2.372   1.399
  878TIP3    H2 2512   2.767   2.520   1.382
  879TIP3   OH2 2513   2.531   2.724   1.463
  879TIP3    H1 2514   2.574   2.713   1.375
  879TIP3    H2 2515   2.550   2.817   1.479
  880TIP3   OH2 2516   4.459   2.758   1.618
  880TIP3    H1 2517   4.370   2.795   1.636
  880TIP3    H2 2518   4.433   2.685   1.558
  881TIP3   OH2 2519   4.103   2.395   0.185
  881TIP3    H1 2520   4.168   2.332   0.150
  881TIP3    H2 2521   4.156   2.477   0.186
  882TIP3   OH2 2522   3.662   3.923   0.467
  882TIP3    H1 2523   3.708   3.905   0.383
  882TIP3    H2 2524   3.716   3.993   0.505
  883TIP3   OH2 2525   2.720   2.300   1.775
  883TIP3    H1 2526   2.667   2.296   1.856
  883TIP3    H2 2527   2.658   2.344   1.714
  884TIP3   OH2 2528   2.759   3.731   1.854
  884TIP3    H1 2529   2.670   3.699   1.832
  884TIP3    H2 2530   2.766   3.706   1.947
  885TIP3   OH2 2531   2.936   3.761   1.401
  885TIP3    H1 2532   2.886   3.834   1.360
  885TIP3    H2 2533   3.021   3.774   1.355
  886TIP3   OH2 2534   3.382   4.006   1.537
  886TIP3    H1 2535   3.425   4.007   1.625
  886TIP3    H2 2536   3.448   4.056   1.484
  887TIP3   OH2 2537   3.560   4.156   1.393
  887TIP3    H1 2538   3.629   4.105   1.349
  887TIP3    H2 2539   3.613   4.213   1.453
  888TIP3   OH2 2540   4.355   2.519   1.495
  888TIP3    H1 2541   4.264   2.513   1.462
  888TIP3    H2 2542   4.385   2.426   1.482
  889TIP3   OH2 2543   2.617   4.025   1.418
  889TIP3    H1 2544   2.527   4.056   1.393
  889TIP3    H2 2545   2.615   4.040   1.513
  890TIP3   OH2 2546   2.852   3.999   1.278
  890TIP3    H1 2547   2.766   4.011   1.324
  890TIP3    H2 2548   2.830   4.028   1.188
  891TIP3   OH2 2549   3.277   4.027   1.076
  891TIP3    H1 2550   3.207   4.044   1.011
  891TIP3    H2 2551   3.289   4.115   1.117
  892TIP3   OH2 2552   3.544   3.969   1.130
  892TIP3    H1 2553   3.450   3.981   1.109
  892TIP3    H2 2554   3.584   4.043   1.083
  893TIP3   OH2 2555   3.757   4.160   1.045
  893TIP3    H1 2556   3.739   4.243   0.996
  893TIP3    H2 2557   3.778   4.098   0.971
  894TIP3   OH2 2558   2.526   3.813   1.170
  894TIP3    H1 2559   2.554   3.786   1.260
  894TIP3    H2 2560   2.596   3.770   1.117
  895TIP3   OH2 2561   2.717   3.685   1.026
  895TIP3    H1 2562   2.733   3.599   1.071
  895TIP3    H2 2563   2.808   3.719   1.017
  896TIP3   OH2 2564   2.986   3.781   1.022
  896TIP3    H1 2565   3.015   3.689   1.007
  896TIP3    H2 2566   3.027   3.797   1.109
  897TIP3   OH2 2567   3.562   2.437   1.119
  897TIP3    H1 2568   3.514   2.369   1.170
  897TIP3    H2 2569   3.618   2.383   1.062
  898TIP3   OH2 2570   4.088   2.326   1.026
  898TIP3    H1 2571   4.121   2.371   0.945
  898TIP3    H2 2572   3.991   2.327   1.012
  899TIP3   OH2 2573   4.181   2.417   0.784
  899TIP3    H1 2574   4.254   2.366   0.741
  899TIP3    H2 2575   4.212   2.509   0.767
  900TIP3   OH2 2576   3.243   2.240   1.026
  900TIP3    H1 2577   3.314   2.243   0.960
  900TIP3    H2 2578   3.254   2.147   1.054
  901TIP3   OH2 2579   3.812   2.320   0.989
  901TIP3    H1 2580   3.793   2.282   0.903
  901TIP3    H2 2581   3.792   2.244   1.048
  902TIP3   OH2 2582   3.834   2.240   0.555
  902TIP3    H1 2583   3.741   2.266   0.548
  902TIP3    H2 2584   3.823   2.156   0.605
  903TIP3   OH2 2585   2.303   3.577   0.551
  903TIP3    H1 2586   2.225   3.537   0.510
  903TIP3    H2 2587   2.295   3.670   0.523
  904TIP3   OH2 2588   3.238   2.361   0.632
  904TIP3    H1 2589   3.278   2.292   0.688
  904TIP3    H2 2590   3.272   2.442   0.677
  905TIP3   OH2 2591   3.078   3.778   0.131
  905TIP3    H1 2592   3.171   3.796   0.102
  905TIP3    H2 2593   3.062   3.699   0.075
  906TIP3   OH2 2594   3.805   3.889   0.231
  906TIP3    H1 2595   3.798   3.791   0.219
  906TIP3    H2 2596   3.757   3.922   0.153
  907TIP3   OH2 2597   3.015   2.430   2.022
  907TIP3    H1 2598   2.973   2.415   2.109
  907TIP3    H2 2599   3.109   2.415   2.042
  908TIP3   OH2 2600   3.270   2.374   2.152
  908TIP3    H1 2601   3.336   2.390   2.081
  908TIP3    H2 2602   3.331   2.361   2.228
  909TIP3   OH2 2603   2.422   3.644   0.223
  909TIP3    H1 2604   2.371   3.660   0.303
  909TIP3    H2 2605   2.467   3.562   0.244
  910TIP3   OH2 2606   4.090   2.482   1.929
  910TIP3    H1 2607   4.111   2.450   2.019
  910TIP3    H2 2608   4.177   2.476   1.885
  911TIP3   OH2 2609   4.027   4.034   1.424
  911TIP3    H1 2610   3.951   4.002   1.371
  911TIP3    H2 2611   4.012   4.131   1.419
  912TIP3   OH2 2612   5.298   3.414   0.187
  912TIP3    H1 2613   5.263   3.502   0.162
  912TIP3    H2 2614   5.224   3.357   0.156
  913TIP3   OH2 2615   5.300   3.407   0.564
  913TIP3    H1 2616   5.324   3.373   0.652
  913TIP3    H2 2617   5.254   3.330   0.526
  914TIP3   OH2 2618   4.596   3.304   0.932
  914TIP3    H1 2619   4.628   3.236   0.995
  914TIP3    H2 2620   4.675   3.360   0.923
  915TIP3   OH2 2621   5.542   3.718   0.264
  915TIP3    H1 2622   5.520   3.628   0.289
  915TIP3    H2 2623   5.559   3.758   0.351
  916TIP3   OH2 2624   4.566   3.713   0.661
  916TIP3    H1 2625   4.556   3.615   0.663
  916TIP3    H2 2626   4.663   3.720   0.653
  917TIP3   OH2 2627   4.274   2.921   0.446
  917TIP3    H1 2628   4.220   3.001   0.457
  917TIP3    H2 2629   4.206   2.860   0.412
  918TIP3   OH2 2630   4.336   3.206   0.615
  918TIP3    H1 2631   4.382   3.127   0.651
  918TIP3    H2 2632   4.386   3.222   0.533
  919TIP3   OH2 2633   5.186   4.172   0.265
  919TIP3    H1 2634   5.238   4.096   0.233
  919TIP3    H2 2635   5.164   4.145   0.355
  920TIP3   OH2 2636   5.094   3.632   0.615
  920TIP3    H1 2637   5.127   3.556   0.565
  920TIP3    H2 2638   5.180   3.673   0.639
  921TIP3   OH2 2639   6.108   2.953   0.613
  921TIP3    H1 2640   6.135   3.037   0.656
  921TIP3    H2 2641   6.124   2.973   0.519
  922TIP3   OH2 2642   5.510   3.136   0.649
  922TIP3    H1 2643   5.548   3.049   0.668
  922TIP3    H2 2644   5.475   3.122   0.559
  923TIP3   OH2 2645   4.844   2.794   0.614
  923TIP3    H1 2646   4.820   2.866   0.551
  923TIP3    H2 2647   4.797   2.719   0.571
  924TIP3   OH2 2648   5.536   2.885   0.239
  924TIP3    H1 2649   5.610   2.867   0.301
  924TIP3    H2 2650   5.586   2.919   0.163
  925TIP3   OH2 2651   4.478   2.997   0.720
  925TIP3    H1 2652   4.560   2.973   0.767
  925TIP3    H2 2653   4.486   2.939   0.642
  926TIP3   OH2 2654   4.918   3.194   0.511
  926TIP3    H1 2655   5.011   3.167   0.527
  926TIP3    H2 2656   4.877   3.111   0.480
  927TIP3   OH2 2657   6.181   3.162   0.782
  927TIP3    H1 2658   6.096   3.208   0.762
  927TIP3    H2 2659   6.188   3.180   0.877
  928TIP3   OH2 2660   4.842   2.778   1.048
  928TIP3    H1 2661   4.780   2.812   0.981
  928TIP3    H2 2662   4.789   2.794   1.130
  929TIP3   OH2 2663   5.194   3.635   0.061
  929TIP3    H1 2664   5.157   3.609  -0.025
  929TIP3    H2 2665   5.137   3.712   0.085
  930TIP3   OH2 2666   4.948   3.552   0.846
  930TIP3    H1 2667   4.882   3.615   0.884
  930TIP3    H2 2668   4.987   3.605   0.774
  931TIP3   OH2 2669   5.752   2.885   0.405
  931TIP3    H1 2670   5.741   2.831   0.484
  931TIP3    H2 2671   5.804   2.961   0.437
  932TIP3   OH2 2672   4.712   2.892   0.833
  932TIP3    H1 2673   4.775   2.964   0.854
  932TIP3    H2 2674   4.759   2.850   0.757
  933TIP3   OH2 2675   4.774   3.744   0.941
  933TIP3    H1 2676   4.747   3.828   0.900
  933TIP3    H2 2677   4.695   3.729   0.998
  934TIP3   OH2 2678   4.174   3.434   0.180
  934TIP3    H1 2679   4.130   3.455   0.096
  934TIP3    H2 2680   4.198   3.522   0.214
  935TIP3   OH2 2681   5.603   3.955   0.404
  935TIP3    H1 2682   5.520   3.946   0.457
  935TIP3    H2 2683   5.603   4.053   0.388
  936TIP3   OH2 2684   5.899   2.859   0.782
  936TIP3    H1 2685   5.809   2.881   0.751
  936TIP3    H2 2686   5.955   2.884   0.706
  937TIP3   OH2 2687   5.201   2.497   0.763
  937TIP3    H1 2688   5.187   2.402   0.778
  937TIP3    H2 2689   5.121   2.533   0.808
  938TIP3   OH2 2690   5.335   3.989   0.129
  938TIP3    H1 2691   5.322   3.907   0.077
  938TIP3    H2 2692   5.325   4.053   0.056
  939TIP3   OH2 2693   5.473   3.783   0.002
  939TIP3    H1 2694   5.451   3.722  -0.072
  939TIP3    H2 2695   5.471   3.719   0.076
  940TIP3   OH2 2696   5.838   3.866   0.761
  940TIP3    H1 2697   5.825   3.788   0.703
  940TIP3    H2 2698   5.821   3.941   0.700
  941TIP3   OH2 2699   5.130   3.262   0.017
  941TIP3    H1 2700   5.045   3.308  -0.001
  941TIP3    H2 2701   5.163   3.251  -0.074
  942TIP3   OH2 2702   5.082   3.033  -0.238
  942TIP3    H1 2703   5.165   3.079  -0.217
  942TIP3    H2 2704   5.111   2.966  -0.301
  943TIP3   OH2 2705   6.032   3.502   0.605
  943TIP3    H1 2706   5.948   3.554   0.612
  943TIP3    H2 2707   6.058   3.524   0.513
  944TIP3   OH2 2708   5.472   3.335  -0.008
  944TIP3    H1 2709   5.417   3.362   0.069
  944TIP3    H2 2710   5.556   3.310   0.036
  945TIP3   OH2 2711   5.711   3.383   0.897
  945TIP3    H1 2712   5.705   3.467   0.946
  945TIP3    H2 2713   5.622   3.382   0.854
  946TIP3   OH2 2714   4.706   3.340   0.404
  946TIP3    H1 2715   4.662   3.282   0.338
  946TIP3    H2 2716   4.782   3.285   0.432
  947TIP3   OH2 2717   4.836   3.752   0.554
  947TIP3    H1 2718   4.812   3.706   0.471
  947TIP3    H2 2719   4.926   3.717   0.571
  948TIP3   OH2 2720   4.848   3.308   0.762
  948TIP3    H1 2721   4.875   3.290   0.670
  948TIP3    H2 2722   4.887   3.396   0.780
  949TIP3   OH2 2723   5.377   3.946   0.541
  949TIP3    H1 2724   5.352   4.027   0.590
  949TIP3    H2 2725   5.357   3.874   0.604
  950TIP3   OH2 2726   4.980   3.867   1.083
  950TIP3    H1 2727   4.921   3.930   1.130
  950TIP3    H2 2728   4.913   3.813   1.035
  951TIP3   OH2 2729   5.325   3.199  -0.192
  951TIP3    H1 2730   5.376   3.252  -0.127
  951TIP3    H2 2731   5.337   3.252  -0.272
  952TIP3   OH2 2732   4.734   3.425   1.183
  952TIP3    H1 2733   4.736   3.510   1.231
  952TIP3    H2 2734   4.639   3.404   1.189
  953TIP3   OH2 2735   5.054   3.876   0.108
  953TIP3    H1 2736   5.116   3.949   0.115
  953TIP3    H2 2737   4.990   3.911   0.045
  954TIP3   OH2 2738   4.776   4.037   1.170
  954TIP3    H1 2739   4.741   4.033   1.079
  954TIP3    H2 2740   4.696   4.014   1.223
  955TIP3   OH2 2741   5.812   2.443  -0.122
  955TIP3    H1 2742   5.736   2.471  -0.067
  955TIP3    H2 2743   5.820   2.528  -0.174
  956TIP3   OH2 2744   4.572   3.182   0.213
  956TIP3    H1 2745   4.507   3.228   0.155
  956TIP3    H2 2746   4.529   3.096   0.224
  957TIP3   OH2 2747   4.355   3.566   1.119
  957TIP3    H1 2748   4.288   3.546   1.050
  957TIP3    H2 2749   4.389   3.477   1.142
  958TIP3   OH2 2750   4.207   3.758   0.752
  958TIP3    H1 2751   4.303   3.754   0.741
  958TIP3    H2 2752   4.196   3.840   0.803
  959TIP3   OH2 2753   6.075   4.207   0.805
  959TIP3    H1 2754   6.072   4.111   0.822
  959TIP3    H2 2755   5.991   4.235   0.850
  960TIP3   OH2 2756   5.180   3.996   0.940
  960TIP3    H1 2757   5.180   4.089   0.973
  960TIP3    H2 2758   5.107   3.957   0.995
  961TIP3   OH2 2759   4.929   4.137  -0.116
  961TIP3    H1 2760   4.873   4.115  -0.191
  961TIP3    H2 2761   4.902   4.227  -0.094
  962TIP3   OH2 2762   4.377   3.976   0.275
  962TIP3    H1 2763   4.422   3.965   0.361
  962TIP3    H2 2764   4.317   3.898   0.276
  963TIP3   OH2 2765   5.191   4.061  -0.089
  963TIP3    H1 2766   5.096   4.075  -0.108
  963TIP3    H2 2767   5.230   4.072  -0.178
  964TIP3   OH2 2768   5.963   3.342   1.079
  964TIP3    H1 2769   5.882   3.357   1.029
  964TIP3    H2 2770   5.976   3.246   1.067
  965TIP3   OH2 2771   4.559   3.749   1.109
  965TIP3    H1 2772   4.609   3.730   1.191
  965TIP3    H2 2773   4.486   3.684   1.114
  966TIP3   OH2 2774   4.959   2.574   0.887
  966TIP3    H1 2775   4.870   2.540   0.862
  966TIP3    H2 2776   4.932   2.655   0.934
  967TIP3   OH2 2777   5.490   2.691   1.085
  967TIP3    H1 2778   5.556   2.659   1.149
  967TIP3    H2 2779   5.405   2.668   1.128
  968TIP3   OH2 2780   5.738   3.120   1.008
  968TIP3    H1 2781   5.685   3.114   1.090
  968TIP3    H2 2782   5.706   3.203   0.967
  969TIP3   OH2 2783   5.122   2.635  -0.133
  969TIP3    H1 2784   5.078   2.629  -0.046
  969TIP3    H2 2785   5.076   2.565  -0.181
  970TIP3   OH2 2786   4.893   3.086   0.910
  970TIP3    H1 2787   4.839   3.105   0.990
  970TIP3    H2 2788   4.876   3.166   0.856
  971TIP3   OH2 2789   4.773   2.975   0.423
  971TIP3    H1 2790   4.680   2.948   0.440
  971TIP3    H2 2791   4.787   2.935   0.335
  972TIP3   OH2 2792   5.266   3.064   0.153
  972TIP3    H1 2793   5.210   3.132   0.109
  972TIP3    H2 2794   5.317   3.028   0.077
  973TIP3   OH2 2795   5.439   3.340   1.239
  973TIP3    H1 2796   5.414   3.267   1.300
  973TIP3    H2 2797   5.533   3.351   1.260
  974TIP3   OH2 2798   5.425   3.092   0.388
  974TIP3    H1 2799   5.362   3.117   0.317
  974TIP3    H2 2800   5.457   3.008   0.348
  975TIP3   OH2 2801   4.711   3.117   1.117
  975TIP3    H1 2802   4.731   3.179   1.189
  975TIP3    H2 2803   4.695   3.034   1.166
  976TIP3   OH2 2804   4.771   2.583  -0.168
  976TIP3    H1 2805   4.760   2.585  -0.071
  976TIP3    H2 2806   4.685   2.614  -0.199
  977TIP3   OH2 2807   4.302   2.643   0.696
  977TIP3    H1 2808   4.380   2.669   0.749
  977TIP3    H2 2809   4.339   2.604   0.616
  978TIP3   OH2 2810   4.276   2.623   0.217
  978TIP3    H1 2811   4.325   2.660   0.141
  978TIP3    H2 2812   4.216   2.697   0.238
  979TIP3   OH2 2813   5.440   3.337   0.814
  979TIP3    H1 2814   5.468   3.263   0.755
  979TIP3    H2 2815   5.406   3.286   0.891
  980TIP3   OH2 2816   5.101   2.801   0.486
  980TIP3    H1 2817   5.016   2.794   0.534
  980TIP3    H2 2818   5.165   2.795   0.559
  981TIP3   OH2 2819   4.536   2.851   0.493
  981TIP3    H1 2820   4.441   2.859   0.467
  981TIP3    H2 2821   4.557   2.759   0.470
  982TIP3   OH2 2822   4.809   2.852   0.182
  982TIP3    H1 2823   4.903   2.863   0.158
  982TIP3    H2 2824   4.761   2.871   0.099
  983TIP3   OH2 2825   5.593   2.871   0.687
  983TIP3    H1 2826   5.556   2.882   0.777
  983TIP3    H2 2827   5.529   2.808   0.648
  984TIP3   OH2 2828   4.647   2.880  -0.034
  984TIP3    H1 2829   4.558   2.852  -0.060
  984TIP3    H2 2830   4.687   2.912  -0.117
  985TIP3   OH2 2831   5.762   4.559   0.904
  985TIP3    H1 2832   5.760   4.586   0.810
  985TIP3    H2 2833   5.838   4.611   0.937
  986TIP3   OH2 2834   4.718   3.672   1.329
  986TIP3    H1 2835   4.799   3.701   1.375
  986TIP3    H2 2836   4.655   3.669   1.404
  987TIP3   OH2 2837   5.187   3.127   0.585
  987TIP3    H1 2838   5.252   3.078   0.532
  987TIP3    H2 2839   5.193   3.082   0.671
  988TIP3   OH2 2840   4.712   2.611   0.459
  988TIP3    H1 2841   4.676   2.531   0.504
  988TIP3    H2 2842   4.758   2.572   0.384
  989TIP3   OH2 2843   5.162   3.020   0.868
  989TIP3    H1 2844   5.071   3.053   0.884
  989TIP3    H2 2845   5.217   3.080   0.922
  990TIP3   OH2 2846   4.896   3.410  -0.029
  990TIP3    H1 2847   4.824   3.344  -0.042
  990TIP3    H2 2848   4.877   3.442   0.063
  991TIP3   OH2 2849   5.800   3.649   0.596
  991TIP3    H1 2850   5.822   3.694   0.512
  991TIP3    H2 2851   5.715   3.605   0.575
  992TIP3   OH2 2852   5.376   2.725  -0.183
  992TIP3    H1 2853   5.282   2.695  -0.180
  992TIP3    H2 2854   5.369   2.818  -0.156
  993TIP3   OH2 2855   5.305   3.734   0.962
  993TIP3    H1 2856   5.313   3.703   1.053
  993TIP3    H2 2857   5.258   3.819   0.972
  994TIP3   OH2 2858   5.424   2.973  -0.063
  994TIP3    H1 2859   5.520   2.975  -0.049
  994TIP3    H2 2860   5.408   3.049  -0.122
  995TIP3   OH2 2861   4.595   3.438   0.644
  995TIP3    H1 2862   4.628   3.406   0.558
  995TIP3    H2 2863   4.621   3.366   0.704
  996TIP3   OH2 2864   5.047   3.573  -0.187
  996TIP3    H1 2865   4.996   3.657  -0.188
  996TIP3    H2 2866   4.986   3.513  -0.139
  997TIP3   OH2 2867   4.469   3.353   1.256
  997TIP3    H1 2868   4.486   3.336   1.351
  997TIP3    H2 2869   4.398   3.289   1.237
  998TIP3   OH2 2870   5.193   3.467   1.276
  998TIP3    H1 2871   5.133   3.409   1.227
  998TIP3    H2 2872   5.280   3.433   1.246
  999TIP3   OH2 2873   5.460   3.993   0.854
  999TIP3    H1 2874   5.364   3.986   0.870
  999TIP3    H2 2875   5.487   4.041   0.935
 1000TIP3   OH2 2876   5.832   3.079  -0.191
 1000TIP3    H1 2877   5.861   3.007  -0.249
 1000TIP3    H2 2878   5.836   3.156  -0.251
 1001TIP3   OH2 2879   6.087   3.917   0.850
 1001TIP3    H1 2880   5.989   3.913   0.844
 1001TIP3    H2 2881   6.111   3.888   0.760
 1002TIP3   OH2 2882   5.565   3.510   0.514
 1002TIP3    H1 2883   5.472   3.484   0.530
 1002TIP3    H2 2884   5.599   3.429   0.472
 1003TIP3   OH2 2885   4.689   3.736   0.268
 1003TIP3    H1 2886   4.691   3.818   0.215
 1003TIP3    H2 2887   4.594   3.720   0.274
 1004TIP3   OH2 2888   4.259   3.043  -0.024
 1004TIP3    H1 2889   4.301   3.129  -0.007
 1004TIP3    H2 2890   4.178   3.048   0.031
 1005TIP3   OH2 2891   4.835   3.506   0.217
 1005TIP3    H1 2892   4.796   3.594   0.233
 1005TIP3    H2 2893   4.794   3.454   0.289
 1006TIP3   OH2 2894   4.959   4.080   0.738
 1006TIP3    H1 2895   4.998   4.154   0.687
 1006TIP3    H2 2896   5.036   4.049   0.788
 1007TIP3   OH2 2897   4.612   3.974   0.123
 1007TIP3    H1 2898   4.524   3.981   0.166
 1007TIP3    H2 2899   4.641   4.068   0.124
 1008TIP3   OH2 2900   5.352   3.714   0.694
 1008TIP3    H1 2901   5.341   3.716   0.792
 1008TIP3    H2 2902   5.428   3.654   0.685
 1009TIP3   OH2 2903   5.600   4.247   0.743
 1009TIP3    H1 2904   5.520   4.192   0.740
 1009TIP3    H2 2905   5.581   4.313   0.673
 1010TIP3   OH2 2906   4.682   2.861   1.265
 1010TIP3    H1 2907   4.585   2.865   1.276
 1010TIP3    H2 2908   4.707   2.796   1.333
 1011TIP3   OH2 2909   5.477   3.568  -0.168
 1011TIP3    H1 2910   5.465   3.484  -0.119
 1011TIP3    H2 2911   5.568   3.555  -0.203
 1012TIP3   OH2 2912   4.399   3.946   0.897
 1012TIP3    H1 2913   4.448   3.867   0.924
 1012TIP3    H2 2914   4.431   4.011   0.960
 1013TIP3   OH2 2915   4.681   3.574  -0.428
 1013TIP3    H1 2916   4.705   3.482  -0.444
 1013TIP3    H2 2917   4.658   3.571  -0.333
 1014TIP3   OH2 2918   4.637   3.594  -0.150
 1014TIP3    H1 2919   4.703   3.564  -0.086
 1014TIP3    H2 2920   4.643   3.691  -0.143
 1015TIP3   OH2 2921   4.375   3.291   0.053
 1015TIP3    H1 2922   4.307   3.335   0.110
 1015TIP3    H2 2923   4.387   3.360  -0.015
 1016TIP3   OH2 2924   5.517   2.926   0.946
 1016TIP3    H1 2925   5.599   2.957   0.987
 1016TIP3    H2 2926   5.499   2.844   0.997
 1017TIP3   OH2 2927   5.386   2.682   0.106
 1017TIP3    H1 2928   5.379   2.699   0.010
 1017TIP3    H2 2929   5.431   2.762   0.138
 1018TIP3   OH2 2930   4.900   3.804  -0.210
 1018TIP3    H1 2931   4.814   3.826  -0.170
 1018TIP3    H2 2932   4.880   3.826  -0.303
 1019TIP3   OH2 2933   5.092   2.853   0.212
 1019TIP3    H1 2934   5.157   2.924   0.194
 1019TIP3    H2 2935   5.094   2.848   0.310
 1020TIP3   OH2 2936   5.358   3.176   1.018
 1020TIP3    H1 2937   5.374   3.228   1.099
 1020TIP3    H2 2938   5.411   3.095   1.033
 1021TIP3   OH2 2939   5.236   2.587   0.319
 1021TIP3    H1 2940   5.224   2.667   0.372
 1021TIP3    H2 2941   5.292   2.622   0.245
 1022TIP3   OH2 2942   4.645   3.864  -0.129
 1022TIP3    H1 2943   4.615   3.933  -0.193
 1022TIP3    H2 2944   4.626   3.907  -0.043
 1023TIP3   OH2 2945   4.745   2.579   0.108
 1023TIP3    H1 2946   4.741   2.670   0.142
 1023TIP3    H2 2947   4.841   2.562   0.116
 1024TIP3   OH2 2948   6.003   3.072   0.997
 1024TIP3    H1 2949   5.905   3.074   1.009
 1024TIP3    H2 2950   6.006   3.027   0.911
 1025TIP3   OH2 2951   5.649   3.269   0.389
 1025TIP3    H1 2952   5.572   3.210   0.399
 1025TIP3    H2 2953   5.719   3.220   0.436
 1026TIP3   OH2 2954   4.363   3.506  -0.140
 1026TIP3    H1 2955   4.434   3.571  -0.131
 1026TIP3    H2 2956   4.407   3.445  -0.204
 1027TIP3   OH2 2957   4.321   2.779  -0.014
 1027TIP3    H1 2958   4.304   2.875  -0.023
 1027TIP3    H2 2959   4.242   2.742  -0.054
 1028TIP3   OH2 2960   5.618   4.206   0.319
 1028TIP3    H1 2961   5.572   4.266   0.256
 1028TIP3    H2 2962   5.710   4.240   0.309
 1029TIP3   OH2 2963   4.695   2.493   0.866
 1029TIP3    H1 2964   4.662   2.459   0.780
 1029TIP3    H2 2965   4.684   2.414   0.923
 1030TIP3   OH2 2966   4.237   3.719   0.249
 1030TIP3    H1 2967   4.158   3.742   0.300
 1030TIP3    H2 2968   4.213   3.752   0.160
 1031TIP3   OH2 2969   4.388   4.249   1.319
 1031TIP3    H1 2970   4.474   4.248   1.364
 1031TIP3    H2 2971   4.367   4.154   1.314
 1032TIP3   OH2 2972   4.872   4.219   1.362
 1032TIP3    H1 2973   4.967   4.199   1.369
 1032TIP3    H2 2974   4.847   4.161   1.287
 1033TIP3   OH2 2975   5.514   4.120   1.092
 1033TIP3    H1 2976   5.502   4.052   1.162
 1033TIP3    H2 2977   5.588   4.173   1.126
 1034TIP3   OH2 2978   4.515   3.652   1.522
 1034TIP3    H1 2979   4.539   3.557   1.516
 1034TIP3    H2 2980   4.431   3.653   1.470
 1035TIP3   OH2 2981   4.508   3.325  -0.280
 1035TIP3    H1 2982   4.564   3.275  -0.218
 1035TIP3    H2 2983   4.536   3.292  -0.366
 1036TIP3   OH2 2984   5.129   3.742   1.290
 1036TIP3    H1 2985   5.084   3.756   1.204
 1036TIP3    H2 2986   5.158   3.649   1.284
 1037TIP3   OH2 2987   5.070   3.524  -0.460
 1037TIP3    H1 2988   5.053   3.549  -0.367
 1037TIP3    H2 2989   5.030   3.436  -0.464
 1038TIP3   OH2 2990   5.622   3.746   0.897
 1038TIP3    H1 2991   5.692   3.799   0.854
 1038TIP3    H2 2992   5.546   3.806   0.888
 1039TIP3   OH2 2993   4.639   3.396   1.498
 1039TIP3    H1 2994   4.706   3.330   1.478
 1039TIP3    H2 2995   4.667   3.426   1.587
 1040TIP3   OH2 2996   4.709   3.210  -0.064
 1040TIP3    H1 2997   4.678   3.166   0.017
 1040TIP3    H2 2998   4.742   3.134  -0.117
 1041TIP3   OH2 2999   4.976   3.280   1.165
 1041TIP3    H1 3000   4.895   3.336   1.167
 1041TIP3    H2 3001   5.020   3.311   1.083
 1042TIP3   OH2 3002   4.800   3.005  -0.231
 1042TIP3    H1 3003   4.788   2.982  -0.324
 1042TIP3    H2 3004   4.897   3.019  -0.227
 1043TIP3   OH2 3005   5.490   3.680   1.296
 1043TIP3    H1 3006   5.571   3.657   1.248
 1043TIP3    H2 3007   5.487   3.611   1.364
 1044TIP3   OH2 3008   5.100   3.065   1.288
 1044TIP3    H1 3009   5.096   2.983   1.233
 1044TIP3    H2 3010   5.054   3.130   1.230
 1045TIP3   OH2 3011   5.100   2.852   1.094
 1045TIP3    H1 3012   5.125   2.890   1.007
 1045TIP3    H2 3013   5.006   2.827   1.077
 1046TIP3   OH2 3014   5.131   3.391   0.969
 1046TIP3    H1 3015   5.208   3.392   0.911
 1046TIP3    H2 3016   5.072   3.456   0.925
 1047TIP3   OH2 3017   5.713   3.356   1.354
 1047TIP3    H1 3018   5.758   3.270   1.352
 1047TIP3    H2 3019   5.780   3.414   1.314
 1048TIP3   OH2 3020   5.752   3.607   1.087
 1048TIP3    H1 3021   5.693   3.658   1.027
 1048TIP3    H2 3022   5.838   3.626   1.044
 1049TIP3   OH2 3023   4.976   3.179   1.516
 1049TIP3    H1 3024   4.906   3.112   1.531
 1049TIP3    H2 3025   5.009   3.154   1.428
 1050TIP3   OH2 3026   5.232   2.617   1.160
 1050TIP3    H1 3027   5.182   2.698   1.138
 1050TIP3    H2 3028   5.163   2.548   1.148
 1051TIP3   OH2 3029   5.358   3.121   1.377
 1051TIP3    H1 3030   5.342   3.109   1.473
 1051TIP3    H2 3031   5.268   3.096   1.345
 1052TIP3   OH2 3032   5.599   3.072   1.234
 1052TIP3    H1 3033   5.520   3.071   1.291
 1052TIP3    H2 3034   5.668   3.035   1.293
 1053TIP3   OH2 3035   5.838   3.011   1.386
 1053TIP3    H1 3036   5.842   2.914   1.404
 1053TIP3    H2 3037   5.825   3.049   1.476
 1054TIP3   OH2 3038   4.816   2.960   1.568
 1054TIP3    H1 3039   4.819   2.869   1.532
 1054TIP3    H2 3040   4.849   2.945   1.658
 1055TIP3   OH2 3041   5.329   2.627   1.416
 1055TIP3    H1 3042   5.394   2.554   1.411
 1055TIP3    H2 3043   5.286   2.619   1.329
 1056TIP3   OH2 3044   5.394   2.841   1.576
 1056TIP3    H1 3045   5.370   2.769   1.512
 1056TIP3    H2 3046   5.315   2.899   1.570
 1057TIP3   OH2 3047   4.598   4.066  -0.307
 1057TIP3    H1 3048   4.677   4.087  -0.360
 1057TIP3    H2 3049   4.529   4.079  -0.373
 1058TIP3   OH2 3050   4.098   3.448  -0.091
 1058TIP3    H1 3051   4.188   3.481  -0.113
 1058TIP3    H2 3052   4.093   3.370  -0.148
 1059TIP3   OH2 3053   4.006   4.063   0.305
 1059TIP3    H1 3054   3.937   4.001   0.272
 1059TIP3    H2 3055   4.050   4.007   0.373
 1060TIP3   OH2 3056   4.142   3.919   0.494
 1060TIP3    H1 3057   4.128   3.842   0.551
 1060TIP3    H2 3058   4.192   3.977   0.554
 1061TIP3   OH2 3059   5.859   4.321   0.298
 1061TIP3    H1 3060   5.887   4.354   0.386
 1061TIP3    H2 3061   5.929   4.356   0.241
 1062TIP3   OH2 3062   5.901   4.335   0.575
 1062TIP3    H1 3063   5.860   4.246   0.574
 1062TIP3    H2 3064   5.975   4.318   0.635
 1063TIP3   OH2 3065   5.947   4.010   1.148
 1063TIP3    H1 3066   5.872   4.019   1.211
 1063TIP3    H2 3067   5.986   4.100   1.153
 1064TIP3   OH2 3068   5.743   3.538  -0.221
 1064TIP3    H1 3069   5.814   3.590  -0.261
 1064TIP3    H2 3070   5.793   3.479  -0.161
 1065TIP3   OH2 3071   5.892   3.395  -0.031
 1065TIP3    H1 3072   5.824   3.349   0.024
 1065TIP3    H2 3073   5.952   3.431   0.036
 1066TIP3   OH2 3074   5.937   3.782   0.398
 1066TIP3    H1 3075   5.996   3.718   0.354
 1066TIP3    H2 3076   5.942   3.860   0.340
 1067TIP3   OH2 3077   5.775   4.083   0.602
 1067TIP3    H1 3078   5.708   4.128   0.657
 1067TIP3    H2 3079   5.721   4.032   0.539
 1068TIP3   OH2 3080   5.708   3.249   0.119
 1068TIP3    H1 3081   5.710   3.152   0.111
 1068TIP3    H2 3082   5.693   3.260   0.216
 1069TIP3   OH2 3083   4.331   3.321   0.866
 1069TIP3    H1 3084   4.329   3.292   0.772
 1069TIP3    H2 3085   4.428   3.323   0.882
 1070TIP3   OH2 3086   5.992   3.672   0.976
 1070TIP3    H1 3087   6.066   3.607   0.967
 1070TIP3    H2 3088   6.021   3.744   0.916
 1071TIP3   OH2 3089   6.179   3.481   0.996
 1071TIP3    H1 3090   6.104   3.431   1.034
 1071TIP3    H2 3091   6.251   3.415   1.010
 1072TIP3   OH2 3092   5.625   2.711  -0.407
 1072TIP3    H1 3093   5.708   2.673  -0.370
 1072TIP3    H2 3094   5.558   2.663  -0.355
 1073TIP3   OH2 3095   5.696   2.969   0.023
 1073TIP3    H1 3096   5.741   2.882   0.033
 1073TIP3    H2 3097   5.747   3.008  -0.050
 1074TIP3   OH2 3098   5.863   3.140   0.510
 1074TIP3    H1 3099   5.949   3.167   0.471
 1074TIP3    H2 3100   5.875   3.175   0.600
 1075TIP3   OH2 3101   5.931   3.282   0.744
 1075TIP3    H1 3102   5.851   3.315   0.791
 1075TIP3    H2 3103   5.961   3.364   0.699
 1076TIP3   OH2 3104   4.549   3.014   1.548
 1076TIP3    H1 3105   4.646   3.003   1.543
 1076TIP3    H2 3106   4.522   2.927   1.584
 1077TIP3   OH2 3107   6.386   2.878   1.301
 1077TIP3    H1 3108   6.439   2.808   1.257
 1077TIP3    H2 3109   6.354   2.930   1.225
 1078TIP3   OH2 3110   5.810   2.720   0.055
 1078TIP3    H1 3111   5.854   2.701   0.140
 1078TIP3    H2 3112   5.746   2.644   0.052
 1079TIP3   OH2 3113   4.510   2.700   0.871
 1079TIP3    H1 3114   4.571   2.625   0.882
 1079TIP3    H2 3115   4.572   2.775   0.867
 1080TIP3   OH2 3116   4.315   2.976   0.948
 1080TIP3    H1 3117   4.360   2.964   0.862
 1080TIP3    H2 3118   4.344   3.065   0.971
 1081TIP3   OH2 3119   6.253   3.013   1.108
 1081TIP3    H1 3120   6.164   3.052   1.121
 1081TIP3    H2 3121   6.230   2.942   1.045
 1082TIP3   OH2 3122   5.874   2.648  -0.299
 1082TIP3    H1 3123   5.944   2.612  -0.354
 1082TIP3    H2 3124   5.890   2.742  -0.304
 1083TIP3   OH2 3125   4.295   2.483   0.449
 1083TIP3    H1 3126   4.201   2.476   0.474
 1083TIP3    H2 3127   4.292   2.538   0.368
 1084TIP3   OH2 3128   5.499   4.159  -0.036
 1084TIP3    H1 3129   5.485   4.163  -0.132
 1084TIP3    H2 3130   5.512   4.253  -0.015
 1085TIP3   OH2 3131   4.516   2.562   1.263
 1085TIP3    H1 3132   4.463   2.551   1.344
 1085TIP3    H2 3133   4.449   2.598   1.202
 1086TIP3   OH2 3134   4.556   3.984   1.338
 1086TIP3    H1 3135   4.465   3.956   1.320
 1086TIP3    H2 3136   4.564   3.969   1.433
 1087TIP3   OH2 3137   4.732   4.015   0.886
 1087TIP3    H1 3138   4.682   4.090   0.847
 1087TIP3    H2 3139   4.817   4.030   0.840
 1088TIP3   OH2 3140   5.180   4.262   1.022
 1088TIP3    H1 3141   5.221   4.264   1.111
 1088TIP3    H2 3142   5.246   4.313   0.970
 1089TIP3   OH2 3143   5.360   4.411   0.880
 1089TIP3    H1 3144   5.434   4.361   0.843
 1089TIP3    H2 3145   5.407   4.471   0.941
 1090TIP3   OH2 3146   6.151   2.776   0.982
 1090TIP3    H1 3147   6.060   2.771   0.948
 1090TIP3    H2 3148   6.180   2.683   0.969
 1091TIP3   OH2 3149   4.412   4.276   0.908
 1091TIP3    H1 3150   4.323   4.309   0.882
 1091TIP3    H2 3151   4.416   4.308   0.998
 1092TIP3   OH2 3152   4.647   4.253   0.765
 1092TIP3    H1 3153   4.561   4.266   0.811
 1092TIP3    H2 3154   4.625   4.286   0.675
 1093TIP3   OH2 3155   5.074   4.283   0.560
 1093TIP3    H1 3156   5.001   4.304   0.499
 1093TIP3    H2 3157   5.086   4.370   0.605
 1094TIP3   OH2 3158   5.341   4.222   0.607
 1094TIP3    H1 3159   5.245   4.238   0.592
 1094TIP3    H2 3160   5.379   4.305   0.575
 1095TIP3   OH2 3161   5.551   4.415   0.529
 1095TIP3    H1 3162   5.533   4.503   0.489
 1095TIP3    H2 3163   5.571   4.362   0.449
 1096TIP3   OH2 3164   4.322   4.070   0.654
 1096TIP3    H1 3165   4.348   4.043   0.745
 1096TIP3    H2 3166   4.393   4.025   0.603
 1097TIP3   OH2 3167   4.514   3.940   0.509
 1097TIP3    H1 3168   4.529   3.855   0.557
 1097TIP3    H2 3169   4.604   3.976   0.504
 1098TIP3   OH2 3170   4.782   4.037   0.509
 1098TIP3    H1 3171   4.811   3.945   0.495
 1098TIP3    H2 3172   4.821   4.055   0.596
 1099TIP3   OH2 3173   5.360   2.693   0.605
 1099TIP3    H1 3174   5.313   2.624   0.656
 1099TIP3    H2 3175   5.422   2.640   0.552
 1100TIP3   OH2 3176   5.884   2.579   0.512
 1100TIP3    H1 3177   5.917   2.627   0.433
 1100TIP3    H2 3178   5.787   2.586   0.500
 1101TIP3   OH2 3179   5.977   2.675   0.273
 1101TIP3    H1 3180   6.048   2.622   0.231
 1101TIP3    H2 3181   6.009   2.766   0.256
 1102TIP3   OH2 3182   4.606   2.401   0.618
 1102TIP3    H1 3183   4.514   2.367   0.619
 1102TIP3    H2 3184   4.655   2.316   0.615
 1103TIP3   OH2 3185   4.373   2.267   0.258
 1103TIP3    H1 3186   4.421   2.321   0.192
 1103TIP3    H2 3187   4.357   2.333   0.328
 1104TIP3   OH2 3188   5.047   2.434   0.495
 1104TIP3    H1 3189   5.110   2.483   0.440
 1104TIP3    H2 3190   5.066   2.469   0.583
 1105TIP3   OH2 3191   5.605   2.578   0.478
 1105TIP3    H1 3192   5.592   2.542   0.389
 1105TIP3    H2 3193   5.587   2.498   0.534
 1106TIP3   OH2 3194   5.615   2.508   0.065
 1106TIP3    H1 3195   5.523   2.540   0.059
 1106TIP3    H2 3196   5.601   2.422   0.107
 1107TIP3   OH2 3197   4.111   3.836   0.042
 1107TIP3    H1 3198   4.026   3.799   0.011
 1107TIP3    H2 3199   4.093   3.931   0.033
 1108TIP3   OH2 3200   4.510   2.419   0.070
 1108TIP3    H1 3201   4.540   2.367  -0.005
 1108TIP3    H2 3202   4.585   2.480   0.084
 1109TIP3   OH2 3203   5.020   2.603   0.128
 1109TIP3    H1 3204   5.079   2.553   0.187
 1109TIP3    H2 3205   5.045   2.695   0.153
 1110TIP3   OH2 3206   4.813   2.685   1.512
 1110TIP3    H1 3207   4.780   2.611   1.565
 1110TIP3    H2 3208   4.908   2.684   1.536
 1111TIP3   OH2 3209   5.064   2.680   1.628
 1111TIP3    H1 3210   5.145   2.648   1.587
 1111TIP3    H2 3211   5.048   2.610   1.695
 1112TIP3   OH2 3212   4.231   3.905  -0.288
 1112TIP3    H1 3213   4.173   3.905  -0.211
 1112TIP3    H2 3214   4.269   3.817  -0.286
 1113TIP3   OH2 3215   5.886   2.739   1.415
 1113TIP3    H1 3216   5.906   2.707   1.506
 1113TIP3    H2 3217   5.974   2.732   1.372
 1114TIP3   OH2 3218   5.830   4.292   0.905
 1114TIP3    H1 3219   5.748   4.260   0.861
 1114TIP3    H2 3220   5.810   4.388   0.909
 1115TIP3   OH2 3221   7.085   3.644   0.061
 1115TIP3    H1 3222   7.126   3.634   0.149
 1115TIP3    H2 3223   7.041   3.557   0.054
 1116TIP3   OH2 3224   6.390   3.560   0.419
 1116TIP3    H1 3225   6.421   3.492   0.482
 1116TIP3    H2 3226   6.469   3.615   0.411
 1117TIP3   OH2 3227   6.357   3.962   0.153
 1117TIP3    H1 3228   6.348   3.864   0.151
 1117TIP3    H2 3229   6.451   3.970   0.171
 1118TIP3   OH2 3230   6.061   3.173  -0.067
 1118TIP3    H1 3231   6.021   3.262  -0.058
 1118TIP3    H2 3232   5.980   3.122  -0.089
 1119TIP3   OH2 3233   6.135   3.463   0.099
 1119TIP3    H1 3234   6.179   3.384   0.138
 1119TIP3    H2 3235   6.196   3.485   0.027
 1120TIP3   OH2 3236   6.888   3.895   0.095
 1120TIP3    H1 3237   6.913   3.807   0.062
 1120TIP3    H2 3238   6.976   3.926   0.127
 1121TIP3   OH2 3239   7.306   3.391   0.138
 1121TIP3    H1 3240   7.346   3.309   0.171
 1121TIP3    H2 3241   7.295   3.367   0.045
 1122TIP3   OH2 3242   6.627   3.042   0.114
 1122TIP3    H1 3243   6.607   3.120   0.058
 1122TIP3    H2 3244   6.582   2.973   0.061
 1123TIP3   OH2 3245   6.272   3.251   0.204
 1123TIP3    H1 3246   6.356   3.231   0.251
 1123TIP3    H2 3247   6.282   3.192   0.126
 1124TIP3   OH2 3248   6.732   3.459   0.014
 1124TIP3    H1 3249   6.824   3.427   0.022
 1124TIP3    H2 3250   6.686   3.379  -0.017
 1125TIP3   OH2 3251   7.950   3.411   0.265
 1125TIP3    H1 3252   7.873   3.472   0.258
 1125TIP3    H2 3253   7.989   3.436   0.349
 1126TIP3   OH2 3254   6.638   3.034   0.535
 1126TIP3    H1 3255   6.576   3.070   0.468
 1126TIP3    H2 3256   6.586   3.051   0.617
 1127TIP3   OH2 3257   6.745   3.811   0.331
 1127TIP3    H1 3258   6.677   3.868   0.374
 1127TIP3    H2 3259   6.787   3.873   0.271
 1128TIP3   OH2 3260   6.503   3.152   0.326
 1128TIP3    H1 3261   6.567   3.224   0.345
 1128TIP3    H2 3262   6.550   3.107   0.251
 1129TIP3   OH2 3263   6.568   3.999   0.423
 1129TIP3    H1 3264   6.542   4.089   0.392
 1129TIP3    H2 3265   6.492   3.982   0.483
 1130TIP3   OH2 3266   7.691   3.112   0.256
 1130TIP3    H1 3267   7.599   3.140   0.244
 1130TIP3    H2 3268   7.731   3.138   0.172
 1131TIP3   OH2 3269   6.998   2.755   0.254
 1131TIP3    H1 3270   6.981   2.659   0.268
 1131TIP3    H2 3271   6.917   2.793   0.295
 1132TIP3   OH2 3272   7.619   4.138   0.248
 1132TIP3    H1 3273   7.639   4.073   0.179
 1132TIP3    H2 3274   7.600   4.216   0.194
 1133TIP3   OH2 3275   7.500   3.636   0.390
 1133TIP3    H1 3276   7.502   3.718   0.442
 1133TIP3    H2 3277   7.416   3.646   0.343
 1134TIP3   OH2 3278   6.472   3.539  -0.074
 1134TIP3    H1 3279   6.459   3.600  -0.150
 1134TIP3    H2 3280   6.568   3.525  -0.073
 1135TIP3   OH2 3281   6.643   4.011   0.021
 1135TIP3    H1 3282   6.593   3.931  -0.004
 1135TIP3    H2 3283   6.726   3.972   0.056
 1136TIP3   OH2 3284   6.642   3.565   0.255
 1136TIP3    H1 3285   6.670   3.543   0.163
 1136TIP3    H2 3286   6.683   3.653   0.269
 1137TIP3   OH2 3287   6.776   4.124   0.566
 1137TIP3    H1 3288   6.720   4.186   0.617
 1137TIP3    H2 3289   6.708   4.071   0.522
 1138TIP3   OH2 3290   6.530   3.683   0.668
 1138TIP3    H1 3291   6.534   3.768   0.717
 1138TIP3    H2 3292   6.435   3.662   0.677
 1139TIP3   OH2 3293   6.572   4.291   0.657
 1139TIP3    H1 3294   6.533   4.288   0.568
 1139TIP3    H2 3295   6.494   4.271   0.714
 1140TIP3   OH2 3296   6.151   3.821   0.604
 1140TIP3    H1 3297   6.087   3.795   0.535
 1140TIP3    H2 3298   6.188   3.735   0.633
 1141TIP3   OH2 3299   6.002   4.013   0.241
 1141TIP3    H1 3300   6.098   4.006   0.226
 1141TIP3    H2 3301   5.997   4.093   0.296
 1142TIP3   OH2 3302   7.863   4.455   0.284
 1142TIP3    H1 3303   7.892   4.367   0.313
 1142TIP3    H2 3304   7.795   4.476   0.350
 1143TIP3   OH2 3305   6.971   4.255   0.422
 1143TIP3    H1 3306   6.973   4.345   0.461
 1143TIP3    H2 3307   6.903   4.213   0.479
 1144TIP3   OH2 3308   7.755   3.594   0.572
 1144TIP3    H1 3309   7.681   3.607   0.510
 1144TIP3    H2 3310   7.773   3.499   0.561
 1145TIP3   OH2 3311   6.358   4.002   0.593
 1145TIP3    H1 3312   6.405   3.990   0.678
 1145TIP3    H2 3313   6.282   3.941   0.602
 1146TIP3   OH2 3314   6.755   2.829   0.374
 1146TIP3    H1 3315   6.665   2.797   0.350
 1146TIP3    H2 3316   6.729   2.912   0.420
 1147TIP3   OH2 3317   7.287   2.944   0.570
 1147TIP3    H1 3318   7.355   2.917   0.636
 1147TIP3    H2 3319   7.203   2.923   0.616
 1148TIP3   OH2 3320   7.527   3.372   0.486
 1148TIP3    H1 3321   7.483   3.367   0.574
 1148TIP3    H2 3322   7.503   3.462   0.457
 1149TIP3   OH2 3323   6.690   3.342   0.399
 1149TIP3    H1 3324   6.636   3.361   0.479
 1149TIP3    H2 3325   6.672   3.422   0.345
 1150TIP3   OH2 3326   6.554   3.237  -0.048
 1150TIP3    H1 3327   6.466   3.192  -0.063
 1150TIP3    H2 3328   6.584   3.259  -0.137
 1151TIP3   OH2 3329   7.235   3.596   0.723
 1151TIP3    H1 3330   7.213   3.523   0.785
 1151TIP3    H2 3331   7.328   3.611   0.746
 1152TIP3   OH2 3332   6.506   3.374   0.604
 1152TIP3    H1 3333   6.528   3.437   0.674
 1152TIP3    H2 3334   6.492   3.291   0.655
 1153TIP3   OH2 3335   6.097   2.902   0.183
 1153TIP3    H1 3336   6.176   2.925   0.237
 1153TIP3    H2 3337   6.134   2.858   0.105
 1154TIP3   OH2 3338   4.342   1.060   9.114
 1154TIP3    H1 3339   4.352   1.153   9.087
 1154TIP3    H2 3340   4.246   1.052   9.126
 1155TIP3   OH2 3341   7.226   3.596   0.293
 1155TIP3    H1 3342   7.260   3.519   0.242
 1155TIP3    H2 3343   7.201   3.550   0.376
 1156TIP3   OH2 3344   6.880   2.985   0.018
 1156TIP3    H1 3345   6.798   3.023   0.055
 1156TIP3    H2 3346   6.948   3.043   0.054
 1157TIP3   OH2 3347   6.316   3.092  -0.034
 1157TIP3    H1 3348   6.219   3.101  -0.042
 1157TIP3    H2 3349   6.331   2.996  -0.045
 1158TIP3   OH2 3350   7.381   3.127   0.176
 1158TIP3    H1 3351   7.351   3.141   0.269
 1158TIP3    H2 3352   7.317   3.060   0.147
 1159TIP3   OH2 3353   7.558   4.807   0.388
 1159TIP3    H1 3354   7.491   4.861   0.340
 1159TIP3    H2 3355   7.615   4.873   0.428
 1160TIP3   OH2 3356   6.518   3.926   0.814
 1160TIP3    H1 3357   6.596   3.958   0.863
 1160TIP3    H2 3358   6.451   3.927   0.886
 1161TIP3   OH2 3359   6.995   3.379   0.069
 1161TIP3    H1 3360   7.024   3.304   0.014
 1161TIP3    H2 3361   6.999   3.341   0.159
 1162TIP3   OH2 3362   6.509   2.862  -0.059
 1162TIP3    H1 3363   6.470   2.787  -0.011
 1162TIP3    H2 3364   6.587   2.824  -0.100
 1163TIP3   OH2 3365   6.959   3.281   0.350
 1163TIP3    H1 3366   6.868   3.311   0.371
 1163TIP3    H2 3367   7.015   3.336   0.408
 1164TIP3   OH2 3368   7.092   3.987   0.449
 1164TIP3    H1 3369   7.117   3.957   0.537
 1164TIP3    H2 3370   7.054   4.074   0.466
 1165TIP3   OH2 3371   6.392   3.690   0.138
 1165TIP3    H1 3372   6.411   3.644   0.054
 1165TIP3    H2 3373   6.416   3.621   0.202
 1166TIP3   OH2 3374   6.266   3.610   0.742
 1166TIP3    H1 3375   6.287   3.597   0.837
 1166TIP3    H2 3376   6.196   3.544   0.727
 1167TIP3   OH2 3377   6.990   3.724   0.762
 1167TIP3    H1 3378   6.932   3.663   0.714
 1167TIP3    H2 3379   7.079   3.691   0.735
 1168TIP3   OH2 3380   7.248   4.240   0.346
 1168TIP3    H1 3381   7.153   4.243   0.366
 1168TIP3    H2 3382   7.284   4.291   0.421
 1169TIP3   OH2 3383   7.876   4.180   0.363
 1169TIP3    H1 3384   7.778   4.189   0.353
 1169TIP3    H2 3385   7.901   4.155   0.272
 1170TIP3   OH2 3386   6.755   4.316   0.232
 1170TIP3    H1 3387   6.785   4.387   0.172
 1170TIP3    H2 3388   6.835   4.297   0.284
 1171TIP3   OH2 3389   7.135   3.980   0.177
 1171TIP3    H1 3390   7.131   3.978   0.276
 1171TIP3    H2 3391   7.231   3.967   0.163
 1172TIP3   OH2 3392   6.479   3.117   0.752
 1172TIP3    H1 3393   6.382   3.122   0.764
 1172TIP3    H2 3394   6.504   3.053   0.820
 1173TIP3   OH2 3395   6.194   4.199   0.391
 1173TIP3    H1 3396   6.248   4.124   0.421
 1173TIP3    H2 3397   6.219   4.266   0.456
 1174TIP3   OH2 3398   7.313   3.181   0.433
 1174TIP3    H1 3399   7.392   3.220   0.475
 1174TIP3    H2 3400   7.299   3.100   0.486
 1175TIP3   OH2 3401   7.157   3.435   0.505
 1175TIP3    H1 3402   7.173   3.487   0.586
 1175TIP3    H2 3403   7.210   3.355   0.522
 1176TIP3   OH2 3404   7.795   3.329   0.491
 1176TIP3    H1 3405   7.697   3.324   0.490
 1176TIP3    H2 3406   7.816   3.302   0.400
 1177TIP3   OH2 3407   6.491   2.748   0.352
 1177TIP3    H1 3408   6.457   2.715   0.267
 1177TIP3    H2 3409   6.479   2.670   0.411
 1178TIP3   OH2 3410   6.185   4.506   0.802
 1178TIP3    H1 3411   6.270   4.507   0.852
 1178TIP3    H2 3412   6.163   4.411   0.805
 1179TIP3   OH2 3413   6.668   4.476   0.848
 1179TIP3    H1 3414   6.763   4.458   0.859
 1179TIP3    H2 3415   6.646   4.416   0.774
 1180TIP3   OH2 3416   7.314   4.377   0.574
 1180TIP3    H1 3417   7.300   4.310   0.644
 1180TIP3    H2 3418   7.389   4.429   0.612
 1181TIP3   OH2 3419   6.317   3.914   1.004
 1181TIP3    H1 3420   6.332   3.818   1.008
 1181TIP3    H2 3421   6.228   3.917   0.963
 1182TIP3   OH2 3422   6.926   3.999   0.776
 1182TIP3    H1 3423   6.882   4.011   0.690
 1182TIP3    H2 3424   6.957   3.906   0.772
 1183TIP3   OH2 3425   7.415   4.005   0.382
 1183TIP3    H1 3426   7.487   4.054   0.337
 1183TIP3    H2 3427   7.344   4.071   0.377
 1184TIP3   OH2 3428   6.435   3.646   0.985
 1184TIP3    H1 3429   6.510   3.588   0.968
 1184TIP3    H2 3430   6.458   3.681   1.074
 1185TIP3   OH2 3431   6.770   3.534   0.650
 1185TIP3    H1 3432   6.692   3.593   0.654
 1185TIP3    H2 3433   6.816   3.566   0.569
 1186TIP3   OH2 3434   7.285   3.934   0.780
 1186TIP3    H1 3435   7.372   3.920   0.742
 1186TIP3    H2 3436   7.283   3.869   0.852
 1187TIP3   OH2 3437   6.893   3.321   0.776
 1187TIP3    H1 3438   6.892   3.240   0.720
 1187TIP3    H2 3439   6.849   3.386   0.718
 1188TIP3   OH2 3440   6.896   3.109   0.579
 1188TIP3    H1 3441   6.921   3.146   0.492
 1188TIP3    H2 3442   6.802   3.084   0.563
 1189TIP3   OH2 3443   6.924   3.644   0.454
 1189TIP3    H1 3444   7.005   3.648   0.402
 1189TIP3    H2 3445   6.868   3.712   0.411
 1190TIP3   OH2 3446   7.506   3.611   0.836
 1190TIP3    H1 3447   7.555   3.528   0.848
 1190TIP3    H2 3448   7.576   3.670   0.805
 1191TIP3   OH2 3449   7.552   3.864   0.566
 1191TIP3    H1 3450   7.492   3.917   0.510
 1191TIP3    H2 3451   7.637   3.881   0.520
 1192TIP3   OH2 3452   6.769   3.436   1.003
 1192TIP3    H1 3453   6.701   3.367   1.016
 1192TIP3    H2 3454   6.806   3.411   0.916
 1193TIP3   OH2 3455   7.028   2.873   0.646
 1193TIP3    H1 3456   6.979   2.955   0.624
 1193TIP3    H2 3457   6.957   2.805   0.635
 1194TIP3   OH2 3458   7.154   3.378   0.864
 1194TIP3    H1 3459   7.146   3.367   0.960
 1194TIP3    H2 3460   7.064   3.352   0.836
 1195TIP3   OH2 3461   7.393   3.323   0.717
 1195TIP3    H1 3462   7.318   3.326   0.779
 1195TIP3    H2 3463   7.467   3.294   0.775
 1196TIP3   OH2 3464   7.619   3.264   0.870
 1196TIP3    H1 3465   7.633   3.169   0.891
 1196TIP3    H2 3466   7.617   3.306   0.959
 1197TIP3   OH2 3467   6.611   3.216   1.056
 1197TIP3    H1 3468   6.617   3.125   1.019
 1197TIP3    H2 3469   6.646   3.201   1.146
 1198TIP3   OH2 3470   7.123   2.881   0.904
 1198TIP3    H1 3471   7.191   2.811   0.898
 1198TIP3    H2 3472   7.083   2.874   0.815
 1199TIP3   OH2 3473   7.187   3.095   1.065
 1199TIP3    H1 3474   7.165   3.025   1.000
 1199TIP3    H2 3475   7.110   3.156   1.057
 1200TIP3   OH2 3476   5.929   4.174   0.002
 1200TIP3    H1 3477   5.929   4.096   0.059
 1200TIP3    H2 3478   5.974   4.238   0.060
 1201TIP3   OH2 3479   7.738   4.266   0.636
 1201TIP3    H1 3480   7.667   4.277   0.702
 1201TIP3    H2 3481   7.781   4.354   0.639
 1202TIP3   OH2 3482   6.126   3.584   0.351
 1202TIP3    H1 3483   6.125   3.551   0.258
 1202TIP3    H2 3484   6.222   3.583   0.370
 1203TIP3   OH2 3485   7.788   3.929   0.443
 1203TIP3    H1 3486   7.864   3.867   0.454
 1203TIP3    H2 3487   7.831   4.015   0.424
 1204TIP3   OH2 3488   7.968   3.738   0.499
 1204TIP3    H1 3489   7.894   3.682   0.530
 1204TIP3    H2 3490   8.043   3.675   0.508
 1205TIP3   OH2 3491   7.731   3.572   0.241
 1205TIP3    H1 3492   7.647   3.578   0.291
 1205TIP3    H2 3493   7.701   3.607   0.155
 1206TIP3   OH2 3494   6.344   3.267   1.032
 1206TIP3    H1 3495   6.441   3.258   1.029
 1206TIP3    H2 3496   6.319   3.181   1.071
 1207TIP3   OH2 3497   8.179   3.129   0.786
 1207TIP3    H1 3498   8.234   3.063   0.739
 1207TIP3    H2 3499   8.149   3.187   0.713
 1208TIP3   OH2 3500   6.306   2.956   0.356
 1208TIP3    H1 3501   6.369   2.881   0.368
 1208TIP3    H2 3502   6.367   3.032   0.355
 1209TIP3   OH2 3503   6.111   3.232   0.433
 1209TIP3    H1 3504   6.157   3.221   0.348
 1209TIP3    H2 3505   6.142   3.319   0.462
 1210TIP3   OH2 3506   8.051   3.275   0.597
 1210TIP3    H1 3507   7.961   3.310   0.614
 1210TIP3    H2 3508   8.029   3.205   0.532
 1211TIP3   OH2 3509   6.085   2.750  -0.065
 1211TIP3    H1 3510   5.994   2.734  -0.034
 1211TIP3    H2 3511   6.070   2.796  -0.149
 1212TIP3   OH2 3512   6.312   2.817   0.749
 1212TIP3    H1 3513   6.259   2.808   0.830
 1212TIP3    H2 3514   6.245   2.854   0.688
 1213TIP3   OH2 3515   6.353   4.235   0.824
 1213TIP3    H1 3516   6.260   4.212   0.808
 1213TIP3    H2 3517   6.360   4.226   0.919
 1214TIP3   OH2 3518   6.523   4.269   0.373
 1214TIP3    H1 3519   6.470   4.339   0.332
 1214TIP3    H2 3520   6.610   4.285   0.330
 1215TIP3   OH2 3521   6.975   4.517   0.509
 1215TIP3    H1 3522   7.011   4.515   0.600
 1215TIP3    H2 3523   7.042   4.573   0.465
 1216TIP3   OH2 3524   7.160   4.661   0.366
 1216TIP3    H1 3525   7.233   4.598   0.360
 1216TIP3    H2 3526   7.197   4.724   0.432
 1217TIP3   OH2 3527   7.948   3.035   0.477
 1217TIP3    H1 3528   7.859   3.035   0.438
 1217TIP3    H2 3529   7.976   2.942   0.460
 1218TIP3   OH2 3530   6.210   4.529   0.399
 1218TIP3    H1 3531   6.122   4.561   0.371
 1218TIP3    H2 3532   6.216   4.569   0.487
 1219TIP3   OH2 3533   6.434   4.524   0.244
 1219TIP3    H1 3534   6.355   4.531   0.303
 1219TIP3    H2 3535   6.391   4.527   0.157
 1220TIP3   OH2 3536   6.102   4.325   0.162
 1220TIP3    H1 3537   6.132   4.299   0.251
 1220TIP3    H2 3538   6.174   4.283   0.109
 1221TIP3   OH2 3539   6.301   4.207   0.028
 1221TIP3    H1 3540   6.318   4.116   0.060
 1221TIP3    H2 3541   6.393   4.242   0.021
 1222TIP3   OH2 3542   6.565   4.282   0.029
 1222TIP3    H1 3543   6.591   4.188   0.021
 1222TIP3    H2 3544   6.621   4.308   0.104
 1223TIP3   OH2 3545   7.163   2.957   0.104
 1223TIP3    H1 3546   7.096   2.900   0.146
 1223TIP3    H2 3547   7.225   2.891   0.067
 1224TIP3   OH2 3548   7.669   2.858   0.024
 1224TIP3    H1 3549   7.711   2.934  -0.020
 1224TIP3    H2 3550   7.575   2.880   0.018
 1225TIP3   OH2 3551   6.399   2.661   0.102
 1225TIP3    H1 3552   6.308   2.627   0.102
 1225TIP3    H2 3553   6.448   2.575   0.104
 1226TIP3   OH2 3554   6.208   2.522  -0.214
 1226TIP3    H1 3555   6.173   2.549  -0.301
 1226TIP3    H2 3556   6.170   2.587  -0.154
 1227TIP3   OH2 3557   6.851   2.690  -0.018
 1227TIP3    H1 3558   6.882   2.769  -0.065
 1227TIP3    H2 3559   6.854   2.724   0.073
 1228TIP3   OH2 3560   7.366   2.813  -0.006
 1228TIP3    H1 3561   7.331   2.766  -0.086
 1228TIP3    H2 3562   7.375   2.736   0.054
 1229TIP3   OH2 3563   6.609   2.940   0.997
 1229TIP3    H1 3564   6.576   2.867   1.053
 1229TIP3    H2 3565   6.704   2.939   1.021
 1230TIP3   OH2 3566   6.858   2.936   1.115
 1230TIP3    H1 3567   6.943   2.911   1.074
 1230TIP3    H2 3568   6.846   2.863   1.180
 1231TIP3   OH2 3569   7.682   2.994   0.902
 1231TIP3    H1 3570   7.702   2.964   0.993
 1231TIP3    H2 3571   7.770   2.990   0.859
 1232TIP3   OH2 3572   7.633   4.540   0.416
 1232TIP3    H1 3573   7.590   4.493   0.342
 1232TIP3    H2 3574   7.609   4.633   0.402
 1233TIP3   OH2 3575   8.352   4.125   0.338
 1233TIP3    H1 3576   8.406   4.185   0.393
 1233TIP3    H2 3577   8.277   4.111   0.399
 1234TIP3   OH2 3578   8.070   3.824   0.250
 1234TIP3    H1 3579   8.123   3.849   0.329
 1234TIP3    H2 3580   8.021   3.748   0.287
 1235TIP3   OH2 3581   8.217   3.283   0.263
 1235TIP3    H1 3582   8.199   3.377   0.256
 1235TIP3    H2 3583   8.288   3.278   0.329
 1236TIP3   OH2 3584   8.118   4.170   0.490
 1236TIP3    H1 3585   8.119   4.075   0.510
 1236TIP3    H2 3586   8.027   4.182   0.456
 1237TIP3   OH2 3587   8.227   3.890   0.476
 1237TIP3    H1 3588   8.304   3.834   0.459
 1237TIP3    H2 3589   8.250   3.928   0.564
 1238TIP3   OH2 3590   8.548   3.703   0.470
 1238TIP3    H1 3591   8.483   3.632   0.487
 1238TIP3    H2 3592   8.586   3.673   0.387
 1239TIP3   OH2 3593   8.402   3.480   0.553
 1239TIP3    H1 3594   8.422   3.404   0.497
 1239TIP3    H2 3595   8.437   3.452   0.640
 1240TIP3   OH2 3596   8.136   3.526   0.511
 1240TIP3    H1 3597   8.234   3.521   0.515
 1240TIP3    H2 3598   8.114   3.440   0.554
 1241TIP3   OH2 3599   8.065   3.065   0.218
 1241TIP3    H1 3600   8.045   3.067   0.312
 1241TIP3    H2 3601   8.097   3.158   0.205
 1242TIP3   OH2 3602   8.376   3.185   0.469
 1242TIP3    H1 3603   8.346   3.117   0.532
 1242TIP3    H2 3604   8.470   3.194   0.498
 1243TIP3   OH2 3605   8.611   3.193   0.594
 1243TIP3    H1 3606   8.708   3.203   0.586
 1243TIP3    H2 3607   8.608   3.121   0.659
 1244TIP3   OH2 3608   0.426   4.181   1.976
 1244TIP3    H1 3609   0.354   4.233   1.936
 1244TIP3    H2 3610   0.457   4.241   2.047
 1245TIP3   OH2 3611  -0.135   4.971   1.622
 1245TIP3    H1 3612  -0.224   4.992   1.651
 1245TIP3    H2 3613  -0.116   5.038   1.551
 1246TIP3   OH2 3614   0.068   4.913   1.937
 1246TIP3    H1 3615   0.090   4.837   1.881
 1246TIP3    H2 3616   0.100   4.988   1.884
 1247TIP3   OH2 3617   0.277   4.528   1.770
 1247TIP3    H1 3618   0.199   4.586   1.783
 1247TIP3    H2 3619   0.310   4.564   1.685
 1248TIP3   OH2 3620  -0.031   4.427   2.086
 1248TIP3    H1 3621  -0.035   4.510   2.139
 1248TIP3    H2 3622  -0.109   4.435   2.030
 1249TIP3   OH2 3623   0.314   5.256   1.964
 1249TIP3    H1 3624   0.339   5.165   1.990
 1249TIP3    H2 3625   0.238   5.271   2.024
 1250TIP3   OH2 3626  -0.555   5.029   2.124
 1250TIP3    H1 3627  -0.544   5.123   2.153
 1250TIP3    H2 3628  -0.650   5.020   2.138
 1251TIP3   OH2 3629   0.210   4.378   2.265
 1251TIP3    H1 3630   0.138   4.399   2.204
 1251TIP3    H2 3631   0.223   4.283   2.251
 1252TIP3   OH2 3632  -0.028   4.159   2.164
 1252TIP3    H1 3633  -0.057   4.159   2.258
 1252TIP3    H2 3634  -0.034   4.255   2.143
 1253TIP3   OH2 3635  -0.314   4.403   2.423
 1253TIP3    H1 3636  -0.338   4.321   2.469
 1253TIP3    H2 3637  -0.217   4.402   2.432
 1254TIP3   OH2 3638   0.007   5.604   2.101
 1254TIP3    H1 3639   0.007   5.622   2.005
 1254TIP3    H2 3640   0.085   5.653   2.131
 1255TIP3   OH2 3641   0.057   4.689   1.771
 1255TIP3    H1 3642   0.089   4.739   1.692
 1255TIP3    H2 3643  -0.038   4.688   1.755
 1256TIP3   OH2 3644  -0.438   4.781   2.127
 1256TIP3    H1 3645  -0.427   4.754   2.219
 1256TIP3    H2 3646  -0.485   4.866   2.137
 1257TIP3   OH2 3647  -0.555   4.518   2.482
 1257TIP3    H1 3648  -0.611   4.498   2.403
 1257TIP3    H2 3649  -0.467   4.487   2.449
 1258TIP3   OH2 3650  -0.298   5.082   2.019
 1258TIP3    H1 3651  -0.385   5.047   2.044
 1258TIP3    H2 3652  -0.264   5.106   2.109
 1259TIP3   OH2 3653  -0.339   4.809   1.855
 1259TIP3    H1 3654  -0.353   4.811   1.951
 1259TIP3    H2 3655  -0.334   4.715   1.837
 1260TIP3   OH2 3656  -0.142   5.291   1.934
 1260TIP3    H1 3657  -0.203   5.217   1.957
 1260TIP3    H2 3658  -0.187   5.334   1.860
 1261TIP3   OH2 3659   0.242   4.109   2.180
 1261TIP3    H1 3660   0.145   4.107   2.167
 1261TIP3    H2 3661   0.275   4.113   2.089
 1262TIP3   OH2 3662  -0.229   5.161   2.269
 1262TIP3    H1 3663  -0.238   5.093   2.339
 1262TIP3    H2 3664  -0.156   5.216   2.303
 1263TIP3   OH2 3665  -0.610   4.791   2.456
 1263TIP3    H1 3666  -0.671   4.766   2.386
 1263TIP3    H2 3667  -0.576   4.703   2.482
 1264TIP3   OH2 3668  -0.129   4.783   2.070
 1264TIP3    H1 3669  -0.053   4.830   2.028
 1264TIP3    H2 3670  -0.196   4.853   2.064
 1265TIP3   OH2 3671  -0.264   4.717   2.472
 1265TIP3    H1 3672  -0.177   4.708   2.429
 1265TIP3    H2 3673  -0.260   4.648   2.540
 1266TIP3   OH2 3674  -0.034   4.413   2.537
 1266TIP3    H1 3675  -0.004   4.323   2.515
 1266TIP3    H2 3676   0.036   4.467   2.499
 1267TIP3   OH2 3677   0.004   4.648   2.258
 1267TIP3    H1 3678  -0.053   4.705   2.201
 1267TIP3    H2 3679   0.092   4.672   2.221
 1268TIP3   OH2 3680  -0.414   4.185   2.563
 1268TIP3    H1 3681  -0.393   4.169   2.657
 1268TIP3    H2 3682  -0.511   4.193   2.569
 1269TIP3   OH2 3683  -0.103   4.159   2.425
 1269TIP3    H1 3684  -0.181   4.125   2.471
 1269TIP3    H2 3685  -0.031   4.108   2.470
 1270TIP3   OH2 3686   0.092   4.045   2.572
 1270TIP3    H1 3687   0.095   3.949   2.592
 1270TIP3    H2 3688   0.084   4.087   2.660
 1271TIP3   OH2 3689   0.135   5.409   1.480
 1271TIP3    H1 3690   0.177   5.378   1.563
 1271TIP3    H2 3691   0.203   5.383   1.414
 1272TIP3   OH2 3692   0.163   5.387   1.764
 1272TIP3    H1 3693   0.110   5.305   1.751
 1272TIP3    H2 3694   0.230   5.350   1.826
 1273TIP3   OH2 3695   0.189   5.057   2.322
 1273TIP3    H1 3696   0.120   5.066   2.390
 1273TIP3    H2 3697   0.235   5.143   2.327
 1274TIP3   OH2 3698   0.181   4.819   1.573
 1274TIP3    H1 3699   0.248   4.763   1.531
 1274TIP3    H2 3700   0.188   4.902   1.521
 1275TIP3   OH2 3701   0.035   5.142   1.770
 1275TIP3    H1 3702  -0.026   5.162   1.842
 1275TIP3    H2 3703  -0.014   5.075   1.718
 1276TIP3   OH2 3704   0.239   4.723   2.143
 1276TIP3    H1 3705   0.315   4.660   2.140
 1276TIP3    H2 3706   0.271   4.797   2.090
 1277TIP3   OH2 3707   0.418   4.527   2.175
 1277TIP3    H1 3708   0.354   4.467   2.218
 1277TIP3    H2 3709   0.501   4.475   2.184
 1278TIP3   OH2 3710   0.179   4.325   1.930
 1278TIP3    H1 3711   0.111   4.374   1.979
 1278TIP3    H2 3712   0.214   4.395   1.870
 1279TIP3   OH2 3713   0.626   3.911   2.477
 1279TIP3    H1 3714   0.688   3.849   2.433
 1279TIP3    H2 3715   0.601   3.971   2.404
 1280TIP3   OH2 3716   0.502   4.058   2.287
 1280TIP3    H1 3717   0.414   4.096   2.307
 1280TIP3    H2 3718   0.477   3.993   2.219
 1281TIP3   OH2 3719  -0.552   5.283   2.204
 1281TIP3    H1 3720  -0.536   5.318   2.294
 1281TIP3    H2 3721  -0.516   5.354   2.148
 1282TIP3   OH2 3722  -0.369   5.431   2.048
 1282TIP3    H1 3723  -0.279   5.394   2.048
 1282TIP3    H2 3724  -0.354   5.505   2.110
 1283TIP3   OH2 3725   0.397   3.815   2.152
 1283TIP3    H1 3726   0.309   3.832   2.115
 1283TIP3    H2 3727   0.404   3.719   2.139
 1284TIP3   OH2 3728   0.134   3.770   2.594
 1284TIP3    H1 3729   0.163   3.745   2.683
 1284TIP3    H2 3730   0.219   3.776   2.546
 1285TIP3   OH2 3731   0.081   5.339   2.091
 1285TIP3    H1 3732   0.003   5.308   2.041
 1285TIP3    H2 3733   0.059   5.434   2.099
 1286TIP3   OH2 3734   1.360   4.729   0.875
 1286TIP3    H1 3735   1.320   4.812   0.841
 1286TIP3    H2 3736   1.292   4.665   0.844
 1287TIP3   OH2 3737   1.326   4.711   1.235
 1287TIP3    H1 3738   1.366   4.674   1.315
 1287TIP3    H2 3739   1.307   4.632   1.183
 1288TIP3   OH2 3740   0.642   4.603   1.596
 1288TIP3    H1 3741   0.668   4.532   1.658
 1288TIP3    H2 3742   0.714   4.667   1.610
 1289TIP3   OH2 3743   1.581   5.011   0.911
 1289TIP3    H1 3744   1.569   4.937   0.972
 1289TIP3    H2 3745   1.613   5.082   0.968
 1290TIP3   OH2 3746   0.608   5.007   1.322
 1290TIP3    H1 3747   0.600   4.910   1.331
 1290TIP3    H2 3748   0.705   5.017   1.321
 1291TIP3   OH2 3749   1.222   5.467   0.921
 1291TIP3    H1 3750   1.280   5.398   0.881
 1291TIP3    H2 3751   1.225   5.444   1.015
 1292TIP3   OH2 3752   1.140   4.932   1.278
 1292TIP3    H1 3753   1.181   4.853   1.238
 1292TIP3    H2 3754   1.222   4.979   1.301
 1293TIP3   OH2 3755   2.152   4.254   1.277
 1293TIP3    H1 3756   2.180   4.338   1.317
 1293TIP3    H2 3757   2.171   4.271   1.183
 1294TIP3   OH2 3758   1.550   4.436   1.316
 1294TIP3    H1 3759   1.592   4.349   1.333
 1294TIP3    H2 3760   1.521   4.423   1.224
 1295TIP3   OH2 3761   1.573   4.177   0.923
 1295TIP3    H1 3762   1.661   4.169   0.965
 1295TIP3    H2 3763   1.594   4.208   0.834
 1296TIP3   OH2 3764   0.972   4.488   1.174
 1296TIP3    H1 3765   1.068   4.479   1.195
 1296TIP3    H2 3766   0.956   4.400   1.138
 1297TIP3   OH2 3767   2.227   4.464   1.445
 1297TIP3    H1 3768   2.143   4.510   1.425
 1297TIP3    H2 3769   2.231   4.478   1.541
 1298TIP3   OH2 3770   0.869   4.080   1.700
 1298TIP3    H1 3771   0.801   4.127   1.650
 1298TIP3    H2 3772   0.836   4.095   1.791
 1299TIP3   OH2 3773   1.229   4.927   0.733
 1299TIP3    H1 3774   1.203   4.910   0.641
 1299TIP3    H2 3775   1.197   5.018   0.744
 1300TIP3   OH2 3776   0.989   4.851   1.507
 1300TIP3    H1 3777   0.927   4.917   1.546
 1300TIP3    H2 3778   1.035   4.905   1.440
 1301TIP3   OH2 3779   1.804   4.187   1.066
 1301TIP3    H1 3780   1.787   4.133   1.144
 1301TIP3    H2 3781   1.853   4.263   1.102
 1302TIP3   OH2 3782   0.743   4.232   1.452
 1302TIP3    H1 3783   0.818   4.279   1.494
 1302TIP3    H2 3784   0.776   4.141   1.437
 1303TIP3   OH2 3785   0.815   5.044   1.606
 1303TIP3    H1 3786   0.788   5.131   1.569
 1303TIP3    H2 3787   0.742   5.029   1.670
 1304TIP3   OH2 3788   1.653   5.251   1.084
 1304TIP3    H1 3789   1.562   5.244   1.119
 1304TIP3    H2 3790   1.648   5.336   1.035
 1305TIP3   OH2 3791   1.943   4.159   1.446
 1305TIP3    H1 3792   1.854   4.180   1.413
 1305TIP3    H2 3793   2.001   4.185   1.371
 1306TIP3   OH2 3794   1.265   3.815   1.424
 1306TIP3    H1 3795   1.246   3.720   1.440
 1306TIP3    H2 3796   1.184   3.855   1.461
 1307TIP3   OH2 3797   1.364   5.299   0.762
 1307TIP3    H1 3798   1.412   5.216   0.738
 1307TIP3    H2 3799   1.427   5.365   0.724
 1308TIP3   OH2 3800   1.490   5.083   0.660
 1308TIP3    H1 3801   1.477   5.003   0.606
 1308TIP3    H2 3802   1.529   5.045   0.742
 1309TIP3   OH2 3803   1.879   5.166   1.424
 1309TIP3    H1 3804   1.870   5.089   1.364
 1309TIP3    H2 3805   1.864   5.241   1.363
 1310TIP3   OH2 3806   1.185   4.599   0.704
 1310TIP3    H1 3807   1.104   4.639   0.666
 1310TIP3    H2 3808   1.250   4.616   0.634
 1311TIP3   OH2 3809   2.076   4.804   1.269
 1311TIP3    H1 3810   1.993   4.855   1.274
 1311TIP3    H2 3811   2.105   4.825   1.178
 1312TIP3   OH2 3812   1.523   4.650   0.666
 1312TIP3    H1 3813   1.475   4.675   0.748
 1312TIP3    H2 3814   1.604   4.611   0.705
 1313TIP3   OH2 3815   1.755   4.683   1.562
 1313TIP3    H1 3816   1.751   4.767   1.610
 1313TIP3    H2 3817   1.669   4.685   1.515
 1314TIP3   OH2 3818   0.770   4.635   1.061
 1314TIP3    H1 3819   0.758   4.569   0.990
 1314TIP3    H2 3820   0.846   4.594   1.108
 1315TIP3   OH2 3821   0.886   5.042   1.215
 1315TIP3    H1 3822   0.877   4.984   1.139
 1315TIP3    H2 3823   0.977   5.021   1.243
 1316TIP3   OH2 3824   0.884   4.614   1.416
 1316TIP3    H1 3825   0.931   4.589   1.334
 1316TIP3    H2 3826   0.929   4.696   1.444
 1317TIP3   OH2 3827   1.408   5.250   1.199
 1317TIP3    H1 3828   1.400   5.329   1.255
 1317TIP3    H2 3829   1.399   5.176   1.262
 1318TIP3   OH2 3830   1.022   5.172   1.745
 1318TIP3    H1 3831   0.965   5.232   1.797
 1318TIP3    H2 3832   0.956   5.117   1.699
 1319TIP3   OH2 3833   1.354   4.533   0.489
 1319TIP3    H1 3834   1.429   4.555   0.549
 1319TIP3    H2 3835   1.396   4.543   0.402
 1320TIP3   OH2 3836   0.773   4.728   1.842
 1320TIP3    H1 3837   0.776   4.807   1.897
 1320TIP3    H2 3838   0.678   4.706   1.851
 1321TIP3   OH2 3839   1.099   5.192   0.745
 1321TIP3    H1 3840   1.184   5.231   0.775
 1321TIP3    H2 3841   1.036   5.263   0.758
 1322TIP3   OH2 3842   0.819   5.353   1.837
 1322TIP3    H1 3843   0.788   5.338   1.746
 1322TIP3    H2 3844   0.740   5.326   1.890
 1323TIP3   OH2 3845   1.682   5.113   0.083
 1323TIP3    H1 3846   1.687   5.207   0.057
 1323TIP3    H2 3847   1.772   5.081   0.066
 1324TIP3   OH2 3848   0.408   4.868   1.762
 1324TIP3    H1 3849   0.336   4.828   1.712
 1324TIP3    H2 3850   0.440   4.795   1.819
 1325TIP3   OH2 3851   0.254   5.040   1.418
 1325TIP3    H1 3852   0.349   5.051   1.399
 1325TIP3    H2 3853   0.233   5.128   1.452
 1326TIP3   OH2 3854   2.119   5.510   1.471
 1326TIP3    H1 3855   2.117   5.413   1.482
 1326TIP3    H2 3856   2.035   5.535   1.515
 1327TIP3   OH2 3857   1.224   5.301   1.604
 1327TIP3    H1 3858   1.221   5.393   1.638
 1327TIP3    H2 3859   1.153   5.259   1.657
 1328TIP3   OH2 3860   1.249   5.369   0.512
 1328TIP3    H1 3861   1.190   5.390   0.585
 1328TIP3    H2 3862   1.318   5.318   0.558
 1329TIP3   OH2 3863   2.009   4.644   1.742
 1329TIP3    H1 3864   1.929   4.657   1.689
 1329TIP3    H2 3865   2.023   4.548   1.731
 1330TIP3   OH2 3866   0.612   5.044   1.791
 1330TIP3    H1 3867   0.614   5.041   1.889
 1330TIP3    H2 3868   0.535   4.985   1.777
 1331TIP3   OH2 3869   1.029   3.897   1.550
 1331TIP3    H1 3870   0.956   3.843   1.514
 1331TIP3    H2 3871   0.980   3.971   1.591
 1332TIP3   OH2 3872   1.538   3.993   1.748
 1332TIP3    H1 3873   1.605   3.961   1.811
 1332TIP3    H2 3874   1.454   3.969   1.791
 1333TIP3   OH2 3875   1.781   4.419   1.668
 1333TIP3    H1 3876   1.729   4.415   1.752
 1333TIP3    H2 3877   1.753   4.504   1.630
 1334TIP3   OH2 3878   0.931   4.391   1.571
 1334TIP3    H1 3879   0.883   4.411   1.654
 1334TIP3    H2 3880   0.914   4.473   1.519
 1335TIP3   OH2 3881   1.330   4.410   0.841
 1335TIP3    H1 3882   1.261   4.453   0.787
 1335TIP3    H2 3883   1.377   4.356   0.773
 1336TIP3   OH2 3884   1.484   4.642   1.903
 1336TIP3    H1 3885   1.462   4.567   1.963
 1336TIP3    H2 3886   1.578   4.654   1.922
 1337TIP3   OH2 3887   1.473   4.391   1.062
 1337TIP3    H1 3888   1.415   4.416   0.986
 1337TIP3    H2 3889   1.501   4.303   1.027
 1338TIP3   OH2 3890   0.754   4.421   1.783
 1338TIP3    H1 3891   0.776   4.485   1.852
 1338TIP3    H2 3892   0.740   4.340   1.834
 1339TIP3   OH2 3893   1.477   4.637   1.477
 1339TIP3    H1 3894   1.510   4.564   1.418
 1339TIP3    H2 3895   1.449   4.584   1.555
 1340TIP3   OH2 3896   1.637   4.173   1.353
 1340TIP3    H1 3897   1.595   4.183   1.441
 1340TIP3    H2 3898   1.576   4.108   1.312
 1341TIP3   OH2 3899   1.804   5.864   1.567
 1341TIP3    H1 3900   1.805   5.883   1.471
 1341TIP3    H2 3901   1.885   5.909   1.596
 1342TIP3   OH2 3902   1.228   4.422   1.244
 1342TIP3    H1 3903   1.292   4.381   1.182
 1342TIP3    H2 3904   1.249   4.375   1.327
 1343TIP3   OH2 3905   1.204   4.316   1.547
 1343TIP3    H1 3906   1.118   4.361   1.554
 1343TIP3    H2 3907   1.266   4.379   1.589
 1344TIP3   OH2 3908   0.939   4.709   0.639
 1344TIP3    H1 3909   0.883   4.631   0.650
 1344TIP3    H2 3910   0.934   4.750   0.728
 1345TIP3   OH2 3911   1.844   4.949   1.261
 1345TIP3    H1 3912   1.869   4.997   1.178
 1345TIP3    H2 3913   1.759   4.907   1.236
 1346TIP3   OH2 3914   1.337   5.028   1.629
 1346TIP3    H1 3915   1.365   5.007   1.719
 1346TIP3    H2 3916   1.305   5.119   1.636
 1347TIP3   OH2 3917   1.490   4.304   0.646
 1347TIP3    H1 3918   1.586   4.291   0.638
 1347TIP3    H2 3919   1.460   4.297   0.553
 1348TIP3   OH2 3920   0.629   4.719   1.314
 1348TIP3    H1 3921   0.675   4.695   1.232
 1348TIP3    H2 3922   0.683   4.672   1.381
 1349TIP3   OH2 3923   1.096   4.887   0.490
 1349TIP3    H1 3924   1.049   4.966   0.459
 1349TIP3    H2 3925   1.028   4.836   0.539
 1350TIP3   OH2 3926   0.513   4.659   1.917
 1350TIP3    H1 3927   0.547   4.658   2.009
 1350TIP3    H2 3928   0.451   4.585   1.918
 1351TIP3   OH2 3929   1.240   4.767   1.939
 1351TIP3    H1 3930   1.183   4.709   1.887
 1351TIP3    H2 3931   1.329   4.736   1.913
 1352TIP3   OH2 3932   1.503   5.288   1.525
 1352TIP3    H1 3933   1.407   5.289   1.534
 1352TIP3    H2 3934   1.530   5.343   1.602
 1353TIP3   OH2 3935   1.913   4.358   0.429
 1353TIP3    H1 3936   1.849   4.309   0.376
 1353TIP3    H2 3937   1.906   4.447   0.387
 1354TIP3   OH2 3938   2.129   5.217   1.513
 1354TIP3    H1 3939   2.032   5.213   1.504
 1354TIP3    H2 3940   2.155   5.188   1.423
 1355TIP3   OH2 3941   1.616   5.180   0.342
 1355TIP3    H1 3942   1.581   5.105   0.391
 1355TIP3    H2 3943   1.623   5.142   0.251
 1356TIP3   OH2 3944   1.609   4.809   1.183
 1356TIP3    H1 3945   1.515   4.785   1.190
 1356TIP3    H2 3946   1.645   4.731   1.136
 1357TIP3   OH2 3947   0.723   5.041   0.910
 1357TIP3    H1 3948   0.757   5.128   0.937
 1357TIP3    H2 3949   0.635   5.041   0.951
 1358TIP3   OH2 3950   0.877   4.811   0.876
 1358TIP3    H1 3951   0.833   4.898   0.886
 1358TIP3    H2 3952   0.845   4.762   0.953
 1359TIP3   OH2 3953   1.006   5.382   1.403
 1359TIP3    H1 3954   1.045   5.453   1.349
 1359TIP3    H2 3955   1.084   5.348   1.449
 1360TIP3   OH2 3956   1.395   5.018   1.358
 1360TIP3    H1 3957   1.387   5.012   1.456
 1360TIP3    H2 3958   1.473   4.964   1.342
 1361TIP3   OH2 3959   1.358   4.900   0.251
 1361TIP3    H1 3960   1.407   4.882   0.333
 1361TIP3    H2 3961   1.275   4.854   0.264
 1362TIP3   OH2 3962   1.641   5.555   1.412
 1362TIP3    H1 3963   1.564   5.497   1.399
 1362TIP3    H2 3964   1.630   5.619   1.338
 1363TIP3   OH2 3965   1.703   5.393   0.058
 1363TIP3    H1 3966   1.761   5.465   0.028
 1363TIP3    H2 3967   1.616   5.430   0.040
 1364TIP3   OH2 3968   0.729   4.156   1.929
 1364TIP3    H1 3969   0.634   4.163   1.947
 1364TIP3    H2 3970   0.760   4.101   2.003
 1365TIP3   OH2 3971   1.526   4.849   0.473
 1365TIP3    H1 3972   1.521   4.778   0.540
 1365TIP3    H2 3973   1.621   4.843   0.448
 1366TIP3   OH2 3974   0.443   5.247   1.568
 1366TIP3    H1 3975   0.486   5.163   1.590
 1366TIP3    H2 3976   0.482   5.306   1.633
 1367TIP3   OH2 3977   1.556   4.235   1.616
 1367TIP3    H1 3978   1.645   4.262   1.644
 1367TIP3    H2 3979   1.544   4.149   1.662
 1368TIP3   OH2 3980   1.401   4.475   1.684
 1368TIP3    H1 3981   1.425   4.525   1.764
 1368TIP3    H2 3982   1.457   4.395   1.690
 1369TIP3   OH2 3983   1.360   3.889   1.014
 1369TIP3    H1 3984   1.295   3.934   1.069
 1369TIP3    H2 3985   1.358   3.949   0.938
 1370TIP3   OH2 3986   2.046   4.375   1.659
 1370TIP3    H1 3987   1.949   4.375   1.670
 1370TIP3    H2 3988   2.052   4.329   1.574
 1371TIP3   OH2 3989   1.693   4.571   1.053
 1371TIP3    H1 3990   1.618   4.509   1.059
 1371TIP3    H2 3991   1.764   4.521   1.099
 1372TIP3   OH2 3992   1.661   5.523   1.002
 1372TIP3    H1 3993   1.620   5.573   0.929
 1372TIP3    H2 3994   1.756   5.543   0.983
 1373TIP3   OH2 3995   0.434   5.550   1.975
 1373TIP3    H1 3996   0.518   5.535   2.022
 1373TIP3    H2 3997   0.403   5.457   1.971
 1374TIP3   OH2 3998   0.947   5.546   2.005
 1374TIP3    H1 3999   1.023   5.489   2.028
 1374TIP3    H2 4000   0.901   5.485   1.943
 1375TIP3   OH2 4001   1.550   5.428   1.761
 1375TIP3    H1 4002   1.544   5.355   1.827
 1375TIP3    H2 4003   1.632   5.474   1.788
 1376TIP3   OH2 4004   1.173   5.043   1.953
 1376TIP3    H1 4005   1.131   5.054   1.866
 1376TIP3    H2 4006   1.205   4.950   1.949
 1377TIP3   OH2 4007   1.665   5.051   1.561
 1377TIP3    H1 4008   1.740   5.094   1.515
 1377TIP3    H2 4009   1.595   5.117   1.547
 1378TIP3   OH2 4010   0.695   4.640   2.154
 1378TIP3    H1 4011   0.789   4.623   2.167
 1378TIP3    H2 4012   0.682   4.720   2.207
 1379TIP3   OH2 4013   1.019   4.578   1.824
 1379TIP3    H1 4014   0.942   4.639   1.827
 1379TIP3    H2 4015   1.068   4.611   1.745
 1380TIP3   OH2 4016   1.535   4.980   1.958
 1380TIP3    H1 4017   1.616   4.960   1.910
 1380TIP3    H2 4018   1.535   4.912   2.028
 1381TIP3   OH2 4019   1.685   4.650   0.067
 1381TIP3    H1 4020   1.642   4.636  -0.019
 1381TIP3    H2 4021   1.659   4.742   0.085
 1382TIP3   OH2 4022   1.139   4.364   1.953
 1382TIP3    H1 4023   1.142   4.284   1.896
 1382TIP3    H2 4024   1.099   4.430   1.894
 1383TIP3   OH2 4025   1.136   4.150   1.760
 1383TIP3    H1 4026   1.172   4.191   1.678
 1383TIP3    H2 4027   1.046   4.128   1.731
 1384TIP3   OH2 4028   1.172   4.687   1.629
 1384TIP3    H1 4029   1.256   4.690   1.582
 1384TIP3    H2 4030   1.120   4.757   1.585
 1385TIP3   OH2 4031   1.756   4.657   2.016
 1385TIP3    H1 4032   1.802   4.572   2.019
 1385TIP3    H2 4033   1.825   4.715   1.979
 1386TIP3   OH2 4034   1.795   4.909   1.750
 1386TIP3    H1 4035   1.738   4.961   1.690
 1386TIP3    H2 4036   1.883   4.927   1.709
 1387TIP3   OH2 4037   1.017   4.481   2.180
 1387TIP3    H1 4038   0.947   4.414   2.192
 1387TIP3    H2 4039   1.053   4.456   2.093
 1388TIP3   OH2 4040   1.282   3.923   1.827
 1388TIP3    H1 4041   1.231   4.002   1.800
 1388TIP3    H2 4042   1.216   3.852   1.812
 1389TIP3   OH2 4043   1.402   4.423   2.041
 1389TIP3    H1 4044   1.393   4.412   2.137
 1389TIP3    H2 4045   1.311   4.396   2.013
 1390TIP3   OH2 4046   1.644   4.376   1.898
 1390TIP3    H1 4047   1.567   4.371   1.957
 1390TIP3    H2 4048   1.716   4.340   1.954
 1391TIP3   OH2 4049   1.873   4.311   2.049
 1391TIP3    H1 4050   1.884   4.215   2.067
 1391TIP3    H2 4051   1.868   4.350   2.139
 1392TIP3   OH2 4052   0.854   4.261   2.234
 1392TIP3    H1 4053   0.869   4.172   2.197
 1392TIP3    H2 4054   0.891   4.250   2.323
 1393TIP3   OH2 4055   1.369   3.924   2.085
 1393TIP3    H1 4056   1.439   3.856   2.078
 1393TIP3    H2 4057   1.333   3.922   1.994
 1394TIP3   OH2 4058   1.435   4.140   2.243
 1394TIP3    H1 4059   1.414   4.069   2.177
 1394TIP3    H2 4060   1.359   4.201   2.233
 1395TIP3   OH2 4061   1.910   5.621   0.957
 1395TIP3    H1 4062   1.947   5.657   1.039
 1395TIP3    H2 4063   1.975   5.651   0.891
 1396TIP3   OH2 4064   1.942   5.639   1.244
 1396TIP3    H1 4065   1.903   5.550   1.234
 1396TIP3    H2 4066   2.023   5.616   1.291
 1397TIP3   OH2 4067   1.990   5.314   1.812
 1397TIP3    H1 4068   1.917   5.322   1.877
 1397TIP3    H2 4069   2.032   5.402   1.817
 1398TIP3   OH2 4070   1.808   4.822   0.430
 1398TIP3    H1 4071   1.873   4.890   0.404
 1398TIP3    H2 4072   1.850   4.786   0.511
 1399TIP3   OH2 4073   1.934   4.693   0.636
 1399TIP3    H1 4074   1.869   4.649   0.695
 1399TIP3    H2 4075   1.997   4.732   0.698
 1400TIP3   OH2 4076   1.987   5.083   1.069
 1400TIP3    H1 4077   2.040   5.021   1.016
 1400TIP3    H2 4078   1.982   5.161   1.010
 1401TIP3   OH2 4079   1.821   5.384   1.265
 1401TIP3    H1 4080   1.749   5.427   1.315
 1401TIP3    H2 4081   1.772   5.336   1.195
 1402TIP3   OH2 4082   1.863   4.594   0.282
 1402TIP3    H1 4083   1.798   4.607   0.211
 1402TIP3    H2 4084   1.844   4.672   0.339
 1403TIP3   OH2 4085   1.752   4.545   0.784
 1403TIP3    H1 4086   1.753   4.448   0.779
 1403TIP3    H2 4087   1.736   4.561   0.880
 1404TIP3   OH2 4088   0.382   4.630   1.526
 1404TIP3    H1 4089   0.397   4.615   1.431
 1404TIP3    H2 4090   0.476   4.628   1.557
 1405TIP3   OH2 4091   2.037   4.973   1.640
 1405TIP3    H1 4092   2.111   4.908   1.630
 1405TIP3    H2 4093   2.063   5.044   1.579
 1406TIP3   OH2 4094   2.226   4.782   1.660
 1406TIP3    H1 4095   2.149   4.732   1.697
 1406TIP3    H2 4096   2.297   4.716   1.674
 1407TIP3   OH2 4097   1.762   4.265   0.675
 1407TIP3    H1 4098   1.797   4.176   0.697
 1407TIP3    H2 4099   1.827   4.296   0.611
 1408TIP3   OH2 4100   1.908   4.442   1.173
 1408TIP3    H1 4101   1.994   4.468   1.133
 1408TIP3    H2 4102   1.921   4.477   1.263
 1409TIP3   OH2 4103   1.976   4.584   1.408
 1409TIP3    H1 4104   1.896   4.617   1.454
 1409TIP3    H2 4105   2.007   4.665   1.361
 1410TIP3   OH2 4106   0.585   4.305   2.192
 1410TIP3    H1 4107   0.683   4.309   2.198
 1410TIP3    H2 4108   0.567   4.225   2.245
 1411TIP3   OH2 4109   2.428   4.174   1.962
 1411TIP3    H1 4110   2.484   4.107   1.918
 1411TIP3    H2 4111   2.400   4.230   1.886
 1412TIP3   OH2 4112   1.855   4.006   0.714
 1412TIP3    H1 4113   1.905   4.005   0.798
 1412TIP3    H2 4114   1.814   3.919   0.717
 1413TIP3   OH2 4115   0.450   4.317   1.590
 1413TIP3    H1 4116   0.381   4.250   1.572
 1413TIP3    H2 4117   0.401   4.385   1.637
 1414TIP3   OH2 4118   2.300   4.317   1.768
 1414TIP3    H1 4119   2.212   4.354   1.788
 1414TIP3    H2 4120   2.274   4.244   1.708
 1415TIP3   OH2 4121   2.002   3.938   0.348
 1415TIP3    H1 4122   2.024   3.890   0.267
 1415TIP3    H2 4123   2.057   4.019   0.336
 1416TIP3   OH2 4124   1.514   5.483   0.630
 1416TIP3    H1 4125   1.552   5.463   0.542
 1416TIP3    H2 4126   1.577   5.548   0.663
 1417TIP3   OH2 4127   0.552   3.878   1.919
 1417TIP3    H1 4128   0.517   3.851   2.006
 1417TIP3    H2 4129   0.488   3.947   1.895
 1418TIP3   OH2 4130   0.599   5.309   2.005
 1418TIP3    H1 4131   0.521   5.258   1.977
 1418TIP3    H2 4132   0.630   5.245   2.072
 1419TIP3   OH2 4133   0.778   5.316   1.552
 1419TIP3    H1 4134   0.731   5.391   1.509
 1419TIP3    H2 4135   0.864   5.327   1.506
 1420TIP3   OH2 4136   1.220   5.572   1.692
 1420TIP3    H1 4137   1.269   5.563   1.776
 1420TIP3    H2 4138   1.289   5.614   1.635
 1421TIP3   OH2 4139   1.403   5.713   1.544
 1421TIP3    H1 4140   1.471   5.662   1.498
 1421TIP3    H2 4141   1.458   5.769   1.603
 1422TIP3   OH2 4142   2.196   4.078   1.646
 1422TIP3    H1 4143   2.105   4.072   1.611
 1422TIP3    H2 4144   2.226   3.985   1.633
 1423TIP3   OH2 4145   0.469   5.580   1.579
 1423TIP3    H1 4146   0.391   5.633   1.556
 1423TIP3    H2 4147   0.461   5.574   1.675
 1424TIP3   OH2 4148   0.699   5.553   1.427
 1424TIP3    H1 4149   0.613   5.566   1.472
 1424TIP3    H2 4150   0.679   5.584   1.337
 1425TIP3   OH2 4151   1.128   5.583   1.237
 1425TIP3    H1 4152   1.051   5.595   1.178
 1425TIP3    H2 4153   1.141   5.674   1.268
 1426TIP3   OH2 4154   1.393   5.523   1.282
 1426TIP3    H1 4155   1.298   5.538   1.262
 1426TIP3    H2 4156   1.435   5.596   1.234
 1427TIP3   OH2 4157   1.593   5.716   1.193
 1427TIP3    H1 4158   1.579   5.801   1.145
 1427TIP3    H2 4159   1.621   5.657   1.120
 1428TIP3   OH2 4160   0.359   5.363   1.330
 1428TIP3    H1 4161   0.405   5.334   1.412
 1428TIP3    H2 4162   0.425   5.333   1.264
 1429TIP3   OH2 4163   0.550   5.241   1.176
 1429TIP3    H1 4164   0.571   5.159   1.225
 1429TIP3    H2 4165   0.638   5.282   1.167
 1430TIP3   OH2 4166   0.813   5.316   1.181
 1430TIP3    H1 4167   0.860   5.231   1.184
 1430TIP3    H2 4168   0.861   5.366   1.249
 1431TIP3   OH2 4169   1.423   3.998   1.281
 1431TIP3    H1 4170   1.366   3.933   1.326
 1431TIP3    H2 4171   1.457   3.946   1.206
 1432TIP3   OH2 4172   1.934   3.880   1.175
 1432TIP3    H1 4173   1.965   3.929   1.096
 1432TIP3    H2 4174   1.836   3.885   1.164
 1433TIP3   OH2 4175   2.019   3.977   0.931
 1433TIP3    H1 4176   2.092   3.923   0.893
 1433TIP3    H2 4177   2.055   4.068   0.920
 1434TIP3   OH2 4178   1.663   3.878   1.143
 1434TIP3    H1 4179   1.620   3.856   1.060
 1434TIP3    H2 4180   1.635   3.802   1.199
 1435TIP3   OH2 4181   1.633   5.446   0.381
 1435TIP3    H1 4182   1.633   5.347   0.378
 1435TIP3    H2 4183   1.611   5.464   0.289
 1436TIP3   OH2 4184   0.857   3.980   2.170
 1436TIP3    H1 4185   0.827   3.909   2.229
 1436TIP3    H2 4186   0.952   3.983   2.195
 1437TIP3   OH2 4187   1.106   3.979   2.289
 1437TIP3    H1 4188   1.191   3.959   2.247
 1437TIP3    H2 4189   1.099   3.906   2.354
 1438TIP3   OH2 4190   1.931   4.040   2.079
 1438TIP3    H1 4191   1.952   4.008   2.169
 1438TIP3    H2 4192   2.018   4.035   2.035
 1439TIP3   OH2 4193   1.871   5.594   1.573
 1439TIP3    H1 4194   1.793   5.561   1.523
 1439TIP3    H2 4195   1.853   5.690   1.572
 1440TIP3   OH2 4196   3.137   4.966   0.337
 1440TIP3    H1 4197   3.110   5.058   0.318
 1440TIP3    H2 4198   3.059   4.917   0.306
 1441TIP3   OH2 4199   3.140   4.963   0.713
 1441TIP3    H1 4200   3.165   4.932   0.802
 1441TIP3    H2 4201   3.094   4.886   0.677
 1442TIP3   OH2 4202   2.438   4.863   1.087
 1442TIP3    H1 4203   2.478   4.798   1.146
 1442TIP3    H2 4204   2.514   4.920   1.067
 1443TIP3   OH2 4205   3.380   5.264   0.396
 1443TIP3    H1 4206   3.363   5.198   0.465
 1443TIP3    H2 4207   3.404   5.342   0.449
 1444TIP3   OH2 4208   2.408   5.266   0.821
 1444TIP3    H1 4209   2.400   5.169   0.818
 1444TIP3    H2 4210   2.503   5.276   0.799
 1445TIP3   OH2 4211   2.116   4.477   0.594
 1445TIP3    H1 4212   2.066   4.560   0.607
 1445TIP3    H2 4213   2.044   4.418   0.567
 1446TIP3   OH2 4214   2.173   4.761   0.764
 1446TIP3    H1 4215   2.223   4.685   0.801
 1446TIP3    H2 4216   2.231   4.790   0.692
 1447TIP3   OH2 4217   3.032   5.731   0.413
 1447TIP3    H1 4218   3.080   5.658   0.370
 1447TIP3    H2 4219   3.012   5.694   0.500
 1448TIP3   OH2 4220   2.937   5.187   0.769
 1448TIP3    H1 4221   2.972   5.115   0.714
 1448TIP3    H2 4222   3.021   5.232   0.791
 1449TIP3   OH2 4223   3.948   4.510   0.763
 1449TIP3    H1 4224   3.975   4.594   0.807
 1449TIP3    H2 4225   3.966   4.532   0.670
 1450TIP3   OH2 4226   3.347   4.692   0.801
 1450TIP3    H1 4227   3.389   4.606   0.818
 1450TIP3    H2 4228   3.316   4.680   0.710
 1451TIP3   OH2 4229   2.683   4.351   0.765
 1451TIP3    H1 4230   2.662   4.423   0.702
 1451TIP3    H2 4231   2.637   4.277   0.721
 1452TIP3   OH2 4232   3.377   4.443   0.389
 1452TIP3    H1 4233   3.451   4.426   0.452
 1452TIP3    H2 4234   3.427   4.477   0.313
 1453TIP3   OH2 4235   2.319   4.554   0.871
 1453TIP3    H1 4236   2.401   4.531   0.918
 1453TIP3    H2 4237   2.328   4.498   0.791
 1454TIP3   OH2 4238   2.760   4.751   0.663
 1454TIP3    H1 4239   2.853   4.724   0.676
 1454TIP3    H2 4240   2.719   4.668   0.630
 1455TIP3   OH2 4241   4.021   4.718   0.934
 1455TIP3    H1 4242   3.938   4.766   0.913
 1455TIP3    H2 4243   4.033   4.743   1.026
 1456TIP3   OH2 4244   2.682   4.337   1.199
 1456TIP3    H1 4245   2.621   4.370   1.131
 1456TIP3    H2 4246   2.629   4.352   1.280
 1457TIP3   OH2 4247   3.035   5.190   0.205
 1457TIP3    H1 4248   2.984   5.167   0.127
 1457TIP3    H2 4249   2.992   5.276   0.228
 1458TIP3   OH2 4250   2.790   5.107   0.999
 1458TIP3    H1 4251   2.725   5.173   1.032
 1458TIP3    H2 4252   2.830   5.155   0.923
 1459TIP3   OH2 4253   3.592   4.443   0.556
 1459TIP3    H1 4254   3.584   4.391   0.637
 1459TIP3    H2 4255   3.645   4.519   0.586
 1460TIP3   OH2 4256   2.553   4.450   0.984
 1460TIP3    H1 4257   2.617   4.522   1.003
 1460TIP3    H2 4258   2.599   4.407   0.908
 1461TIP3   OH2 4259   2.620   5.303   1.096
 1461TIP3    H1 4260   2.593   5.382   1.046
 1461TIP3    H2 4261   2.539   5.290   1.150
 1462TIP3   OH2 4262   2.013   4.992   0.332
 1462TIP3    H1 4263   1.971   5.017   0.247
 1462TIP3    H2 4264   2.040   5.079   0.367
 1463TIP3   OH2 4265   3.453   5.507   0.567
 1463TIP3    H1 4266   3.363   5.500   0.607
 1463TIP3    H2 4267   3.445   5.593   0.521
 1464TIP3   OH2 4268   3.740   4.413   0.931
 1464TIP3    H1 4269   3.651   4.440   0.901
 1464TIP3    H2 4270   3.797   4.442   0.857
 1465TIP3   OH2 4271   3.041   4.055   0.913
 1465TIP3    H1 4272   3.028   3.959   0.928
 1465TIP3    H2 4273   2.962   4.091   0.958
 1466TIP3   OH2 4274   3.163   5.554   0.250
 1466TIP3    H1 4275   3.209   5.473   0.222
 1466TIP3    H2 4276   3.221   5.621   0.207
 1467TIP3   OH2 4277   3.301   5.338   0.140
 1467TIP3    H1 4278   3.247   5.264   0.111
 1467TIP3    H2 4279   3.334   5.306   0.227
 1468TIP3   OH2 4280   3.677   5.422   0.912
 1468TIP3    H1 4281   3.666   5.346   0.851
 1468TIP3    H2 4282   3.658   5.498   0.852
 1469TIP3   OH2 4283   2.968   4.815   0.168
 1469TIP3    H1 4284   2.887   4.867   0.147
 1469TIP3    H2 4285   3.013   4.813   0.082
 1470TIP3   OH2 4286   2.920   4.591  -0.099
 1470TIP3    H1 4287   2.993   4.646  -0.066
 1470TIP3    H2 4288   2.967   4.518  -0.139
 1471TIP3   OH2 4289   3.872   5.058   0.755
 1471TIP3    H1 4290   3.789   5.111   0.760
 1471TIP3    H2 4291   3.901   5.082   0.664
 1472TIP3   OH2 4292   3.314   4.897   0.141
 1472TIP3    H1 4293   3.259   4.924   0.218
 1472TIP3    H2 4294   3.397   4.871   0.186
 1473TIP3   OH2 4295   3.552   4.939   1.049
 1473TIP3    H1 4296   3.547   5.024   1.097
 1473TIP3    H2 4297   3.465   4.941   1.003
 1474TIP3   OH2 4298   2.545   4.895   0.557
 1474TIP3    H1 4299   2.506   4.839   0.487
 1474TIP3    H2 4300   2.624   4.844   0.582
 1475TIP3   OH2 4301   2.668   5.282   0.716
 1475TIP3    H1 4302   2.650   5.267   0.621
 1475TIP3    H2 4303   2.763   5.264   0.723
 1476TIP3   OH2 4304   2.686   4.867   0.911
 1476TIP3    H1 4305   2.715   4.850   0.819
 1476TIP3    H2 4306   2.726   4.955   0.930
 1477TIP3   OH2 4307   3.213   5.506   0.688
 1477TIP3    H1 4308   3.192   5.587   0.738
 1477TIP3    H2 4309   3.195   5.434   0.751
 1478TIP3   OH2 4310   2.824   5.415   1.254
 1478TIP3    H1 4311   2.763   5.484   1.287
 1478TIP3    H2 4312   2.762   5.368   1.194
 1479TIP3   OH2 4313   3.156   4.754  -0.035
 1479TIP3    H1 4314   3.213   4.814   0.018
 1479TIP3    H2 4315   3.181   4.778  -0.127
 1480TIP3   OH2 4316   2.579   4.984   1.345
 1480TIP3    H1 4317   2.572   5.073   1.385
 1480TIP3    H2 4318   2.484   4.961   1.341
 1481TIP3   OH2 4319   2.899   5.434   0.238
 1481TIP3    H1 4320   2.960   5.503   0.266
 1481TIP3    H2 4321   2.816   5.483   0.226
 1482TIP3   OH2 4322   2.619   5.593   1.320
 1482TIP3    H1 4323   2.585   5.593   1.228
 1482TIP3    H2 4324   2.538   5.572   1.372
 1483TIP3   OH2 4325   3.676   4.002   0.013
 1483TIP3    H1 4326   3.592   4.014   0.063
 1483TIP3    H2 4327   3.680   4.085  -0.038
 1484TIP3   OH2 4328   2.416   4.738   0.355
 1484TIP3    H1 4329   2.350   4.787   0.302
 1484TIP3    H2 4330   2.368   4.657   0.376
 1485TIP3   OH2 4331   2.194   5.122   1.269
 1485TIP3    H1 4332   2.132   5.102   1.197
 1485TIP3    H2 4333   2.231   5.034   1.290
 1486TIP3   OH2 4334   2.050   5.312   0.909
 1486TIP3    H1 4335   2.144   5.308   0.887
 1486TIP3    H2 4336   2.045   5.397   0.955
 1487TIP3   OH2 4337   3.915   5.767   0.958
 1487TIP3    H1 4338   3.911   5.670   0.968
 1487TIP3    H2 4339   3.831   5.792   1.001
 1488TIP3   OH2 4340   3.025   5.551   1.097
 1488TIP3    H1 4341   3.023   5.646   1.124
 1488TIP3    H2 4342   2.948   5.517   1.147
 1489TIP3   OH2 4343   2.792   5.695   0.027
 1489TIP3    H1 4344   2.725   5.672  -0.038
 1489TIP3    H2 4345   2.752   5.771   0.073
 1490TIP3   OH2 4346   2.188   5.535   0.429
 1490TIP3    H1 4347   2.276   5.533   0.472
 1490TIP3    H2 4348   2.155   5.447   0.452
 1491TIP3   OH2 4349   2.978   5.593  -0.303
 1491TIP3    H1 4350   3.022   5.516  -0.340
 1491TIP3    H2 4351   3.011   5.593  -0.210
 1492TIP3   OH2 4352   3.039   5.619  -0.039
 1492TIP3    H1 4353   2.947   5.640  -0.009
 1492TIP3    H2 4354   3.075   5.580   0.042
 1493TIP3   OH2 4355   3.804   4.899   1.230
 1493TIP3    H1 4356   3.724   4.914   1.178
 1493TIP3    H2 4357   3.818   4.803   1.218
 1494TIP3   OH2 4358   2.402   5.304   1.259
 1494TIP3    H1 4359   2.449   5.289   1.344
 1494TIP3    H2 4360   2.326   5.242   1.266
 1495TIP3   OH2 4361   2.800   4.131   1.037
 1495TIP3    H1 4362   2.711   4.097   1.013
 1495TIP3    H2 4363   2.773   4.213   1.083
 1496TIP3   OH2 4364   3.331   4.248   1.235
 1496TIP3    H1 4365   3.399   4.217   1.299
 1496TIP3    H2 4366   3.247   4.224   1.279
 1497TIP3   OH2 4367   3.576   4.675   1.154
 1497TIP3    H1 4368   3.525   4.671   1.238
 1497TIP3    H2 4369   3.549   4.762   1.117
 1498TIP3   OH2 4370   3.232   4.801  -0.292
 1498TIP3    H1 4371   3.198   4.803  -0.382
 1498TIP3    H2 4372   3.312   4.856  -0.302
 1499TIP3   OH2 4373   2.956   4.197   0.015
 1499TIP3    H1 4374   2.920   4.189   0.106
 1499TIP3    H2 4375   2.919   4.118  -0.026
 1500TIP3   OH2 4376   2.736   4.647   1.061
 1500TIP3    H1 4377   2.678   4.665   1.138
 1500TIP3    H2 4378   2.718   4.726   1.005
 1501TIP3   OH2 4379   2.615   4.531   0.574
 1501TIP3    H1 4380   2.522   4.505   0.590
 1501TIP3    H2 4381   2.629   4.491   0.485
 1502TIP3   OH2 4382   3.106   4.618   0.301
 1502TIP3    H1 4383   3.052   4.689   0.260
 1502TIP3    H2 4384   3.159   4.587   0.225
 1503TIP3   OH2 4385   3.278   4.897   1.385
 1503TIP3    H1 4386   3.256   4.827   1.450
 1503TIP3    H2 4387   3.370   4.916   1.409
 1504TIP3   OH2 4388   3.264   4.648   0.541
 1504TIP3    H1 4389   3.205   4.678   0.469
 1504TIP3    H2 4390   3.295   4.565   0.498
 1505TIP3   OH2 4391   2.565   4.679   1.274
 1505TIP3    H1 4392   2.553   4.747   1.341
 1505TIP3    H2 4393   2.543   4.597   1.322
 1506TIP3   OH2 4394   2.595   4.131  -0.021
 1506TIP3    H1 4395   2.603   4.134   0.076
 1506TIP3    H2 4396   2.521   4.191  -0.035
 1507TIP3   OH2 4397   2.140   4.205   0.852
 1507TIP3    H1 4398   2.222   4.228   0.900
 1507TIP3    H2 4399   2.172   4.165   0.769
 1508TIP3   OH2 4400   2.128   4.187   0.365
 1508TIP3    H1 4401   2.176   4.226   0.289
 1508TIP3    H2 4402   2.072   4.262   0.391
 1509TIP3   OH2 4403   3.277   4.893   0.967
 1509TIP3    H1 4404   3.307   4.820   0.907
 1509TIP3    H2 4405   3.245   4.841   1.043
 1510TIP3   OH2 4406   2.941   4.356   0.635
 1510TIP3    H1 4407   2.857   4.351   0.685
 1510TIP3    H2 4408   3.007   4.354   0.707
 1511TIP3   OH2 4409   2.377   4.408   0.644
 1511TIP3    H1 4410   2.283   4.415   0.617
 1511TIP3    H2 4411   2.399   4.316   0.622
 1512TIP3   OH2 4412   2.650   4.407   0.333
 1512TIP3    H1 4413   2.745   4.421   0.312
 1512TIP3    H2 4414   2.604   4.428   0.249
 1513TIP3   OH2 4415   3.434   4.429   0.838
 1513TIP3    H1 4416   3.396   4.440   0.928
 1513TIP3    H2 4417   3.370   4.366   0.799
 1514TIP3   OH2 4418   2.489   4.430   0.114
 1514TIP3    H1 4419   2.397   4.412   0.093
 1514TIP3    H2 4420   2.524   4.473   0.033
 1515TIP3   OH2 4421   3.603   6.117   1.054
 1515TIP3    H1 4422   3.598   6.141   0.959
 1515TIP3    H2 4423   3.678   6.170   1.084
 1516TIP3   OH2 4424   2.564   5.226   1.481
 1516TIP3    H1 4425   2.637   5.268   1.531
 1516TIP3    H2 4426   2.495   5.225   1.550
 1517TIP3   OH2 4427   3.027   4.681   0.733
 1517TIP3    H1 4428   3.097   4.641   0.679
 1517TIP3    H2 4429   3.039   4.637   0.819
 1518TIP3   OH2 4430   2.552   4.169   0.609
 1518TIP3    H1 4431   2.515   4.090   0.655
 1518TIP3    H2 4432   2.602   4.129   0.537
 1519TIP3   OH2 4433   3.003   4.573   1.025
 1519TIP3    H1 4434   2.914   4.611   1.033
 1519TIP3    H2 4435   3.060   4.635   1.073
 1520TIP3   OH2 4436   2.742   4.968   0.118
 1520TIP3    H1 4437   2.665   4.908   0.107
 1520TIP3    H2 4438   2.724   5.005   0.208
 1521TIP3   OH2 4439   3.640   5.204   0.748
 1521TIP3    H1 4440   3.664   5.254   0.666
 1521TIP3    H2 4441   3.554   5.164   0.723
 1522TIP3   OH2 4442   3.212   4.282  -0.032
 1522TIP3    H1 4443   3.117   4.258  -0.028
 1522TIP3    H2 4444   3.214   4.376  -0.006
 1523TIP3   OH2 4445   3.133   5.285   1.112
 1523TIP3    H1 4446   3.177   5.275   1.197
 1523TIP3    H2 4447   3.103   5.378   1.113
 1524TIP3   OH2 4448   3.266   4.528   0.083
 1524TIP3    H1 4449   3.363   4.533   0.097
 1524TIP3    H2 4450   3.248   4.608   0.029
 1525TIP3   OH2 4451   2.429   4.986   0.795
 1525TIP3    H1 4452   2.466   4.965   0.707
 1525TIP3    H2 4453   2.472   4.920   0.851
 1526TIP3   OH2 4454   2.883   5.118  -0.070
 1526TIP3    H1 4455   2.840   5.206  -0.058
 1526TIP3    H2 4456   2.831   5.065  -0.006
 1527TIP3   OH2 4457   2.311   4.906   1.404
 1527TIP3    H1 4458   2.327   4.895   1.499
 1527TIP3    H2 4459   2.237   4.845   1.388
 1528TIP3   OH2 4460   3.302   5.538   1.016
 1528TIP3    H1 4461   3.205   5.545   1.020
 1528TIP3    H2 4462   3.328   5.598   1.089
 1529TIP3   OH2 4463   3.710   4.614  -0.078
 1529TIP3    H1 4464   3.652   4.570  -0.144
 1529TIP3    H2 4465   3.707   4.704  -0.117
 1530TIP3   OH2 4466   3.927   5.474   1.000
 1530TIP3    H1 4467   3.829   5.470   0.991
 1530TIP3    H2 4468   3.953   5.445   0.910
 1531TIP3   OH2 4469   3.418   5.433  -0.183
 1531TIP3    H1 4470   3.381   5.383  -0.108
 1531TIP3    H2 4471   3.401   5.374  -0.257
 1532TIP3   OH2 4472   3.405   5.066   0.670
 1532TIP3    H1 4473   3.311   5.040   0.680
 1532TIP3    H2 4474   3.439   4.988   0.622
 1533TIP3   OH2 4475   2.533   5.286   0.426
 1533TIP3    H1 4476   2.556   5.373   0.385
 1533TIP3    H2 4477   2.437   5.293   0.421
 1534TIP3   OH2 4478   2.096   4.602   0.124
 1534TIP3    H1 4479   2.141   4.687   0.141
 1534TIP3    H2 4480   2.016   4.609   0.180
 1535TIP3   OH2 4481   2.673   5.061   0.363
 1535TIP3    H1 4482   2.637   5.151   0.377
 1535TIP3    H2 4483   2.634   5.015   0.439
 1536TIP3   OH2 4484   2.803   5.637   0.889
 1536TIP3    H1 4485   2.833   5.712   0.835
 1536TIP3    H2 4486   2.885   5.611   0.932
 1537TIP3   OH2 4487   3.192   5.272   0.843
 1537TIP3    H1 4488   3.182   5.268   0.941
 1537TIP3    H2 4489   3.271   5.219   0.829
 1538TIP3   OH2 4490   3.153   5.136  -0.270
 1538TIP3    H1 4491   3.211   5.125  -0.192
 1538TIP3    H2 4492   3.067   5.145  -0.228
 1539TIP3   OH2 4493   3.438   5.808   0.895
 1539TIP3    H1 4494   3.357   5.755   0.882
 1539TIP3    H2 4495   3.427   5.875   0.824
 1540TIP3   OH2 4496   2.523   4.419   1.418
 1540TIP3    H1 4497   2.426   4.422   1.427
 1540TIP3    H2 4498   2.547   4.352   1.483
 1541TIP3   OH2 4499   3.322   5.096  -0.055
 1541TIP3    H1 4500   3.312   5.032   0.018
 1541TIP3    H2 4501   3.419   5.098  -0.065
 1542TIP3   OH2 4502   2.234   5.504   1.051
 1542TIP3    H1 4503   2.290   5.428   1.071
 1542TIP3    H2 4504   2.275   5.573   1.105
 1543TIP3   OH2 4505   2.523   5.145  -0.278
 1543TIP3    H1 4506   2.586   5.074  -0.296
 1543TIP3    H2 4507   2.509   5.140  -0.181
 1544TIP3   OH2 4508   2.481   5.153  -0.000
 1544TIP3    H1 4509   2.545   5.133   0.069
 1544TIP3    H2 4510   2.479   5.252   0.005
 1545TIP3   OH2 4511   2.213   4.848   0.204
 1545TIP3    H1 4512   2.147   4.894   0.261
 1545TIP3    H2 4513   2.227   4.917   0.136
 1546TIP3   OH2 4514   3.356   4.486   1.097
 1546TIP3    H1 4515   3.439   4.519   1.134
 1546TIP3    H2 4516   3.342   4.403   1.149
 1547TIP3   OH2 4517   3.233   4.238   0.255
 1547TIP3    H1 4518   3.225   4.257   0.160
 1547TIP3    H2 4519   3.275   4.319   0.290
 1548TIP3   OH2 4520   2.742   5.345  -0.041
 1548TIP3    H1 4521   2.662   5.385  -0.001
 1548TIP3    H2 4522   2.746   5.391  -0.126
 1549TIP3   OH2 4523   2.931   4.411   0.361
 1549TIP3    H1 4524   2.996   4.481   0.343
 1549TIP3    H2 4525   2.935   4.405   0.459
 1550TIP3   OH2 4526   3.193   4.732   1.173
 1550TIP3    H1 4527   3.218   4.789   1.249
 1550TIP3    H2 4528   3.253   4.656   1.183
 1551TIP3   OH2 4529   3.077   4.144   0.467
 1551TIP3    H1 4530   3.067   4.222   0.523
 1551TIP3    H2 4531   3.135   4.179   0.396
 1552TIP3   OH2 4532   2.478   5.425   0.025
 1552TIP3    H1 4533   2.453   5.495  -0.039
 1552TIP3    H2 4534   2.486   5.477   0.108
 1553TIP3   OH2 4535   2.590   4.137   0.256
 1553TIP3    H1 4536   2.584   4.227   0.293
 1553TIP3    H2 4537   2.686   4.120   0.268
 1554TIP3   OH2 4538   3.842   4.630   1.149
 1554TIP3    H1 4539   3.744   4.630   1.158
 1554TIP3    H2 4540   3.850   4.592   1.061
 1555TIP3   OH2 4541   3.491   4.825   0.538
 1555TIP3    H1 4542   3.414   4.766   0.550
 1555TIP3    H2 4543   3.562   4.777   0.586
 1556TIP3   OH2 4544   2.203   5.063   0.013
 1556TIP3    H1 4545   2.269   5.133   0.023
 1556TIP3    H2 4546   2.250   5.006  -0.052
 1557TIP3   OH2 4547   2.168   4.340   0.133
 1557TIP3    H1 4548   2.146   4.436   0.125
 1557TIP3    H2 4549   2.093   4.299   0.089
 1558TIP3   OH2 4550   3.460   5.778   0.491
 1558TIP3    H1 4551   3.414   5.824   0.417
 1558TIP3    H2 4552   3.553   5.798   0.468
 1559TIP3   OH2 4553   2.535   4.050   1.017
 1559TIP3    H1 4554   2.503   4.017   0.930
 1559TIP3    H2 4555   2.524   3.971   1.073
 1560TIP3   OH2 4556   2.077   5.262   0.409
 1560TIP3    H1 4557   1.995   5.298   0.444
 1560TIP3    H2 4558   2.075   5.302   0.320
 1561TIP3   OH2 4559   2.228   5.807   1.471
 1561TIP3    H1 4560   2.315   5.805   1.516
 1561TIP3    H2 4561   2.208   5.712   1.466
 1562TIP3   OH2 4562   2.713   5.775   1.514
 1562TIP3    H1 4563   2.808   5.759   1.518
 1562TIP3    H2 4564   2.688   5.720   1.437
 1563TIP3   OH2 4565   2.711   5.345  -0.325
 1563TIP3    H1 4566   2.631   5.289  -0.313
 1563TIP3    H2 4567   2.747   5.306  -0.405
 1564TIP3   OH2 4568   3.349   5.681   1.248
 1564TIP3    H1 4569   3.344   5.610   1.315
 1564TIP3    H2 4570   3.428   5.732   1.276
 1565TIP3   OH2 4571   2.360   5.216   1.665
 1565TIP3    H1 4572   2.376   5.120   1.671
 1565TIP3    H2 4573   2.271   5.218   1.624
 1566TIP3   OH2 4574   2.341   4.873  -0.125
 1566TIP3    H1 4575   2.405   4.840  -0.059
 1566TIP3    H2 4576   2.392   4.873  -0.207
 1567TIP3   OH2 4577   2.956   5.227   1.420
 1567TIP3    H1 4578   2.918   5.292   1.356
 1567TIP3    H2 4579   3.052   5.241   1.408
 1568TIP3   OH2 4580   2.805   5.036  -0.326
 1568TIP3    H1 4581   2.832   5.089  -0.248
 1568TIP3    H2 4582   2.853   4.955  -0.311
 1569TIP3   OH2 4583   3.461   5.308   1.049
 1569TIP3    H1 4584   3.536   5.351   1.003
 1569TIP3    H2 4585   3.391   5.375   1.033
 1570TIP3   OH2 4586   2.479   4.950   1.649
 1570TIP3    H1 4587   2.536   4.873   1.643
 1570TIP3    H2 4588   2.501   4.984   1.738
 1571TIP3   OH2 4589   2.544   4.771   0.081
 1571TIP3    H1 4590   2.518   4.735   0.168
 1571TIP3    H2 4591   2.580   4.692   0.036
 1572TIP3   OH2 4592   2.644   4.561  -0.079
 1572TIP3    H1 4593   2.638   4.525  -0.168
 1572TIP3    H2 4594   2.741   4.576  -0.072
 1573TIP3   OH2 4595   3.317   5.232   1.448
 1573TIP3    H1 4596   3.398   5.216   1.398
 1573TIP3    H2 4597   3.326   5.167   1.520
 1574TIP3   OH2 4598   3.473   4.915  -0.371
 1574TIP3    H1 4599   3.482   4.875  -0.460
 1574TIP3    H2 4600   3.476   5.009  -0.396
 1575TIP3   OH2 4601   2.934   4.617   1.429
 1575TIP3    H1 4602   2.946   4.524   1.401
 1575TIP3    H2 4603   2.902   4.653   1.345
 1576TIP3   OH2 4604   2.940   4.407   1.246
 1576TIP3    H1 4605   2.968   4.446   1.161
 1576TIP3    H2 4606   2.847   4.383   1.227
 1577TIP3   OH2 4607   2.972   4.966   1.149
 1577TIP3    H1 4608   3.046   4.953   1.087
 1577TIP3    H2 4609   2.910   5.016   1.092
 1578TIP3   OH2 4610   3.553   4.913   1.501
 1578TIP3    H1 4611   3.601   4.829   1.506
 1578TIP3    H2 4612   3.620   4.972   1.465
 1579TIP3   OH2 4613   3.592   5.165   1.236
 1579TIP3    H1 4614   3.534   5.218   1.176
 1579TIP3    H2 4615   3.679   5.184   1.195
 1580TIP3   OH2 4616   2.814   4.758   1.632
 1580TIP3    H1 4617   2.745   4.701   1.671
 1580TIP3    H2 4618   2.852   4.698   1.564
 1581TIP3   OH2 4619   3.073   4.174   1.311
 1581TIP3    H1 4620   3.023   4.255   1.287
 1581TIP3    H2 4621   3.004   4.105   1.298
 1582TIP3   OH2 4622   3.198   4.680   1.530
 1582TIP3    H1 4623   3.191   4.666   1.626
 1582TIP3    H2 4624   3.110   4.650   1.501
 1583TIP3   OH2 4625   3.440   4.627   1.383
 1583TIP3    H1 4626   3.364   4.629   1.443
 1583TIP3    H2 4627   3.513   4.596   1.440
 1584TIP3   OH2 4628   3.671   4.567   1.535
 1584TIP3    H1 4629   3.679   4.472   1.555
 1584TIP3    H2 4630   3.663   4.607   1.625
 1585TIP3   OH2 4631   2.667   4.525   1.715
 1585TIP3    H1 4632   2.664   4.434   1.680
 1585TIP3    H2 4633   2.694   4.507   1.808
 1586TIP3   OH2 4634   3.169   4.185   1.567
 1586TIP3    H1 4635   3.235   4.113   1.562
 1586TIP3    H2 4636   3.128   4.176   1.478
 1587TIP3   OH2 4637   3.232   4.398   1.727
 1587TIP3    H1 4638   3.211   4.326   1.664
 1587TIP3    H2 4639   3.154   4.456   1.719
 1588TIP3   OH2 4640   2.446   5.616  -0.173
 1588TIP3    H1 4641   2.541   5.619  -0.198
 1588TIP3    H2 4642   2.406   5.673  -0.238
 1589TIP3   OH2 4643   1.940   5.005   0.059
 1589TIP3    H1 4644   2.030   5.039   0.038
 1589TIP3    H2 4645   1.937   4.927   0.002
 1590TIP3   OH2 4646   1.837   5.622   0.459
 1590TIP3    H1 4647   1.776   5.553   0.426
 1590TIP3    H2 4648   1.891   5.569   0.522
 1591TIP3   OH2 4649   1.972   5.478   0.647
 1591TIP3    H1 4650   1.975   5.398   0.702
 1591TIP3    H2 4651   2.036   5.535   0.695
 1592TIP3   OH2 4652   3.712   5.869   0.444
 1592TIP3    H1 4653   3.737   5.909   0.529
 1592TIP3    H2 4654   3.767   5.919   0.382
 1593TIP3   OH2 4655   3.739   5.894   0.727
 1593TIP3    H1 4656   3.698   5.806   0.719
 1593TIP3    H2 4657   3.817   5.872   0.781
 1594TIP3   OH2 4658   3.788   5.568   1.300
 1594TIP3    H1 4659   3.713   5.577   1.362
 1594TIP3    H2 4660   3.827   5.658   1.303
 1595TIP3   OH2 4661   3.605   5.084  -0.075
 1595TIP3    H1 4662   3.680   5.143  -0.095
 1595TIP3    H2 4663   3.638   5.040   0.007
 1596TIP3   OH2 4664   3.730   4.950   0.123
 1596TIP3    H1 4665   3.665   4.906   0.183
 1596TIP3    H2 4666   3.794   4.988   0.186
 1597TIP3   OH2 4667   3.784   5.340   0.558
 1597TIP3    H1 4668   3.836   5.280   0.502
 1597TIP3    H2 4669   3.774   5.418   0.499
 1598TIP3   OH2 4670   3.617   5.640   0.753
 1598TIP3    H1 4671   3.545   5.686   0.801
 1598TIP3    H2 4672   3.567   5.594   0.682
 1599TIP3   OH2 4673   3.674   4.852  -0.209
 1599TIP3    H1 4674   3.596   4.856  -0.268
 1599TIP3    H2 4675   3.653   4.931  -0.154
 1600TIP3   OH2 4676   3.553   4.535  -0.287
 1600TIP3    H1 4677   3.476   4.576  -0.328
 1600TIP3    H2 4678   3.523   4.441  -0.280
 1601TIP3   OH2 4679   3.547   4.805   0.270
 1601TIP3    H1 4680   3.552   4.708   0.266
 1601TIP3    H2 4681   3.532   4.821   0.366
 1602TIP3   OH2 4682   2.172   4.877   1.018
 1602TIP3    H1 4683   2.170   4.850   0.923
 1602TIP3    H2 4684   2.270   4.881   1.032
 1603TIP3   OH2 4685   3.833   5.230   1.127
 1603TIP3    H1 4686   3.907   5.166   1.117
 1603TIP3    H2 4687   3.858   5.300   1.065
 1604TIP3   OH2 4688   4.020   5.038   1.147
 1604TIP3    H1 4689   3.945   4.988   1.185
 1604TIP3    H2 4690   4.092   4.973   1.160
 1605TIP3   OH2 4691   3.481   4.278  -0.263
 1605TIP3    H1 4692   3.565   4.236  -0.234
 1605TIP3    H2 4693   3.414   4.214  -0.235
 1606TIP3   OH2 4694   3.541   4.522   0.167
 1606TIP3    H1 4695   3.581   4.433   0.182
 1606TIP3    H2 4696   3.599   4.554   0.096
 1607TIP3   OH2 4697   3.705   4.697   0.660
 1607TIP3    H1 4698   3.790   4.724   0.621
 1607TIP3    H2 4699   3.716   4.734   0.750
 1608TIP3   OH2 4700   3.771   4.841   0.894
 1608TIP3    H1 4701   3.692   4.874   0.941
 1608TIP3    H2 4702   3.802   4.921   0.847
 1609TIP3   OH2 4703   2.394   4.571   1.697
 1609TIP3    H1 4704   2.490   4.560   1.693
 1609TIP3    H2 4705   2.367   4.484   1.734
 1610TIP3   OH2 4706   4.225   4.430   1.450
 1610TIP3    H1 4707   4.281   4.364   1.404
 1610TIP3    H2 4708   4.195   4.486   1.375
 1611TIP3   OH2 4709   3.651   4.271   0.202
 1611TIP3    H1 4710   3.697   4.254   0.287
 1611TIP3    H2 4711   3.589   4.195   0.199
 1612TIP3   OH2 4712   2.351   4.258   1.025
 1612TIP3    H1 4713   2.413   4.182   1.032
 1612TIP3    H2 4714   2.414   4.332   1.018
 1613TIP3   OH2 4715   2.156   4.534   1.098
 1613TIP3    H1 4716   2.201   4.521   1.013
 1613TIP3    H2 4717   2.182   4.625   1.119
 1614TIP3   OH2 4718   4.095   4.571   1.258
 1614TIP3    H1 4719   4.007   4.611   1.276
 1614TIP3    H2 4720   4.068   4.501   1.196
 1615TIP3   OH2 4721   3.740   4.208  -0.178
 1615TIP3    H1 4722   3.795   4.146  -0.227
 1615TIP3    H2 4723   3.797   4.287  -0.175
 1616TIP3   OH2 4724   2.138   4.062   0.610
 1616TIP3    H1 4725   2.045   4.036   0.620
 1616TIP3    H2 4726   2.140   4.101   0.521
 1617TIP3   OH2 4727   3.310   5.727   0.108
 1617TIP3    H1 4728   3.354   5.723   0.022
 1617TIP3    H2 4729   3.341   5.812   0.143
 1618TIP3   OH2 4730   2.357   4.121   1.414
 1618TIP3    H1 4731   2.304   4.111   1.495
 1618TIP3    H2 4732   2.290   4.155   1.352
 1619TIP3   OH2 4733   2.398   5.539   1.490
 1619TIP3    H1 4734   2.306   5.513   1.471
 1619TIP3    H2 4735   2.403   5.525   1.586
 1620TIP3   OH2 4736   2.574   5.576   1.038
 1620TIP3    H1 4737   2.525   5.649   0.996
 1620TIP3    H2 4738   2.658   5.587   0.989
 1621TIP3   OH2 4739   3.021   5.817   1.173
 1621TIP3    H1 4740   3.062   5.824   1.261
 1621TIP3    H2 4741   3.085   5.869   1.119
 1622TIP3   OH2 4742   3.198   5.968   1.033
 1622TIP3    H1 4743   3.269   5.922   0.986
 1622TIP3    H2 4744   3.250   6.027   1.092
 1623TIP3   OH2 4745   3.992   4.335   1.132
 1623TIP3    H1 4746   3.901   4.332   1.098
 1623TIP3    H2 4747   4.020   4.241   1.118
 1624TIP3   OH2 4748   2.250   5.828   1.061
 1624TIP3    H1 4749   2.165   5.865   1.031
 1624TIP3    H2 4750   2.256   5.866   1.149
 1625TIP3   OH2 4751   2.490   5.812   0.919
 1625TIP3    H1 4752   2.401   5.826   0.959
 1625TIP3    H2 4753   2.474   5.839   0.826
 1626TIP3   OH2 4754   2.914   5.837   0.717
 1626TIP3    H1 4755   2.841   5.851   0.653
 1626TIP3    H2 4756   2.926   5.928   0.752
 1627TIP3   OH2 4757   3.182   5.780   0.767
 1627TIP3    H1 4758   3.087   5.795   0.747
 1627TIP3    H2 4759   3.222   5.854   0.720
 1628TIP3   OH2 4760   3.394   5.974   0.682
 1628TIP3    H1 4761   3.375   6.058   0.635
 1628TIP3    H2 4762   3.415   5.914   0.607
 1629TIP3   OH2 4763   2.157   5.624   0.805
 1629TIP3    H1 4764   2.190   5.601   0.894
 1629TIP3    H2 4765   2.229   5.583   0.750
 1630TIP3   OH2 4766   2.348   5.497   0.661
 1630TIP3    H1 4767   2.374   5.414   0.706
 1630TIP3    H2 4768   2.435   5.542   0.653
 1631TIP3   OH2 4769   2.603   5.592   0.685
 1631TIP3    H1 4770   2.646   5.533   0.623
 1631TIP3    H2 4771   2.669   5.602   0.756
 1632TIP3   OH2 4772   3.199   4.250   0.753
 1632TIP3    H1 4773   3.154   4.181   0.804
 1632TIP3    H2 4774   3.266   4.199   0.704
 1633TIP3   OH2 4775   3.724   4.134   0.660
 1633TIP3    H1 4776   3.758   4.183   0.582
 1633TIP3    H2 4777   3.627   4.145   0.650
 1634TIP3   OH2 4778   3.818   4.230   0.421
 1634TIP3    H1 4779   3.890   4.179   0.379
 1634TIP3    H2 4780   3.849   4.322   0.405
 1635TIP3   OH2 4781   2.445   3.961   0.769
 1635TIP3    H1 4782   2.353   3.926   0.764
 1635TIP3    H2 4783   2.496   3.877   0.766
 1636TIP3   OH2 4784   2.261   3.818   0.422
 1636TIP3    H1 4785   2.282   3.875   0.346
 1636TIP3    H2 4786   2.199   3.873   0.471
 1637TIP3   OH2 4787   2.888   3.993   0.644
 1637TIP3    H1 4788   2.952   4.043   0.590
 1637TIP3    H2 4789   2.906   4.026   0.732
 1638TIP3   OH2 4790   3.443   4.136   0.630
 1638TIP3    H1 4791   3.433   4.100   0.541
 1638TIP3    H2 4792   3.426   4.055   0.685
 1639TIP3   OH2 4793   3.470   4.058   0.195
 1639TIP3    H1 4794   3.380   4.094   0.193
 1639TIP3    H2 4795   3.454   3.973   0.242
 1640TIP3   OH2 4796   1.947   5.380   0.203
 1640TIP3    H1 4797   1.862   5.352   0.166
 1640TIP3    H2 4798   1.947   5.474   0.177
 1641TIP3   OH2 4799   2.350   3.990   0.196
 1641TIP3    H1 4800   2.391   3.912   0.157
 1641TIP3    H2 4801   2.427   4.044   0.221
 1642TIP3   OH2 4802   2.865   4.160   0.277
 1642TIP3    H1 4803   2.923   4.113   0.339
 1642TIP3    H2 4804   2.886   4.252   0.303
 1643TIP3   OH2 4805   2.709   5.603  -0.244
 1643TIP3    H1 4806   2.804   5.618  -0.263
 1643TIP3    H2 4807   2.700   5.515  -0.286
 1644TIP3   OH2 4808   3.441   5.704  -0.142
 1644TIP3    H1 4809   3.431   5.607  -0.152
 1644TIP3    H2 4810   3.364   5.738  -0.189
 1645TIP3   OH2 4811   2.654   4.247   1.664
 1645TIP3    H1 4812   2.620   4.171   1.715
 1645TIP3    H2 4813   2.749   4.243   1.687
 1646TIP3   OH2 4814   2.906   4.238   1.778
 1646TIP3    H1 4815   2.988   4.205   1.737
 1646TIP3    H2 4816   2.890   4.168   1.845
 1647TIP3   OH2 4817   2.033   5.443  -0.147
 1647TIP3    H1 4818   2.014   5.469  -0.056
 1647TIP3    H2 4819   2.117   5.398  -0.140
 1648TIP3   OH2 4820   3.727   4.296   1.566
 1648TIP3    H1 4821   3.748   4.266   1.657
 1648TIP3    H2 4822   3.815   4.293   1.522
 1649TIP3   OH2 4823   3.667   5.849   1.059
 1649TIP3    H1 4824   3.589   5.817   1.009
 1649TIP3    H2 4825   3.649   5.945   1.058
 1650TIP3   OH2 4826   4.918   5.223   0.207
 1650TIP3    H1 4827   4.960   5.194   0.290
 1650TIP3    H2 4828   4.887   5.139   0.170
 1651TIP3   OH2 4829   4.234   5.117   0.569
 1651TIP3    H1 4830   4.267   5.052   0.633
 1651TIP3    H2 4831   4.309   5.178   0.563
 1652TIP3   OH2 4832   4.203   5.525   0.301
 1652TIP3    H1 4833   4.194   5.427   0.301
 1652TIP3    H2 4834   4.299   5.534   0.288
 1653TIP3   OH2 4835   3.911   4.733   0.081
 1653TIP3    H1 4836   3.861   4.815   0.095
 1653TIP3    H2 4837   3.840   4.675   0.048
 1654TIP3   OH2 4838   3.969   5.017   0.248
 1654TIP3    H1 4839   4.018   4.942   0.288
 1654TIP3    H2 4840   4.032   5.048   0.181
 1655TIP3   OH2 4841   4.733   5.445   0.251
 1655TIP3    H1 4842   4.772   5.365   0.211
 1655TIP3    H2 4843   4.816   5.490   0.275
 1656TIP3   OH2 4844   5.742   4.764   0.256
 1656TIP3    H1 4845   5.765   4.845   0.306
 1656TIP3    H2 4846   5.780   4.784   0.169
 1657TIP3   OH2 4847   5.141   4.948   0.295
 1657TIP3    H1 4848   5.184   4.861   0.306
 1657TIP3    H2 4849   5.117   4.946   0.201
 1658TIP3   OH2 4850   4.481   4.607   0.252
 1658TIP3    H1 4851   4.459   4.680   0.189
 1658TIP3    H2 4852   4.433   4.534   0.208
 1659TIP3   OH2 4853   5.131   4.683  -0.059
 1659TIP3    H1 4854   5.212   4.658  -0.011
 1659TIP3    H2 4855   5.172   4.711  -0.142
 1660TIP3   OH2 4856   4.114   4.811   0.358
 1660TIP3    H1 4857   4.197   4.790   0.405
 1660TIP3    H2 4858   4.125   4.754   0.278
 1661TIP3   OH2 4859   4.556   5.007   0.147
 1661TIP3    H1 4860   4.649   4.981   0.164
 1661TIP3    H2 4861   4.516   4.923   0.116
 1662TIP3   OH2 4862   5.812   4.970   0.423
 1662TIP3    H1 4863   5.730   5.021   0.407
 1662TIP3    H2 4864   5.839   5.005   0.509
 1663TIP3   OH2 4865   4.478   4.591   0.685
 1663TIP3    H1 4866   4.418   4.628   0.618
 1663TIP3    H2 4867   4.426   4.610   0.766
 1664TIP3   OH2 4868   4.584   5.366   0.483
 1664TIP3    H1 4869   4.519   5.430   0.521
 1664TIP3    H2 4870   4.623   5.419   0.410
 1665TIP3   OH2 4871   5.391   4.712   0.064
 1665TIP3    H1 4872   5.375   4.664   0.146
 1665TIP3    H2 4873   5.436   4.793   0.096
 1666TIP3   OH2 4874   4.348   4.706   0.470
 1666TIP3    H1 4875   4.410   4.780   0.492
 1666TIP3    H2 4876   4.398   4.665   0.395
 1667TIP3   OH2 4877   4.411   5.558   0.579
 1667TIP3    H1 4878   4.386   5.641   0.535
 1667TIP3    H2 4879   4.332   5.545   0.635
 1668TIP3   OH2 4880   3.808   5.251  -0.182
 1668TIP3    H1 4881   3.728   5.276  -0.231
 1668TIP3    H2 4882   3.819   5.325  -0.119
 1669TIP3   OH2 4883   5.225   5.787   0.083
 1669TIP3    H1 4884   5.134   5.762   0.120
 1669TIP3    H2 4885   5.196   5.844   0.011
 1670TIP3   OH2 4886   5.533   4.665   0.417
 1670TIP3    H1 4887   5.446   4.698   0.391
 1670TIP3    H2 4888   5.591   4.698   0.346
 1671TIP3   OH2 4889   4.838   4.311   0.400
 1671TIP3    H1 4890   4.822   4.216   0.416
 1671TIP3    H2 4891   4.759   4.350   0.445
 1672TIP3   OH2 4892   5.471   5.681   0.400
 1672TIP3    H1 4893   5.470   5.605   0.339
 1672TIP3    H2 4894   5.453   5.757   0.340
 1673TIP3   OH2 4895   5.671   5.308   0.270
 1673TIP3    H1 4896   5.592   5.366   0.275
 1673TIP3    H2 4897   5.685   5.309   0.174
 1674TIP3   OH2 4898   5.346   5.195   0.535
 1674TIP3    H1 4899   5.342   5.278   0.586
 1674TIP3    H2 4900   5.262   5.203   0.485
 1675TIP3   OH2 4901   4.342   5.154   0.045
 1675TIP3    H1 4902   4.300   5.095  -0.022
 1675TIP3    H2 4903   4.422   5.102   0.070
 1676TIP3   OH2 4904   4.469   5.561   0.196
 1676TIP3    H1 4905   4.443   5.530   0.107
 1676TIP3    H2 4906   4.560   5.526   0.206
 1677TIP3   OH2 4907   4.485   5.124   0.397
 1677TIP3    H1 4908   4.514   5.108   0.305
 1677TIP3    H2 4909   4.524   5.211   0.418
 1678TIP3   OH2 4910   4.977   5.761   0.186
 1678TIP3    H1 4911   4.970   5.839   0.243
 1678TIP3    H2 4912   4.973   5.686   0.249
 1679TIP3   OH2 4913   4.617   5.680   0.722
 1679TIP3    H1 4914   4.558   5.744   0.767
 1679TIP3    H2 4915   4.551   5.628   0.672
 1680TIP3   OH2 4916   4.371   5.237   0.821
 1680TIP3    H1 4917   4.376   5.324   0.866
 1680TIP3    H2 4918   4.275   5.220   0.828
 1681TIP3   OH2 4919   4.413   5.851   0.807
 1681TIP3    H1 4920   4.379   5.849   0.716
 1681TIP3    H2 4921   4.333   5.828   0.860
 1682TIP3   OH2 4922   4.206   4.990  -0.136
 1682TIP3    H1 4923   4.152   5.038  -0.201
 1682TIP3    H2 4924   4.149   4.916  -0.114
 1683TIP3   OH2 4925   3.991   5.380   0.755
 1683TIP3    H1 4926   3.926   5.360   0.685
 1683TIP3    H2 4927   4.027   5.292   0.778
 1684TIP3   OH2 4928   3.846   5.569   0.394
 1684TIP3    H1 4929   3.941   5.571   0.378
 1684TIP3    H2 4930   3.831   5.654   0.439
 1685TIP3   OH2 4931   5.708   6.019   0.447
 1685TIP3    H1 4932   5.707   5.923   0.467
 1685TIP3    H2 4933   5.625   6.047   0.491
 1686TIP3   OH2 4934   4.818   5.809   0.579
 1686TIP3    H1 4935   4.818   5.902   0.610
 1686TIP3    H2 4936   4.745   5.772   0.632
 1687TIP3   OH2 4937   4.006   5.782  -0.089
 1687TIP3    H1 4938   4.071   5.781  -0.016
 1687TIP3    H2 4939   3.947   5.711  -0.058
 1688TIP3   OH2 4940   5.600   5.154   0.718
 1688TIP3    H1 4941   5.518   5.169   0.668
 1688TIP3    H2 4942   5.611   5.057   0.708
 1689TIP3   OH2 4943   4.197   5.562   0.746
 1689TIP3    H1 4944   4.246   5.545   0.829
 1689TIP3    H2 4945   4.122   5.499   0.752
 1690TIP3   OH2 4946   4.596   4.387   0.524
 1690TIP3    H1 4947   4.507   4.356   0.501
 1690TIP3    H2 4948   4.572   4.470   0.570
 1691TIP3   OH2 4949   5.128   4.501   0.721
 1691TIP3    H1 4950   5.194   4.476   0.788
 1691TIP3    H2 4951   5.043   4.482   0.766
 1692TIP3   OH2 4952   5.371   4.932   0.640
 1692TIP3    H1 4953   5.322   4.927   0.725
 1692TIP3    H2 4954   5.343   5.019   0.604
 1693TIP3   OH2 4955   4.528   4.901   0.545
 1693TIP3    H1 4956   4.477   4.922   0.626
 1693TIP3    H2 4957   4.513   4.982   0.491
 1694TIP3   OH2 4958   4.413   4.783   0.057
 1694TIP3    H1 4959   4.319   4.762   0.077
 1694TIP3    H2 4960   4.420   4.745  -0.033
 1695TIP3   OH2 4961   5.076   5.153   0.873
 1695TIP3    H1 4962   5.054   5.081   0.936
 1695TIP3    H2 4963   5.169   5.169   0.896
 1696TIP3   OH2 4964   5.052   4.929   0.035
 1696TIP3    H1 4965   5.025   4.976  -0.047
 1696TIP3    H2 4966   5.070   4.839   0.001
 1697TIP3   OH2 4967   4.348   4.931   0.755
 1697TIP3    H1 4968   4.369   4.997   0.823
 1697TIP3    H2 4969   4.334   4.850   0.807
 1698TIP3   OH2 4970   3.938   4.456   0.334
 1698TIP3    H1 4971   4.016   4.484   0.387
 1698TIP3    H2 4972   3.976   4.419   0.254
 1699TIP3   OH2 4973   3.914   4.437  -0.144
 1699TIP3    H1 4974   3.962   4.473  -0.221
 1699TIP3    H2 4975   3.854   4.511  -0.123
 1700TIP3   OH2 4976   5.063   5.152   0.451
 1700TIP3    H1 4977   5.100   5.080   0.395
 1700TIP3    H2 4978   5.038   5.099   0.530
 1701TIP3   OH2 4979   4.740   4.601   0.130
 1701TIP3    H1 4980   4.654   4.604   0.178
 1701TIP3    H2 4981   4.803   4.616   0.203
 1702TIP3   OH2 4982   4.173   4.666   0.129
 1702TIP3    H1 4983   4.078   4.674   0.104
 1702TIP3    H2 4984   4.193   4.573   0.107
 1703TIP3   OH2 4985   4.442   4.663  -0.196
 1703TIP3    H1 4986   4.539   4.676  -0.184
 1703TIP3    H2 4987   4.422   4.723  -0.270
 1704TIP3   OH2 4988   5.231   4.682   0.321
 1704TIP3    H1 4989   5.198   4.697   0.413
 1704TIP3    H2 4990   5.161   4.624   0.286
 1705TIP3   OH2 4991   5.399   6.371   0.572
 1705TIP3    H1 4992   5.396   6.383   0.474
 1705TIP3    H2 4993   5.468   6.435   0.594
 1706TIP3   OH2 4994   4.357   5.482   0.965
 1706TIP3    H1 4995   4.437   5.516   1.012
 1706TIP3    H2 4996   4.292   5.485   1.038
 1707TIP3   OH2 4997   4.819   4.932   0.218
 1707TIP3    H1 4998   4.900   4.909   0.170
 1707TIP3    H2 4999   4.836   4.896   0.307
 1708TIP3   OH2 5000   4.350   4.425   0.096
 1708TIP3    H1 5001   4.312   4.346   0.141
 1708TIP3    H2 5002   4.401   4.385   0.024
 1709TIP3   OH2 5003   4.799   4.831   0.512
 1709TIP3    H1 5004   4.709   4.869   0.522
 1709TIP3    H2 5005   4.856   4.893   0.561
 1710TIP3   OH2 5006   5.444   5.452   0.231
 1710TIP3    H1 5007   5.430   5.525   0.166
 1710TIP3    H2 5008   5.356   5.407   0.230
 1711TIP3   OH2 5009   4.940   5.547   0.601
 1711TIP3    H1 5010   4.953   5.521   0.693
 1711TIP3    H2 5011   4.895   5.633   0.608
 1712TIP3   OH2 5012   4.224   5.244   0.282
 1712TIP3    H1 5013   4.263   5.220   0.195
 1712TIP3    H2 5014   4.266   5.180   0.341
 1713TIP3   OH2 5015   4.107   5.167   0.892
 1713TIP3    H1 5016   4.126   5.153   0.987
 1713TIP3    H2 5017   4.036   5.102   0.877
 1714TIP3   OH2 5018   4.831   5.280   0.914
 1714TIP3    H1 5019   4.773   5.223   0.861
 1714TIP3    H2 5020   4.919   5.249   0.884
 1715TIP3   OH2 5021   5.094   5.809   0.491
 1715TIP3    H1 5022   4.999   5.801   0.510
 1715TIP3    H2 5023   5.125   5.856   0.571
 1716TIP3   OH2 5024   5.719   5.733   0.494
 1716TIP3    H1 5025   5.621   5.730   0.490
 1716TIP3    H2 5026   5.739   5.703   0.403
 1717TIP3   OH2 5027   5.209   5.314   0.201
 1717TIP3    H1 5028   5.114   5.305   0.184
 1717TIP3    H2 5029   5.241   5.246   0.137
 1718TIP3   OH2 5030   4.342   5.561  -0.076
 1718TIP3    H1 5031   4.352   5.651  -0.114
 1718TIP3    H2 5032   4.264   5.529  -0.128
 1719TIP3   OH2 5033   3.880   4.853  -0.391
 1719TIP3    H1 5034   3.920   4.938  -0.364
 1719TIP3    H2 5035   3.801   4.852  -0.332
 1720TIP3   OH2 5036   4.489   5.327  -0.126
 1720TIP3    H1 5037   4.443   5.413  -0.121
 1720TIP3    H2 5038   4.433   5.274  -0.066
 1721TIP3   OH2 5039   4.596   5.895   0.375
 1721TIP3    H1 5040   4.634   5.968   0.323
 1721TIP3    H2 5041   4.674   5.864   0.423
 1722TIP3   OH2 5042   4.992   5.525   0.334
 1722TIP3    H1 5043   4.981   5.525   0.432
 1722TIP3    H2 5044   5.070   5.469   0.324
 1723TIP3   OH2 5045   5.230   6.064   0.389
 1723TIP3    H1 5046   5.152   6.006   0.383
 1723TIP3    H2 5047   5.208   6.132   0.323
 1724TIP3   OH2 5048   4.320   4.674   0.903
 1724TIP3    H1 5049   4.224   4.679   0.915
 1724TIP3    H2 5050   4.346   4.611   0.972
 1725TIP3   OH2 5051   4.036   5.761   0.534
 1725TIP3    H1 5052   4.087   5.683   0.562
 1725TIP3    H2 5053   4.067   5.828   0.596
 1726TIP3   OH2 5054   4.000   5.080  -0.299
 1726TIP3    H1 5055   3.941   5.139  -0.247
 1726TIP3    H2 5056   4.040   5.145  -0.362
 1727TIP3   OH2 5057   5.158   4.735   0.579
 1727TIP3    H1 5058   5.233   4.777   0.624
 1727TIP3    H2 5059   5.140   4.657   0.635
 1728TIP3   OH2 5060   4.706   4.679  -0.133
 1728TIP3    H1 5061   4.782   4.727  -0.170
 1728TIP3    H2 5062   4.727   4.673  -0.037
 1729TIP3   OH2 5063   4.994   4.987   0.659
 1729TIP3    H1 5064   5.011   5.045   0.736
 1729TIP3    H2 5065   5.051   4.911   0.677
 1730TIP3   OH2 5066   4.881   4.418  -0.044
 1730TIP3    H1 5067   4.851   4.481   0.024
 1730TIP3    H2 5068   4.962   4.463  -0.075
 1731TIP3   OH2 5069   4.375   4.390  -0.246
 1731TIP3    H1 5070   4.372   4.482  -0.214
 1731TIP3    H2 5071   4.465   4.364  -0.216
 1732TIP3   OH2 5072   5.636   4.883   0.640
 1732TIP3    H1 5073   5.538   4.883   0.645
 1732TIP3    H2 5074   5.648   4.857   0.547
 1733TIP3   OH2 5075   5.299   5.097   0.052
 1733TIP3    H1 5076   5.220   5.046   0.031
 1733TIP3    H2 5077   5.364   5.029   0.077
 1734TIP3   OH2 5078   3.946   4.587  -0.382
 1734TIP3    H1 5079   3.923   4.683  -0.386
 1734TIP3    H2 5080   3.868   4.547  -0.421
 1735TIP3   OH2 5081   4.333   4.306   0.503
 1735TIP3    H1 5082   4.299   4.274   0.417
 1735TIP3    H2 5083   4.321   4.228   0.560
 1736TIP3   OH2 5084   3.854   5.533  -0.072
 1736TIP3    H1 5085   3.777   5.590  -0.057
 1736TIP3    H2 5086   3.870   5.540  -0.168
 1737TIP3   OH2 5087   4.025   6.063   0.955
 1737TIP3    H1 5088   4.111   6.062   1.002
 1737TIP3    H2 5089   4.003   5.969   0.952
 1738TIP3   OH2 5090   4.510   6.032   1.001
 1738TIP3    H1 5091   4.605   6.014   1.006
 1738TIP3    H2 5092   4.484   5.976   0.925
 1739TIP3   OH2 5093   5.151   5.934   0.728
 1739TIP3    H1 5094   5.140   5.866   0.799
 1739TIP3    H2 5095   5.226   5.987   0.762
 1740TIP3   OH2 5096   4.156   5.472   1.156
 1740TIP3    H1 5097   4.173   5.376   1.156
 1740TIP3    H2 5098   4.069   5.476   1.112
 1741TIP3   OH2 5099   4.765   5.556   0.928
 1741TIP3    H1 5100   4.722   5.572   0.842
 1741TIP3    H2 5101   4.795   5.463   0.920
 1742TIP3   OH2 5102   5.258   5.560   0.534
 1742TIP3    H1 5103   5.329   5.613   0.492
 1742TIP3    H2 5104   5.182   5.620   0.524
 1743TIP3   OH2 5105   4.274   5.204   1.137
 1743TIP3    H1 5106   4.350   5.148   1.116
 1743TIP3    H2 5107   4.299   5.238   1.225
 1744TIP3   OH2 5108   4.612   5.092   0.799
 1744TIP3    H1 5109   4.534   5.151   0.803
 1744TIP3    H2 5110   4.658   5.125   0.719
 1745TIP3   OH2 5111   5.125   5.492   0.933
 1745TIP3    H1 5112   5.209   5.475   0.887
 1745TIP3    H2 5113   5.126   5.425   1.003
 1746TIP3   OH2 5114   4.735   4.879   0.926
 1746TIP3    H1 5115   4.733   4.799   0.870
 1746TIP3    H2 5116   4.691   4.945   0.868
 1747TIP3   OH2 5117   4.737   4.663   0.731
 1747TIP3    H1 5118   4.763   4.707   0.648
 1747TIP3    H2 5119   4.643   4.642   0.713
 1748TIP3   OH2 5120   4.768   5.203   0.604
 1748TIP3    H1 5121   4.848   5.210   0.550
 1748TIP3    H2 5122   4.710   5.270   0.561
 1749TIP3   OH2 5123   5.347   5.169   0.987
 1749TIP3    H1 5124   5.398   5.088   0.997
 1749TIP3    H2 5125   5.415   5.231   0.955
 1750TIP3   OH2 5126   5.389   5.419   0.721
 1750TIP3    H1 5127   5.330   5.472   0.663
 1750TIP3    H2 5128   5.476   5.440   0.680
 1751TIP3   OH2 5129   4.612   4.993   1.155
 1751TIP3    H1 5130   4.542   4.926   1.167
 1751TIP3    H2 5131   4.647   4.970   1.067
 1752TIP3   OH2 5132   4.869   4.429   0.796
 1752TIP3    H1 5133   4.821   4.512   0.774
 1752TIP3    H2 5134   4.798   4.363   0.785
 1753TIP3   OH2 5135   4.996   4.935   1.014
 1753TIP3    H1 5136   4.984   4.925   1.110
 1753TIP3    H2 5137   4.905   4.910   0.984
 1754TIP3   OH2 5138   5.234   4.879   0.867
 1754TIP3    H1 5139   5.158   4.885   0.928
 1754TIP3    H2 5140   5.306   4.851   0.927
 1755TIP3   OH2 5141   5.464   4.822   1.021
 1755TIP3    H1 5142   5.475   4.728   1.043
 1755TIP3    H2 5143   5.458   4.864   1.110
 1756TIP3   OH2 5144   4.451   4.774   1.206
 1756TIP3    H1 5145   4.458   4.684   1.169
 1756TIP3    H2 5146   4.486   4.760   1.296
 1757TIP3   OH2 5147   4.964   4.439   1.054
 1757TIP3    H1 5148   5.031   4.369   1.048
 1757TIP3    H2 5149   4.923   4.433   0.965
 1758TIP3   OH2 5150   5.028   4.653   1.215
 1758TIP3    H1 5151   5.005   4.584   1.150
 1758TIP3    H2 5152   4.952   4.714   1.208
 1759TIP3   OH2 5153   3.638   5.882  -0.058
 1759TIP3    H1 5154   3.574   5.817  -0.095
 1759TIP3    H2 5155   3.682   5.829   0.012
 1760TIP3   OH2 5156   3.772   5.740   0.133
 1760TIP3    H1 5157   3.767   5.660   0.188
 1760TIP3    H2 5158   3.827   5.798   0.190
 1761TIP3   OH2 5159   5.561   6.130   0.216
 1761TIP3    H1 5160   5.515   6.045   0.229
 1761TIP3    H2 5161   5.626   6.125   0.287
 1762TIP3   OH2 5162   5.582   5.825   0.784
 1762TIP3    H1 5163   5.509   5.834   0.848
 1762TIP3    H2 5164   5.624   5.914   0.789
 1763TIP3   OH2 5165   5.404   5.902   0.250
 1763TIP3    H1 5166   5.348   5.954   0.312
 1763TIP3    H2 5167   5.335   5.861   0.194
 1764TIP3   OH2 5168   3.969   5.132   0.504
 1764TIP3    H1 5169   3.966   5.107   0.409
 1764TIP3    H2 5170   4.066   5.136   0.519
 1765TIP3   OH2 5171   5.629   5.487   0.610
 1765TIP3    H1 5172   5.702   5.421   0.604
 1765TIP3    H2 5173   5.662   5.560   0.555
 1766TIP3   OH2 5174   5.813   5.294   0.633
 1766TIP3    H1 5175   5.740   5.242   0.673
 1766TIP3    H2 5176   5.888   5.232   0.644
 1767TIP3   OH2 5177   5.509   4.946   0.149
 1767TIP3    H1 5178   5.590   4.981   0.107
 1767TIP3    H2 5179   5.516   4.988   0.237
 1768TIP3   OH2 5180   5.560   5.088   0.384
 1768TIP3    H1 5181   5.481   5.121   0.431
 1768TIP3    H2 5182   5.598   5.172   0.349
 1769TIP3   OH2 5183   4.184   4.824   1.179
 1769TIP3    H1 5184   4.281   4.817   1.178
 1769TIP3    H2 5185   4.160   4.739   1.221
 1770TIP3   OH2 5186   6.021   4.685   0.936
 1770TIP3    H1 5187   6.077   4.620   0.890
 1770TIP3    H2 5188   5.991   4.743   0.863
 1771TIP3   OH2 5189   4.147   4.514   0.507
 1771TIP3    H1 5190   4.210   4.440   0.519
 1771TIP3    H2 5191   4.208   4.590   0.504
 1772TIP3   OH2 5192   3.952   4.790   0.584
 1772TIP3    H1 5193   3.999   4.782   0.499
 1772TIP3    H2 5194   3.976   4.879   0.611
 1773TIP3   OH2 5195   5.892   4.828   0.746
 1773TIP3    H1 5196   5.806   4.868   0.770
 1773TIP3    H2 5197   5.861   4.759   0.683
 1774TIP3   OH2 5198   3.932   4.296   0.086
 1774TIP3    H1 5199   3.838   4.290   0.110
 1774TIP3    H2 5200   3.930   4.352   0.006
 1775TIP3   OH2 5201   4.152   4.372   0.899
 1775TIP3    H1 5202   4.101   4.367   0.981
 1775TIP3    H2 5203   4.086   4.411   0.838
 1776TIP3   OH2 5204   4.194   5.795   0.975
 1776TIP3    H1 5205   4.101   5.770   0.956
 1776TIP3    H2 5206   4.198   5.784   1.071
 1777TIP3   OH2 5207   4.370   5.830   0.524
 1777TIP3    H1 5208   4.319   5.904   0.484
 1777TIP3    H2 5209   4.455   5.845   0.477
 1778TIP3   OH2 5210   4.817   6.075   0.659
 1778TIP3    H1 5211   4.858   6.078   0.748
 1778TIP3    H2 5212   4.882   6.128   0.608
 1779TIP3   OH2 5213   4.996   6.227   0.520
 1779TIP3    H1 5214   5.069   6.174   0.486
 1779TIP3    H2 5215   5.043   6.287   0.581
 1780TIP3   OH2 5216   5.791   4.592   0.617
 1780TIP3    H1 5217   5.699   4.593   0.586
 1780TIP3    H2 5218   5.815   4.498   0.604
 1781TIP3   OH2 5219   4.048   6.089   0.545
 1781TIP3    H1 5220   3.960   6.122   0.519
 1781TIP3    H2 5221   4.053   6.123   0.635
 1782TIP3   OH2 5222   4.284   6.065   0.402
 1782TIP3    H1 5223   4.198   6.080   0.447
 1782TIP3    H2 5224   4.264   6.100   0.312
 1783TIP3   OH2 5225   4.717   6.097   0.199
 1783TIP3    H1 5226   4.638   6.113   0.141
 1783TIP3    H2 5227   4.726   6.184   0.242
 1784TIP3   OH2 5228   4.987   6.050   0.242
 1784TIP3    H1 5229   4.889   6.053   0.231
 1784TIP3    H2 5230   5.014   6.119   0.179
 1785TIP3   OH2 5231   3.958   5.883   0.291
 1785TIP3    H1 5232   3.985   5.858   0.382
 1785TIP3    H2 5233   4.030   5.840   0.239
 1786TIP3   OH2 5234   4.151   5.757   0.146
 1786TIP3    H1 5235   4.167   5.670   0.189
 1786TIP3    H2 5236   4.242   5.793   0.139
 1787TIP3   OH2 5237   4.417   5.854   0.146
 1787TIP3    H1 5238   4.446   5.763   0.128
 1787TIP3    H2 5239   4.458   5.869   0.233
 1788TIP3   OH2 5240   4.998   4.503   0.240
 1788TIP3    H1 5241   4.951   4.436   0.292
 1788TIP3    H2 5242   5.068   4.452   0.196
 1789TIP3   OH2 5243   5.514   4.391   0.156
 1789TIP3    H1 5244   5.553   4.432   0.076
 1789TIP3    H2 5245   5.418   4.408   0.143
 1790TIP3   OH2 5246   5.628   4.450  -0.090
 1790TIP3    H1 5247   5.726   4.445  -0.090
 1790TIP3    H2 5248   5.616   4.545  -0.101
 1791TIP3   OH2 5249   4.243   4.215   0.254
 1791TIP3    H1 5250   4.151   4.182   0.254
 1791TIP3    H2 5251   4.292   4.130   0.251
 1792TIP3   OH2 5252   4.017   4.083  -0.103
 1792TIP3    H1 5253   4.057   4.142  -0.169
 1792TIP3    H2 5254   3.994   4.146  -0.032
 1793TIP3   OH2 5255   4.683   4.246   0.136
 1793TIP3    H1 5256   4.744   4.300   0.085
 1793TIP3    H2 5257   4.695   4.281   0.225
 1794TIP3   OH2 5258   5.238   4.390   0.116
 1794TIP3    H1 5259   5.224   4.357   0.026
 1794TIP3    H2 5260   5.222   4.310   0.170
 1795TIP3   OH2 5261   4.138   4.257  -0.306
 1795TIP3    H1 5262   4.174   4.181  -0.353
 1795TIP3    H2 5263   4.219   4.309  -0.286
 1796TIP3   OH2 5264   4.637   4.407  -0.180
 1796TIP3    H1 5265   4.712   4.371  -0.130
 1796TIP3    H2 5266   4.658   4.502  -0.178
 1797TIP3   OH2 5267   4.450   4.496   1.145
 1797TIP3    H1 5268   4.417   4.425   1.203
 1797TIP3    H2 5269   4.545   4.497   1.171
 1798TIP3   OH2 5270   4.699   4.493   1.265
 1798TIP3    H1 5271   4.783   4.468   1.224
 1798TIP3    H2 5272   4.687   4.421   1.331
 1799TIP3   OH2 5273   5.523   4.551   1.052
 1799TIP3    H1 5274   5.543   4.522   1.144
 1799TIP3    H2 5275   5.611   4.548   1.010
 1800TIP3   OH2 5276   5.466   6.106   0.543
 1800TIP3    H1 5277   5.381   6.080   0.503
 1800TIP3    H2 5278   5.452   6.203   0.552
 1801TIP3   OH2 5279   6.248   4.839   0.166
 1801TIP3    H1 5280   6.273   4.924   0.123
 1801TIP3    H2 5281   6.201   4.869   0.247
 1802TIP3   OH2 5282   6.174   5.484   0.321
 1802TIP3    H1 5283   6.183   5.574   0.357
 1802TIP3    H2 5284   6.077   5.474   0.319
 1803TIP3   OH2 5285   5.769   5.632   0.251
 1803TIP3    H1 5286   5.757   5.623   0.155
 1803TIP3    H2 5287   5.813   5.549   0.278
 1804TIP3   OH2 5288   6.018   5.760   0.254
 1804TIP3    H1 5289   6.073   5.764   0.336
 1804TIP3    H2 5290   5.938   5.715   0.285
 1805TIP3   OH2 5291   6.917   4.760   0.221
 1805TIP3    H1 5292   6.990   4.754   0.285
 1805TIP3    H2 5293   6.838   4.757   0.277
 1806TIP3   OH2 5294   6.873   5.411   0.400
 1806TIP3    H1 5295   6.867   5.321   0.437
 1806TIP3    H2 5296   6.969   5.426   0.394
 1807TIP3   OH2 5297   6.109   5.180   0.250
 1807TIP3    H1 5298   6.162   5.255   0.282
 1807TIP3    H2 5299   6.132   5.109   0.311
 1808TIP3   OH2 5300   6.168   5.731   0.479
 1808TIP3    H1 5301   6.243   5.767   0.531
 1808TIP3    H2 5302   6.096   5.739   0.545
 1809TIP3   OH2 5303   5.902   5.434   0.382
 1809TIP3    H1 5304   5.936   5.421   0.473
 1809TIP3    H2 5305   5.838   5.361   0.374
 1810TIP3   OH2 5306   6.624   5.508   0.436
 1810TIP3    H1 5307   6.568   5.482   0.361
 1810TIP3    H2 5308   6.713   5.479   0.406
 1811TIP3   OH2 5309   6.122   4.926   0.395
 1811TIP3    H1 5310   6.027   4.942   0.408
 1811TIP3    H2 5311   6.144   4.868   0.469
 1812TIP3   OH2 5312   6.095   4.540  -0.015
 1812TIP3    H1 5313   6.081   4.489  -0.097
 1812TIP3    H2 5314   6.100   4.468   0.052
 1813TIP3   OH2 5315   5.819   6.297   0.434
 1813TIP3    H1 5316   5.903   6.313   0.482
 1813TIP3    H2 5317   5.799   6.206   0.458
 1814TIP3   OH2 5318   6.335   6.293   0.474
 1814TIP3    H1 5319   6.396   6.226   0.509
 1814TIP3    H2 5320   6.317   6.256   0.386
 1815TIP3   OH2 5321   5.950   5.727   0.647
 1815TIP3    H1 5322   5.966   5.631   0.648
 1815TIP3    H2 5323   5.862   5.732   0.604
 1816TIP3   OH2 5324   6.557   5.771   0.463
 1816TIP3    H1 5325   6.516   5.781   0.374
 1816TIP3    H2 5326   6.581   5.675   0.462
 1817TIP3   OH2 5327   6.066   5.457   0.624
 1817TIP3    H1 5328   6.148   5.411   0.598
 1817TIP3    H2 5329   6.092   5.493   0.711
 1818TIP3   OH2 5330   6.398   5.334   0.278
 1818TIP3    H1 5331   6.324   5.392   0.308
 1818TIP3    H2 5332   6.429   5.389   0.204
 1819TIP3   OH2 5333   7.014   5.696   0.425
 1819TIP3    H1 5334   7.000   5.793   0.421
 1819TIP3    H2 5335   6.955   5.671   0.498
 1820TIP3   OH2 5336   6.532   5.146   0.423
 1820TIP3    H1 5337   6.521   5.060   0.378
 1820TIP3    H2 5338   6.486   5.208   0.362
 1821TIP3   OH2 5339   6.514   4.913   0.269
 1821TIP3    H1 5340   6.540   4.964   0.189
 1821TIP3    H2 5341   6.422   4.894   0.247
 1822TIP3   OH2 5342   7.150   5.422   0.490
 1822TIP3    H1 5343   7.200   5.340   0.481
 1822TIP3    H2 5344   7.194   5.483   0.430
 1823TIP3   OH2 5345   6.405   5.253   0.645
 1823TIP3    H1 5346   6.335   5.185   0.655
 1823TIP3    H2 5347   6.444   5.230   0.559
 1824TIP3   OH2 5348   6.652   4.681   0.292
 1824TIP3    H1 5349   6.608   4.770   0.298
 1824TIP3    H2 5350   6.574   4.622   0.288
 1825TIP3   OH2 5351   6.799   5.169   0.501
 1825TIP3    H1 5352   6.785   5.174   0.597
 1825TIP3    H2 5353   6.706   5.163   0.471
 1826TIP3   OH2 5354   7.027   5.103   0.348
 1826TIP3    H1 5355   6.950   5.129   0.403
 1826TIP3    H2 5356   7.100   5.105   0.412
 1827TIP3   OH2 5357   7.272   5.081   0.514
 1827TIP3    H1 5358   7.265   4.986   0.536
 1827TIP3    H2 5359   7.255   5.124   0.600
 1828TIP3   OH2 5360   6.245   5.030   0.692
 1828TIP3    H1 5361   6.257   4.940   0.658
 1828TIP3    H2 5362   6.280   5.020   0.783
 1829TIP3   OH2 5363   6.763   4.696   0.543
 1829TIP3    H1 5364   6.829   4.624   0.541
 1829TIP3    H2 5365   6.717   4.682   0.458
 1830TIP3   OH2 5366   6.824   4.911   0.704
 1830TIP3    H1 5367   6.800   4.843   0.638
 1830TIP3    H2 5368   6.749   4.974   0.697
 1831TIP3   OH2 5369   5.977   5.076   0.656
 1831TIP3    H1 5370   6.075   5.075   0.662
 1831TIP3    H2 5371   5.955   4.995   0.706
 1832TIP3   OH2 5372   5.942   4.804   0.056
 1832TIP3    H1 5373   6.012   4.748   0.093
 1832TIP3    H2 5374   5.992   4.882   0.025
 1833TIP3   OH2 5375   5.752   5.052   0.057
 1833TIP3    H1 5376   5.829   4.993   0.042
 1833TIP3    H2 5377   5.798   5.134   0.078
 1834TIP3   OH2 5378   5.949   4.625   0.382
 1834TIP3    H1 5379   5.903   4.623   0.468
 1834TIP3    H2 5380   5.880   4.666   0.327
 1835TIP3   OH2 5381   5.984   6.033   0.461
 1835TIP3    H1 5382   5.888   6.016   0.455
 1835TIP3    H2 5383   5.999   6.036   0.556
 1836TIP3   OH2 5384   6.247   4.746   0.627
 1836TIP3    H1 5385   6.212   4.681   0.690
 1836TIP3    H2 5386   6.341   4.751   0.657
 1837TIP3   OH2 5387   6.493   4.746   0.749
 1837TIP3    H1 5388   6.583   4.725   0.718
 1837TIP3    H2 5389   6.480   4.678   0.818
 1838TIP3   OH2 5390   7.310   4.800   0.545
 1838TIP3    H1 5391   7.329   4.775   0.639
 1838TIP3    H2 5392   7.400   4.807   0.510
 1839TIP3   OH2 5393  -0.235   5.870   2.223
 1839TIP3    H1 5394  -0.261   5.776   2.233
 1839TIP3    H2 5395  -0.284   5.915   2.294
 1840TIP3   OH2 5396   0.271   5.731   2.112
 1840TIP3    H1 5397   0.326   5.661   2.070
 1840TIP3    H2 5398   0.248   5.787   2.035
 1841TIP3   OH2 5399   0.134   5.880   1.926
 1841TIP3    H1 5400   0.067   5.914   1.990
 1841TIP3    H2 5401   0.094   5.796   1.894
 1842TIP3   OH2 5402   0.043   5.635   1.828
 1842TIP3    H1 5403  -0.008   5.640   1.744
 1842TIP3    H2 5404   0.082   5.546   1.816
 1843TIP3   OH2 5405  -0.239   5.590   2.232
 1843TIP3    H1 5406  -0.216   5.562   2.324
 1843TIP3    H2 5407  -0.150   5.595   2.191
 1844TIP3   OH2 5408   1.790   6.061   0.914
 1844TIP3    H1 5409   1.820   6.144   0.956
 1844TIP3    H2 5410   1.819   6.074   0.822
 1845TIP3   OH2 5411   1.137   6.239   0.965
 1845TIP3    H1 5412   1.188   6.158   0.987
 1845TIP3    H2 5413   1.188   6.269   0.887
 1846TIP3   OH2 5414   1.859   6.270   1.086
 1846TIP3    H1 5415   1.778   6.321   1.068
 1846TIP3    H2 5416   1.884   6.305   1.173
 1847TIP3   OH2 5417   0.538   5.885   1.368
 1847TIP3    H1 5418   0.466   5.866   1.305
 1847TIP3    H2 5419   0.488   5.907   1.450
 1848TIP3   OH2 5420   1.416   6.008   0.713
 1848TIP3    H1 5421   1.434   5.943   0.782
 1848TIP3    H2 5422   1.489   6.071   0.725
 1849TIP3   OH2 5423   1.580   5.970   1.081
 1849TIP3    H1 5424   1.494   5.998   1.046
 1849TIP3    H2 5425   1.642   5.998   1.010
 1850TIP3   OH2 5426   0.899   5.622   1.098
 1850TIP3    H1 5427   0.871   5.557   1.031
 1850TIP3    H2 5428   0.811   5.658   1.120
 1851TIP3   OH2 5429   1.514   6.984   1.062
 1851TIP3    H1 5430   1.508   6.916   0.991
 1851TIP3    H2 5431   1.475   7.062   1.016
 1852TIP3   OH2 5432   1.716   6.608   0.902
 1852TIP3    H1 5433   1.637   6.661   0.883
 1852TIP3    H2 5434   1.742   6.576   0.813
 1853TIP3   OH2 5435   1.400   6.497   1.201
 1853TIP3    H1 5436   1.394   6.579   1.252
 1853TIP3    H2 5437   1.309   6.493   1.163
 1854TIP3   OH2 5438   1.766   7.317   1.119
 1854TIP3    H1 5439   1.755   7.222   1.133
 1854TIP3    H2 5440   1.677   7.350   1.146
 1855TIP3   OH2 5441   1.640   6.454   1.383
 1855TIP3    H1 5442   1.567   6.467   1.320
 1855TIP3    H2 5443   1.659   6.359   1.370
 1856TIP3   OH2 5444   0.632   5.682   1.190
 1856TIP3    H1 5445   0.548   5.663   1.147
 1856TIP3    H2 5446   0.620   5.775   1.215
 1857TIP3   OH2 5447   1.173   5.812   1.390
 1857TIP3    H1 5448   1.243   5.775   1.448
 1857TIP3    H2 5449   1.091   5.779   1.432
 1858TIP3   OH2 5450   1.412   6.229   1.300
 1858TIP3    H1 5451   1.366   6.230   1.386
 1858TIP3    H2 5452   1.393   6.318   1.264
 1859TIP3   OH2 5453   1.125   6.461   1.552
 1859TIP3    H1 5454   1.105   6.379   1.602
 1859TIP3    H2 5455   1.222   6.463   1.557
 1860TIP3   OH2 5456   1.141   6.457   1.128
 1860TIP3    H1 5457   1.136   6.387   1.060
 1860TIP3    H2 5458   1.088   6.414   1.198
 1861TIP3   OH2 5459   1.269   5.991   0.998
 1861TIP3    H1 5460   1.227   5.995   1.086
 1861TIP3    H2 5461   1.210   5.926   0.954
 1862TIP3   OH2 5462   0.878   6.051   1.185
 1862TIP3    H1 5463   0.818   6.127   1.194
 1862TIP3    H2 5464   0.965   6.093   1.183
 1863TIP3   OH2 5465   1.483   6.774   0.876
 1863TIP3    H1 5466   1.498   6.770   0.780
 1863TIP3    H2 5467   1.418   6.702   0.884
 1864TIP3   OH2 5468   0.875   6.568   1.570
 1864TIP3    H1 5469   0.827   6.513   1.507
 1864TIP3    H2 5470   0.968   6.544   1.551
 1865TIP3   OH2 5471   1.768   7.026   1.144
 1865TIP3    H1 5472   1.670   7.026   1.139
 1865TIP3    H2 5473   1.790   6.995   1.055
 1866TIP3   OH2 5474   0.407   5.946   1.598
 1866TIP3    H1 5475   0.311   5.953   1.596
 1866TIP3    H2 5476   0.421   5.880   1.668
 1867TIP3   OH2 5477   1.184   6.056   1.259
 1867TIP3    H1 5478   1.277   6.080   1.275
 1867TIP3    H2 5479   1.178   5.968   1.303
 1868TIP3   OH2 5480   1.040   6.299   1.327
 1868TIP3    H1 5481   1.077   6.342   1.406
 1868TIP3    H2 5482   1.092   6.217   1.321
 1869TIP3   OH2 5483   1.681   6.190   1.304
 1869TIP3    H1 5484   1.583   6.185   1.304
 1869TIP3    H2 5485   1.700   6.154   1.215
 1870TIP3   OH2 5486   1.313   6.315   0.763
 1870TIP3    H1 5487   1.330   6.345   0.670
 1870TIP3    H2 5488   1.407   6.293   0.785
 1871TIP3   OH2 5489   1.206   7.249   1.398
 1871TIP3    H1 5490   1.186   7.181   1.466
 1871TIP3    H2 5491   1.279   7.299   1.440
 1872TIP3   OH2 5492   0.824   6.839   1.608
 1872TIP3    H1 5493   0.786   6.876   1.528
 1872TIP3    H2 5494   0.847   6.747   1.583
 1873TIP3   OH2 5495   1.305   6.873   1.202
 1873TIP3    H1 5496   1.386   6.919   1.170
 1873TIP3    H2 5497   1.255   6.944   1.244
 1874TIP3   OH2 5498   0.305   6.543   1.821
 1874TIP3    H1 5499   0.380   6.488   1.796
 1874TIP3    H2 5500   0.338   6.574   1.910
 1875TIP3   OH2 5501   1.168   6.783   1.619
 1875TIP3    H1 5502   1.236   6.801   1.554
 1875TIP3    H2 5503   1.197   6.698   1.655
 1876TIP3   OH2 5504   0.779   6.179   1.580
 1876TIP3    H1 5505   0.786   6.087   1.546
 1876TIP3    H2 5506   0.753   6.222   1.498
 1877TIP3   OH2 5507   0.791   5.958   1.422
 1877TIP3    H1 5508   0.827   5.985   1.334
 1877TIP3    H2 5509   0.698   5.936   1.397
 1878TIP3   OH2 5510   1.393   6.475   1.656
 1878TIP3    H1 5511   1.438   6.389   1.654
 1878TIP3    H2 5512   1.461   6.533   1.618
 1879TIP3   OH2 5513   1.434   6.719   1.385
 1879TIP3    H1 5514   1.379   6.771   1.324
 1879TIP3    H2 5515   1.523   6.736   1.348
 1880TIP3   OH2 5516   0.678   6.286   1.817
 1880TIP3    H1 5517   0.593   6.242   1.832
 1880TIP3    H2 5518   0.696   6.260   1.725
 1881TIP3   OH2 5519   0.920   5.728   1.481
 1881TIP3    H1 5520   0.872   5.809   1.452
 1881TIP3    H2 5521   0.858   5.658   1.453
 1882TIP3   OH2 5522   1.038   6.238   1.682
 1882TIP3    H1 5523   1.037   6.218   1.776
 1882TIP3    H2 5524   0.947   6.212   1.653
 1883TIP3   OH2 5525   1.283   6.202   1.536
 1883TIP3    H1 5526   1.205   6.182   1.591
 1883TIP3    H2 5527   1.356   6.162   1.588
 1884TIP3   OH2 5528   1.494   6.121   1.689
 1884TIP3    H1 5529   1.521   6.027   1.704
 1884TIP3    H2 5530   1.506   6.162   1.777
 1885TIP3   OH2 5531   0.500   6.079   1.873
 1885TIP3    H1 5532   0.501   5.989   1.837
 1885TIP3    H2 5533   0.536   6.063   1.963
 1886TIP3   OH2 5534   1.012   5.751   1.735
 1886TIP3    H1 5535   1.080   5.680   1.726
 1886TIP3    H2 5536   0.972   5.745   1.645
 1887TIP3   OH2 5537   1.627   7.127   1.444
 1887TIP3    H1 5538   1.556   7.135   1.511
 1887TIP3    H2 5539   1.669   7.215   1.450
 1888TIP3   OH2 5540   1.673   6.788   1.275
 1888TIP3    H1 5541   1.745   6.721   1.270
 1888TIP3    H2 5542   1.707   6.857   1.216
 1889TIP3   OH2 5543   1.856   6.597   1.310
 1889TIP3    H1 5544   1.784   6.540   1.343
 1889TIP3    H2 5545   1.932   6.534   1.315
 1890TIP3   OH2 5546   1.579   6.258   0.800
 1890TIP3    H1 5547   1.647   6.299   0.742
 1890TIP3    H2 5548   1.601   6.297   0.887
 1891TIP3   OH2 5549   1.615   6.398   1.045
 1891TIP3    H1 5550   1.535   6.431   1.089
 1891TIP3    H2 5551   1.649   6.479   1.001
 1892TIP3   OH2 5552   0.240   6.109   1.805
 1892TIP3    H1 5553   0.335   6.115   1.828
 1892TIP3    H2 5554   0.206   6.052   1.876
 1893TIP3   OH2 5555   2.061   5.986   1.600
 1893TIP3    H1 5556   2.121   5.920   1.557
 1893TIP3    H2 5557   2.037   6.043   1.524
 1894TIP3   OH2 5558   1.493   5.817   0.349
 1894TIP3    H1 5559   1.542   5.820   0.433
 1894TIP3    H2 5560   1.437   5.740   0.361
 1895TIP3   OH2 5561   1.935   6.131   1.407
 1895TIP3    H1 5562   1.845   6.166   1.418
 1895TIP3    H2 5563   1.916   6.058   1.345
 1896TIP3   OH2 5564   0.224   5.722   1.572
 1896TIP3    H1 5565   0.185   5.667   1.642
 1896TIP3    H2 5566   0.155   5.718   1.505
 1897TIP3   OH2 5567   1.831   5.891   1.284
 1897TIP3    H1 5568   1.742   5.886   1.247
 1897TIP3    H2 5569   1.864   5.799   1.271
 1898TIP3   OH2 5570   1.074   5.814   0.923
 1898TIP3    H1 5571   0.998   5.764   0.957
 1898TIP3    H2 5572   1.109   5.754   0.855
 1899TIP3   OH2 5573   1.566   5.701   0.817
 1899TIP3    H1 5574   1.603   5.745   0.737
 1899TIP3    H2 5575   1.470   5.706   0.800
 1900TIP3   OH2 5576   1.655   5.793   0.573
 1900TIP3    H1 5577   1.726   5.738   0.533
 1900TIP3    H2 5578   1.692   5.882   0.556
 1901TIP3   OH2 5579   1.289   5.684   0.771
 1901TIP3    H1 5580   1.297   5.638   0.687
 1901TIP3    H2 5581   1.266   5.611   0.833
 1902TIP3   OH2 5582   0.500   5.794   1.822
 1902TIP3    H1 5583   0.474   5.722   1.883
 1902TIP3    H2 5584   0.589   5.767   1.797
 1903TIP3   OH2 5585   1.569   5.856   1.717
 1903TIP3    H1 5586   1.591   5.821   1.806
 1903TIP3    H2 5587   1.656   5.850   1.672
 1904TIP3   OH2 5588   1.514   7.408   1.205
 1904TIP3    H1 5589   1.439   7.359   1.169
 1904TIP3    H2 5590   1.482   7.499   1.202
 1905TIP3   OH2 5591   2.764   6.790   0.005
 1905TIP3    H1 5592   2.743   6.885  -0.004
 1905TIP3    H2 5593   2.687   6.747  -0.035
 1906TIP3   OH2 5594   2.813   6.753   0.340
 1906TIP3    H1 5595   2.797   6.761   0.435
 1906TIP3    H2 5596   2.729   6.721   0.306
 1907TIP3   OH2 5597   2.086   6.720   0.751
 1907TIP3    H1 5598   2.088   6.626   0.778
 1907TIP3    H2 5599   2.165   6.725   0.695
 1908TIP3   OH2 5600   3.032   7.059   0.035
 1908TIP3    H1 5601   3.010   6.997   0.107
 1908TIP3    H2 5602   3.045   7.141   0.084
 1909TIP3   OH2 5603   2.701   7.539   0.043
 1909TIP3    H1 5604   2.727   7.446   0.032
 1909TIP3    H2 5605   2.662   7.535   0.131
 1910TIP3   OH2 5606   3.586   6.325   0.403
 1910TIP3    H1 5607   3.612   6.408   0.448
 1910TIP3    H2 5608   3.601   6.349   0.311
 1911TIP3   OH2 5609   2.979   6.501   0.448
 1911TIP3    H1 5610   3.022   6.413   0.453
 1911TIP3    H2 5611   2.949   6.502   0.355
 1912TIP3   OH2 5612   2.318   6.169   0.401
 1912TIP3    H1 5613   2.298   6.241   0.338
 1912TIP3    H2 5614   2.275   6.093   0.355
 1913TIP3   OH2 5615   3.014   6.254   0.027
 1913TIP3    H1 5616   3.089   6.236   0.088
 1913TIP3    H2 5617   3.064   6.291  -0.049
 1914TIP3   OH2 5618   2.400   6.563   0.305
 1914TIP3    H1 5619   2.493   6.535   0.318
 1914TIP3    H2 5620   2.361   6.481   0.270
 1915TIP3   OH2 5621   3.658   6.533   0.571
 1915TIP3    H1 5622   3.575   6.581   0.550
 1915TIP3    H2 5623   3.668   6.557   0.664
 1916TIP3   OH2 5624   2.321   6.148   0.843
 1916TIP3    H1 5625   2.265   6.181   0.769
 1916TIP3    H2 5626   2.265   6.173   0.920
 1917TIP3   OH2 5627   2.684   7.030  -0.112
 1917TIP3    H1 5628   2.671   6.964  -0.181
 1917TIP3    H2 5629   2.602   7.083  -0.113
 1918TIP3   OH2 5630   2.422   6.920   0.638
 1918TIP3    H1 5631   2.357   6.987   0.668
 1918TIP3    H2 5632   2.477   6.978   0.579
 1919TIP3   OH2 5633   3.233   6.255   0.193
 1919TIP3    H1 5634   3.214   6.210   0.277
 1919TIP3    H2 5635   3.277   6.336   0.223
 1920TIP3   OH2 5636   2.192   6.249   0.629
 1920TIP3    H1 5637   2.238   6.334   0.641
 1920TIP3    H2 5638   2.236   6.217   0.547
 1921TIP3   OH2 5639   2.245   7.115   0.725
 1921TIP3    H1 5640   2.232   7.204   0.685
 1921TIP3    H2 5641   2.176   7.114   0.794
 1922TIP3   OH2 5642   3.091   7.326   0.202
 1922TIP3    H1 5643   3.008   7.303   0.251
 1922TIP3    H2 5644   3.070   7.416   0.174
 1923TIP3   OH2 5645   3.377   6.227   0.569
 1923TIP3    H1 5646   3.287   6.252   0.539
 1923TIP3    H2 5647   3.433   6.256   0.494
 1924TIP3   OH2 5648   2.690   5.874   0.556
 1924TIP3    H1 5649   2.661   5.789   0.517
 1924TIP3    H2 5650   2.604   5.905   0.593
 1925TIP3   OH2 5651   3.319   7.239   0.546
 1925TIP3    H1 5652   3.300   7.159   0.493
 1925TIP3    H2 5653   3.298   7.311   0.483
 1926TIP3   OH2 5654   2.611   6.633  -0.189
 1926TIP3    H1 5655   2.517   6.657  -0.190
 1926TIP3    H2 5656   2.630   6.619  -0.283
 1927TIP3   OH2 5657   3.509   6.875   0.392
 1927TIP3    H1 5658   3.424   6.925   0.400
 1927TIP3    H2 5659   3.534   6.897   0.300
 1928TIP3   OH2 5660   2.918   6.642  -0.162
 1928TIP3    H1 5661   2.890   6.697  -0.086
 1928TIP3    H2 5662   3.009   6.672  -0.181
 1929TIP3   OH2 5663   3.190   6.754   0.686
 1929TIP3    H1 5664   3.184   6.842   0.727
 1929TIP3    H2 5665   3.101   6.750   0.643
 1930TIP3   OH2 5666   2.196   6.706   0.202
 1930TIP3    H1 5667   2.166   6.643   0.135
 1930TIP3    H2 5668   2.278   6.661   0.232
 1931TIP3   OH2 5669   2.292   7.117   0.357
 1931TIP3    H1 5670   2.308   7.051   0.289
 1931TIP3    H2 5671   2.380   7.120   0.400
 1932TIP3   OH2 5672   2.321   6.681   0.555
 1932TIP3    H1 5673   2.357   6.659   0.466
 1932TIP3    H2 5674   2.364   6.767   0.573
 1933TIP3   OH2 5675   2.853   7.306   0.331
 1933TIP3    H1 5676   2.836   7.384   0.386
 1933TIP3    H2 5677   2.796   7.239   0.372
 1934TIP3   OH2 5678   2.458   7.236   0.876
 1934TIP3    H1 5679   2.397   7.300   0.916
 1934TIP3    H2 5680   2.398   7.184   0.819
 1935TIP3   OH2 5681   2.224   6.792   0.992
 1935TIP3    H1 5682   2.213   6.882   1.029
 1935TIP3    H2 5683   2.142   6.782   0.940
 1936TIP3   OH2 5684   2.252   7.409   0.957
 1936TIP3    H1 5685   2.216   7.409   0.866
 1936TIP3    H2 5686   2.172   7.389   1.011
 1937TIP3   OH2 5687   1.831   6.927   0.874
 1937TIP3    H1 5688   1.757   6.875   0.841
 1937TIP3    H2 5689   1.876   6.858   0.929
 1938TIP3   OH2 5690   3.551   7.581   0.593
 1938TIP3    H1 5691   3.550   7.484   0.604
 1938TIP3    H2 5692   3.467   7.605   0.638
 1939TIP3   OH2 5693   2.651   7.377   0.723
 1939TIP3    H1 5694   2.653   7.466   0.762
 1939TIP3    H2 5695   2.592   7.329   0.783
 1940TIP3   OH2 5696   3.441   6.714   0.866
 1940TIP3    H1 5697   3.360   6.731   0.815
 1940TIP3    H2 5698   3.453   6.618   0.853
 1941TIP3   OH2 5699   2.033   7.108   0.890
 1941TIP3    H1 5700   2.089   7.113   0.971
 1941TIP3    H2 5701   1.963   7.049   0.922
 1942TIP3   OH2 5702   2.437   5.944   0.679
 1942TIP3    H1 5703   2.349   5.912   0.651
 1942TIP3    H2 5704   2.411   6.028   0.721
 1943TIP3   OH2 5705   2.969   6.063   0.872
 1943TIP3    H1 5706   3.034   6.033   0.938
 1943TIP3    H2 5707   2.883   6.041   0.914
 1944TIP3   OH2 5708   3.215   6.491   0.793
 1944TIP3    H1 5709   3.162   6.488   0.876
 1944TIP3    H2 5710   3.186   6.575   0.752
 1945TIP3   OH2 5711   2.599   5.991  -0.362
 1945TIP3    H1 5712   2.576   6.014  -0.271
 1945TIP3    H2 5713   2.565   5.902  -0.368
 1946TIP3   OH2 5714   2.370   6.458   0.698
 1946TIP3    H1 5715   2.314   6.478   0.776
 1946TIP3    H2 5716   2.356   6.538   0.643
 1947TIP3   OH2 5717   2.247   6.348   0.207
 1947TIP3    H1 5718   2.154   6.319   0.216
 1947TIP3    H2 5719   2.269   6.306   0.121
 1948TIP3   OH2 5720   2.740   6.424  -0.067
 1948TIP3    H1 5721   2.690   6.503  -0.096
 1948TIP3    H2 5722   2.815   6.430  -0.127
 1949TIP3   OH2 5723   2.917   6.714   1.028
 1949TIP3    H1 5724   2.895   6.639   1.088
 1949TIP3    H2 5725   3.012   6.723   1.045
 1950TIP3   OH2 5726   2.903   6.459   0.180
 1950TIP3    H1 5727   2.844   6.494   0.112
 1950TIP3    H2 5728   2.933   6.377   0.135
 1951TIP3   OH2 5729   2.187   6.491   0.905
 1951TIP3    H1 5730   2.222   6.552   0.972
 1951TIP3    H2 5731   2.178   6.408   0.955
 1952TIP3   OH2 5732   2.252   5.988  -0.372
 1952TIP3    H1 5733   2.262   5.970  -0.276
 1952TIP3    H2 5734   2.160   5.958  -0.383
 1953TIP3   OH2 5735   1.776   6.018   0.482
 1953TIP3    H1 5736   1.850   6.048   0.538
 1953TIP3    H2 5737   1.820   5.975   0.406
 1954TIP3   OH2 5738   2.923   6.707   0.614
 1954TIP3    H1 5739   2.944   6.639   0.545
 1954TIP3    H2 5740   2.883   6.649   0.683
 1955TIP3   OH2 5741   2.576   6.172   0.271
 1955TIP3    H1 5742   2.496   6.165   0.325
 1955TIP3    H2 5743   2.646   6.170   0.339
 1956TIP3   OH2 5744   2.009   6.213   0.234
 1956TIP3    H1 5745   1.946   6.218   0.308
 1956TIP3    H2 5746   2.052   6.127   0.246
 1957TIP3   OH2 5747   2.288   6.211  -0.029
 1957TIP3    H1 5748   2.385   6.224  -0.032
 1957TIP3    H2 5749   2.257   6.260  -0.107
 1958TIP3   OH2 5750   3.073   6.238   0.474
 1958TIP3    H1 5751   3.034   6.254   0.563
 1958TIP3    H2 5752   3.006   6.178   0.436
 1959TIP3   OH2 5753   3.239   7.933   0.693
 1959TIP3    H1 5754   3.235   7.956   0.598
 1959TIP3    H2 5755   3.318   7.981   0.722
 1960TIP3   OH2 5756   2.193   7.050   1.112
 1960TIP3    H1 5757   2.276   7.076   1.157
 1960TIP3    H2 5758   2.132   7.048   1.189
 1961TIP3   OH2 5759   2.656   6.485   0.369
 1961TIP3    H1 5760   2.736   6.462   0.318
 1961TIP3    H2 5761   2.677   6.449   0.457
 1962TIP3   OH2 5762   2.185   5.986   0.247
 1962TIP3    H1 5763   2.157   5.904   0.293
 1962TIP3    H2 5764   2.235   5.949   0.172
 1963TIP3   OH2 5765   2.640   6.386   0.665
 1963TIP3    H1 5766   2.550   6.424   0.673
 1963TIP3    H2 5767   2.696   6.451   0.713
 1964TIP3   OH2 5768   3.275   7.017   0.390
 1964TIP3    H1 5769   3.298   7.062   0.305
 1964TIP3    H2 5770   3.188   6.978   0.368
 1965TIP3   OH2 5771   2.817   7.128   0.776
 1965TIP3    H1 5772   2.778   7.079   0.848
 1965TIP3    H2 5773   2.741   7.159   0.725
 1966TIP3   OH2 5774   2.082   6.788   0.434
 1966TIP3    H1 5775   2.133   6.759   0.355
 1966TIP3    H2 5776   2.102   6.716   0.496
 1967TIP3   OH2 5777   1.925   6.750   1.054
 1967TIP3    H1 5778   1.972   6.724   1.135
 1967TIP3    H2 5779   1.883   6.667   1.026
 1968TIP3   OH2 5780   2.672   6.838   1.064
 1968TIP3    H1 5781   2.614   6.782   1.009
 1968TIP3    H2 5782   2.760   6.806   1.036
 1969TIP3   OH2 5783   2.937   7.390   0.633
 1969TIP3    H1 5784   2.849   7.351   0.649
 1969TIP3    H2 5785   2.960   7.420   0.723
 1970TIP3   OH2 5786   3.567   7.292   0.636
 1970TIP3    H1 5787   3.468   7.286   0.629
 1970TIP3    H2 5788   3.590   7.260   0.546
 1971TIP3   OH2 5789   3.047   6.894   0.298
 1971TIP3    H1 5790   2.956   6.869   0.323
 1971TIP3    H2 5791   3.077   6.807   0.265
 1972TIP3   OH2 5792   2.326   6.870   0.020
 1972TIP3    H1 5793   2.303   6.964   0.025
 1972TIP3    H2 5794   2.284   6.831   0.098
 1973TIP3   OH2 5795   2.447   7.460   0.550
 1973TIP3    H1 5796   2.497   7.522   0.494
 1973TIP3    H2 5797   2.521   7.407   0.587
 1974TIP3   OH2 5798   3.078   7.623   0.538
 1974TIP3    H1 5799   3.006   7.556   0.539
 1974TIP3    H2 5800   3.051   7.682   0.465
 1975TIP3   OH2 5801   2.161   6.236   1.058
 1975TIP3    H1 5802   2.064   6.233   1.064
 1975TIP3    H2 5803   2.188   6.167   1.121
 1976TIP3   OH2 5804   2.995   6.300   0.734
 1976TIP3    H1 5805   3.078   6.332   0.771
 1976TIP3    H2 5806   2.979   6.217   0.784
 1977TIP3   OH2 5807   2.862   6.071  -0.118
 1977TIP3    H1 5808   2.857   6.105  -0.208
 1977TIP3    H2 5809   2.917   6.139  -0.073
 1978TIP3   OH2 5810   2.560   6.225  -0.000
 1978TIP3    H1 5811   2.630   6.291  -0.023
 1978TIP3    H2 5812   2.572   6.217   0.097
 1979TIP3   OH2 5813   2.829   6.543   0.812
 1979TIP3    H1 5814   2.854   6.599   0.887
 1979TIP3    H2 5815   2.890   6.468   0.819
 1980TIP3   OH2 5816   2.721   5.958   0.094
 1980TIP3    H1 5817   2.704   6.028   0.159
 1980TIP3    H2 5818   2.775   6.004   0.026
 1981TIP3   OH2 5819   2.233   5.947  -0.094
 1981TIP3    H1 5820   2.229   6.040  -0.061
 1981TIP3    H2 5821   2.329   5.931  -0.083
 1982TIP3   OH2 5822   3.480   6.444   0.786
 1982TIP3    H1 5823   3.382   6.445   0.796
 1982TIP3    H2 5824   3.486   6.406   0.697
 1983TIP3   OH2 5825   3.117   6.646   0.204
 1983TIP3    H1 5826   3.042   6.584   0.207
 1983TIP3    H2 5827   3.192   6.591   0.235
 1984TIP3   OH2 5828   3.104   7.606   0.150
 1984TIP3    H1 5829   3.063   7.583   0.064
 1984TIP3    H2 5830   3.195   7.630   0.122
 1985TIP3   OH2 5831   2.168   5.866   0.656
 1985TIP3    H1 5832   2.142   5.834   0.567
 1985TIP3    H2 5833   2.161   5.785   0.709
 1986TIP3   OH2 5834   1.865   7.609   1.116
 1986TIP3    H1 5835   1.951   7.602   1.162
 1986TIP3    H2 5836   1.841   7.515   1.103
 1987TIP3   OH2 5837   2.351   7.591   1.149
 1987TIP3    H1 5838   2.445   7.570   1.157
 1987TIP3    H2 5839   2.326   7.534   1.073
 1988TIP3   OH2 5840   2.984   7.499   0.886
 1988TIP3    H1 5841   2.975   7.424   0.949
 1988TIP3    H2 5842   3.066   7.543   0.915
 1989TIP3   OH2 5843   1.996   7.028   1.307
 1989TIP3    H1 5844   2.017   6.932   1.308
 1989TIP3    H2 5845   1.910   7.029   1.262
 1990TIP3   OH2 5846   2.603   7.112   1.081
 1990TIP3    H1 5847   2.566   7.131   0.993
 1990TIP3    H2 5848   2.636   7.020   1.072
 1991TIP3   OH2 5849   3.105   7.114   0.695
 1991TIP3    H1 5850   3.154   7.177   0.640
 1991TIP3    H2 5851   3.012   7.141   0.684
 1992TIP3   OH2 5852   2.112   6.761   1.287
 1992TIP3    H1 5853   2.190   6.714   1.257
 1992TIP3    H2 5854   2.141   6.793   1.375
 1993TIP3   OH2 5855   2.455   6.648   0.950
 1993TIP3    H1 5856   2.379   6.709   0.958
 1993TIP3    H2 5857   2.500   6.681   0.869
 1994TIP3   OH2 5858   2.970   7.055   1.092
 1994TIP3    H1 5859   3.036   7.031   1.025
 1994TIP3    H2 5860   2.971   6.979   1.152
 1995TIP3   OH2 5861   2.574   6.435   1.077
 1995TIP3    H1 5862   2.576   6.356   1.019
 1995TIP3    H2 5863   2.534   6.502   1.018
 1996TIP3   OH2 5864   2.579   6.223   0.885
 1996TIP3    H1 5865   2.605   6.264   0.800
 1996TIP3    H2 5866   2.486   6.198   0.866
 1997TIP3   OH2 5867   2.612   6.766   0.758
 1997TIP3    H1 5868   2.692   6.772   0.704
 1997TIP3    H2 5869   2.552   6.829   0.712
 1998TIP3   OH2 5870   3.191   6.728   1.141
 1998TIP3    H1 5871   3.238   6.644   1.139
 1998TIP3    H2 5872   3.255   6.788   1.100
 1999TIP3   OH2 5873   3.233   6.977   0.882
 1999TIP3    H1 5874   3.174   7.029   0.822
 1999TIP3    H2 5875   3.318   6.996   0.838
 2000TIP3   OH2 5876   2.452   6.551   1.306
 2000TIP3    H1 5877   2.383   6.483   1.316
 2000TIP3    H2 5878   2.487   6.530   1.217
 2001TIP3   OH2 5879   2.711   5.989   0.950
 2001TIP3    H1 5880   2.663   6.071   0.924
 2001TIP3    H2 5881   2.642   5.922   0.933
 2002TIP3   OH2 5882   2.836   6.492   1.164
 2002TIP3    H1 5883   2.821   6.482   1.260
 2002TIP3    H2 5884   2.747   6.467   1.132
 2003TIP3   OH2 5885   3.077   6.445   1.021
 2003TIP3    H1 5886   2.999   6.443   1.079
 2003TIP3    H2 5887   3.148   6.411   1.079
 2004TIP3   OH2 5888   3.310   6.382   1.174
 2004TIP3    H1 5889   3.318   6.286   1.193
 2004TIP3    H2 5890   3.303   6.422   1.264
 2005TIP3   OH2 5891   2.289   6.333   1.358
 2005TIP3    H1 5892   2.298   6.245   1.316
 2005TIP3    H2 5893   2.327   6.316   1.446
 2006TIP3   OH2 5894   2.804   5.995   1.207
 2006TIP3    H1 5895   2.872   5.925   1.197
 2006TIP3    H2 5896   2.763   5.993   1.117
 2007TIP3   OH2 5897   2.869   6.210   1.366
 2007TIP3    H1 5898   2.847   6.141   1.300
 2007TIP3    H2 5899   2.793   6.272   1.357
 2008TIP3   OH2 5900   3.355   7.697   0.086
 2008TIP3    H1 5901   3.381   7.711   0.180
 2008TIP3    H2 5902   3.436   7.722   0.040
 2009TIP3   OH2 5903   3.378   7.706   0.363
 2009TIP3    H1 5904   3.333   7.619   0.364
 2009TIP3    H2 5905   3.454   7.685   0.419
 2010TIP3   OH2 5906   3.426   7.384   0.936
 2010TIP3    H1 5907   3.350   7.391   0.998
 2010TIP3    H2 5908   3.465   7.474   0.941
 2011TIP3   OH2 5909   3.420   7.144   0.196
 2011TIP3    H1 5910   3.473   7.084   0.141
 2011TIP3    H2 5911   3.432   7.230   0.151
 2012TIP3   OH2 5912   3.254   7.457   0.389
 2012TIP3    H1 5913   3.183   7.497   0.442
 2012TIP3    H2 5914   3.204   7.408   0.321
 2013TIP3   OH2 5915   3.240   6.581  -0.031
 2013TIP3    H1 5916   3.192   6.502  -0.061
 2013TIP3    H2 5917   3.179   6.621   0.034
 2014TIP3   OH2 5918   3.471   7.044   0.766
 2014TIP3    H1 5919   3.545   6.980   0.754
 2014TIP3    H2 5920   3.492   7.113   0.700
 2015TIP3   OH2 5921   3.658   6.852   0.783
 2015TIP3    H1 5922   3.582   6.803   0.821
 2015TIP3    H2 5923   3.729   6.786   0.797
 2016TIP3   OH2 5924   3.179   6.339  -0.170
 2016TIP3    H1 5925   3.219   6.249  -0.170
 2016TIP3    H2 5926   3.226   6.379  -0.245
 2017TIP3   OH2 5927   3.342   6.505   0.299
 2017TIP3    H1 5928   3.425   6.536   0.256
 2017TIP3    H2 5929   3.352   6.547   0.386
 2018TIP3   OH2 5930   3.408   6.655   0.531
 2018TIP3    H1 5931   3.328   6.688   0.578
 2018TIP3    H2 5932   3.438   6.736   0.485
 2019TIP3   OH2 5933   2.021   6.382   1.328
 2019TIP3    H1 5934   2.119   6.377   1.325
 2019TIP3    H2 5935   2.001   6.297   1.371
 2020TIP3   OH2 5936   3.863   6.246   1.087
 2020TIP3    H1 5937   3.918   6.179   1.041
 2020TIP3    H2 5938   3.832   6.301   1.012
 2021TIP3   OH2 5939   3.286   6.089  -0.157
 2021TIP3    H1 5940   3.333   6.074  -0.073
 2021TIP3    H2 5941   3.227   6.011  -0.156
 2022TIP3   OH2 5942   1.979   6.073   0.665
 2022TIP3    H1 5943   2.048   6.003   0.670
 2022TIP3    H2 5944   2.035   6.152   0.653
 2023TIP3   OH2 5945   3.732   6.386   0.895
 2023TIP3    H1 5946   3.644   6.426   0.912
 2023TIP3    H2 5947   3.706   6.316   0.833
 2024TIP3   OH2 5948   1.763   5.869   0.232
 2024TIP3    H1 5949   1.668   5.858   0.250
 2024TIP3    H2 5950   1.766   5.888   0.138
 2025TIP3   OH2 5951   1.995   5.934   1.054
 2025TIP3    H1 5952   1.940   5.926   1.133
 2025TIP3    H2 5953   1.930   5.966   0.989
 2026TIP3   OH2 5954   2.036   7.352   1.124
 2026TIP3    H1 5955   1.942   7.330   1.111
 2026TIP3    H2 5956   2.045   7.338   1.219
 2027TIP3   OH2 5957   2.208   7.385   0.676
 2027TIP3    H1 5958   2.159   7.456   0.631
 2027TIP3    H2 5959   2.298   7.404   0.642
 2028TIP3   OH2 5960   2.655   7.642   0.816
 2028TIP3    H1 5961   2.701   7.637   0.902
 2028TIP3    H2 5962   2.725   7.683   0.760
 2029TIP3   OH2 5963   2.838   7.782   0.669
 2029TIP3    H1 5964   2.908   7.728   0.629
 2029TIP3    H2 5965   2.891   7.840   0.728
 2030TIP3   OH2 5966   3.629   6.150   0.769
 2030TIP3    H1 5967   3.539   6.149   0.734
 2030TIP3    H2 5968   3.656   6.056   0.755
 2031TIP3   OH2 5969   2.553   7.652   0.358
 2031TIP3    H1 5970   2.486   7.676   0.292
 2031TIP3    H2 5971   2.569   7.741   0.396
 2032TIP3   OH2 5972   2.821   7.595   0.394
 2032TIP3    H1 5973   2.725   7.609   0.385
 2032TIP3    H2 5974   2.858   7.679   0.363
 2033TIP3   OH2 5975   3.021   7.794   0.329
 2033TIP3    H1 5976   3.022   7.879   0.280
 2033TIP3    H2 5977   3.051   7.731   0.260
 2034TIP3   OH2 5978   2.287   7.440   0.339
 2034TIP3    H1 5979   2.353   7.395   0.284
 2034TIP3    H2 5980   2.335   7.432   0.425
 2035TIP3   OH2 5981   2.837   6.065   0.393
 2035TIP3    H1 5982   2.788   5.999   0.445
 2035TIP3    H2 5983   2.895   6.010   0.338
 2036TIP3   OH2 5984   3.359   5.944   0.302
 2036TIP3    H1 5985   3.393   5.994   0.224
 2036TIP3    H2 5986   3.263   5.958   0.293
 2037TIP3   OH2 5987   3.447   6.037   0.062
 2037TIP3    H1 5988   3.520   5.988   0.019
 2037TIP3    H2 5989   3.481   6.129   0.056
 2038TIP3   OH2 5990   2.081   5.779   0.405
 2038TIP3    H1 5991   1.991   5.742   0.403
 2038TIP3    H2 5992   2.133   5.694   0.402
 2039TIP3   OH2 5993   1.884   5.615   0.077
 2039TIP3    H1 5994   1.881   5.680   0.002
 2039TIP3    H2 5995   1.843   5.670   0.145
 2040TIP3   OH2 5996   3.086   5.950   0.265
 2040TIP3    H1 5997   3.063   5.922   0.175
 2040TIP3    H2 5998   3.064   5.870   0.318
 2041TIP3   OH2 5999   3.128   5.871  -0.122
 2041TIP3    H1 6000   3.057   5.895  -0.185
 2041TIP3    H2 6001   3.096   5.785  -0.088
 2042TIP3   OH2 6002   2.068   5.803  -0.277
 2042TIP3    H1 6003   2.059   5.711  -0.251
 2042TIP3    H2 6004   2.102   5.845  -0.195
 2043TIP3   OH2 6005   2.506   5.969  -0.084
 2043TIP3    H1 6006   2.570   5.927  -0.023
 2043TIP3    H2 6007   2.524   6.063  -0.061
 2044TIP3   OH2 6008   2.289   6.052   1.297
 2044TIP3    H1 6009   2.260   5.979   1.355
 2044TIP3    H2 6010   2.384   6.055   1.320
 2045TIP3   OH2 6011   2.539   6.052   1.415
 2045TIP3    H1 6012   2.623   6.028   1.371
 2045TIP3    H2 6013   2.530   5.980   1.480
 2046TIP3   OH2 6014   3.364   6.110   1.203
 2046TIP3    H1 6015   3.385   6.080   1.294
 2046TIP3    H2 6016   3.452   6.107   1.159
 2047TIP3   OH2 6017   3.305   7.664   0.696
 2047TIP3    H1 6018   3.227   7.631   0.648
 2047TIP3    H2 6019   3.285   7.760   0.697
 2048TIP3   OH2 6020   3.873   6.929   0.205
 2048TIP3    H1 6021   3.909   6.873   0.276
 2048TIP3    H2 6022   3.933   7.005   0.205
 2049TIP3   OH2 6023   3.742   6.612  -0.009
 2049TIP3    H1 6024   3.830   6.603   0.033
 2049TIP3    H2 6025   3.756   6.564  -0.091
 2050TIP3   OH2 6026   4.110   6.402   0.323
 2050TIP3    H1 6027   4.054   6.441   0.254
 2050TIP3    H2 6028   4.058   6.424   0.403
 2051TIP3   OH2 6029   3.991   6.516   0.097
 2051TIP3    H1 6030   4.049   6.589   0.126
 2051TIP3    H2 6031   4.027   6.497   0.009
 2052TIP3   OH2 6032   4.052   7.317   0.256
 2052TIP3    H1 6033   4.027   7.384   0.189
 2052TIP3    H2 6034   3.973   7.320   0.312
 2053TIP3   OH2 6035   4.483   6.116   0.055
 2053TIP3    H1 6036   4.454   6.025   0.074
 2053TIP3    H2 6037   4.401   6.166   0.075
 2054TIP3   OH2 6038   4.232   7.457   0.418
 2054TIP3    H1 6039   4.206   7.549   0.405
 2054TIP3    H2 6040   4.178   7.410   0.351
 2055TIP3   OH2 6041   4.005   7.050   0.458
 2055TIP3    H1 6042   4.013   7.139   0.499
 2055TIP3    H2 6043   3.909   7.033   0.472
 2056TIP3   OH2 6044   4.037   7.684   0.441
 2056TIP3    H1 6045   4.004   7.648   0.358
 2056TIP3    H2 6046   3.968   7.654   0.505
 2057TIP3   OH2 6047   3.629   7.191   0.391
 2057TIP3    H1 6048   3.561   7.166   0.325
 2057TIP3    H2 6049   3.664   7.104   0.420
 2058TIP3   OH2 6050   3.527   7.375   0.082
 2058TIP3    H1 6051   3.616   7.366   0.045
 2058TIP3    H2 6052   3.543   7.455   0.138
 2059TIP3   OH2 6053   5.264   6.994   0.360
 2059TIP3    H1 6054   5.176   7.005   0.318
 2059TIP3    H2 6055   5.276   6.898   0.352
 2060TIP3   OH2 6056   3.822   7.385   0.391
 2060TIP3    H1 6057   3.872   7.367   0.474
 2060TIP3    H2 6058   3.751   7.317   0.395
 2061TIP3   OH2 6059   4.231   6.202   0.164
 2061TIP3    H1 6060   4.141   6.170   0.142
 2061TIP3    H2 6061   4.207   6.284   0.212
 2062TIP3   OH2 6062   4.766   6.315   0.356
 2062TIP3    H1 6063   4.832   6.292   0.423
 2062TIP3    H2 6064   4.681   6.296   0.401
 2063TIP3   OH2 6065   5.003   6.719   0.285
 2063TIP3    H1 6066   4.976   6.702   0.378
 2063TIP3    H2 6067   4.920   6.749   0.248
 2064TIP3   OH2 6068   4.176   6.699   0.220
 2064TIP3    H1 6069   4.116   6.726   0.294
 2064TIP3    H2 6070   4.137   6.748   0.144
 2065TIP3   OH2 6071   4.712   6.967   0.509
 2065TIP3    H1 6072   4.690   6.894   0.571
 2065TIP3    H2 6073   4.807   6.980   0.530
 2066TIP3   OH2 6074   3.976   6.747   0.402
 2066TIP3    H1 6075   4.001   6.811   0.469
 2066TIP3    H2 6076   3.963   6.665   0.454
 2067TIP3   OH2 6077   3.598   6.252  -0.000
 2067TIP3    H1 6078   3.648   6.303   0.068
 2067TIP3    H2 6079   3.672   6.203  -0.040
 2068TIP3   OH2 6080   3.990   7.298   0.599
 2068TIP3    H1 6081   4.072   7.332   0.639
 2068TIP3    H2 6082   3.931   7.298   0.677
 2069TIP3   OH2 6083   4.447   6.618   0.178
 2069TIP3    H1 6084   4.361   6.665   0.181
 2069TIP3    H2 6085   4.509   6.688   0.205
 2070TIP3   OH2 6086   4.529   7.306   0.274
 2070TIP3    H1 6087   4.557   7.299   0.366
 2070TIP3    H2 6088   4.532   7.402   0.262
 2071TIP3   OH2 6089   3.743   6.981   0.530
 2071TIP3    H1 6090   3.762   6.967   0.625
 2071TIP3    H2 6091   3.673   6.916   0.514
 2072TIP3   OH2 6092   4.469   7.091   0.555
 2072TIP3    H1 6093   4.413   7.045   0.491
 2072TIP3    H2 6094   4.558   7.061   0.527
 2073TIP3   OH2 6095   3.955   6.490   0.540
 2073TIP3    H1 6096   3.859   6.494   0.552
 2073TIP3    H2 6097   3.982   6.427   0.609
 2074TIP3   OH2 6098   3.670   7.570   0.201
 2074TIP3    H1 6099   3.733   7.507   0.239
 2074TIP3    H2 6100   3.709   7.655   0.225
 2075TIP3   OH2 6101   4.778   6.563   0.237
 2075TIP3    H1 6102   4.875   6.571   0.241
 2075TIP3    H2 6103   4.766   6.472   0.272
 2076TIP3   OH2 6104   4.639   6.805   0.282
 2076TIP3    H1 6105   4.652   6.863   0.360
 2076TIP3    H2 6106   4.684   6.722   0.310
 2077TIP3   OH2 6107   3.969   6.121   0.144
 2077TIP3    H1 6108   3.934   6.089   0.058
 2077TIP3    H2 6109   3.958   6.042   0.201
 2078TIP3   OH2 6110   3.662   7.877   0.596
 2078TIP3    H1 6111   3.749   7.874   0.641
 2078TIP3    H2 6112   3.640   7.782   0.590
 2079TIP3   OH2 6113   4.149   7.849   0.636
 2079TIP3    H1 6114   4.243   7.827   0.639
 2079TIP3    H2 6115   4.120   7.796   0.560
 2080TIP3   OH2 6116   4.776   7.733   0.362
 2080TIP3    H1 6117   4.766   7.680   0.445
 2080TIP3    H2 6118   4.856   7.784   0.378
 2081TIP3   OH2 6119   3.794   7.287   0.795
 2081TIP3    H1 6120   3.811   7.191   0.795
 2081TIP3    H2 6121   3.706   7.290   0.750
 2082TIP3   OH2 6122   4.422   7.367   0.577
 2082TIP3    H1 6123   4.359   7.387   0.505
 2082TIP3    H2 6124   4.437   7.270   0.566
 2083TIP3   OH2 6125   3.912   7.020   0.774
 2083TIP3    H1 6126   3.986   6.962   0.754
 2083TIP3    H2 6127   3.936   7.053   0.862
 2084TIP3   OH2 6128   4.238   6.900   0.445
 2084TIP3    H1 6129   4.164   6.964   0.449
 2084TIP3    H2 6130   4.291   6.937   0.371
 2085TIP3   OH2 6131   4.763   7.296   0.565
 2085TIP3    H1 6132   4.854   7.285   0.535
 2085TIP3    H2 6133   4.758   7.233   0.638
 2086TIP3   OH2 6134   4.373   6.692   0.564
 2086TIP3    H1 6135   4.367   6.609   0.512
 2086TIP3    H2 6136   4.325   6.756   0.507
 2087TIP3   OH2 6137   4.366   6.468   0.390
 2087TIP3    H1 6138   4.399   6.514   0.310
 2087TIP3    H2 6139   4.273   6.449   0.365
 2088TIP3   OH2 6140   4.410   7.021   0.276
 2088TIP3    H1 6141   4.453   6.964   0.211
 2088TIP3    H2 6142   4.407   7.108   0.232
 2089TIP3   OH2 6143   4.986   6.983   0.630
 2089TIP3    H1 6144   5.033   6.899   0.634
 2089TIP3    H2 6145   5.051   7.041   0.587
 2090TIP3   OH2 6146   5.025   7.216   0.373
 2090TIP3    H1 6147   4.954   7.228   0.307
 2090TIP3    H2 6148   5.093   7.275   0.336
 2091TIP3   OH2 6149   4.250   6.808   0.793
 2091TIP3    H1 6150   4.180   6.740   0.804
 2091TIP3    H2 6151   4.283   6.786   0.704
 2092TIP3   OH2 6152   4.509   6.239   0.435
 2092TIP3    H1 6153   4.458   6.322   0.419
 2092TIP3    H2 6154   4.439   6.172   0.422
 2093TIP3   OH2 6155   4.630   6.751   0.653
 2093TIP3    H1 6156   4.617   6.740   0.749
 2093TIP3    H2 6157   4.541   6.726   0.622
 2094TIP3   OH2 6158   4.871   6.696   0.519
 2094TIP3    H1 6159   4.792   6.701   0.577
 2094TIP3    H2 6160   4.941   6.667   0.581
 2095TIP3   OH2 6161   5.103   6.636   0.662
 2095TIP3    H1 6162   5.113   6.541   0.682
 2095TIP3    H2 6163   5.099   6.677   0.751
 2096TIP3   OH2 6164   4.088   6.588   0.843
 2096TIP3    H1 6165   4.095   6.498   0.806
 2096TIP3    H2 6166   4.123   6.574   0.933
 2097TIP3   OH2 6167   4.601   6.252   0.692
 2097TIP3    H1 6168   4.669   6.182   0.686
 2097TIP3    H2 6169   4.561   6.247   0.603
 2098TIP3   OH2 6170   4.665   6.467   0.853
 2098TIP3    H1 6171   4.642   6.398   0.787
 2098TIP3    H2 6172   4.589   6.529   0.845
 2099TIP3   OH2 6173   5.214   7.661   0.467
 2099TIP3    H1 6174   5.136   7.673   0.526
 2099TIP3    H2 6175   5.229   7.751   0.436
 2100TIP3   OH2 6176   3.612   6.948   0.138
 2100TIP3    H1 6177   3.616   6.922   0.045
 2100TIP3    H2 6178   3.708   6.945   0.162
 2101TIP3   OH2 6179   3.821   6.638   0.817
 2101TIP3    H1 6180   3.919   6.631   0.816
 2101TIP3    H2 6181   3.797   6.553   0.858
 2102TIP3   OH2 6182   5.687   6.491   0.587
 2102TIP3    H1 6183   5.727   6.431   0.522
 2102TIP3    H2 6184   5.628   6.545   0.530
 2103TIP3   OH2 6185   3.793   6.334   0.167
 2103TIP3    H1 6186   3.856   6.259   0.169
 2103TIP3    H2 6187   3.854   6.407   0.148
 2104TIP3   OH2 6188   3.589   6.603   0.222
 2104TIP3    H1 6189   3.636   6.598   0.136
 2104TIP3    H2 6190   3.616   6.691   0.253
 2105TIP3   OH2 6191   5.505   6.632   0.454
 2105TIP3    H1 6192   5.416   6.665   0.435
 2105TIP3    H2 6193   5.541   6.630   0.363
 2106TIP3   OH2 6194   3.790   6.186   0.536
 2106TIP3    H1 6195   3.738   6.182   0.618
 2106TIP3    H2 6196   3.725   6.226   0.475
 2107TIP3   OH2 6197   3.830   7.613   0.616
 2107TIP3    H1 6198   3.740   7.584   0.594
 2107TIP3    H2 6199   3.835   7.594   0.710
 2108TIP3   OH2 6200   5.416   6.374   0.305
 2108TIP3    H1 6201   5.367   6.434   0.246
 2108TIP3    H2 6202   5.483   6.335   0.248
 2109TIP3   OH2 6203   3.666   7.898   0.162
 2109TIP3    H1 6204   3.580   7.946   0.162
 2109TIP3    H2 6205   3.704   7.931   0.245
 2110TIP3   OH2 6206   3.874   6.027  -0.092
 2110TIP3    H1 6207   3.786   5.990  -0.112
 2110TIP3    H2 6208   3.930   5.948  -0.111
 2111TIP3   OH2 6209   4.087   6.310   0.782
 2111TIP3    H1 6210   4.054   6.239   0.840
 2111TIP3    H2 6211   4.182   6.312   0.808
 2112TIP3   OH2 6212   4.336   6.307   0.902
 2112TIP3    H1 6213   4.420   6.283   0.860
 2112TIP3    H2 6214   4.325   6.235   0.967
 2113TIP3   OH2 6215   5.155   6.366   0.694
 2113TIP3    H1 6216   5.176   6.336   0.785
 2113TIP3    H2 6217   5.245   6.365   0.653
 2114TIP3   OH2 6218   6.135   6.579   0.413
 2114TIP3    H1 6219   6.195   6.542   0.348
 2114TIP3    H2 6220   6.100   6.500   0.458
 2115TIP3   OH2 6221   1.719   7.818   1.214
 2115TIP3    H1 6222   1.764   7.733   1.195
 2115TIP3    H2 6223   1.688   7.842   1.126
 2116TIP3   OH2 6224   3.226   8.330   0.248
 2116TIP3    H1 6225   3.231   8.412   0.197
 2116TIP3    H2 6226   3.290   8.350   0.317
 2117TIP3   OH2 6227   3.043   8.054   0.233
 2117TIP3    H1 6228   2.961   8.100   0.253
 2117TIP3    H2 6229   3.032   8.039   0.136
 2118TIP3   OH2 6230   3.084   8.528   0.549
 2118TIP3    H1 6231   3.054   8.535   0.455
 2118TIP3    H2 6232   3.094   8.431   0.557
 2119TIP3   OH2 6233   2.615   7.873   0.521
 2119TIP3    H1 6234   2.684   7.842   0.583
 2119TIP3    H2 6235   2.532   7.851   0.567
 2120TIP3   OH2 6236   2.853   8.323   0.432
 2120TIP3    H1 6237   2.814   8.298   0.519
 2120TIP3    H2 6238   2.784   8.380   0.399
 2121TIP3   OH2 6239   2.596   8.555   0.759
 2121TIP3    H1 6240   2.550   8.470   0.748
 2121TIP3    H2 6241   2.687   8.532   0.730
 2122TIP3   OH2 6242   2.648   8.110   0.366
 2122TIP3    H1 6243   2.702   8.140   0.440
 2122TIP3    H2 6244   2.615   8.025   0.401
 2123TIP3   OH2 6245   3.106   8.239   0.478
 2123TIP3    H1 6246   3.009   8.252   0.467
 2123TIP3    H2 6247   3.132   8.238   0.383
 2124TIP3   OH2 6248   2.884   8.556   0.768
 2124TIP3    H1 6249   2.893   8.464   0.795
 2124TIP3    H2 6250   2.963   8.568   0.713
 2125TIP3   OH2 6251   2.341   7.818   0.588
 2125TIP3    H1 6252   2.312   7.882   0.522
 2125TIP3    H2 6253   2.277   7.746   0.573
 2126TIP3   OH2 6254   2.484   8.299   0.799
 2126TIP3    H1 6255   2.487   8.304   0.896
 2126TIP3    H2 6256   2.389   8.286   0.786
 2127TIP3   OH2 6257   2.724   8.261   0.656
 2127TIP3    H1 6258   2.639   8.260   0.705
 2127TIP3    H2 6259   2.788   8.227   0.722
 2128TIP3   OH2 6260   2.946   8.198   0.814
 2128TIP3    H1 6261   2.957   8.102   0.831
 2128TIP3    H2 6262   2.941   8.235   0.905
 2129TIP3   OH2 6263   2.041   8.196   0.994
 2129TIP3    H1 6264   1.989   8.143   0.931
 2129TIP3    H2 6265   2.011   8.160   1.079
 2130TIP3   OH2 6266   2.440   7.815   0.845
 2130TIP3    H1 6267   2.509   7.745   0.839
 2130TIP3    H2 6268   2.401   7.809   0.755
 2131TIP3   OH2 6269   2.502   8.027   1.006
 2131TIP3    H1 6270   2.485   7.955   0.941
 2131TIP3    H2 6271   2.428   8.088   0.989
 2132TIP3   OH2 6272   3.290   8.671   0.431
 2132TIP3    H1 6273   3.213   8.626   0.469
 2132TIP3    H2 6274   3.360   8.603   0.446
 2133TIP3   OH2 6275   3.052   8.565   0.279
 2133TIP3    H1 6276   2.966   8.550   0.237
 2133TIP3    H2 6277   3.091   8.630   0.219
 2134TIP3   OH2 6278   3.497   8.060   0.723
 2134TIP3    H1 6279   3.555   7.992   0.680
 2134TIP3    H2 6280   3.473   8.117   0.646
 2135TIP3   OH2 6281   3.370   8.204   0.529
 2135TIP3    H1 6282   3.277   8.229   0.548
 2135TIP3    H2 6283   3.353   8.125   0.474
 2136TIP3   OH2 6284   3.275   7.966   0.408
 2136TIP3    H1 6285   3.184   7.975   0.374
 2136TIP3    H2 6286   3.293   7.870   0.396
 2137TIP3   OH2 6287   1.974   7.763   0.912
 2137TIP3    H1 6288   1.934   7.719   0.989
 2137TIP3    H2 6289   2.048   7.813   0.952
 2138TIP3   OH2 6290   2.181   7.875   1.063
 2138TIP3    H1 6291   2.264   7.849   1.018
 2138TIP3    H2 6292   2.170   7.800   1.126
 2139TIP3   OH2 6293   3.001   7.927   0.840
 2139TIP3    H1 6294   3.022   7.893   0.930
 2139TIP3    H2 6295   3.089   7.920   0.796
 2140TIP3   OH2 6296   3.569   8.810   0.419
 2140TIP3    H1 6297   3.597   8.728   0.463
 2140TIP3    H2 6298   3.558   8.872   0.494
 2141TIP3   OH2 6299   3.855   8.634   0.400
 2141TIP3    H1 6300   3.803   8.557   0.430
 2141TIP3    H2 6301   3.909   8.595   0.330
 2142TIP3   OH2 6302   3.728   8.408   0.487
 2142TIP3    H1 6303   3.730   8.328   0.432
 2142TIP3    H2 6304   3.761   8.374   0.573
 2143TIP3   OH2 6305   4.277   8.264   0.469
 2143TIP3    H1 6306   4.239   8.234   0.385
 2143TIP3    H2 6307   4.225   8.345   0.482
 2144TIP3   OH2 6308   3.457   8.459   0.461
 2144TIP3    H1 6309   3.553   8.448   0.447
 2144TIP3    H2 6310   3.434   8.371   0.497
 2145TIP3   OH2 6311   3.410   8.003   0.163
 2145TIP3    H1 6312   3.375   7.986   0.252
 2145TIP3    H2 6313   3.352   8.074   0.132
 2146TIP3   OH2 6314   3.721   8.116   0.429
 2146TIP3    H1 6315   3.697   8.042   0.487
 2146TIP3    H2 6316   3.816   8.127   0.451
 2147TIP3   OH2 6317   3.970   8.129   0.548
 2147TIP3    H1 6318   4.048   8.104   0.496
 2147TIP3    H2 6319   3.961   8.053   0.609
 2148TIP3   OH2 6320   1.638  -0.093   4.789
 2148TIP3    H1 6321   1.573  -0.158   4.762
 2148TIP3    H2 6322   1.606  -0.012   4.745
 2149TIP3   OH2 6323   1.855   0.254   4.849
 2149TIP3    H1 6324   1.854   0.158   4.865
 2149TIP3    H2 6325   1.772   0.281   4.895
 2150TIP3   OH2 6326   1.541   0.605   4.947
 2150TIP3    H1 6327   1.541   0.629   4.853
 2150TIP3    H2 6328   1.620   0.654   4.979
 2151TIP3   OH2 6329   1.876  -0.034   4.895
 2151TIP3    H1 6330   1.778  -0.040   4.888
 2151TIP3    H2 6331   1.898  -0.063   4.804
 2152TIP3   OH2 6332   1.387   0.292   4.782
 2152TIP3    H1 6333   1.303   0.249   4.800
 2152TIP3    H2 6334   1.363   0.362   4.717
 2153TIP3   OH2 6335   1.363   0.148   5.102
 2153TIP3    H1 6336   1.274   0.138   5.140
 2153TIP3    H2 6337   1.400   0.217   5.159
 2154TIP3   OH2 6338   1.639   0.367   4.326
 2154TIP3    H1 6339   1.668   0.395   4.414
 2154TIP3    H2 6340   1.712   0.397   4.270
 2155TIP3   OH2 6341   1.682   0.382   4.616
 2155TIP3    H1 6342   1.644   0.292   4.612
 2155TIP3    H2 6343   1.759   0.365   4.673
 2156TIP3   OH2 6344   1.742   0.052   5.182
 2156TIP3    H1 6345   1.666   0.056   5.243
 2156TIP3    H2 6346   1.776   0.143   5.190
 2157TIP3   OH2 6347   1.555   0.128   4.646
 2157TIP3    H1 6348   1.497   0.183   4.704
 2157TIP3    H2 6349   1.494   0.098   4.578
 2158TIP3   OH2 6350   1.781  -0.279   5.017
 2158TIP3    H1 6351   1.848  -0.350   5.006
 2158TIP3    H2 6352   1.809  -0.212   4.953
 2159TIP3   OH2 6353   1.951  -0.494   5.031
 2159TIP3    H1 6354   1.895  -0.559   5.075
 2159TIP3    H2 6355   2.040  -0.522   5.056
 2160TIP3   OH2 6356   1.143   0.470   4.904
 2160TIP3    H1 6357   1.206   0.398   4.909
 2160TIP3    H2 6358   1.176   0.526   4.977
 2161TIP3   OH2 6359   1.346   0.463   4.570
 2161TIP3    H1 6360   1.315   0.550   4.539
 2161TIP3    H2 6361   1.370   0.422   4.486
 2162TIP3   OH2 6362   1.613   0.338   4.953
 2162TIP3    H1 6363   1.533   0.299   4.914
 2162TIP3    H2 6364   1.588   0.433   4.953
 2163TIP3   OH2 6365   2.908  -0.268   3.765
 2163TIP3    H1 6366   2.899  -0.172   3.759
 2163TIP3    H2 6367   2.825  -0.297   3.725
 2164TIP3   OH2 6368   2.859  -0.297   4.102
 2164TIP3    H1 6369   2.902  -0.303   4.189
 2164TIP3    H2 6370   2.831  -0.391   4.091
 2165TIP3   OH2 6371   2.152  -0.388   4.417
 2165TIP3    H1 6372   2.159  -0.410   4.510
 2165TIP3    H2 6373   2.238  -0.344   4.401
 2166TIP3   OH2 6374   3.108   0.003   3.778
 2166TIP3    H1 6375   3.111  -0.057   3.854
 2166TIP3    H2 6376   3.144   0.085   3.818
 2167TIP3   OH2 6377   2.169   0.022   4.225
 2167TIP3    H1 6378   2.144  -0.063   4.189
 2167TIP3    H2 6379   2.263   0.029   4.200
 2168TIP3   OH2 6380   2.760   0.468   3.794
 2168TIP3    H1 6381   2.810   0.400   3.745
 2168TIP3    H2 6382   2.767   0.437   3.885
 2169TIP3   OH2 6383   2.675  -0.070   4.140
 2169TIP3    H1 6384   2.721  -0.149   4.106
 2169TIP3    H2 6385   2.754  -0.018   4.166
 2170TIP3   OH2 6386   3.095  -0.552   4.177
 2170TIP3    H1 6387   3.113  -0.636   4.220
 2170TIP3    H2 6388   3.051  -0.580   4.095
 2171TIP3   OH2 6389   3.731  -0.562   4.331
 2171TIP3    H1 6390   3.670  -0.490   4.307
 2171TIP3    H2 6391   3.784  -0.524   4.403
 2172TIP3   OH2 6392   2.771  -0.020   3.637
 2172TIP3    H1 6393   2.808  -0.037   3.550
 2172TIP3    H2 6394   2.721   0.065   3.622
 2173TIP3   OH2 6395   2.521  -0.148   4.375
 2173TIP3    H1 6396   2.460  -0.082   4.417
 2173TIP3    H2 6397   2.568  -0.093   4.310
 2174TIP3   OH2 6398   2.354   0.046   4.474
 2174TIP3    H1 6399   2.325   0.129   4.430
 2174TIP3    H2 6400   2.275   0.031   4.530
 2175TIP3   OH2 6401   3.189   0.244   3.950
 2175TIP3    H1 6402   3.097   0.249   3.983
 2175TIP3    H2 6403   3.191   0.314   3.882
 2176TIP3   OH2 6404   2.888   0.308   3.611
 2176TIP3    H1 6405   2.938   0.225   3.593
 2176TIP3    H2 6406   2.959   0.372   3.588
 2177TIP3   OH2 6407   3.029   0.093   3.521
 2177TIP3    H1 6408   3.048   0.014   3.467
 2177TIP3    H2 6409   3.070   0.067   3.606
 2178TIP3   OH2 6410   3.412   0.167   4.292
 2178TIP3    H1 6411   3.403   0.092   4.229
 2178TIP3    H2 6412   3.395   0.243   4.232
 2179TIP3   OH2 6413   3.607  -0.201   4.134
 2179TIP3    H1 6414   3.525  -0.147   4.141
 2179TIP3    H2 6415   3.635  -0.176   4.043
 2180TIP3   OH2 6416   3.061  -0.334   3.548
 2180TIP3    H1 6417   3.044  -0.307   3.641
 2180TIP3    H2 6418   3.147  -0.380   3.557
 2181TIP3   OH2 6419   3.286  -0.310   4.425
 2181TIP3    H1 6420   3.284  -0.226   4.475
 2181TIP3    H2 6421   3.202  -0.303   4.375
 2182TIP3   OH2 6422   2.413   0.044   4.088
 2182TIP3    H1 6423   2.405  -0.000   4.002
 2182TIP3    H2 6424   2.506   0.023   4.111
 2183TIP3   OH2 6425   2.423  -0.393   4.293
 2183TIP3    H1 6426   2.465  -0.410   4.208
 2183TIP3    H2 6427   2.464  -0.308   4.320
 2184TIP3   OH2 6428   2.940   0.251   4.064
 2184TIP3    H1 6429   2.932   0.332   4.117
 2184TIP3    H2 6430   2.931   0.180   4.129
 2185TIP3   OH2 6431   2.557   0.172   4.613
 2185TIP3    H1 6432   2.499   0.235   4.660
 2185TIP3    H2 6433   2.491   0.118   4.565
 2186TIP3   OH2 6434   2.288  -0.252   4.705
 2186TIP3    H1 6435   2.305  -0.170   4.757
 2186TIP3    H2 6436   2.196  -0.271   4.730
 2187TIP3   OH2 6437   2.620   0.210   3.619
 2187TIP3    H1 6438   2.701   0.260   3.638
 2187TIP3    H2 6439   2.563   0.276   3.578
 2188TIP3   OH2 6440   2.352   0.340   4.700
 2188TIP3    H1 6441   2.318   0.336   4.609
 2188TIP3    H2 6442   2.273   0.317   4.753
 2189TIP3   OH2 6443   3.240   0.139   2.928
 2189TIP3    H1 6444   3.218   0.175   3.016
 2189TIP3    H2 6445   3.313   0.078   2.948
 2190TIP3   OH2 6446   1.939  -0.134   4.651
 2190TIP3    H1 6447   1.891  -0.154   4.569
 2190TIP3    H2 6448   1.968  -0.223   4.681
 2191TIP3   OH2 6449   1.801   0.041   4.301
 2191TIP3    H1 6450   1.886   0.068   4.265
 2191TIP3    H2 6451   1.765   0.126   4.332
 2192TIP3   OH2 6452   3.647   0.514   4.327
 2192TIP3    H1 6453   3.653   0.419   4.347
 2192TIP3    H2 6454   3.568   0.539   4.379
 2193TIP3   OH2 6455   2.756   0.300   4.468
 2193TIP3    H1 6456   2.757   0.392   4.502
 2193TIP3    H2 6457   2.686   0.261   4.525
 2194TIP3   OH2 6458   2.511   0.428   3.427
 2194TIP3    H1 6459   2.450   0.413   3.353
 2194TIP3    H2 6460   2.492   0.521   3.451
 2195TIP3   OH2 6461   2.767   0.379   3.336
 2195TIP3    H1 6462   2.676   0.386   3.372
 2195TIP3    H2 6463   2.815   0.345   3.413
 2196TIP3   OH2 6464   3.541  -0.364   4.626
 2196TIP3    H1 6465   3.475  -0.324   4.568
 2196TIP3    H2 6466   3.567  -0.444   4.578
 2197TIP3   OH2 6467   2.139   0.054   4.640
 2197TIP3    H1 6468   2.188   0.041   4.723
 2197TIP3    H2 6469   2.065  -0.010   4.649
 2198TIP3   OH2 6470   3.203  -0.502   4.607
 2198TIP3    H1 6471   3.271  -0.569   4.617
 2198TIP3    H2 6472   3.238  -0.441   4.540
 2199TIP3   OH2 6473   2.471  -0.632   4.440
 2199TIP3    H1 6474   2.460  -0.571   4.516
 2199TIP3    H2 6475   2.448  -0.571   4.367
 2200TIP3   OH2 6476   3.029  -0.309   4.730
 2200TIP3    H1 6477   3.021  -0.369   4.808
 2200TIP3    H2 6478   3.126  -0.308   4.723
 2201TIP3   OH2 6479   3.000  -0.617   3.918
 2201TIP3    H1 6480   2.963  -0.559   3.850
 2201TIP3    H2 6481   3.054  -0.678   3.866
 2202TIP3   OH2 6482   2.313  -0.658   4.748
 2202TIP3    H1 6483   2.358  -0.573   4.730
 2202TIP3    H2 6484   2.248  -0.662   4.677
 2203TIP3   OH2 6485   3.010  -0.356   4.343
 2203TIP3    H1 6486   3.040  -0.428   4.284
 2203TIP3    H2 6487   2.989  -0.407   4.424
 2204TIP3   OH2 6488   3.337   0.862   4.433
 2204TIP3    H1 6489   3.338   0.885   4.339
 2204TIP3    H2 6490   3.417   0.908   4.465
 2205TIP3   OH2 6491   2.298  -0.020   4.861
 2205TIP3    H1 6492   2.379   0.009   4.908
 2205TIP3    H2 6493   2.234  -0.017   4.935
 2206TIP3   OH2 6494   2.790  -0.563   4.128
 2206TIP3    H1 6495   2.829  -0.626   4.067
 2206TIP3    H2 6496   2.774  -0.616   4.208
 2207TIP3   OH2 6497   2.747  -0.686   4.401
 2207TIP3    H1 6498   2.655  -0.656   4.416
 2207TIP3    H2 6499   2.798  -0.629   4.462
 2208TIP3   OH2 6500   3.378  -0.053   4.129
 2208TIP3    H1 6501   3.404  -0.002   4.048
 2208TIP3    H2 6502   3.291  -0.090   4.102
 2209TIP3   OH2 6503   2.871   0.028   4.494
 2209TIP3    H1 6504   2.894   0.006   4.585
 2209TIP3    H2 6505   2.839   0.120   4.502
 2210TIP3   OH2 6506   2.039  -0.351   4.791
 2210TIP3    H1 6507   2.085  -0.345   4.877
 2210TIP3    H2 6508   1.982  -0.427   4.808
 2211TIP3   OH2 6509   2.787  -0.201   4.794
 2211TIP3    H1 6510   2.741  -0.284   4.773
 2211TIP3    H2 6511   2.878  -0.224   4.766
 2212TIP3   OH2 6512   3.035   0.283   4.393
 2212TIP3    H1 6513   2.939   0.290   4.402
 2212TIP3    H2 6514   3.065   0.340   4.467
 2213TIP3   OH2 6515   3.662   0.213   4.382
 2213TIP3    H1 6516   3.565   0.215   4.371
 2213TIP3    H2 6517   3.689   0.190   4.290
 2214TIP3   OH2 6518   3.146   0.167   3.187
 2214TIP3    H1 6519   3.133   0.133   3.277
 2214TIP3    H2 6520   3.119   0.090   3.134
 2215TIP3   OH2 6521   3.141  -0.189   4.047
 2215TIP3    H1 6522   3.048  -0.215   4.055
 2215TIP3    H2 6523   3.178  -0.268   4.000
 2216TIP3   OH2 6524   2.538   0.382   4.266
 2216TIP3    H1 6525   2.578   0.456   4.216
 2216TIP3    H2 6526   2.615   0.351   4.318
 2217TIP3   OH2 6527   2.926   0.016   4.224
 2217TIP3    H1 6528   2.918   0.015   4.322
 2217TIP3    H2 6529   3.012  -0.028   4.212
 2218TIP3   OH2 6530   3.175   0.554   4.276
 2218TIP3    H1 6531   3.095   0.499   4.262
 2218TIP3    H2 6532   3.162   0.622   4.206
 2219TIP3   OH2 6533   3.075  -0.124   3.373
 2219TIP3    H1 6534   3.089  -0.207   3.423
 2219TIP3    H2 6535   3.148  -0.131   3.308
 2220TIP3   OH2 6536   1.975   0.253   4.432
 2220TIP3    H1 6537   2.026   0.173   4.450
 2220TIP3    H2 6538   2.013   0.315   4.495
 2221TIP3   OH2 6539   2.930  -0.533   4.560
 2221TIP3    H1 6540   2.935  -0.461   4.625
 2221TIP3    H2 6541   3.021  -0.567   4.565
 2222TIP3   OH2 6542   3.226  -0.430   3.917
 2222TIP3    H1 6543   3.158  -0.490   3.948
 2222TIP3    H2 6544   3.305  -0.467   3.963
 2223TIP3   OH2 6545   3.201   0.540   3.892
 2223TIP3    H1 6546   3.166   0.527   3.802
 2223TIP3    H2 6547   3.296   0.547   3.866
 2224TIP3   OH2 6548   1.966   0.552   4.847
 2224TIP3    H1 6549   2.052   0.552   4.894
 2224TIP3    H2 6550   1.945   0.457   4.846
 2225TIP3   OH2 6551   2.450   0.522   4.891
 2225TIP3    H1 6552   2.544   0.502   4.900
 2225TIP3    H2 6553   2.426   0.464   4.816
 2226TIP3   OH2 6554   3.087   0.425   4.624
 2226TIP3    H1 6555   3.080   0.356   4.693
 2226TIP3    H2 6556   3.165   0.476   4.654
 2227TIP3   OH2 6557   2.102  -0.034   5.050
 2227TIP3    H1 6558   2.113  -0.130   5.065
 2227TIP3    H2 6559   2.012  -0.032   5.009
 2228TIP3   OH2 6560   2.705   0.061   4.822
 2228TIP3    H1 6561   2.663   0.075   4.735
 2228TIP3    H2 6562   2.741  -0.030   4.813
 2229TIP3   OH2 6563   3.198   0.050   4.426
 2229TIP3    H1 6564   3.272   0.096   4.381
 2229TIP3    H2 6565   3.128   0.118   4.416
 2230TIP3   OH2 6566   2.207  -0.320   5.026
 2230TIP3    H1 6567   2.287  -0.370   5.007
 2230TIP3    H2 6568   2.233  -0.281   5.113
 2231TIP3   OH2 6569   2.474  -0.440   4.634
 2231TIP3    H1 6570   2.416  -0.363   4.658
 2231TIP3    H2 6571   2.545  -0.393   4.585
 2232TIP3   OH2 6572   3.068  -0.016   4.830
 2232TIP3    H1 6573   3.146  -0.041   4.779
 2232TIP3    H2 6574   3.067  -0.085   4.899
 2233TIP3   OH2 6575   2.706  -0.469   4.811
 2233TIP3    H1 6576   2.734  -0.554   4.851
 2233TIP3    H2 6577   2.633  -0.494   4.753
 2234TIP3   OH2 6578   2.695  -0.322   4.497
 2234TIP3    H1 6579   2.782  -0.314   4.455
 2234TIP3    H2 6580   2.648  -0.244   4.459
 2235TIP3   OH2 6581   3.292  -0.330   4.880
 2235TIP3    H1 6582   3.335  -0.416   4.888
 2235TIP3    H2 6583   3.363  -0.272   4.851
 2236TIP3   OH2 6584   3.331  -0.094   4.611
 2236TIP3    H1 6585   3.270  -0.039   4.555
 2236TIP3    H2 6586   3.417  -0.068   4.571
 2237TIP3   OH2 6587   2.514  -0.502   5.049
 2237TIP3    H1 6588   2.449  -0.572   5.033
 2237TIP3    H2 6589   2.589  -0.528   4.995
 2238TIP3   OH2 6590   2.991  -0.474   4.933
 2238TIP3    H1 6591   2.952  -0.484   5.022
 2238TIP3    H2 6592   2.938  -0.537   4.882
 2239TIP3   OH2 6593   3.461   0.608   3.830
 2239TIP3    H1 6594   3.480   0.652   3.914
 2239TIP3    H2 6595   3.503   0.666   3.766
 2240TIP3   OH2 6596   3.477   0.641   4.110
 2240TIP3    H1 6597   3.436   0.553   4.098
 2240TIP3    H2 6598   3.552   0.615   4.166
 2241TIP3   OH2 6599   3.527   0.315   4.681
 2241TIP3    H1 6600   3.452   0.325   4.743
 2241TIP3    H2 6601   3.569   0.404   4.684
 2242TIP3   OH2 6602   3.349  -0.155   3.305
 2242TIP3    H1 6603   3.427  -0.099   3.285
 2242TIP3    H2 6604   3.386  -0.216   3.372
 2243TIP3   OH2 6605   3.474  -0.310   3.497
 2243TIP3    H1 6606   3.403  -0.350   3.552
 2243TIP3    H2 6607   3.529  -0.264   3.563
 2244TIP3   OH2 6608   3.516   0.080   3.938
 2244TIP3    H1 6609   3.569   0.024   3.880
 2244TIP3    H2 6610   3.515   0.164   3.886
 2245TIP3   OH2 6611   3.354   0.384   4.133
 2245TIP3    H1 6612   3.284   0.433   4.180
 2245TIP3    H2 6613   3.305   0.340   4.061
 2246TIP3   OH2 6614   3.293  -0.455   3.652
 2246TIP3    H1 6615   3.285  -0.551   3.652
 2246TIP3    H2 6616   3.276  -0.434   3.747
 2247TIP3   OH2 6617   3.574  -0.030   4.505
 2247TIP3    H1 6618   3.649  -0.092   4.492
 2247TIP3    H2 6619   3.597   0.045   4.448
 2248TIP3   OH2 6620   3.759  -0.232   4.518
 2248TIP3    H1 6621   3.694  -0.279   4.574
 2248TIP3    H2 6622   3.842  -0.271   4.547
 2249TIP3   OH2 6623   3.446  -0.527   4.043
 2249TIP3    H1 6624   3.536  -0.518   4.005
 2249TIP3    H2 6625   3.463  -0.507   4.136
 2250TIP3   OH2 6626   3.507  -0.406   4.290
 2250TIP3    H1 6627   3.423  -0.365   4.321
 2250TIP3    H2 6628   3.542  -0.335   4.232
 2251TIP3   OH2 6629   3.006   0.521   3.454
 2251TIP3    H1 6630   3.050   0.459   3.395
 2251TIP3    H2 6631   3.078   0.525   3.521
 2252TIP3   OH2 6632   2.132   0.285   4.867
 2252TIP3    H1 6633   2.040   0.258   4.852
 2252TIP3    H2 6634   2.142   0.270   4.962
 2253TIP3   OH2 6635   2.310   0.318   4.415
 2253TIP3    H1 6636   2.261   0.393   4.375
 2253TIP3    H2 6637   2.396   0.332   4.372
 2254TIP3   OH2 6638   2.757   0.565   4.553
 2254TIP3    H1 6639   2.799   0.566   4.642
 2254TIP3    H2 6640   2.824   0.615   4.501
 2255TIP3   OH2 6641   2.936   0.715   4.410
 2255TIP3    H1 6642   3.007   0.666   4.366
 2255TIP3    H2 6643   2.987   0.772   4.471
 2256TIP3   OH2 6644   1.989   0.580   4.437
 2256TIP3    H1 6645   1.900   0.613   4.414
 2256TIP3    H2 6646   1.996   0.609   4.528
 2257TIP3   OH2 6647   2.225   0.555   4.295
 2257TIP3    H1 6648   2.139   0.568   4.341
 2257TIP3    H2 6649   2.205   0.588   4.205
 2258TIP3   OH2 6650   2.650   0.585   4.094
 2258TIP3    H1 6651   2.583   0.606   4.027
 2258TIP3    H2 6652   2.664   0.672   4.136
 2259TIP3   OH2 6653   2.919   0.523   4.144
 2259TIP3    H1 6654   2.825   0.542   4.125
 2259TIP3    H2 6655   2.963   0.599   4.101
 2260TIP3   OH2 6656   3.123   0.728   4.070
 2260TIP3    H1 6657   3.108   0.810   4.018
 2260TIP3    H2 6658   3.152   0.667   3.998
 2261TIP3   OH2 6659   1.909   0.377   4.194
 2261TIP3    H1 6660   1.924   0.350   4.287
 2261TIP3    H2 6661   1.988   0.334   4.154
 2262TIP3   OH2 6662   2.106   0.246   4.067
 2262TIP3    H1 6663   2.127   0.158   4.105
 2262TIP3    H2 6664   2.195   0.281   4.047
 2263TIP3   OH2 6665   2.368   0.345   4.039
 2263TIP3    H1 6666   2.402   0.257   4.021
 2263TIP3    H2 6667   2.409   0.363   4.126
 2264TIP3   OH2 6668   3.205   0.440   3.202
 2264TIP3    H1 6669   3.181   0.346   3.218
 2264TIP3    H2 6670   3.124   0.475   3.163
 2265TIP3   OH2 6671   3.404   0.594   4.439
 2265TIP3    H1 6672   3.326   0.563   4.389
 2265TIP3    H2 6673   3.386   0.691   4.440
 2266TIP3   OH2 6674   4.671  -0.034   3.205
 2266TIP3    H1 6675   4.643   0.058   3.185
 2266TIP3    H2 6676   4.596  -0.083   3.169
 2267TIP3   OH2 6677   4.671  -0.034   3.582
 2267TIP3    H1 6678   4.696  -0.067   3.670
 2267TIP3    H2 6679   4.626  -0.112   3.545
 2268TIP3   OH2 6680   3.969  -0.122   3.935
 2268TIP3    H1 6681   3.982  -0.135   4.030
 2268TIP3    H2 6682   4.052  -0.077   3.912
 2269TIP3   OH2 6683   4.914   0.266   3.264
 2269TIP3    H1 6684   4.896   0.197   3.328
 2269TIP3    H2 6685   4.937   0.342   3.320
 2270TIP3   OH2 6686   3.940   0.273   3.672
 2270TIP3    H1 6687   3.929   0.176   3.675
 2270TIP3    H2 6688   4.037   0.280   3.672
 2271TIP3   OH2 6689   3.639  -0.530   3.456
 2271TIP3    H1 6690   3.608  -0.438   3.469
 2271TIP3    H2 6691   3.556  -0.577   3.470
 2272TIP3   OH2 6692   3.711  -0.240   3.628
 2272TIP3    H1 6693   3.763  -0.314   3.668
 2272TIP3    H2 6694   3.771  -0.207   3.560
 2273TIP3   OH2 6695   4.560   0.731   3.280
 2273TIP3    H1 6696   4.608   0.659   3.234
 2273TIP3    H2 6697   4.552   0.695   3.369
 2274TIP3   OH2 6698   4.468   0.190   3.633
 2274TIP3    H1 6699   4.504   0.114   3.583
 2274TIP3    H2 6700   4.552   0.234   3.655
 2275TIP3   OH2 6701   4.883  -0.297   3.666
 2275TIP3    H1 6702   4.912  -0.384   3.694
 2275TIP3    H2 6703   4.852  -0.314   3.575
 2276TIP3   OH2 6704   3.852  -0.449   3.738
 2276TIP3    H1 6705   3.931  -0.476   3.790
 2276TIP3    H2 6706   3.870  -0.501   3.657
 2277TIP3   OH2 6707   4.295  -0.246   3.532
 2277TIP3    H1 6708   4.386  -0.279   3.547
 2277TIP3    H2 6709   4.249  -0.328   3.502
 2278TIP3   OH2 6710   5.534  -0.302   3.816
 2278TIP3    H1 6711   5.468  -0.234   3.794
 2278TIP3    H2 6712   5.574  -0.270   3.899
 2279TIP3   OH2 6713   4.566   0.189   3.074
 2279TIP3    H1 6714   4.521   0.161   2.993
 2279TIP3    H2 6715   4.520   0.273   3.094
 2280TIP3   OH2 6716   4.321   0.110   3.864
 2280TIP3    H1 6717   4.257   0.175   3.901
 2280TIP3    H2 6718   4.363   0.162   3.793
 2281TIP3   OH2 6719   4.087  -0.549   3.838
 2281TIP3    H1 6720   4.152  -0.480   3.863
 2281TIP3    H2 6721   4.128  -0.588   3.760
 2282TIP3   OH2 6722   4.148   0.302   3.955
 2282TIP3    H1 6723   4.122   0.389   3.918
 2282TIP3    H2 6724   4.070   0.286   4.014
 2283TIP3   OH2 6725   3.555  -0.004   3.201
 2283TIP3    H1 6726   3.508   0.018   3.118
 2283TIP3    H2 6727   3.576   0.086   3.236
 2284TIP3   OH2 6728   4.986   0.510   3.436
 2284TIP3    H1 6729   4.896   0.501   3.475
 2284TIP3    H2 6730   4.976   0.595   3.389
 2285TIP3   OH2 6731   4.689   0.558   3.112
 2285TIP3    H1 6732   4.738   0.476   3.088
 2285TIP3    H2 6733   4.747   0.624   3.067
 2286TIP3   OH2 6734   4.829   0.343   3.012
 2286TIP3    H1 6735   4.789   0.264   2.972
 2286TIP3    H2 6736   4.864   0.307   3.096
 2287TIP3   OH2 6737   5.212   0.425   3.777
 2287TIP3    H1 6738   5.198   0.348   3.718
 2287TIP3    H2 6739   5.192   0.500   3.716
 2288TIP3   OH2 6740   4.504  -0.179   3.034
 2288TIP3    H1 6741   4.421  -0.134   3.010
 2288TIP3    H2 6742   4.543  -0.194   2.946
 2289TIP3   OH2 6743   4.455  -0.379   2.781
 2289TIP3    H1 6744   4.547  -0.356   2.803
 2289TIP3    H2 6745   4.467  -0.454   2.719
 2290TIP3   OH2 6746   5.398   0.056   3.639
 2290TIP3    H1 6747   5.316   0.111   3.641
 2290TIP3    H2 6748   5.422   0.067   3.544
 2291TIP3   OH2 6749   4.849  -0.097   3.007
 2291TIP3    H1 6750   4.794  -0.073   3.085
 2291TIP3    H2 6751   4.931  -0.127   3.051
 2292TIP3   OH2 6752   5.082  -0.054   3.910
 2292TIP3    H1 6753   5.078   0.030   3.959
 2292TIP3    H2 6754   4.996  -0.051   3.863
 2293TIP3   OH2 6755   4.084  -0.102   3.422
 2293TIP3    H1 6756   4.041  -0.161   3.356
 2293TIP3    H2 6757   4.159  -0.158   3.450
 2294TIP3   OH2 6758   4.212   0.312   3.569
 2294TIP3    H1 6759   4.189   0.263   3.489
 2294TIP3    H2 6760   4.302   0.278   3.589
 2295TIP3   OH2 6761   4.226  -0.135   3.779
 2295TIP3    H1 6762   4.253  -0.154   3.686
 2295TIP3    H2 6763   4.266  -0.047   3.795
 2296TIP3   OH2 6764   4.744   0.507   3.554
 2296TIP3    H1 6765   4.727   0.586   3.608
 2296TIP3    H2 6766   4.729   0.433   3.616
 2297TIP3   OH2 6767   4.352   0.426   4.098
 2297TIP3    H1 6768   4.293   0.489   4.146
 2297TIP3    H2 6769   4.285   0.373   4.050
 2298TIP3   OH2 6770   4.699  -0.251   2.833
 2298TIP3    H1 6771   4.755  -0.190   2.886
 2298TIP3    H2 6772   4.721  -0.221   2.741
 2299TIP3   OH2 6773   4.084   0.007   4.191
 2299TIP3    H1 6774   4.100   0.089   4.242
 2299TIP3    H2 6775   3.993  -0.014   4.220
 2300TIP3   OH2 6776   4.431   0.439   3.106
 2300TIP3    H1 6777   4.507   0.495   3.129
 2300TIP3    H2 6778   4.369   0.502   3.069
 2301TIP3   OH2 6779   4.149   0.592   4.190
 2301TIP3    H1 6780   4.111   0.590   4.100
 2301TIP3    H2 6781   4.072   0.565   4.246
 2302TIP3   OH2 6782   3.950  -0.253   3.231
 2302TIP3    H1 6783   3.889  -0.203   3.174
 2302TIP3    H2 6784   3.912  -0.342   3.233
 2303TIP3   OH2 6785   5.002   0.369   2.428
 2303TIP3    H1 6786   5.009   0.465   2.414
 2303TIP3    H2 6787   5.093   0.339   2.412
 2304TIP3   OH2 6788   3.726   0.125   4.135
 2304TIP3    H1 6789   3.662   0.108   4.063
 2304TIP3    H2 6790   3.759   0.036   4.156
 2305TIP3   OH2 6791   3.590   0.304   3.798
 2305TIP3    H1 6792   3.675   0.324   3.757
 2305TIP3    H2 6793   3.552   0.393   3.810
 2306TIP3   OH2 6794   5.447   0.768   3.821
 2306TIP3    H1 6795   5.445   0.671   3.833
 2306TIP3    H2 6796   5.364   0.793   3.867
 2307TIP3   OH2 6797   4.553   0.554   3.957
 2307TIP3    H1 6798   4.553   0.647   3.990
 2307TIP3    H2 6799   4.481   0.516   4.011
 2308TIP3   OH2 6800   4.311   0.684   2.909
 2308TIP3    H1 6801   4.267   0.665   2.824
 2308TIP3    H2 6802   4.279   0.775   2.929
 2309TIP3   OH2 6803   3.749   0.533   3.294
 2309TIP3    H1 6804   3.804   0.526   3.375
 2309TIP3    H2 6805   3.676   0.474   3.320
 2310TIP3   OH2 6806   4.515   0.585   2.551
 2310TIP3    H1 6807   4.574   0.515   2.513
 2310TIP3    H2 6808   4.549   0.592   2.642
 2311TIP3   OH2 6809   4.564   0.633   2.822
 2311TIP3    H1 6810   4.475   0.642   2.863
 2311TIP3    H2 6811   4.613   0.589   2.892
 2312TIP3   OH2 6812   5.339  -0.103   4.110
 2312TIP3    H1 6813   5.266  -0.068   4.057
 2312TIP3    H2 6814   5.354  -0.190   4.069
 2313TIP3   OH2 6815   3.935   0.306   4.122
 2313TIP3    H1 6816   3.978   0.303   4.210
 2313TIP3    H2 6817   3.860   0.245   4.133
 2314TIP3   OH2 6818   5.011  -0.242   4.105
 2314TIP3    H1 6819   5.060  -0.324   4.093
 2314TIP3    H2 6820   5.031  -0.190   4.025
 2315TIP3   OH2 6821   4.764  -0.189   2.574
 2315TIP3    H1 6822   4.737  -0.222   2.486
 2315TIP3    H2 6823   4.846  -0.142   2.549
 2316TIP3   OH2 6824   4.271  -0.366   3.919
 2316TIP3    H1 6825   4.258  -0.313   4.001
 2316TIP3    H2 6826   4.256  -0.293   3.853
 2317TIP3   OH2 6827   4.135  -0.445   3.435
 2317TIP3    H1 6828   4.059  -0.497   3.465
 2317TIP3    H2 6829   4.160  -0.494   3.353
 2318TIP3   OH2 6830   4.643  -0.378   3.165
 2318TIP3    H1 6831   4.590  -0.306   3.124
 2318TIP3    H2 6832   4.689  -0.415   3.086
 2319TIP3   OH2 6833   4.825  -0.053   4.216
 2319TIP3    H1 6834   4.818  -0.113   4.295
 2319TIP3    H2 6835   4.921  -0.056   4.205
 2320TIP3   OH2 6836   4.801  -0.350   3.404
 2320TIP3    H1 6837   4.742  -0.319   3.333
 2320TIP3    H2 6838   4.830  -0.434   3.366
 2321TIP3   OH2 6839   4.105  -0.411   4.228
 2321TIP3    H1 6840   4.146  -0.323   4.214
 2321TIP3    H2 6841   4.030  -0.410   4.168
 2322TIP3   OH2 6842   4.815  -0.101   3.837
 2322TIP3    H1 6843   4.839  -0.173   3.774
 2322TIP3    H2 6844   4.782  -0.153   3.912
 2323TIP3   OH2 6845   3.905  -0.592   3.509
 2323TIP3    H1 6846   3.813  -0.576   3.479
 2323TIP3    H2 6847   3.918  -0.685   3.486
 2324TIP3   OH2 6848   4.196  -0.577   3.204
 2324TIP3    H1 6849   4.285  -0.594   3.169
 2324TIP3    H2 6850   4.141  -0.571   3.123
 2325TIP3   OH2 6851   4.019  -0.536   2.991
 2325TIP3    H1 6852   3.958  -0.599   2.952
 2325TIP3    H2 6853   4.074  -0.513   2.913
 2326TIP3   OH2 6854   5.136   1.118   3.920
 2326TIP3    H1 6855   5.133   1.141   3.826
 2326TIP3    H2 6856   5.212   1.170   3.951
 2327TIP3   OH2 6857   4.094   0.233   4.350
 2327TIP3    H1 6858   4.173   0.266   4.397
 2327TIP3    H2 6859   4.027   0.247   4.421
 2328TIP3   OH2 6860   4.564  -0.313   3.606
 2328TIP3    H1 6861   4.621  -0.368   3.550
 2328TIP3    H2 6862   4.561  -0.365   3.688
 2329TIP3   OH2 6863   4.545  -0.430   3.891
 2329TIP3    H1 6864   4.454  -0.397   3.899
 2329TIP3    H2 6865   4.596  -0.372   3.951
 2330TIP3   OH2 6866   4.270  -0.029   2.982
 2330TIP3    H1 6867   4.197  -0.093   2.973
 2330TIP3    H2 6868   4.255   0.004   3.074
 2331TIP3   OH2 6869   5.172   0.207   3.616
 2331TIP3    H1 6870   5.196   0.255   3.534
 2331TIP3    H2 6871   5.086   0.165   3.591
 2332TIP3   OH2 6872   4.679   0.291   3.980
 2332TIP3    H1 6873   4.684   0.260   4.071
 2332TIP3    H2 6874   4.632   0.376   3.988
 2333TIP3   OH2 6875   4.791  -0.492   2.946
 2333TIP3    H1 6876   4.888  -0.483   2.956
 2333TIP3    H2 6877   4.770  -0.416   2.888
 2334TIP3   OH2 6878   3.962  -0.006   3.654
 2334TIP3    H1 6879   4.004  -0.036   3.571
 2334TIP3    H2 6880   3.990  -0.073   3.717
 2335TIP3   OH2 6881   4.417   0.119   2.803
 2335TIP3    H1 6882   4.370   0.206   2.811
 2335TIP3    H2 6883   4.363   0.064   2.864
 2336TIP3   OH2 6884   3.841  -0.092   4.270
 2336TIP3    H1 6885   3.867  -0.104   4.364
 2336TIP3    H2 6886   3.768  -0.155   4.262
 2337TIP3   OH2 6887   4.584   0.058   4.280
 2337TIP3    H1 6888   4.534  -0.021   4.254
 2337TIP3    H2 6889   4.674   0.031   4.252
 2338TIP3   OH2 6890   4.834   0.551   3.873
 2338TIP3    H1 6891   4.738   0.545   3.886
 2338TIP3    H2 6892   4.860   0.600   3.953
 2339TIP3   OH2 6893   5.245  -0.386   2.783
 2339TIP3    H1 6894   5.182  -0.433   2.724
 2339TIP3    H2 6895   5.242  -0.298   2.739
 2340TIP3   OH2 6896   5.461   0.476   3.867
 2340TIP3    H1 6897   5.363   0.472   3.858
 2340TIP3    H2 6898   5.487   0.447   3.777
 2341TIP3   OH2 6899   4.945   0.438   2.694
 2341TIP3    H1 6900   4.915   0.369   2.754
 2341TIP3    H2 6901   4.952   0.392   2.608
 2342TIP3   OH2 6902   4.939   0.067   3.536
 2342TIP3    H1 6903   4.845   0.041   3.547
 2342TIP3    H2 6904   4.973  -0.012   3.488
 2343TIP3   OH2 6905   4.063   0.293   3.282
 2343TIP3    H1 6906   4.065   0.376   3.230
 2343TIP3    H2 6907   3.969   0.282   3.296
 2344TIP3   OH2 6908   3.665  -0.354   3.024
 2344TIP3    H1 6909   3.721  -0.270   3.034
 2344TIP3    H2 6910   3.604  -0.341   3.097
 2345TIP3   OH2 6911   4.207   0.063   3.230
 2345TIP3    H1 6912   4.169   0.151   3.247
 2345TIP3    H2 6913   4.171   0.011   3.304
 2346TIP3   OH2 6914   4.333   0.640   3.753
 2346TIP3    H1 6915   4.374   0.713   3.703
 2346TIP3    H2 6916   4.409   0.607   3.804
 2347TIP3   OH2 6917   3.984   0.534   3.136
 2347TIP3    H1 6918   3.898   0.540   3.182
 2347TIP3    H2 6919   4.014   0.627   3.140
 2348TIP3   OH2 6920   4.725   0.275   3.711
 2348TIP3    H1 6921   4.716   0.274   3.809
 2348TIP3    H2 6922   4.802   0.218   3.698
 2349TIP3   OH2 6923   4.695   0.167   2.594
 2349TIP3    H1 6924   4.747   0.141   2.673
 2349TIP3    H2 6925   4.606   0.141   2.623
 2350TIP3   OH2 6926   4.973   0.809   3.763
 2350TIP3    H1 6927   4.894   0.751   3.757
 2350TIP3    H2 6928   4.955   0.873   3.691
 2351TIP3   OH2 6929   5.038   0.645   2.412
 2351TIP3    H1 6930   5.076   0.723   2.369
 2351TIP3    H2 6931   4.955   0.686   2.446
 2352TIP3   OH2 6932   4.855   0.103   2.812
 2352TIP3    H1 6933   4.844   0.035   2.882
 2352TIP3    H2 6934   4.952   0.099   2.799
 2353TIP3   OH2 6935   3.782   0.512   3.910
 2353TIP3    H1 6936   3.818   0.428   3.940
 2353TIP3    H2 6937   3.803   0.569   3.984
 2354TIP3   OH2 6938   4.062   0.149   2.594
 2354TIP3    H1 6939   4.077   0.057   2.565
 2354TIP3    H2 6940   4.044   0.135   2.690
 2355TIP3   OH2 6941   4.008   0.152   2.868
 2355TIP3    H1 6942   4.079   0.123   2.927
 2355TIP3    H2 6943   4.015   0.250   2.875
 2356TIP3   OH2 6944   3.770  -0.114   3.078
 2356TIP3    H1 6945   3.701  -0.071   3.134
 2356TIP3    H2 6946   3.776  -0.050   3.006
 2357TIP3   OH2 6947   4.273   0.350   2.816
 2357TIP3    H1 6948   4.187   0.380   2.851
 2357TIP3    H2 6949   4.291   0.417   2.749
 2358TIP3   OH2 6950   4.484  -0.593   3.229
 2358TIP3    H1 6951   4.528  -0.508   3.206
 2358TIP3    H2 6952   4.449  -0.575   3.318
 2359TIP3   OH2 6953   4.728  -0.275   4.045
 2359TIP3    H1 6954   4.731  -0.203   4.111
 2359TIP3    H2 6955   4.817  -0.313   4.056
 2360TIP3   OH2 6956   4.014   0.425   2.881
 2360TIP3    H1 6957   3.986   0.497   2.818
 2360TIP3    H2 6958   3.999   0.469   2.967
 2361TIP3   OH2 6959   5.023  -0.169   3.404
 2361TIP3    H1 6960   4.950  -0.233   3.417
 2361TIP3    H2 6961   5.097  -0.214   3.451
 2362TIP3   OH2 6962   3.734   0.069   2.869
 2362TIP3    H1 6963   3.803   0.137   2.877
 2362TIP3    H2 6964   3.780   0.006   2.809
 2363TIP3   OH2 6965   4.991   0.782   3.356
 2363TIP3    H1 6966   4.948   0.828   3.281
 2363TIP3    H2 6967   5.085   0.801   3.334
 2364TIP3   OH2 6968   3.600   0.258   3.261
 2364TIP3    H1 6969   3.547   0.304   3.329
 2364TIP3    H2 6970   3.590   0.314   3.182
 2365TIP3   OH2 6971   3.756   0.810   4.308
 2365TIP3    H1 6972   3.814   0.801   4.388
 2365TIP3    H2 6973   3.722   0.719   4.307
 2366TIP3   OH2 6974   4.269   0.798   4.342
 2366TIP3    H1 6975   4.346   0.752   4.375
 2366TIP3    H2 6976   4.225   0.728   4.290
 2367TIP3   OH2 6977   4.228   0.352   2.510
 2367TIP3    H1 6978   4.173   0.279   2.545
 2367TIP3    H2 6979   4.301   0.302   2.469
 2368TIP3   OH2 6980   4.887   0.681   4.109
 2368TIP3    H1 6981   4.875   0.612   4.178
 2368TIP3    H2 6982   4.962   0.733   4.144
 2369TIP3   OH2 6983   4.665   0.395   2.418
 2369TIP3    H1 6984   4.708   0.328   2.474
 2369TIP3    H2 6985   4.719   0.395   2.337
 2370TIP3   OH2 6986   3.891   0.213   4.537
 2370TIP3    H1 6987   3.910   0.117   4.532
 2370TIP3    H2 6988   3.804   0.219   4.492
 2371TIP3   OH2 6989   3.872  -0.131   2.746
 2371TIP3    H1 6990   3.938  -0.159   2.813
 2371TIP3    H2 6991   3.928  -0.131   2.666
 2372TIP3   OH2 6992   4.505   0.320   4.306
 2372TIP3    H1 6993   4.456   0.332   4.222
 2372TIP3    H2 6994   4.538   0.227   4.298
 2373TIP3   OH2 6995   4.378   0.062   2.535
 2373TIP3    H1 6996   4.382   0.075   2.632
 2373TIP3    H2 6997   4.374  -0.035   2.529
 2374TIP3   OH2 6998   4.997   0.306   3.916
 2374TIP3    H1 6999   5.065   0.357   3.869
 2374TIP3    H2 7000   4.920   0.365   3.906
 2375TIP3   OH2 7001   4.006  -0.060   4.518
 2375TIP3    H1 7002   4.084  -0.113   4.497
 2375TIP3    H2 7003   4.035  -0.021   4.603
 2376TIP3   OH2 7004   4.075  -0.227   2.947
 2376TIP3    H1 7005   4.058  -0.271   3.033
 2376TIP3    H2 7006   4.114  -0.301   2.895
 2377TIP3   OH2 7007   4.264  -0.183   4.121
 2377TIP3    H1 7008   4.205  -0.108   4.148
 2377TIP3    H2 7009   4.332  -0.135   4.071
 2378TIP3   OH2 7010   4.181  -0.433   2.791
 2378TIP3    H1 7011   4.177  -0.485   2.709
 2378TIP3    H2 7012   4.278  -0.413   2.795
 2379TIP3   OH2 7013   4.867   0.242   4.318
 2379TIP3    H1 7014   4.940   0.212   4.264
 2379TIP3    H2 7015   4.861   0.171   4.385
 2380TIP3   OH2 7016   5.006  -0.110   2.440
 2380TIP3    H1 7017   5.003  -0.159   2.356
 2380TIP3    H2 7018   4.967  -0.023   2.413
 2381TIP3   OH2 7019   4.507  -0.213   4.301
 2381TIP3    H1 7020   4.529  -0.298   4.348
 2381TIP3    H2 7021   4.433  -0.236   4.246
 2382TIP3   OH2 7022   4.495  -0.061   3.985
 2382TIP3    H1 7023   4.578  -0.052   3.936
 2382TIP3    H2 7024   4.442   0.012   3.948
 2383TIP3   OH2 7025   5.091  -0.073   4.375
 2383TIP3    H1 7026   5.124  -0.163   4.367
 2383TIP3    H2 7027   5.160  -0.019   4.334
 2384TIP3   OH2 7028   5.128   0.163   4.101
 2384TIP3    H1 7029   5.067   0.216   4.045
 2384TIP3    H2 7030   5.214   0.188   4.059
 2385TIP3   OH2 7031   4.314  -0.243   4.539
 2385TIP3    H1 7032   4.242  -0.308   4.528
 2385TIP3    H2 7033   4.380  -0.276   4.478
 2386TIP3   OH2 7034   4.790  -0.220   4.419
 2386TIP3    H1 7035   4.751  -0.226   4.507
 2386TIP3    H2 7036   4.730  -0.275   4.367
 2387TIP3   OH2 7037   3.985   0.626   2.692
 2387TIP3    H1 7038   4.081   0.624   2.674
 2387TIP3    H2 7039   3.954   0.676   2.614
 2388TIP3   OH2 7040   3.476   0.003   2.933
 2388TIP3    H1 7041   3.563   0.040   2.906
 2388TIP3    H2 7042   3.457  -0.058   2.861
 2389TIP3   OH2 7043   3.383   0.619   3.322
 2389TIP3    H1 7044   3.314   0.558   3.289
 2389TIP3    H2 7045   3.421   0.565   3.395
 2390TIP3   OH2 7046   3.527   0.469   3.498
 2390TIP3    H1 7047   3.448   0.432   3.544
 2390TIP3    H2 7048   3.565   0.523   3.569
 2391TIP3   OH2 7049   5.243   0.874   3.309
 2391TIP3    H1 7050   5.271   0.908   3.396
 2391TIP3    H2 7051   5.304   0.918   3.249
 2392TIP3   OH2 7052   5.275   0.895   3.592
 2392TIP3    H1 7053   5.229   0.808   3.586
 2392TIP3    H2 7054   5.349   0.871   3.650
 2393TIP3   OH2 7055   5.322   0.569   4.167
 2393TIP3    H1 7056   5.246   0.578   4.229
 2393TIP3    H2 7057   5.360   0.659   4.170
 2394TIP3   OH2 7058   5.138   0.084   2.785
 2394TIP3    H1 7059   5.208   0.147   2.762
 2394TIP3    H2 7060   5.177   0.042   2.865
 2395TIP3   OH2 7061   5.265  -0.049   2.989
 2395TIP3    H1 7062   5.199  -0.092   3.047
 2395TIP3    H2 7063   5.328  -0.010   3.052
 2396TIP3   OH2 7064   5.319   0.344   3.426
 2396TIP3    H1 7065   5.353   0.277   3.365
 2396TIP3    H2 7066   5.307   0.421   3.366
 2397TIP3   OH2 7067   5.150   0.644   3.618
 2397TIP3    H1 7068   5.079   0.686   3.669
 2397TIP3    H2 7069   5.100   0.595   3.549
 2398TIP3   OH2 7070   5.201  -0.143   2.634
 2398TIP3    H1 7071   5.129  -0.139   2.566
 2398TIP3    H2 7072   5.174  -0.067   2.690
 2399TIP3   OH2 7073   5.074  -0.474   2.588
 2399TIP3    H1 7074   5.064  -0.410   2.515
 2399TIP3    H2 7075   5.038  -0.553   2.545
 2400TIP3   OH2 7076   5.081  -0.192   3.138
 2400TIP3    H1 7077   5.084  -0.289   3.136
 2400TIP3    H2 7078   5.065  -0.174   3.233
 2401TIP3   OH2 7079   3.700  -0.129   3.881
 2401TIP3    H1 7080   3.693  -0.154   3.787
 2401TIP3    H2 7081   3.797  -0.114   3.889
 2402TIP3   OH2 7082   5.371   0.227   3.993
 2402TIP3    H1 7083   5.445   0.164   3.978
 2402TIP3    H2 7084   5.392   0.299   3.931
 2403TIP3   OH2 7085   5.557   0.027   4.007
 2403TIP3    H1 7086   5.487  -0.020   4.057
 2403TIP3    H2 7087   5.636  -0.019   4.038
 2404TIP3   OH2 7088   5.061  -0.474   2.986
 2404TIP3    H1 7089   5.108  -0.512   3.063
 2404TIP3    H2 7090   5.135  -0.441   2.931
 2405TIP3   OH2 7091   5.242  -0.270   3.531
 2405TIP3    H1 7092   5.331  -0.261   3.492
 2405TIP3    H2 7093   5.260  -0.251   3.624
 2406TIP3   OH2 7094   5.302  -0.156   3.782
 2406TIP3    H1 7095   5.218  -0.114   3.811
 2406TIP3    H2 7096   5.339  -0.084   3.726
 2407TIP3   OH2 7097   3.700  -0.463   3.966
 2407TIP3    H1 7098   3.745  -0.473   3.881
 2407TIP3    H2 7099   3.710  -0.368   3.980
 2408TIP3   OH2 7100   4.829   0.739   2.969
 2408TIP3    H1 7101   4.878   0.722   2.886
 2408TIP3    H2 7102   4.884   0.807   3.011
 2409TIP3   OH2 7103   3.935   0.520   4.357
 2409TIP3    H1 7104   3.840   0.512   4.344
 2409TIP3    H2 7105   3.937   0.580   4.435
 2410TIP3   OH2 7106   4.108   0.572   3.902
 2410TIP3    H1 7107   4.054   0.645   3.866
 2410TIP3    H2 7108   4.192   0.591   3.856
 2411TIP3   OH2 7109   4.555   0.819   4.039
 2411TIP3    H1 7110   4.594   0.823   4.129
 2411TIP3    H2 7111   4.620   0.872   3.988
 2412TIP3   OH2 7112   4.732   0.972   3.896
 2412TIP3    H1 7113   4.803   0.920   3.857
 2412TIP3    H2 7114   4.783   1.029   3.958
 2413TIP3   OH2 7115   3.787   0.839   3.923
 2413TIP3    H1 7116   3.697   0.871   3.902
 2413TIP3    H2 7117   3.790   0.856   4.018
 2414TIP3   OH2 7118   4.022   0.813   3.781
 2414TIP3    H1 7119   3.937   0.825   3.829
 2414TIP3    H2 7120   3.998   0.845   3.692
 2415TIP3   OH2 7121   4.448   0.843   3.578
 2415TIP3    H1 7122   4.377   0.863   3.515
 2415TIP3    H2 7123   4.459   0.930   3.623
 2416TIP3   OH2 7124   4.715   0.783   3.630
 2416TIP3    H1 7125   4.620   0.796   3.612
 2416TIP3    H2 7126   4.754   0.861   3.589
 2417TIP3   OH2 7127   4.928   0.976   3.548
 2417TIP3    H1 7128   4.910   1.059   3.499
 2417TIP3    H2 7129   4.949   0.914   3.475
 2418TIP3   OH2 7130   3.701   0.633   3.668
 2418TIP3    H1 7131   3.723   0.607   3.761
 2418TIP3    H2 7132   3.771   0.584   3.620
 2419TIP3   OH2 7133   3.890   0.498   3.522
 2419TIP3    H1 7134   3.904   0.415   3.573
 2419TIP3    H2 7135   3.981   0.535   3.522
 2420TIP3   OH2 7136   4.156   0.595   3.526
 2420TIP3    H1 7137   4.186   0.503   3.515
 2420TIP3    H2 7138   4.196   0.616   3.613
 2421TIP3   OH2 7139   3.485   0.402   3.050
 2421TIP3    H1 7140   3.401   0.356   3.063
 2421TIP3    H2 7141   3.463   0.492   3.075
 2422TIP3   OH2 7142   4.254   0.591   2.643
 2422TIP3    H1 7143   4.343   0.613   2.606
 2422TIP3    H2 7144   4.233   0.515   2.584
 2423TIP3   OH2 7145   4.974   0.705   2.736
 2423TIP3    H1 7146   4.966   0.608   2.722
 2423TIP3    H2 7147   4.928   0.738   2.655
 2424TIP3   OH2 7148   3.560   0.426   2.707
 2424TIP3    H1 7149   3.564   0.443   2.802
 2424TIP3    H2 7150   3.646   0.382   2.691
 2425TIP3   OH2 7151   5.202   0.850   3.924
 2425TIP3    H1 7152   5.123   0.817   3.877
 2425TIP3    H2 7153   5.181   0.946   3.926
 2426TIP3   OH2 7154   6.467   0.226   2.695
 2426TIP3    H1 7155   6.440   0.318   2.673
 2426TIP3    H2 7156   6.387   0.177   2.671
 2427TIP3   OH2 7157   6.486   0.216   3.062
 2427TIP3    H1 7158   6.489   0.183   3.153
 2427TIP3    H2 7159   6.425   0.153   3.021
 2428TIP3   OH2 7160   5.724   0.222   3.394
 2428TIP3    H1 7161   5.726   0.271   3.309
 2428TIP3    H2 7162   5.817   0.199   3.404
 2429TIP3   OH2 7163   6.708   0.523   2.750
 2429TIP3    H1 7164   6.692   0.452   2.812
 2429TIP3    H2 7165   6.732   0.597   2.808
 2430TIP3   OH2 7166   5.738   0.533   3.164
 2430TIP3    H1 7167   5.725   0.438   3.142
 2430TIP3    H2 7168   5.834   0.535   3.166
 2431TIP3   OH2 7169   5.436  -0.277   2.955
 2431TIP3    H1 7170   5.389  -0.193   2.967
 2431TIP3    H2 7171   5.372  -0.325   2.897
 2432TIP3   OH2 7172   5.508   0.018   3.117
 2432TIP3    H1 7173   5.558  -0.058   3.153
 2432TIP3    H2 7174   5.568   0.048   3.046
 2433TIP3   OH2 7175   6.363   0.992   2.773
 2433TIP3    H1 7176   6.412   0.923   2.722
 2433TIP3    H2 7177   6.348   0.946   2.857
 2434TIP3   OH2 7178   6.273   0.434   3.149
 2434TIP3    H1 7179   6.263   0.397   3.061
 2434TIP3    H2 7180   6.361   0.475   3.144
 2435TIP3   OH2 7181   6.679  -0.043   3.154
 2435TIP3    H1 7182   6.716  -0.130   3.170
 2435TIP3    H2 7183   6.644  -0.051   3.063
 2436TIP3   OH2 7184   5.650  -0.191   3.227
 2436TIP3    H1 7185   5.730  -0.219   3.277
 2436TIP3    H2 7186   5.665  -0.244   3.145
 2437TIP3   OH2 7187   6.095   0.010   3.021
 2437TIP3    H1 7188   6.184  -0.027   3.036
 2437TIP3    H2 7189   6.046  -0.070   2.989
 2438TIP3   OH2 7190   7.331  -0.044   3.300
 2438TIP3    H1 7191   7.260   0.022   3.285
 2438TIP3    H2 7192   7.367  -0.018   3.387
 2439TIP3   OH2 7193   6.368   0.448   2.556
 2439TIP3    H1 7194   6.310   0.417   2.485
 2439TIP3    H2 7195   6.325   0.532   2.579
 2440TIP3   OH2 7196   6.116   0.358   3.357
 2440TIP3    H1 7197   6.056   0.429   3.386
 2440TIP3    H2 7198   6.164   0.401   3.282
 2441TIP3   OH2 7199   5.890  -0.284   3.327
 2441TIP3    H1 7200   5.957  -0.215   3.344
 2441TIP3    H2 7201   5.925  -0.327   3.247
 2442TIP3   OH2 7202   5.944   0.561   3.443
 2442TIP3    H1 7203   5.916   0.646   3.406
 2442TIP3    H2 7204   5.867   0.542   3.501
 2443TIP3   OH2 7205   5.346   0.254   2.680
 2443TIP3    H1 7206   5.290   0.285   2.607
 2443TIP3    H2 7207   5.371   0.338   2.723
 2444TIP3   OH2 7208   6.783   0.767   2.925
 2444TIP3    H1 7209   6.693   0.756   2.963
 2444TIP3    H2 7210   6.771   0.850   2.875
 2445TIP3   OH2 7211   6.500   0.819   2.613
 2445TIP3    H1 7212   6.541   0.736   2.580
 2445TIP3    H2 7213   6.547   0.883   2.555
 2446TIP3   OH2 7214   6.627   0.601   2.496
 2446TIP3    H1 7215   6.578   0.525   2.463
 2446TIP3    H2 7216   6.662   0.566   2.581
 2447TIP3   OH2 7217   7.007   0.679   3.266
 2447TIP3    H1 7218   6.996   0.603   3.205
 2447TIP3    H2 7219   6.994   0.755   3.206
 2448TIP3   OH2 7220   6.296   0.075   2.521
 2448TIP3    H1 7221   6.210   0.120   2.508
 2448TIP3    H2 7222   6.331   0.075   2.431
 2449TIP3   OH2 7223   6.256  -0.067   2.255
 2449TIP3    H1 7224   6.337  -0.080   2.308
 2449TIP3    H2 7225   6.253  -0.150   2.205
 2450TIP3   OH2 7226   7.202   0.314   3.111
 2450TIP3    H1 7227   7.118   0.366   3.117
 2450TIP3    H2 7228   7.224   0.332   3.017
 2451TIP3   OH2 7229   6.648   0.160   2.505
 2451TIP3    H1 7230   6.595   0.185   2.584
 2451TIP3    H2 7231   6.733   0.133   2.546
 2452TIP3   OH2 7232   6.875   0.203   3.386
 2452TIP3    H1 7233   6.868   0.285   3.436
 2452TIP3    H2 7234   6.788   0.201   3.341
 2453TIP3   OH2 7235   5.852   0.117   2.913
 2453TIP3    H1 7236   5.836   0.075   2.828
 2453TIP3    H2 7237   5.948   0.102   2.926
 2454TIP3   OH2 7238   6.007   0.122   3.263
 2454TIP3    H1 7239   6.041   0.103   3.173
 2454TIP3    H2 7240   6.052   0.206   3.285
 2455TIP3   OH2 7241   6.541   0.765   3.041
 2455TIP3    H1 7242   6.524   0.842   3.098
 2455TIP3    H2 7243   6.529   0.689   3.101
 2456TIP3   OH2 7244   6.148   0.684   3.586
 2456TIP3    H1 7245   6.086   0.746   3.630
 2456TIP3    H2 7246   6.084   0.629   3.536
 2457TIP3   OH2 7247   6.509   0.036   2.318
 2457TIP3    H1 7248   6.559   0.074   2.394
 2457TIP3    H2 7249   6.493   0.118   2.267
 2458TIP3   OH2 7250   5.893   0.240   3.691
 2458TIP3    H1 7251   5.907   0.327   3.734
 2458TIP3    H2 7252   5.795   0.237   3.689
 2459TIP3   OH2 7253   6.238   0.709   2.556
 2459TIP3    H1 7254   6.294   0.750   2.625
 2459TIP3    H2 7255   6.149   0.728   2.587
 2460TIP3   OH2 7256   5.945   0.854   3.674
 2460TIP3    H1 7257   5.910   0.850   3.583
 2460TIP3    H2 7258   5.866   0.831   3.728
 2461TIP3   OH2 7259   5.749  -0.014   2.685
 2461TIP3    H1 7260   5.669   0.028   2.647
 2461TIP3    H2 7261   5.712  -0.091   2.731
 2462TIP3   OH2 7262   6.798   0.623   1.905
 2462TIP3    H1 7263   6.805   0.720   1.897
 2462TIP3    H2 7264   6.882   0.595   1.862
 2463TIP3   OH2 7265   5.523   0.383   3.622
 2463TIP3    H1 7266   5.457   0.364   3.552
 2463TIP3    H2 7267   5.560   0.294   3.641
 2464TIP3   OH2 7268   5.379   0.572   3.257
 2464TIP3    H1 7269   5.474   0.571   3.243
 2464TIP3    H2 7270   5.367   0.655   3.307
 2465TIP3   OH2 7271   7.241   1.025   3.306
 2465TIP3    H1 7272   7.243   0.928   3.318
 2465TIP3    H2 7273   7.158   1.047   3.354
 2466TIP3   OH2 7274   6.349   0.811   3.444
 2466TIP3    H1 7275   6.349   0.904   3.476
 2466TIP3    H2 7276   6.276   0.773   3.498
 2467TIP3   OH2 7277   5.544   0.791   2.780
 2467TIP3    H1 7278   5.597   0.779   2.862
 2467TIP3    H2 7279   5.487   0.712   2.786
 2468TIP3   OH2 7280   6.308   0.848   2.030
 2468TIP3    H1 7281   6.368   0.777   1.998
 2468TIP3    H2 7282   6.337   0.856   2.123
 2469TIP3   OH2 7283   6.347   0.892   2.306
 2469TIP3    H1 7284   6.266   0.918   2.354
 2469TIP3    H2 7285   6.390   0.838   2.374
 2470TIP3   OH2 7286   5.729   0.566   3.612
 2470TIP3    H1 7287   5.779   0.547   3.695
 2470TIP3    H2 7288   5.656   0.501   3.618
 2471TIP3   OH2 7289   6.818   0.031   3.605
 2471TIP3    H1 7290   6.838  -0.063   3.589
 2471TIP3    H2 7291   6.831   0.070   3.517
 2472TIP3   OH2 7292   6.066  -0.089   3.430
 2472TIP3    H1 7293   5.989  -0.071   3.488
 2472TIP3    H2 7294   6.054  -0.016   3.363
 2473TIP3   OH2 7295   5.935  -0.193   2.922
 2473TIP3    H1 7296   5.856  -0.240   2.952
 2473TIP3    H2 7297   5.956  -0.243   2.840
 2474TIP3   OH2 7298   6.433  -0.116   2.665
 2474TIP3    H1 7299   6.381  -0.047   2.619
 2474TIP3    H2 7300   6.484  -0.154   2.590
 2475TIP3   OH2 7301   6.628   0.210   3.713
 2475TIP3    H1 7302   6.604   0.145   3.782
 2475TIP3    H2 7303   6.706   0.165   3.674
 2476TIP3   OH2 7304   6.599  -0.092   2.893
 2476TIP3    H1 7305   6.536  -0.065   2.822
 2476TIP3    H2 7306   6.629  -0.177   2.857
 2477TIP3   OH2 7307   5.876  -0.048   3.624
 2477TIP3    H1 7308   5.848   0.041   3.653
 2477TIP3    H2 7309   5.809  -0.106   3.660
 2478TIP3   OH2 7310   6.611   0.153   3.326
 2478TIP3    H1 7311   6.635   0.083   3.261
 2478TIP3    H2 7312   6.566   0.099   3.394
 2479TIP3   OH2 7313   5.701  -0.335   2.997
 2479TIP3    H1 7314   5.606  -0.319   2.974
 2479TIP3    H2 7315   5.710  -0.429   2.977
 2480TIP3   OH2 7316   5.988  -0.321   2.687
 2480TIP3    H1 7317   6.078  -0.335   2.652
 2480TIP3    H2 7318   5.932  -0.322   2.607
 2481TIP3   OH2 7319   5.809  -0.307   2.466
 2481TIP3    H1 7320   5.730  -0.345   2.424
 2481TIP3    H2 7321   5.852  -0.262   2.391
 2482TIP3   OH2 7322   6.932   1.377   3.408
 2482TIP3    H1 7323   6.932   1.398   3.313
 2482TIP3    H2 7324   7.012   1.424   3.439
 2483TIP3   OH2 7325   5.888   0.490   3.832
 2483TIP3    H1 7326   5.969   0.519   3.880
 2483TIP3    H2 7327   5.824   0.489   3.905
 2484TIP3   OH2 7328   6.362  -0.059   3.097
 2484TIP3    H1 7329   6.418  -0.113   3.040
 2484TIP3    H2 7330   6.357  -0.112   3.178
 2485TIP3   OH2 7331   6.334  -0.170   3.376
 2485TIP3    H1 7332   6.245  -0.134   3.392
 2485TIP3    H2 7333   6.390  -0.118   3.436
 2486TIP3   OH2 7334   6.067   0.232   2.477
 2486TIP3    H1 7335   5.994   0.167   2.467
 2486TIP3    H2 7336   6.048   0.270   2.565
 2487TIP3   OH2 7337   6.970   0.461   3.102
 2487TIP3    H1 7338   6.992   0.510   3.020
 2487TIP3    H2 7339   6.884   0.418   3.078
 2488TIP3   OH2 7340   6.489   0.556   3.469
 2488TIP3    H1 7341   6.467   0.507   3.548
 2488TIP3    H2 7342   6.429   0.632   3.472
 2489TIP3   OH2 7343   6.586  -0.204   2.455
 2489TIP3    H1 7344   6.682  -0.215   2.473
 2489TIP3    H2 7345   6.583  -0.124   2.399
 2490TIP3   OH2 7346   5.773   0.265   3.126
 2490TIP3    H1 7347   5.798   0.255   3.031
 2490TIP3    H2 7348   5.816   0.184   3.158
 2491TIP3   OH2 7349   6.213   0.375   2.287
 2491TIP3    H1 7350   6.167   0.462   2.294
 2491TIP3    H2 7351   6.160   0.322   2.351
 2492TIP3   OH2 7352   5.635   0.166   3.757
 2492TIP3    H1 7353   5.658   0.153   3.851
 2492TIP3    H2 7354   5.559   0.105   3.746
 2493TIP3   OH2 7355   6.378   0.331   3.755
 2493TIP3    H1 7356   6.320   0.273   3.696
 2493TIP3    H2 7357   6.464   0.285   3.733
 2494TIP3   OH2 7358   6.632   0.818   3.356
 2494TIP3    H1 7359   6.537   0.799   3.370
 2494TIP3    H2 7360   6.655   0.862   3.441
 2495TIP3   OH2 7361   7.262   0.744   3.351
 2495TIP3    H1 7362   7.167   0.722   3.354
 2495TIP3    H2 7363   7.284   0.705   3.264
 2496TIP3   OH2 7364   6.727   0.695   2.173
 2496TIP3    H1 7365   6.725   0.630   2.245
 2496TIP3    H2 7366   6.765   0.645   2.099
 2497TIP3   OH2 7367   6.738   0.323   3.024
 2497TIP3    H1 7368   6.644   0.295   3.034
 2497TIP3    H2 7369   6.772   0.246   2.975
 2498TIP3   OH2 7370   5.426  -0.149   2.474
 2498TIP3    H1 7371   5.470  -0.064   2.495
 2498TIP3    H2 7372   5.346  -0.142   2.531
 2499TIP3   OH2 7373   6.129   0.895   3.240
 2499TIP3    H1 7374   6.168   0.968   3.189
 2499TIP3    H2 7375   6.206   0.860   3.287
 2500TIP3   OH2 7376   5.765   0.806   2.596
 2500TIP3    H1 7377   5.697   0.790   2.663
 2500TIP3    H2 7378   5.797   0.895   2.621
 2501TIP3   OH2 7379   6.533   0.535   3.197
 2501TIP3    H1 7380   6.520   0.530   3.294
 2501TIP3    H2 7381   6.599   0.466   3.181
 2502TIP3   OH2 7382   6.447   0.416   2.108
 2502TIP3    H1 7383   6.517   0.398   2.173
 2502TIP3    H2 7384   6.368   0.410   2.165
 2503TIP3   OH2 7385   6.768   1.068   3.253
 2503TIP3    H1 7386   6.693   1.005   3.249
 2503TIP3    H2 7387   6.748   1.128   3.178
 2504TIP3   OH2 7388   6.831   0.902   1.899
 2504TIP3    H1 7389   6.874   0.979   1.859
 2504TIP3    H2 7390   6.750   0.944   1.933
 2505TIP3   OH2 7391   6.636   0.344   2.295
 2505TIP3    H1 7392   6.642   0.292   2.377
 2505TIP3    H2 7393   6.732   0.352   2.275
 2506TIP3   OH2 7394   5.569   0.763   3.400
 2506TIP3    H1 7395   5.618   0.683   3.424
 2506TIP3    H2 7396   5.601   0.824   3.468
 2507TIP3   OH2 7397   5.821   0.395   2.086
 2507TIP3    H1 7398   5.866   0.318   2.047
 2507TIP3    H2 7399   5.848   0.389   2.180
 2508TIP3   OH2 7400   5.807   0.409   2.361
 2508TIP3    H1 7401   5.870   0.383   2.430
 2508TIP3    H2 7402   5.810   0.507   2.369
 2509TIP3   OH2 7403   5.535   0.100   2.554
 2509TIP3    H1 7404   5.469   0.146   2.611
 2509TIP3    H2 7405   5.580   0.175   2.513
 2510TIP3   OH2 7406   6.064   0.604   2.290
 2510TIP3    H1 7407   5.986   0.633   2.341
 2510TIP3    H2 7408   6.087   0.688   2.247
 2511TIP3   OH2 7409   6.279  -0.336   2.714
 2511TIP3    H1 7410   6.322  -0.249   2.699
 2511TIP3    H2 7411   6.240  -0.325   2.802
 2512TIP3   OH2 7412   6.521  -0.020   3.523
 2512TIP3    H1 7413   6.515   0.045   3.595
 2512TIP3    H2 7414   6.605  -0.064   3.540
 2513TIP3   OH2 7415   5.799   0.678   2.361
 2513TIP3    H1 7416   5.779   0.754   2.302
 2513TIP3    H2 7417   5.787   0.720   2.449
 2514TIP3   OH2 7418   6.818   0.088   2.891
 2514TIP3    H1 7419   6.745   0.025   2.904
 2514TIP3    H2 7420   6.893   0.043   2.938
 2515TIP3   OH2 7421   5.538   0.347   2.322
 2515TIP3    H1 7422   5.606   0.385   2.382
 2515TIP3    H2 7423   5.582   0.262   2.298
 2516TIP3   OH2 7424   5.453  -0.428   2.495
 2516TIP3    H1 7425   5.483  -0.335   2.495
 2516TIP3    H2 7426   5.359  -0.415   2.510
 2517TIP3   OH2 7427   6.788   1.044   2.844
 2517TIP3    H1 7428   6.742   1.088   2.770
 2517TIP3    H2 7429   6.881   1.064   2.820
 2518TIP3   OH2 7430   5.398   0.524   2.757
 2518TIP3    H1 7431   5.319   0.562   2.798
 2518TIP3    H2 7432   5.392   0.563   2.668
 2519TIP3   OH2 7433   5.557   1.065   3.820
 2519TIP3    H1 7434   5.643   1.062   3.867
 2519TIP3    H2 7435   5.534   0.970   3.818
 2520TIP3   OH2 7436   6.046   1.036   3.863
 2520TIP3    H1 7437   6.139   1.010   3.871
 2520TIP3    H2 7438   6.017   0.977   3.790
 2521TIP3   OH2 7439   6.014   0.606   1.990
 2521TIP3    H1 7440   5.968   0.538   2.041
 2521TIP3    H2 7441   6.095   0.558   1.962
 2522TIP3   OH2 7442   6.680   0.941   3.599
 2522TIP3    H1 7443   6.670   0.870   3.666
 2522TIP3    H2 7444   6.759   0.989   3.630
 2523TIP3   OH2 7445   6.466   0.656   1.913
 2523TIP3    H1 7446   6.522   0.604   1.972
 2523TIP3    H2 7447   6.519   0.659   1.830
 2524TIP3   OH2 7448   5.690   0.473   4.023
 2524TIP3    H1 7449   5.706   0.377   4.025
 2524TIP3    H2 7450   5.602   0.476   3.979
 2525TIP3   OH2 7451   5.671   0.135   2.221
 2525TIP3    H1 7452   5.722   0.090   2.291
 2525TIP3    H2 7453   5.735   0.127   2.146
 2526TIP3   OH2 7454   6.295   0.581   3.797
 2526TIP3    H1 7455   6.247   0.597   3.712
 2526TIP3    H2 7456   6.335   0.495   3.782
 2527TIP3   OH2 7457   6.145   0.320   2.026
 2527TIP3    H1 7458   6.171   0.327   2.120
 2527TIP3    H2 7459   6.150   0.224   2.010
 2528TIP3   OH2 7460   6.793   0.563   3.407
 2528TIP3    H1 7461   6.855   0.617   3.355
 2528TIP3    H2 7462   6.710   0.612   3.393
 2529TIP3   OH2 7463   5.804   0.201   4.007
 2529TIP3    H1 7464   5.879   0.145   3.985
 2529TIP3    H2 7465   5.831   0.235   4.095
 2530TIP3   OH2 7466   5.869   0.040   2.440
 2530TIP3    H1 7467   5.842   0.002   2.526
 2530TIP3    H2 7468   5.905  -0.039   2.394
 2531TIP3   OH2 7469   6.128  -0.043   3.733
 2531TIP3    H1 7470   6.041  -0.006   3.755
 2531TIP3    H2 7471   6.116  -0.049   3.637
 2532TIP3   OH2 7472   5.969  -0.162   2.284
 2532TIP3    H1 7473   5.961  -0.246   2.233
 2532TIP3    H2 7474   6.053  -0.127   2.251
 2533TIP3   OH2 7475   6.676   0.501   3.815
 2533TIP3    H1 7476   6.724   0.470   3.736
 2533TIP3    H2 7477   6.641   0.418   3.850
 2534TIP3   OH2 7478   6.373   0.037   3.787
 2534TIP3    H1 7479   6.362   0.007   3.873
 2534TIP3    H2 7480   6.279   0.033   3.751
 2535TIP3   OH2 7481   6.320   0.222   3.482
 2535TIP3    H1 7482   6.373   0.212   3.404
 2535TIP3    H2 7483   6.240   0.266   3.446
 2536TIP3   OH2 7484   6.919   0.185   3.888
 2536TIP3    H1 7485   6.901   0.097   3.850
 2536TIP3    H2 7486   6.952   0.233   3.812
 2537TIP3   OH2 7487   6.937   0.425   3.579
 2537TIP3    H1 7488   6.864   0.475   3.535
 2537TIP3    H2 7489   7.005   0.442   3.513
 2538TIP3   OH2 7490   6.129   0.008   4.024
 2538TIP3    H1 7491   6.052  -0.051   4.035
 2538TIP3    H2 7492   6.163  -0.025   3.940
 2539TIP3   OH2 7493   6.613   0.035   3.913
 2539TIP3    H1 7494   6.561   0.022   3.994
 2539TIP3    H2 7495   6.571  -0.030   3.855
 2540TIP3   OH2 7496   5.775   0.875   2.165
 2540TIP3    H1 7497   5.873   0.875   2.167
 2540TIP3    H2 7498   5.760   0.937   2.092
 2541TIP3   OH2 7499   5.262   0.269   2.385
 2541TIP3    H1 7500   5.357   0.287   2.376
 2541TIP3    H2 7501   5.255   0.176   2.353
 2542TIP3   OH2 7502   5.175   0.880   2.810
 2542TIP3    H1 7503   5.108   0.817   2.775
 2542TIP3    H2 7504   5.220   0.824   2.877
 2543TIP3   OH2 7505   5.310   0.735   2.998
 2543TIP3    H1 7506   5.301   0.657   3.053
 2543TIP3    H2 7507   5.362   0.793   3.056
 2544TIP3   OH2 7508   7.036   1.149   2.793
 2544TIP3    H1 7509   7.070   1.162   2.884
 2544TIP3    H2 7510   7.115   1.165   2.738
 2545TIP3   OH2 7511   7.074   1.150   3.077
 2545TIP3    H1 7512   7.026   1.064   3.075
 2545TIP3    H2 7513   7.147   1.126   3.135
 2546TIP3   OH2 7514   7.115   0.815   3.658
 2546TIP3    H1 7515   7.041   0.830   3.720
 2546TIP3    H2 7516   7.159   0.901   3.657
 2547TIP3   OH2 7517   6.910   0.350   2.284
 2547TIP3    H1 7518   6.973   0.416   2.251
 2547TIP3    H2 7519   6.967   0.294   2.340
 2548TIP3   OH2 7520   7.057   0.201   2.475
 2548TIP3    H1 7521   6.991   0.158   2.534
 2548TIP3    H2 7522   7.121   0.239   2.538
 2549TIP3   OH2 7523   7.114   0.601   2.912
 2549TIP3    H1 7524   7.157   0.532   2.857
 2549TIP3    H2 7525   7.098   0.672   2.848
 2550TIP3   OH2 7526   6.947   0.901   3.105
 2550TIP3    H1 7527   6.875   0.938   3.159
 2550TIP3    H2 7528   6.898   0.850   3.037
 2551TIP3   OH2 7529   6.874   0.060   2.626
 2551TIP3    H1 7530   6.882  -0.036   2.621
 2551TIP3    H2 7531   6.859   0.075   2.722
 2552TIP3   OH2 7532   5.479   0.101   3.380
 2552TIP3    H1 7533   5.477   0.079   3.284
 2552TIP3    H2 7534   5.568   0.143   3.387
 2553TIP3   OH2 7535   7.038  -0.012   3.017
 2553TIP3    H1 7536   7.128  -0.003   2.979
 2553TIP3    H2 7537   7.056   0.003   3.111
 2554TIP3   OH2 7538   7.102   0.104   3.265
 2554TIP3    H1 7539   7.019   0.144   3.299
 2554TIP3    H2 7540   7.133   0.175   3.204
 2555TIP3   OH2 7541   5.496  -0.204   3.455
 2555TIP3    H1 7542   5.540  -0.223   3.370
 2555TIP3    H2 7543   5.506  -0.108   3.458
 2556TIP3   OH2 7544   6.627   0.996   2.452
 2556TIP3    H1 7545   6.675   0.975   2.370
 2556TIP3    H2 7546   6.689   1.053   2.498
 2557TIP3   OH2 7547   5.726   0.801   3.844
 2557TIP3    H1 7548   5.635   0.772   3.823
 2557TIP3    H2 7549   5.732   0.781   3.938
 2558TIP3   OH2 7550   5.902   0.832   3.391
 2558TIP3    H1 7551   5.852   0.906   3.350
 2558TIP3    H2 7552   5.988   0.847   3.345
 2559TIP3   OH2 7553   6.350   1.079   3.527
 2559TIP3    H1 7554   6.392   1.079   3.615
 2559TIP3    H2 7555   6.416   1.128   3.474
 2560TIP3   OH2 7556   6.528   1.230   3.383
 2560TIP3    H1 7557   6.596   1.174   3.343
 2560TIP3    H2 7558   6.581   1.285   3.444
 2561TIP3   OH2 7559   5.582   1.094   3.409
 2561TIP3    H1 7560   5.493   1.127   3.385
 2561TIP3    H2 7561   5.583   1.116   3.503
 2562TIP3   OH2 7562   5.819   1.072   3.270
 2562TIP3    H1 7563   5.732   1.084   3.315
 2562TIP3    H2 7564   5.797   1.100   3.179
 2563TIP3   OH2 7565   6.242   1.099   3.068
 2563TIP3    H1 7566   6.174   1.116   3.000
 2563TIP3    H2 7567   6.253   1.187   3.108
 2564TIP3   OH2 7568   6.510   1.043   3.120
 2564TIP3    H1 7569   6.415   1.051   3.099
 2564TIP3    H2 7570   6.547   1.118   3.071
 2565TIP3   OH2 7571   6.728   1.237   3.034
 2565TIP3    H1 7572   6.708   1.315   2.980
 2565TIP3    H2 7573   6.748   1.169   2.966
 2566TIP3   OH2 7574   5.491   0.886   3.159
 2566TIP3    H1 7575   5.519   0.859   3.249
 2566TIP3    H2 7576   5.562   0.842   3.106
 2567TIP3   OH2 7577   5.683   0.760   3.013
 2567TIP3    H1 7578   5.700   0.671   3.051
 2567TIP3    H2 7579   5.774   0.794   3.003
 2568TIP3   OH2 7580   5.951   0.856   3.007
 2568TIP3    H1 7581   5.986   0.775   2.966
 2568TIP3    H2 7582   5.998   0.858   3.092
 2569TIP3   OH2 7583   5.278   0.650   2.550
 2569TIP3    H1 7584   5.192   0.621   2.514
 2569TIP3    H2 7585   5.273   0.745   2.530
 2570TIP3   OH2 7586   6.045   0.843   2.120
 2570TIP3    H1 7587   6.137   0.867   2.097
 2570TIP3    H2 7588   6.031   0.764   2.064
 2571TIP3   OH2 7589   6.772   0.959   2.219
 2571TIP3    H1 7590   6.760   0.861   2.207
 2571TIP3    H2 7591   6.724   0.992   2.141
 2572TIP3   OH2 7592   6.996   1.108   3.412
 2572TIP3    H1 7593   6.918   1.074   3.364
 2572TIP3    H2 7594   6.975   1.203   3.414
 2573TIP3   OH2 7595   8.236   0.477   2.544
 2573TIP3    H1 7596   8.284   0.459   2.627
 2573TIP3    H2 7597   8.205   0.390   2.516
 2574TIP3   OH2 7598   7.540   0.471   2.914
 2574TIP3    H1 7599   7.544   0.522   2.831
 2574TIP3    H2 7600   7.632   0.441   2.922
 2575TIP3   OH2 7601   7.525   0.785   2.654
 2575TIP3    H1 7602   7.519   0.687   2.649
 2575TIP3    H2 7603   7.622   0.794   2.638
 2576TIP3   OH2 7604   7.304   0.278   2.602
 2576TIP3    H1 7605   7.366   0.214   2.643
 2576TIP3    H2 7606   7.347   0.296   2.518
 2577TIP3   OH2 7607   8.063   0.697   2.612
 2577TIP3    H1 7608   8.106   0.627   2.559
 2577TIP3    H2 7609   8.144   0.747   2.637
 2578TIP3   OH2 7610   7.468   0.101   2.729
 2578TIP3    H1 7611   7.542   0.062   2.782
 2578TIP3    H2 7612   7.462   0.033   2.659
 2579TIP3   OH2 7613   7.911   0.618   2.838
 2579TIP3    H1 7614   7.850   0.687   2.873
 2579TIP3    H2 7615   7.953   0.666   2.763
 2580TIP3   OH2 7616   7.685  -0.028   2.820
 2580TIP3    H1 7617   7.760   0.026   2.850
 2580TIP3    H2 7618   7.728  -0.096   2.768
 2581TIP3   OH2 7619   7.739   0.814   2.931
 2581TIP3    H1 7620   7.717   0.898   2.886
 2581TIP3    H2 7621   7.660   0.806   2.989
 2582TIP3   OH2 7622   7.090   0.546   2.183
 2582TIP3    H1 7623   7.140   0.491   2.120
 2582TIP3    H2 7624   7.162   0.600   2.219
 2583TIP3   OH2 7625   8.577   1.020   2.399
 2583TIP3    H1 7626   8.491   1.006   2.447
 2583TIP3    H2 7627   8.563   1.111   2.368
 2584TIP3   OH2 7628   8.376   1.090   2.129
 2584TIP3    H1 7629   8.314   1.017   2.107
 2584TIP3    H2 7630   8.355   1.152   2.058
 2585TIP3   OH2 7631   8.678   0.464   2.868
 2585TIP3    H1 7632   8.678   0.528   2.941
 2585TIP3    H2 7633   8.587   0.471   2.836
 2586TIP3   OH2 7634   7.671   0.435   2.409
 2586TIP3    H1 7635   7.619   0.423   2.327
 2586TIP3    H2 7636   7.730   0.358   2.402
 2587TIP3   OH2 7637   7.781   0.794   2.556
 2587TIP3    H1 7638   7.773   0.779   2.461
 2587TIP3    H2 7639   7.877   0.802   2.567
 2588TIP3   OH2 7640   7.807   0.383   2.751
 2588TIP3    H1 7641   7.841   0.384   2.661
 2588TIP3    H2 7642   7.845   0.466   2.787
 2589TIP3   OH2 7643   8.349   1.015   2.536
 2589TIP3    H1 7644   8.295   1.091   2.563
 2589TIP3    H2 7645   8.319   0.944   2.595
 2590TIP3   OH2 7646   7.945   0.938   3.073
 2590TIP3    H1 7647   7.886   1.004   3.117
 2590TIP3    H2 7648   7.879   0.886   3.023
 2591TIP3   OH2 7649   7.684   0.479   3.188
 2591TIP3    H1 7650   7.707   0.565   3.226
 2591TIP3    H2 7651   7.600   0.502   3.143
 2592TIP3   OH2 7652   7.970   0.970   2.122
 2592TIP3    H1 7653   8.027   1.003   2.194
 2592TIP3    H2 7654   7.942   1.049   2.078
 2593TIP3   OH2 7655   7.741   1.109   3.159
 2593TIP3    H1 7656   7.708   1.106   3.067
 2593TIP3    H2 7657   7.661   1.087   3.211
 2594TIP3   OH2 7658   7.320   0.639   3.107
 2594TIP3    H1 7659   7.253   0.619   3.039
 2594TIP3    H2 7660   7.346   0.551   3.139
 2595TIP3   OH2 7661   7.177   0.833   2.739
 2595TIP3    H1 7662   7.272   0.818   2.728
 2595TIP3    H2 7663   7.176   0.906   2.802
 2596TIP3   OH2 7664   8.154   1.065   2.937
 2596TIP3    H1 7665   8.149   1.160   2.963
 2596TIP3    H2 7666   8.076   1.029   2.984
 2597TIP3   OH2 7667   7.881   1.230   1.826
 2597TIP3    H1 7668   7.835   1.145   1.844
 2597TIP3    H2 7669   7.857   1.283   1.905
 2598TIP3   OH2 7670   7.346   1.053   2.269
 2598TIP3    H1 7671   7.394   1.038   2.353
 2598TIP3    H2 7672   7.293   0.970   2.264
 2599TIP3   OH2 7673   7.526   0.821   3.100
 2599TIP3    H1 7674   7.575   0.803   3.183
 2599TIP3    H2 7675   7.451   0.758   3.106
 2600TIP3   OH2 7676   7.859   0.167   2.913
 2600TIP3    H1 7677   7.778   0.184   2.966
 2600TIP3    H2 7678   7.852   0.239   2.847
 2601TIP3   OH2 7679   8.436   0.433   3.173
 2601TIP3    H1 7680   8.419   0.382   3.254
 2601TIP3    H2 7681   8.528   0.458   3.190
 2602TIP3   OH2 7682   7.652   0.214   3.077
 2602TIP3    H1 7683   7.653   0.295   3.132
 2602TIP3    H2 7684   7.617   0.147   3.136
 2603TIP3   OH2 7685   8.392   0.406   2.793
 2603TIP3    H1 7686   8.437   0.325   2.765
 2603TIP3    H2 7687   8.367   0.378   2.884
 2604TIP3   OH2 7688   8.723   1.636   2.891
 2604TIP3    H1 7689   8.726   1.659   2.796
 2604TIP3    H2 7690   8.791   1.695   2.928
 2605TIP3   OH2 7691   7.682   0.740   3.322
 2605TIP3    H1 7692   7.766   0.770   3.363
 2605TIP3    H2 7693   7.621   0.753   3.396
 2606TIP3   OH2 7694   8.121   0.070   2.885
 2606TIP3    H1 7695   8.038   0.122   2.883
 2606TIP3    H2 7696   8.185   0.133   2.922
 2607TIP3   OH2 7697   8.276   0.805   2.956
 2607TIP3    H1 7698   8.274   0.772   3.046
 2607TIP3    H2 7699   8.231   0.891   2.962
 2608TIP3   OH2 7700   7.553   0.508   2.641
 2608TIP3    H1 7701   7.586   0.503   2.548
 2608TIP3    H2 7702   7.593   0.427   2.674
 2609TIP3   OH2 7703   7.407   0.428   3.268
 2609TIP3    H1 7704   7.476   0.377   3.313
 2609TIP3    H2 7705   7.353   0.360   3.224
 2610TIP3   OH2 7706   8.171   0.581   3.238
 2610TIP3    H1 7707   8.121   0.517   3.182
 2610TIP3    H2 7708   8.260   0.540   3.228
 2611TIP3   OH2 7709   8.430   1.056   2.853
 2611TIP3    H1 7710   8.333   1.057   2.859
 2611TIP3    H2 7711   8.454   1.112   2.930
 2612TIP3   OH2 7712   7.655   0.804   2.264
 2612TIP3    H1 7713   7.674   0.881   2.207
 2612TIP3    H2 7714   7.562   0.789   2.246
 2613TIP3   OH2 7715   7.836   0.584   2.239
 2613TIP3    H1 7716   7.792   0.669   2.221
 2613TIP3    H2 7717   7.771   0.542   2.297
 2614TIP3   OH2 7718   7.927   1.147   2.756
 2614TIP3    H1 7719   7.939   1.169   2.661
 2614TIP3    H2 7720   8.018   1.128   2.782
 2615TIP3   OH2 7721   7.577   1.053   2.107
 2615TIP3    H1 7722   7.491   1.052   2.154
 2615TIP3    H2 7723   7.604   1.146   2.121
 2616TIP3   OH2 7724   8.313   0.784   2.688
 2616TIP3    H1 7725   8.305   0.788   2.786
 2616TIP3    H2 7726   8.395   0.736   2.677
 2617TIP3   OH2 7727   8.552   1.317   2.736
 2617TIP3    H1 7728   8.470   1.265   2.722
 2617TIP3    H2 7729   8.543   1.384   2.664
 2618TIP3   OH2 7730   7.361   1.019   2.889
 2618TIP3    H1 7731   7.415   0.941   2.907
 2618TIP3    H2 7732   7.401   1.081   2.951
 2619TIP3   OH2 7733   8.330   0.232   3.000
 2619TIP3    H1 7734   8.328   0.300   3.071
 2619TIP3    H2 7735   8.373   0.158   3.046
 2620TIP3   OH2 7736   7.570   0.950   1.844
 2620TIP3    H1 7737   7.554   1.035   1.801
 2620TIP3    H2 7738   7.578   0.973   1.939
 2621TIP3   OH2 7739   8.606   1.304   2.336
 2621TIP3    H1 7740   8.559   1.343   2.260
 2621TIP3    H2 7741   8.683   1.260   2.293
 2622TIP3   OH2 7742   7.213   0.811   2.246
 2622TIP3    H1 7743   7.125   0.804   2.284
 2622TIP3    H2 7744   7.190   0.827   2.152
 2623TIP3   OH2 7745   7.353   1.322   3.309
 2623TIP3    H1 7746   7.440   1.321   3.354
 2623TIP3    H2 7747   7.333   1.227   3.306
 2624TIP3   OH2 7748   7.835   1.293   3.351
 2624TIP3    H1 7749   7.930   1.277   3.363
 2624TIP3    H2 7750   7.816   1.233   3.275
 2625TIP3   OH2 7751   8.480   1.194   3.085
 2625TIP3    H1 7752   8.467   1.124   3.153
 2625TIP3    H2 7753   8.552   1.248   3.124
 2626TIP3   OH2 7754   7.481   0.734   3.517
 2626TIP3    H1 7755   7.503   0.640   3.516
 2626TIP3    H2 7756   7.397   0.737   3.465
 2627TIP3   OH2 7757   8.094   0.836   3.283
 2627TIP3    H1 7758   8.048   0.852   3.197
 2627TIP3    H2 7759   8.130   0.747   3.271
 2628TIP3   OH2 7760   8.593   0.822   2.882
 2628TIP3    H1 7761   8.638   0.877   2.817
 2628TIP3    H2 7762   8.510   0.872   2.890
 2629TIP3   OH2 7763   7.902   0.228   3.218
 2629TIP3    H1 7764   7.839   0.296   3.249
 2629TIP3    H2 7765   7.895   0.235   3.122
 2630TIP3   OH2 7766   8.454   0.749   3.289
 2630TIP3    H1 7767   8.538   0.731   3.245
 2630TIP3    H2 7768   8.455   0.685   3.362
 2631TIP3   OH2 7769   8.153   0.294   3.275
 2631TIP3    H1 7770   8.153   0.242   3.354
 2631TIP3    H2 7771   8.056   0.294   3.253
 2632TIP3   OH2 7772   8.106   0.467   2.965
 2632TIP3    H1 7773   8.175   0.471   2.898
 2632TIP3    H2 7774   8.037   0.525   2.928
 2633TIP3   OH2 7775   8.681   0.438   3.335
 2633TIP3    H1 7776   8.719   0.350   3.339
 2633TIP3    H2 7777   8.757   0.496   3.319
 2634TIP3   OH2 7778   8.734   0.687   3.068
 2634TIP3    H1 7779   8.667   0.735   3.014
 2634TIP3    H2 7780   8.812   0.701   3.013
 2635TIP3   OH2 7781   7.929   0.258   3.511
 2635TIP3    H1 7782   7.837   0.228   3.522
 2635TIP3    H2 7783   7.957   0.199   3.440
 2636TIP3   OH2 7784   8.400   0.291   3.395
 2636TIP3    H1 7785   8.363   0.283   3.484
 2636TIP3    H2 7786   8.335   0.241   3.343
 2637TIP3   OH2 7787   7.571   1.166   1.674
 2637TIP3    H1 7788   7.651   1.221   1.674
 2637TIP3    H2 7789   7.524   1.204   1.598
 2638TIP3   OH2 7790   6.969   1.134   2.297
 2638TIP3    H1 7791   6.904   1.069   2.262
 2638TIP3    H2 7792   7.016   1.080   2.364
 2639TIP3   OH2 7793   7.102   0.998   2.489
 2639TIP3    H1 7794   7.098   0.914   2.537
 2639TIP3    H2 7795   7.160   1.049   2.548
 2640TIP3   OH2 7796   8.723   1.120   2.618
 2640TIP3    H1 7797   8.652   1.173   2.660
 2640TIP3    H2 7798   8.674   1.075   2.546
 2641TIP3   OH2 7799   7.283   0.380   2.857
 2641TIP3    H1 7800   7.283   0.352   2.763
 2641TIP3    H2 7801   7.376   0.405   2.870
 2642TIP3   OH2 7802   7.292   0.052   2.940
 2642TIP3    H1 7803   7.343   0.043   2.858
 2642TIP3    H2 7804   7.309   0.145   2.961
 2643TIP3   OH2 7805   8.405   1.266   1.922
 2643TIP3    H1 7806   8.473   1.233   1.861
 2643TIP3    H2 7807   8.457   1.323   1.981
 2644TIP3   OH2 7808   7.520   1.058   3.328
 2644TIP3    H1 7809   7.429   1.027   3.312
 2644TIP3    H2 7810   7.532   1.039   3.422
 2645TIP3   OH2 7811   7.693   1.088   2.878
 2645TIP3    H1 7812   7.652   1.165   2.834
 2645TIP3    H2 7813   7.784   1.100   2.841
 2646TIP3   OH2 7814   8.145   1.335   3.014
 2646TIP3    H1 7815   8.188   1.336   3.102
 2646TIP3    H2 7816   8.210   1.385   2.960
 2647TIP3   OH2 7817   8.325   1.484   2.871
 2647TIP3    H1 7818   8.395   1.432   2.830
 2647TIP3    H2 7819   8.376   1.541   2.931
 2648TIP3   OH2 7820   7.373   1.350   2.894
 2648TIP3    H1 7821   7.284   1.387   2.878
 2648TIP3    H2 7822   7.386   1.373   2.987
 2649TIP3   OH2 7823   7.611   1.326   2.757
 2649TIP3    H1 7824   7.524   1.339   2.801
 2649TIP3    H2 7825   7.593   1.357   2.666
 2650TIP3   OH2 7826   8.293   1.297   2.603
 2650TIP3    H1 7827   8.204   1.284   2.565
 2650TIP3    H2 7828   8.318   1.382   2.567
 2651TIP3   OH2 7829   8.524   1.488   2.527
 2651TIP3    H1 7830   8.500   1.570   2.480
 2651TIP3    H2 7831   8.545   1.426   2.454
 2652TIP3   OH2 7832   7.290   1.144   2.647
 2652TIP3    H1 7833   7.319   1.116   2.737
 2652TIP3    H2 7834   7.361   1.100   2.594
 2653TIP3   OH2 7835   7.485   1.012   2.504
 2653TIP3    H1 7836   7.492   0.925   2.548
 2653TIP3    H2 7837   7.579   1.035   2.498
 2654TIP3   OH2 7838   7.079   0.908   2.029
 2654TIP3    H1 7839   6.994   0.869   2.000
 2654TIP3    H2 7840   7.058   1.002   2.023
 2655TIP3   OH2 7841   7.177   0.970   1.697
 2655TIP3    H1 7842   7.149   0.987   1.788
 2655TIP3    H2 7843   7.247   0.902   1.710
 2656TIP3   OH2 7844   8.764   1.367   2.908
 2656TIP3    H1 7845   8.696   1.326   2.850
 2656TIP3    H2 7846   8.739   1.461   2.899
 2657TIP3   OH2 7847   0.960   1.555   3.936
 2657TIP3    H1 7848   0.953   1.496   4.013
 2657TIP3    H2 7849   0.981   1.639   3.979
 2658TIP3   OH2 7850   0.607   2.031   3.943
 2658TIP3    H1 7851   0.647   1.953   3.902
 2658TIP3    H2 7852   0.587   1.999   4.032
 2659TIP3   OH2 7853   0.516   1.489   4.318
 2659TIP3    H1 7854   0.525   1.442   4.235
 2659TIP3    H2 7855   0.606   1.525   4.331
 2660TIP3   OH2 7856   1.522   0.813   4.295
 2660TIP3    H1 7857   1.555   0.895   4.337
 2660TIP3    H2 7858   1.550   0.827   4.202
 2661TIP3   OH2 7859   1.599   1.020   4.464
 2661TIP3    H1 7860   1.516   1.069   4.447
 2661TIP3    H2 7861   1.615   1.045   4.556
 2662TIP3   OH2 7862   0.369   1.411   4.537
 2662TIP3    H1 7863   0.301   1.477   4.564
 2662TIP3    H2 7864   0.410   1.453   4.459
 2663TIP3   OH2 7865   0.188   1.607   4.621
 2663TIP3    H1 7866   0.164   1.695   4.587
 2663TIP3    H2 7867   0.109   1.587   4.676
 2664TIP3   OH2 7868   1.029   1.810   4.091
 2664TIP3    H1 7869   0.943   1.799   4.137
 2664TIP3    H2 7870   1.017   1.900   4.054
 2665TIP3   OH2 7871   1.318   0.711   4.458
 2665TIP3    H1 7872   1.241   0.767   4.444
 2665TIP3    H2 7873   1.379   0.742   4.387
 2666TIP3   OH2 7874   0.745   1.851   3.786
 2666TIP3    H1 7875   0.828   1.802   3.789
 2666TIP3    H2 7876   0.764   1.915   3.716
 2667TIP3   OH2 7877   1.254   1.729   4.440
 2667TIP3    H1 7878   1.244   1.649   4.384
 2667TIP3    H2 7879   1.239   1.801   4.376
 2668TIP3   OH2 7880   1.449   1.361   4.285
 2668TIP3    H1 7881   1.367   1.414   4.292
 2668TIP3    H2 7882   1.477   1.382   4.194
 2669TIP3   OH2 7883   1.134   1.245   4.579
 2669TIP3    H1 7884   1.128   1.327   4.632
 2669TIP3    H2 7885   1.044   1.244   4.538
 2670TIP3   OH2 7886   0.794   1.806   4.219
 2670TIP3    H1 7887   0.774   1.886   4.270
 2670TIP3    H2 7888   0.775   1.734   4.281
 2671TIP3   OH2 7889   0.399   1.727   4.762
 2671TIP3    H1 7890   0.339   1.790   4.809
 2671TIP3    H2 7891   0.334   1.672   4.714
 2672TIP3   OH2 7892   0.149   1.289   4.852
 2672TIP3    H1 7893   0.149   1.372   4.902
 2672TIP3    H2 7894   0.056   1.272   4.837
 2673TIP3   OH2 7895   0.192   1.895   4.851
 2673TIP3    H1 7896   0.158   1.896   4.759
 2673TIP3    H2 7897   0.112   1.876   4.903
 2674TIP3   OH2 7898   1.491   2.067   4.482
 2674TIP3    H1 7899   1.491   1.971   4.500
 2674TIP3    H2 7900   1.409   2.093   4.529
 2675TIP3   OH2 7901   0.597   1.858   4.619
 2675TIP3    H1 7902   0.598   1.951   4.653
 2675TIP3    H2 7903   0.526   1.819   4.674
 2676TIP3   OH2 7904   1.382   1.203   4.759
 2676TIP3    H1 7905   1.300   1.213   4.708
 2676TIP3    H2 7906   1.397   1.107   4.753
 2677TIP3   OH2 7907  -0.029   1.592   4.792
 2677TIP3    H1 7908   0.032   1.593   4.869
 2677TIP3    H2 7909  -0.105   1.543   4.830
 2678TIP3   OH2 7910   0.910   0.562   4.775
 2678TIP3    H1 7911   0.989   0.525   4.819
 2678TIP3    H2 7912   0.838   0.527   4.829
 2679TIP3   OH2 7913   1.157   0.980   4.682
 2679TIP3    H1 7914   1.106   0.969   4.766
 2679TIP3    H2 7915   1.123   1.064   4.648
 2680TIP3   OH2 7916   0.859   1.210   4.928
 2680TIP3    H1 7917   0.841   1.131   4.983
 2680TIP3    H2 7918   0.956   1.217   4.940
 2681TIP3   OH2 7919   0.876   1.203   4.485
 2681TIP3    H1 7920   0.870   1.123   4.432
 2681TIP3    H2 7921   0.842   1.167   4.570
 2682TIP3   OH2 7922   1.180   2.421   4.585
 2682TIP3    H1 7923   1.180   2.446   4.491
 2682TIP3    H2 7924   1.258   2.468   4.618
 2683TIP3   OH2 7925   0.141   1.543   5.007
 2683TIP3    H1 7926   0.229   1.579   5.029
 2683TIP3    H2 7927   0.118   1.510   5.096
 2684TIP3   OH2 7928   1.219   1.511   4.276
 2684TIP3    H1 7929   1.246   1.558   4.194
 2684TIP3    H2 7930   1.132   1.473   4.251
 2685TIP3   OH2 7931   0.729   1.599   4.639
 2685TIP3    H1 7932   0.732   1.557   4.726
 2685TIP3    H2 7933   0.676   1.679   4.654
 2686TIP3   OH2 7934   0.610   1.328   4.959
 2686TIP3    H1 7935   0.550   1.270   4.907
 2686TIP3    H2 7936   0.697   1.294   4.928
 2687TIP3   OH2 7937   0.878   1.856   4.534
 2687TIP3    H1 7938   0.783   1.846   4.550
 2687TIP3    H2 7939   0.906   1.902   4.616
 2688TIP3   OH2 7940   1.505   1.778   4.530
 2688TIP3    H1 7941   1.407   1.773   4.523
 2688TIP3    H2 7942   1.530   1.748   4.440
 2689TIP3   OH2 7943   0.982   1.383   4.193
 2689TIP3    H1 7944   0.902   1.359   4.240
 2689TIP3    H2 7945   1.019   1.293   4.178
 2690TIP3   OH2 7946   0.379   1.936   4.424
 2690TIP3    H1 7947   0.414   2.009   4.369
 2690TIP3    H2 7948   0.460   1.906   4.470
 2691TIP3   OH2 7949   0.777   1.568   4.374
 2691TIP3    H1 7950   0.759   1.576   4.471
 2691TIP3    H2 7951   0.867   1.533   4.376
 2692TIP3   OH2 7952   1.018   2.108   4.426
 2692TIP3    H1 7953   0.939   2.050   4.422
 2692TIP3    H2 7954   0.998   2.173   4.355
 2693TIP3   OH2 7955  -0.193   1.794   4.610
 2693TIP3    H1 7956  -0.127   1.725   4.620
 2693TIP3    H2 7957  -0.146   1.873   4.639
 2694TIP3   OH2 7958   0.931   0.792   4.623
 2694TIP3    H1 7959   1.015   0.820   4.662
 2694TIP3    H2 7960   0.916   0.707   4.668
 2695TIP3   OH2 7961   0.802   1.055   4.693
 2695TIP3    H1 7962   0.795   1.090   4.783
 2695TIP3    H2 7963   0.823   0.961   4.707
 2696TIP3   OH2 7964   1.422   0.934   4.681
 2696TIP3    H1 7965   1.324   0.934   4.689
 2696TIP3    H2 7966   1.432   0.898   4.592
 2697TIP3   OH2 7967   1.041   1.122   4.149
 2697TIP3    H1 7968   0.992   1.041   4.128
 2697TIP3    H2 7969   1.131   1.085   4.166
 2698TIP3   OH2 7970   1.037   2.082   4.016
 2698TIP3    H1 7971   0.987   2.127   3.944
 2698TIP3    H2 7972   1.128   2.108   3.994
 2699TIP3   OH2 7973  -0.178   2.118   4.979
 2699TIP3    H1 7974  -0.101   2.123   5.039
 2699TIP3    H2 7975  -0.207   2.027   4.993
 2700TIP3   OH2 7976   0.291   2.081   5.040
 2700TIP3    H1 7977   0.385   2.060   5.052
 2700TIP3    H2 7978   0.268   2.022   4.966
 2701TIP3   OH2 7979   0.931   1.981   4.773
 2701TIP3    H1 7980   0.920   1.912   4.842
 2701TIP3    H2 7981   1.008   2.032   4.806
 2702TIP3   OH2 7982   0.546   1.600   4.970
 2702TIP3    H1 7983   0.506   1.614   4.882
 2702TIP3    H2 7984   0.578   1.508   4.965
 2703TIP3   OH2 7985   1.039   1.605   4.571
 2703TIP3    H1 7986   1.111   1.659   4.533
 2703TIP3    H2 7987   0.965   1.667   4.570
 2704TIP3   OH2 7988   0.397   1.151   4.854
 2704TIP3    H1 7989   0.308   1.192   4.844
 2704TIP3    H2 7990   0.438   1.171   4.767
 2705TIP3   OH2 7991   0.910   1.541   4.977
 2705TIP3    H1 7992   0.991   1.518   4.929
 2705TIP3    H2 7993   0.905   1.470   5.044
 2706TIP3   OH2 7994   0.551   0.939   4.956
 2706TIP3    H1 7995   0.497   0.868   4.917
 2706TIP3    H2 7996   0.493   1.015   4.933
 2707TIP3   OH2 7997   0.556   1.258   4.656
 2707TIP3    H1 7998   0.624   1.245   4.589
 2707TIP3    H2 7999   0.491   1.316   4.610
 2708TIP3   OH2 8000   1.130   1.216   5.032
 2708TIP3    H1 8001   1.176   1.131   5.038
 2708TIP3    H2 8002   1.201   1.274   4.999
 2709TIP3   OH2 8003   1.170   1.468   4.765
 2709TIP3    H1 8004   1.112   1.519   4.704
 2709TIP3    H2 8005   1.257   1.486   4.724
 2710TIP3   OH2 8006   0.798   0.983   5.060
 2710TIP3    H1 8007   0.787   0.982   5.156
 2710TIP3    H2 8008   0.706   0.964   5.027
 2711TIP3   OH2 8009   1.025   0.931   4.910
 2711TIP3    H1 8010   0.946   0.934   4.969
 2711TIP3    H2 8011   1.094   0.897   4.970
 2712TIP3   OH2 8012   1.249   0.870   5.065
 2712TIP3    H1 8013   1.260   0.774   5.085
 2712TIP3    H2 8014   1.242   0.909   5.155
 2713TIP3   OH2 8015   1.292   2.182   3.957
 2713TIP3    H1 8016   1.298   2.188   4.055
 2713TIP3    H2 8017   1.349   2.258   3.934
 2714TIP3   OH2 8018   1.317   2.189   4.240
 2714TIP3    H1 8019   1.274   2.101   4.253
 2714TIP3    H2 8020   1.390   2.180   4.304
 2715TIP3   OH2 8021   1.363   1.873   4.826
 2715TIP3    H1 8022   1.291   1.879   4.892
 2715TIP3    H2 8023   1.405   1.960   4.833
 2716TIP3   OH2 8024   1.304   1.265   3.647
 2716TIP3    H1 8025   1.261   1.202   3.705
 2716TIP3    H2 8026   1.385   1.288   3.697
 2717TIP3   OH2 8027   1.362   1.644   4.084
 2717TIP3    H1 8028   1.418   1.578   4.038
 2717TIP3    H2 8029   1.335   1.704   4.014
 2718TIP3   OH2 8030   1.193   1.945   4.277
 2718TIP3    H1 8031   1.125   1.984   4.336
 2718TIP3    H2 8032   1.138   1.894   4.214
 2719TIP3   OH2 8033   1.411   1.533   4.654
 2719TIP3    H1 8034   1.484   1.467   4.648
 2719TIP3    H2 8035   1.443   1.604   4.596
 2720TIP3   OH2 8036   1.598   1.341   4.676
 2720TIP3    H1 8037   1.523   1.290   4.714
 2720TIP3    H2 8038   1.671   1.277   4.689
 2721TIP3   OH2 8039   1.284   1.011   4.193
 2721TIP3    H1 8040   1.370   1.029   4.150
 2721TIP3    H2 8041   1.306   1.041   4.284
 2722TIP3   OH2 8042   1.350   1.144   4.427
 2722TIP3    H1 8043   1.273   1.178   4.476
 2722TIP3    H2 8044   1.382   1.224   4.381
 2723TIP3   OH2 8045   1.800   0.732   4.979
 2723TIP3    H1 8046   1.858   0.666   4.936
 2723TIP3    H2 8047   1.774   0.789   4.904
 2724TIP3   OH2 8048   1.675   0.875   4.786
 2724TIP3    H1 8049   1.587   0.913   4.806
 2724TIP3    H2 8050   1.649   0.803   4.726
 2725TIP3   OH2 8051   0.977   2.009   3.660
 2725TIP3    H1 8052   0.928   1.972   3.585
 2725TIP3    H2 8053   0.923   2.089   3.672
 2726TIP3   OH2 8054  -0.036   1.837   5.019
 2726TIP3    H1 8055  -0.116   1.784   5.007
 2726TIP3    H2 8056  -0.023   1.836   5.115
 2727TIP3   OH2 8057   0.148   1.876   4.566
 2727TIP3    H1 8058   0.103   1.954   4.526
 2727TIP3    H2 8059   0.236   1.889   4.524
 2728TIP3   OH2 8060   0.598   2.124   4.703
 2728TIP3    H1 8061   0.640   2.123   4.792
 2728TIP3    H2 8062   0.665   2.174   4.651
 2729TIP3   OH2 8063   0.777   2.274   4.559
 2729TIP3    H1 8064   0.849   2.220   4.523
 2729TIP3    H2 8065   0.827   2.331   4.621
 2730TIP3   OH2 8066   1.573   0.637   4.662
 2730TIP3    H1 8067   1.481   0.631   4.631
 2730TIP3    H2 8068   1.603   0.544   4.649
 2731TIP3   OH2 8069  -0.170   2.144   4.584
 2731TIP3    H1 8070  -0.262   2.172   4.568
 2731TIP3    H2 8071  -0.163   2.160   4.679
 2732TIP3   OH2 8072   0.070   2.117   4.450
 2732TIP3    H1 8073  -0.019   2.132   4.491
 2732TIP3    H2 8074   0.052   2.136   4.356
 2733TIP3   OH2 8075   0.494   2.143   4.243
 2733TIP3    H1 8076   0.419   2.160   4.183
 2733TIP3    H2 8077   0.504   2.230   4.286
 2734TIP3   OH2 8078   0.760   2.083   4.291
 2734TIP3    H1 8079   0.664   2.096   4.275
 2734TIP3    H2 8080   0.797   2.164   4.254
 2735TIP3   OH2 8081   0.972   2.278   4.212
 2735TIP3    H1 8082   0.955   2.362   4.164
 2735TIP3    H2 8083   0.989   2.215   4.138
 2736TIP3   OH2 8084   0.200   1.939   4.194
 2736TIP3    H1 8085   0.204   1.861   4.135
 2736TIP3    H2 8086   0.246   1.908   4.275
 2737TIP3   OH2 8087   1.027   2.016   3.363
 2737TIP3    H1 8088   1.020   1.921   3.386
 2737TIP3    H2 8089   0.949   2.026   3.305
 2738TIP3   OH2 8090   1.302   0.599   5.098
 2738TIP3    H1 8091   1.325   0.567   5.188
 2738TIP3    H2 8092   1.389   0.593   5.052
 2739TIP3   OH2 8093   1.248   2.153   4.583
 2739TIP3    H1 8094   1.166   2.120   4.542
 2739TIP3    H2 8095   1.226   2.248   4.591
 2740TIP3   OH2 8096   2.512   1.521   3.358
 2740TIP3    H1 8097   2.486   1.614   3.341
 2740TIP3    H2 8098   2.437   1.475   3.317
 2741TIP3   OH2 8099   2.492   1.522   3.739
 2741TIP3    H1 8100   2.533   1.493   3.822
 2741TIP3    H2 8101   2.463   1.438   3.700
 2742TIP3   OH2 8102   1.808   1.421   4.101
 2742TIP3    H1 8103   1.839   1.353   4.164
 2742TIP3    H2 8104   1.888   1.474   4.091
 2743TIP3   OH2 8105   2.749   1.817   3.417
 2743TIP3    H1 8106   2.750   1.752   3.490
 2743TIP3    H2 8107   2.776   1.898   3.460
 2744TIP3   OH2 8108   1.777   1.826   3.824
 2744TIP3    H1 8109   1.772   1.728   3.827
 2744TIP3    H2 8110   1.874   1.837   3.823
 2745TIP3   OH2 8111   1.549   1.318   3.778
 2745TIP3    H1 8112   1.598   1.243   3.819
 2745TIP3    H2 8113   1.604   1.338   3.701
 2746TIP3   OH2 8114   2.311   1.750   3.783
 2746TIP3    H1 8115   2.348   1.670   3.741
 2746TIP3    H2 8116   2.396   1.794   3.804
 2747TIP3   OH2 8117   3.324   1.071   3.779
 2747TIP3    H1 8118   3.350   1.153   3.825
 2747TIP3    H2 8119   3.341   1.094   3.687
 2748TIP3   OH2 8120   2.719   1.253   3.817
 2748TIP3    H1 8121   2.764   1.169   3.837
 2748TIP3    H2 8122   2.691   1.236   3.725
 2749TIP3   OH2 8123   2.056   0.912   3.786
 2749TIP3    H1 8124   2.036   0.982   3.720
 2749TIP3    H2 8125   2.016   0.834   3.743
 2750TIP3   OH2 8126   2.749   0.999   3.406
 2750TIP3    H1 8127   2.820   0.985   3.472
 2750TIP3    H2 8128   2.801   1.037   3.333
 2751TIP3   OH2 8129   1.695   1.115   3.888
 2751TIP3    H1 8130   1.776   1.095   3.939
 2751TIP3    H2 8131   1.710   1.056   3.811
 2752TIP3   OH2 8132   2.133   1.311   3.680
 2752TIP3    H1 8133   2.227   1.287   3.692
 2752TIP3    H2 8134   2.095   1.226   3.649
 2753TIP3   OH2 8135   3.395   1.279   3.948
 2753TIP3    H1 8136   3.311   1.326   3.930
 2753TIP3    H2 8137   3.401   1.291   4.044
 2754TIP3   OH2 8138   2.055   0.893   4.214
 2754TIP3    H1 8139   1.993   0.930   4.148
 2754TIP3    H2 8140   2.004   0.911   4.296
 2755TIP3   OH2 8141   2.399   1.741   3.228
 2755TIP3    H1 8142   2.365   1.718   3.140
 2755TIP3    H2 8143   2.358   1.828   3.244
 2756TIP3   OH2 8144   2.162   1.668   4.011
 2756TIP3    H1 8145   2.099   1.733   4.049
 2756TIP3    H2 8146   2.207   1.721   3.942
 2757TIP3   OH2 8147   2.962   1.004   3.573
 2757TIP3    H1 8148   2.987   0.932   3.633
 2757TIP3    H2 8149   3.017   1.077   3.606
 2758TIP3   OH2 8150   1.924   1.011   4.001
 2758TIP3    H1 8151   1.988   1.083   4.024
 2758TIP3    H2 8152   1.974   0.969   3.927
 2759TIP3   OH2 8153   1.987   1.861   4.107
 2759TIP3    H1 8154   1.962   1.948   4.070
 2759TIP3    H2 8155   1.910   1.846   4.165
 2760TIP3   OH2 8156   1.383   1.554   3.348
 2760TIP3    H1 8157   1.357   1.576   3.258
 2760TIP3    H2 8158   1.424   1.635   3.380
 2761TIP3   OH2 8159   2.791   2.085   3.536
 2761TIP3    H1 8160   2.742   2.055   3.614
 2761TIP3    H2 8161   2.872   2.122   3.578
 2762TIP3   OH2 8162   3.114   0.982   3.952
 2762TIP3    H1 8163   3.025   0.998   3.915
 2762TIP3    H2 8164   3.171   0.997   3.874
 2763TIP3   OH2 8165   2.415   0.613   3.927
 2763TIP3    H1 8166   2.404   0.518   3.948
 2763TIP3    H2 8167   2.336   0.651   3.972
 2764TIP3   OH2 8168   2.524   2.137   3.275
 2764TIP3    H1 8169   2.566   2.050   3.260
 2764TIP3    H2 8170   2.584   2.192   3.219
 2765TIP3   OH2 8171   2.653   1.909   3.175
 2765TIP3    H1 8172   2.633   1.830   3.124
 2765TIP3    H2 8173   2.694   1.869   3.255
 2766TIP3   OH2 8174   2.344   1.386   3.186
 2766TIP3    H1 8175   2.258   1.421   3.158
 2766TIP3    H2 8176   2.388   1.371   3.101
 2767TIP3   OH2 8177   2.327   1.139   3.003
 2767TIP3    H1 8178   2.405   1.198   3.000
 2767TIP3    H2 8179   2.341   1.089   2.921
 2768TIP3   OH2 8180   3.230   1.631   3.769
 2768TIP3    H1 8181   3.158   1.696   3.774
 2768TIP3    H2 8182   3.263   1.648   3.679
 2769TIP3   OH2 8183   2.691   1.463   3.160
 2769TIP3    H1 8184   2.636   1.485   3.238
 2769TIP3    H2 8185   2.774   1.433   3.204
 2770TIP3   OH2 8186   2.926   1.496   4.066
 2770TIP3    H1 8187   2.925   1.582   4.113
 2770TIP3    H2 8188   2.841   1.502   4.017
 2771TIP3   OH2 8189   1.920   1.452   3.571
 2771TIP3    H1 8190   1.887   1.392   3.502
 2771TIP3    H2 8191   1.999   1.404   3.603
 2772TIP3   OH2 8192   2.052   1.868   3.722
 2772TIP3    H1 8193   2.033   1.821   3.639
 2772TIP3    H2 8194   2.143   1.837   3.742
 2773TIP3   OH2 8195   2.055   1.429   3.926
 2773TIP3    H1 8196   2.092   1.406   3.838
 2773TIP3    H2 8197   2.102   1.512   3.948
 2774TIP3   OH2 8198   2.585   2.095   3.723
 2774TIP3    H1 8199   2.577   2.129   3.813
 2774TIP3    H2 8200   2.575   1.999   3.741
 2775TIP3   OH2 8201   2.193   1.984   4.251
 2775TIP3    H1 8202   2.134   2.046   4.299
 2775TIP3    H2 8203   2.127   1.930   4.204
 2776TIP3   OH2 8204   2.539   1.315   2.988
 2776TIP3    H1 8205   2.596   1.376   3.040
 2776TIP3    H2 8206   2.562   1.341   2.896
 2777TIP3   OH2 8207   1.948   1.544   4.348
 2777TIP3    H1 8208   1.953   1.629   4.397
 2777TIP3    H2 8209   1.853   1.523   4.358
 2778TIP3   OH2 8210   2.275   2.002   3.256
 2778TIP3    H1 8211   2.353   2.054   3.282
 2778TIP3    H2 8212   2.215   2.068   3.220
 2779TIP3   OH2 8213   1.988   2.154   4.337
 2779TIP3    H1 8214   1.952   2.148   4.247
 2779TIP3    H2 8215   1.910   2.133   4.392
 2780TIP3   OH2 8216   3.044   0.594   2.990
 2780TIP3    H1 8217   2.965   0.557   3.035
 2780TIP3    H2 8218   3.050   0.678   3.039
 2781TIP3   OH2 8219   1.794   1.282   3.365
 2781TIP3    H1 8220   1.727   1.349   3.335
 2781TIP3    H2 8221   1.737   1.213   3.403
 2782TIP3   OH2 8222   2.844   1.927   2.577
 2782TIP3    H1 8223   2.852   2.025   2.565
 2782TIP3    H2 8224   2.938   1.900   2.564
 2783TIP3   OH2 8225   1.569   1.682   4.284
 2783TIP3    H1 8226   1.506   1.654   4.216
 2783TIP3    H2 8227   1.608   1.597   4.314
 2784TIP3   OH2 8228   1.428   1.894   3.912
 2784TIP3    H1 8229   1.517   1.855   3.905
 2784TIP3    H2 8230   1.438   1.943   3.996
 2785TIP3   OH2 8231   3.286   2.322   3.969
 2785TIP3    H1 8232   3.283   2.225   3.980
 2785TIP3    H2 8233   3.205   2.347   4.018
 2786TIP3   OH2 8234   2.386   2.113   4.105
 2786TIP3    H1 8235   2.392   2.204   4.139
 2786TIP3    H2 8236   2.318   2.074   4.164
 2787TIP3   OH2 8237   2.145   2.239   3.064
 2787TIP3    H1 8238   2.110   2.221   2.974
 2787TIP3    H2 8239   2.122   2.333   3.078
 2788TIP3   OH2 8240   1.593   2.095   3.445
 2788TIP3    H1 8241   1.648   2.081   3.525
 2788TIP3    H2 8242   1.546   2.010   3.440
 2789TIP3   OH2 8243   2.353   2.136   2.702
 2789TIP3    H1 8244   2.415   2.071   2.663
 2789TIP3    H2 8245   2.395   2.153   2.789
 2790TIP3   OH2 8246   2.402   2.191   2.974
 2790TIP3    H1 8247   2.317   2.192   3.022
 2790TIP3    H2 8248   2.459   2.141   3.035
 2791TIP3   OH2 8249   3.177   1.459   4.246
 2791TIP3    H1 8250   3.099   1.471   4.190
 2791TIP3    H2 8251   3.195   1.364   4.236
 2792TIP3   OH2 8252   1.773   1.867   4.275
 2792TIP3    H1 8253   1.825   1.850   4.357
 2792TIP3    H2 8254   1.701   1.801   4.284
 2793TIP3   OH2 8255   2.172   0.688   4.056
 2793TIP3    H1 8256   2.083   0.658   4.031
 2793TIP3    H2 8257   2.149   0.772   4.101
 2794TIP3   OH2 8258   2.707   0.805   4.251
 2794TIP3    H1 8259   2.776   0.778   4.315
 2794TIP3    H2 8260   2.623   0.784   4.297
 2795TIP3   OH2 8261   2.946   1.232   4.169
 2795TIP3    H1 8262   2.898   1.229   4.255
 2795TIP3    H2 8263   2.922   1.320   4.134
 2796TIP3   OH2 8264   2.612   1.366   2.727
 2796TIP3    H1 8265   2.584   1.349   2.635
 2796TIP3    H2 8266   2.692   1.420   2.712
 2797TIP3   OH2 8267   2.103   1.205   4.075
 2797TIP3    H1 8268   2.055   1.228   4.157
 2797TIP3    H2 8269   2.087   1.286   4.021
 2798TIP3   OH2 8270   1.986   1.090   3.593
 2798TIP3    H1 8271   1.891   1.070   3.599
 2798TIP3    H2 8272   2.007   1.054   3.504
 2799TIP3   OH2 8273   2.483   1.182   3.314
 2799TIP3    H1 8274   2.427   1.252   3.275
 2799TIP3    H2 8275   2.531   1.149   3.236
 2800TIP3   OH2 8276   2.654   1.458   4.406
 2800TIP3    H1 8277   2.632   1.383   4.466
 2800TIP3    H2 8278   2.749   1.469   4.425
 2801TIP3   OH2 8279   2.634   1.205   3.558
 2801TIP3    H1 8280   2.579   1.237   3.484
 2801TIP3    H2 8281   2.667   1.123   3.517
 2802TIP3   OH2 8282   1.921   1.235   4.286
 2802TIP3    H1 8283   1.955   1.295   4.353
 2802TIP3    H2 8284   1.911   1.151   4.335
 2803TIP3   OH2 8285   2.642   1.452   3.980
 2803TIP3    H1 8286   2.677   1.380   3.922
 2803TIP3    H2 8287   2.618   1.399   4.059
 2804TIP3   OH2 8288   2.315   0.920   3.652
 2804TIP3    H1 8289   2.236   0.912   3.709
 2804TIP3    H2 8290   2.387   0.911   3.717
 2805TIP3   OH2 8291   1.745   0.962   3.667
 2805TIP3    H1 8292   1.656   0.953   3.630
 2805TIP3    H2 8293   1.786   0.877   3.642
 2806TIP3   OH2 8294   2.050   0.987   3.354
 2806TIP3    H1 8295   2.147   0.982   3.348
 2806TIP3    H2 8296   2.024   1.014   3.266
 2807TIP3   OH2 8297   2.807   0.994   3.858
 2807TIP3    H1 8298   2.766   1.000   3.947
 2807TIP3    H2 8299   2.751   0.927   3.815
 2808TIP3   OH2 8300   2.976   2.680   4.072
 2808TIP3    H1 8301   2.978   2.699   3.976
 2808TIP3    H2 8302   3.057   2.725   4.102
 2809TIP3   OH2 8303   1.934   1.790   4.493
 2809TIP3    H1 8304   2.015   1.818   4.541
 2809TIP3    H2 8305   1.871   1.787   4.567
 2810TIP3   OH2 8306   2.399   1.238   3.747
 2810TIP3    H1 8307   2.471   1.200   3.694
 2810TIP3    H2 8308   2.413   1.197   3.834
 2811TIP3   OH2 8309   1.947   0.708   3.635
 2811TIP3    H1 8310   1.964   0.617   3.663
 2811TIP3    H2 8311   2.010   0.716   3.562
 2812TIP3   OH2 8312   2.376   1.133   4.042
 2812TIP3    H1 8313   2.288   1.173   4.054
 2812TIP3    H2 8314   2.435   1.194   4.091
 2813TIP3   OH2 8315   2.106   1.554   3.130
 2813TIP3    H1 8316   2.062   1.466   3.133
 2813TIP3    H2 8317   2.100   1.579   3.225
 2814TIP3   OH2 8318   2.563   0.836   2.990
 2814TIP3    H1 8319   2.468   0.848   2.995
 2814TIP3    H2 8320   2.594   0.929   2.993
 2815TIP3   OH2 8321   2.515   1.847   4.130
 2815TIP3    H1 8322   2.532   1.821   4.221
 2815TIP3    H2 8323   2.470   1.932   4.139
 2816TIP3   OH2 8324   2.645   1.080   3.096
 2816TIP3    H1 8325   2.740   1.093   3.114
 2816TIP3    H2 8326   2.624   1.155   3.037
 2817TIP3   OH2 8327   1.803   1.551   3.810
 2817TIP3    H1 8328   1.842   1.520   3.725
 2817TIP3    H2 8329   1.844   1.489   3.872
 2818TIP3   OH2 8330   2.268   1.692   2.963
 2818TIP3    H1 8331   2.215   1.774   2.970
 2818TIP3    H2 8332   2.213   1.631   3.018
 2819TIP3   OH2 8333   1.682   1.475   4.424
 2819TIP3    H1 8334   1.708   1.460   4.517
 2819TIP3    H2 8335   1.617   1.404   4.410
 2820TIP3   OH2 8336   2.410   1.584   4.442
 2820TIP3    H1 8337   2.353   1.525   4.390
 2820TIP3    H2 8338   2.499   1.552   4.417
 2821TIP3   OH2 8339   2.652   2.168   4.001
 2821TIP3    H1 8340   2.578   2.112   4.028
 2821TIP3    H2 8341   2.696   2.178   4.088
 2822TIP3   OH2 8342   3.082   1.175   2.936
 2822TIP3    H1 8343   3.019   1.131   2.875
 2822TIP3    H2 8344   3.082   1.264   2.896
 2823TIP3   OH2 8345   3.278   2.036   4.005
 2823TIP3    H1 8346   3.181   2.020   3.993
 2823TIP3    H2 8347   3.309   2.003   3.918
 2824TIP3   OH2 8348   2.767   1.990   2.835
 2824TIP3    H1 8349   2.766   1.916   2.898
 2824TIP3    H2 8350   2.796   1.949   2.752
 2825TIP3   OH2 8351   2.755   1.627   3.660
 2825TIP3    H1 8352   2.669   1.590   3.683
 2825TIP3    H2 8353   2.804   1.548   3.629
 2826TIP3   OH2 8354   1.906   1.854   3.438
 2826TIP3    H1 8355   1.912   1.934   3.382
 2826TIP3    H2 8356   1.812   1.833   3.433
 2827TIP3   OH2 8357   2.048   1.622   3.385
 2827TIP3    H1 8358   2.013   1.711   3.404
 2827TIP3    H2 8359   2.012   1.570   3.458
 2828TIP3   OH2 8360   2.174   2.199   3.904
 2828TIP3    H1 8361   2.220   2.267   3.851
 2828TIP3    H2 8362   2.248   2.162   3.954
 2829TIP3   OH2 8363   1.826   2.094   3.286
 2829TIP3    H1 8364   1.741   2.105   3.332
 2829TIP3    H2 8365   1.861   2.186   3.289
 2830TIP3   OH2 8366   2.572   1.843   3.852
 2830TIP3    H1 8367   2.567   1.833   3.949
 2830TIP3    H2 8368   2.658   1.804   3.833
 2831TIP3   OH2 8369   2.537   1.718   2.745
 2831TIP3    H1 8370   2.591   1.699   2.825
 2831TIP3    H2 8371   2.449   1.692   2.776
 2832TIP3   OH2 8372   2.799   2.389   3.930
 2832TIP3    H1 8373   2.752   2.303   3.940
 2832TIP3    H2 8374   2.789   2.408   3.835
 2833TIP3   OH2 8375   2.870   2.202   2.556
 2833TIP3    H1 8376   2.933   2.276   2.545
 2833TIP3    H2 8377   2.793   2.253   2.591
 2834TIP3   OH2 8378   1.899   0.978   4.432
 2834TIP3    H1 8379   1.803   0.981   4.446
 2834TIP3    H2 8380   1.927   0.916   4.501
 2835TIP3   OH2 8381   2.697   1.662   2.964
 2835TIP3    H1 8382   2.687   1.595   3.035
 2835TIP3    H2 8383   2.794   1.657   2.950
 2836TIP3   OH2 8384   1.608   2.059   4.064
 2836TIP3    H1 8385   1.668   1.988   4.092
 2836TIP3    H2 8386   1.636   2.130   4.124
 2837TIP3   OH2 8387   1.885   1.715   2.747
 2837TIP3    H1 8388   1.928   1.641   2.700
 2837TIP3    H2 8389   1.888   1.687   2.841
 2838TIP3   OH2 8390   1.861   1.707   3.022
 2838TIP3    H1 8391   1.936   1.674   3.073
 2838TIP3    H2 8392   1.871   1.805   3.029
 2839TIP3   OH2 8393   1.612   1.440   3.247
 2839TIP3    H1 8394   1.529   1.454   3.296
 2839TIP3    H2 8395   1.593   1.493   3.167
 2840TIP3   OH2 8396   2.727   1.045   4.117
 2840TIP3    H1 8397   2.813   1.079   4.146
 2840TIP3    H2 8398   2.718   0.962   4.168
 2841TIP3   OH2 8399   2.612   0.796   3.271
 2841TIP3    H1 8400   2.600   0.827   3.179
 2841TIP3    H2 8401   2.652   0.875   3.314
 2842TIP3   OH2 8402   2.110   1.910   2.962
 2842TIP3    H1 8403   2.025   1.942   2.998
 2842TIP3    H2 8404   2.136   1.985   2.906
 2843TIP3   OH2 8405   2.320   0.972   3.380
 2843TIP3    H1 8406   2.383   1.045   3.362
 2843TIP3    H2 8407   2.323   0.966   3.478
 2844TIP3   OH2 8408   2.571   1.290   4.189
 2844TIP3    H1 8409   2.593   1.342   4.268
 2844TIP3    H2 8410   2.629   1.211   4.198
 2845TIP3   OH2 8411   2.456   0.699   3.484
 2845TIP3    H1 8412   2.454   0.773   3.547
 2845TIP3    H2 8413   2.513   0.737   3.413
 2846TIP3   OH2 8414   1.852   1.983   3.031
 2846TIP3    H1 8415   1.826   2.053   2.968
 2846TIP3    H2 8416   1.840   2.027   3.118
 2847TIP3   OH2 8417   3.213   1.192   4.162
 2847TIP3    H1 8418   3.116   1.191   4.172
 2847TIP3    H2 8419   3.220   1.141   4.080
 2848TIP3   OH2 8420   2.865   1.380   3.553
 2848TIP3    H1 8421   2.790   1.320   3.568
 2848TIP3    H2 8422   2.938   1.335   3.602
 2849TIP3   OH2 8423   1.590   1.669   3.056
 2849TIP3    H1 8424   1.678   1.711   3.050
 2849TIP3    H2 8425   1.599   1.600   2.990
 2850TIP3   OH2 8426   1.906   0.602   4.030
 2850TIP3    H1 8427   1.877   0.549   3.955
 2850TIP3    H2 8428   1.904   0.534   4.101
 2851TIP3   OH2 8429   1.446   1.860   3.432
 2851TIP3    H1 8430   1.349   1.858   3.431
 2851TIP3    H2 8431   1.460   1.867   3.336
 2852TIP3   OH2 8432   1.603   2.366   4.482
 2852TIP3    H1 8433   1.688   2.367   4.530
 2852TIP3    H2 8434   1.583   2.271   4.484
 2853TIP3   OH2 8435   2.089   2.339   4.525
 2853TIP3    H1 8436   2.182   2.314   4.538
 2853TIP3    H2 8437   2.064   2.279   4.452
 2854TIP3   OH2 8438   2.069   1.912   2.658
 2854TIP3    H1 8439   2.020   1.842   2.706
 2854TIP3    H2 8440   2.153   1.866   2.637
 2855TIP3   OH2 8441   2.726   2.239   4.263
 2855TIP3    H1 8442   2.716   2.167   4.330
 2855TIP3    H2 8443   2.805   2.287   4.295
 2856TIP3   OH2 8444   2.505   1.952   2.566
 2856TIP3    H1 8445   2.556   1.897   2.628
 2856TIP3    H2 8446   2.565   1.957   2.489
 2857TIP3   OH2 8447   1.735   1.775   4.684
 2857TIP3    H1 8448   1.753   1.679   4.691
 2857TIP3    H2 8449   1.647   1.776   4.642
 2858TIP3   OH2 8450   2.344   1.858   4.457
 2858TIP3    H1 8451   2.302   1.871   4.370
 2858TIP3    H2 8452   2.376   1.765   4.453
 2859TIP3   OH2 8453   2.225   1.644   2.700
 2859TIP3    H1 8454   2.240   1.664   2.795
 2859TIP3    H2 8455   2.235   1.547   2.705
 2860TIP3   OH2 8456   1.854   1.507   4.664
 2860TIP3    H1 8457   1.927   1.447   4.648
 2860TIP3    H2 8458   1.877   1.540   4.754
 2861TIP3   OH2 8459   1.996   1.310   3.153
 2861TIP3    H1 8460   1.941   1.289   3.230
 2861TIP3    H2 8461   1.967   1.246   3.086
 2862TIP3   OH2 8462   2.186   1.392   4.326
 2862TIP3    H1 8463   2.112   1.455   4.331
 2862TIP3    H2 8464   2.237   1.425   4.248
 2863TIP3   OH2 8465   2.705   1.795   4.462
 2863TIP3    H1 8466   2.788   1.774   4.416
 2863TIP3    H2 8467   2.703   1.728   4.532
 2864TIP3   OH2 8468   2.849   1.465   2.611
 2864TIP3    H1 8469   2.826   1.418   2.529
 2864TIP3    H2 8470   2.817   1.555   2.587
 2865TIP3   OH2 8471   2.310   1.180   4.457
 2865TIP3    H1 8472   2.312   1.100   4.401
 2865TIP3    H2 8473   2.268   1.245   4.397
 2866TIP3   OH2 8474   2.314   0.967   4.262
 2866TIP3    H1 8475   2.342   1.008   4.178
 2866TIP3    H2 8476   2.220   0.944   4.242
 2867TIP3   OH2 8477   2.344   1.504   4.134
 2867TIP3    H1 8478   2.427   1.507   4.085
 2867TIP3    H2 8479   2.290   1.572   4.089
 2868TIP3   OH2 8480   2.927   1.472   4.518
 2868TIP3    H1 8481   2.971   1.386   4.526
 2868TIP3    H2 8482   2.999   1.527   4.484
 2869TIP3   OH2 8483   2.959   1.736   4.236
 2869TIP3    H1 8484   2.915   1.798   4.177
 2869TIP3    H2 8485   3.052   1.748   4.205
 2870TIP3   OH2 8486   2.186   1.298   4.682
 2870TIP3    H1 8487   2.119   1.228   4.697
 2870TIP3    H2 8488   2.224   1.270   4.596
 2871TIP3   OH2 8489   2.447   0.733   4.327
 2871TIP3    H1 8490   2.399   0.815   4.305
 2871TIP3    H2 8491   2.377   0.666   4.316
 2872TIP3   OH2 8492   2.572   1.239   4.545
 2872TIP3    H1 8493   2.563   1.227   4.641
 2872TIP3    H2 8494   2.481   1.212   4.517
 2873TIP3   OH2 8495   2.813   1.190   4.401
 2873TIP3    H1 8496   2.737   1.187   4.462
 2873TIP3    H2 8497   2.886   1.156   4.457
 2874TIP3   OH2 8498   3.039   1.126   4.551
 2874TIP3    H1 8499   3.054   1.030   4.570
 2874TIP3    H2 8500   3.037   1.165   4.641
 2875TIP3   OH2 8501   2.029   1.076   4.736
 2875TIP3    H1 8502   2.037   0.986   4.700
 2875TIP3    H2 8503   2.064   1.063   4.826
 2876TIP3   OH2 8504   2.541   0.742   4.585
 2876TIP3    H1 8505   2.610   0.672   4.580
 2876TIP3    H2 8506   2.502   0.735   4.495
 2877TIP3   OH2 8507   2.606   0.956   4.745
 2877TIP3    H1 8508   2.584   0.885   4.680
 2877TIP3    H2 8509   2.529   1.016   4.737
 2878TIP3   OH2 8510   1.826   2.181   2.844
 2878TIP3    H1 8511   1.922   2.181   2.826
 2878TIP3    H2 8512   1.797   2.236   2.769
 2879TIP3   OH2 8513   3.065   2.460   3.459
 2879TIP3    H1 8514   3.109   2.466   3.545
 2879TIP3    H2 8515   3.139   2.476   3.398
 2880TIP3   OH2 8516   3.106   2.452   3.742
 2880TIP3    H1 8517   3.060   2.366   3.733
 2880TIP3    H2 8518   3.182   2.425   3.796
 2881TIP3   OH2 8519   3.161   2.130   4.317
 2881TIP3    H1 8520   3.086   2.137   4.380
 2881TIP3    H2 8521   3.201   2.219   4.321
 2882TIP3   OH2 8522   2.978   1.642   2.936
 2882TIP3    H1 8523   3.046   1.707   2.909
 2882TIP3    H2 8524   3.019   1.603   3.016
 2883TIP3   OH2 8525   3.104   1.509   3.139
 2883TIP3    H1 8526   3.039   1.467   3.198
 2883TIP3    H2 8527   3.168   1.549   3.201
 2884TIP3   OH2 8528   3.183   1.909   3.573
 2884TIP3    H1 8529   3.218   1.835   3.520
 2884TIP3    H2 8530   3.148   1.969   3.505
 2885TIP3   OH2 8531   2.962   2.201   3.743
 2885TIP3    H1 8532   2.937   2.200   3.836
 2885TIP3    H2 8533   2.992   2.108   3.741
 2886TIP3   OH2 8534   3.045   1.414   2.792
 2886TIP3    H1 8535   2.974   1.424   2.724
 2886TIP3    H2 8536   3.023   1.490   2.849
 2887TIP3   OH2 8537   2.913   1.078   2.744
 2887TIP3    H1 8538   2.903   1.140   2.671
 2887TIP3    H2 8539   2.884   0.995   2.703
 2888TIP3   OH2 8540   2.920   1.363   3.286
 2888TIP3    H1 8541   2.927   1.267   3.286
 2888TIP3    H2 8542   2.906   1.382   3.382
 2889TIP3   OH2 8543   1.545   1.445   4.028
 2889TIP3    H1 8544   1.545   1.409   3.937
 2889TIP3    H2 8545   1.641   1.443   4.048
 2890TIP3   OH2 8546   3.210   1.789   4.151
 2890TIP3    H1 8547   3.283   1.725   4.135
 2890TIP3    H2 8548   3.219   1.851   4.076
 2891TIP3   OH2 8549   3.395   1.597   4.163
 2891TIP3    H1 8550   3.320   1.547   4.201
 2891TIP3    H2 8551   3.467   1.531   4.177
 2892TIP3   OH2 8552   2.872   0.790   2.746
 2892TIP3    H1 8553   2.914   0.832   2.822
 2892TIP3    H2 8554   2.782   0.776   2.777
 2893TIP3   OH2 8555   2.916   1.077   3.184
 2893TIP3    H1 8556   2.958   0.990   3.198
 2893TIP3    H2 8557   2.975   1.115   3.117
 2894TIP3   OH2 8558   3.080   1.258   3.677
 2894TIP3    H1 8559   3.166   1.285   3.638
 2894TIP3    H2 8560   3.091   1.292   3.767
 2895TIP3   OH2 8561   3.146   1.404   3.908
 2895TIP3    H1 8562   3.067   1.433   3.957
 2895TIP3    H2 8563   3.173   1.486   3.861
 2896TIP3   OH2 8564   1.762   1.127   4.707
 2896TIP3    H1 8565   1.859   1.120   4.709
 2896TIP3    H2 8566   1.738   1.043   4.750
 2897TIP3   OH2 8567   3.585   0.987   4.469
 2897TIP3    H1 8568   3.655   0.923   4.444
 2897TIP3    H2 8569   3.574   1.039   4.386
 2898TIP3   OH2 8570   3.027   0.817   3.209
 2898TIP3    H1 8571   3.074   0.810   3.295
 2898TIP3    H2 8572   2.959   0.748   3.222
 2899TIP3   OH2 8573   1.724   0.819   4.060
 2899TIP3    H1 8574   1.784   0.742   4.054
 2899TIP3    H2 8575   1.785   0.891   4.038
 2900TIP3   OH2 8576   1.530   1.096   4.112
 2900TIP3    H1 8577   1.581   1.082   4.030
 2900TIP3    H2 8578   1.568   1.179   4.143
 2901TIP3   OH2 8579   3.471   1.135   4.266
 2901TIP3    H1 8580   3.383   1.169   4.289
 2901TIP3    H2 8581   3.446   1.058   4.211
 2902TIP3   OH2 8582   2.669   2.308   3.127
 2902TIP3    H1 8583   2.698   2.276   3.038
 2902TIP3    H2 8584   2.747   2.361   3.146
 2903TIP3   OH2 8585   1.732   0.678   4.429
 2903TIP3    H1 8586   1.680   0.670   4.512
 2903TIP3    H2 8587   1.664   0.714   4.368
 2904TIP3   OH2 8588   1.769   2.103   4.505
 2904TIP3    H1 8589   1.678   2.071   4.489
 2904TIP3    H2 8590   1.781   2.081   4.599
 2905TIP3   OH2 8591   1.945   2.131   4.050
 2905TIP3    H1 8592   1.901   2.210   4.012
 2905TIP3    H2 8593   2.033   2.143   4.008
 2906TIP3   OH2 8594   2.395   2.381   4.190
 2906TIP3    H1 8595   2.437   2.379   4.279
 2906TIP3    H2 8596   2.464   2.426   4.138
 2907TIP3   OH2 8597   2.576   2.528   4.044
 2907TIP3    H1 8598   2.651   2.476   4.009
 2907TIP3    H2 8599   2.624   2.586   4.106
 2908TIP3   OH2 8600   3.367   0.894   4.149
 2908TIP3    H1 8601   3.275   0.886   4.117
 2908TIP3    H2 8602   3.399   0.802   4.138
 2909TIP3   OH2 8603   1.621   2.389   4.071
 2909TIP3    H1 8604   1.533   2.428   4.055
 2909TIP3    H2 8605   1.639   2.420   4.161
 2910TIP3   OH2 8606   1.860   2.369   3.932
 2910TIP3    H1 8607   1.774   2.384   3.977
 2910TIP3    H2 8608   1.842   2.405   3.843
 2911TIP3   OH2 8609   2.287   2.401   3.725
 2911TIP3    H1 8610   2.218   2.432   3.665
 2911TIP3    H2 8611   2.316   2.483   3.769
 2912TIP3   OH2 8612   2.759   2.500   3.644
 2912TIP3    H1 8613   2.734   2.594   3.641
 2912TIP3    H2 8614   2.844   2.504   3.597
 2913TIP3   OH2 8615   1.535   2.175   3.810
 2913TIP3    H1 8616   1.564   2.161   3.903
 2913TIP3    H2 8617   1.614   2.139   3.763
 2914TIP3   OH2 8618   1.732   2.052   3.674
 2914TIP3    H1 8619   1.750   1.968   3.722
 2914TIP3    H2 8620   1.823   2.091   3.670
 2915TIP3   OH2 8621   1.993   2.151   3.680
 2915TIP3    H1 8622   2.027   2.061   3.666
 2915TIP3    H2 8623   2.039   2.173   3.763
 2916TIP3   OH2 8624   2.565   0.806   3.759
 2916TIP3    H1 8625   2.528   0.737   3.816
 2916TIP3    H2 8626   2.643   0.762   3.718
 2917TIP3   OH2 8627   3.079   0.762   3.688
 2917TIP3    H1 8628   3.127   0.752   3.604
 2917TIP3    H2 8629   2.994   0.720   3.668
 2918TIP3   OH2 8630   3.188   0.791   3.430
 2918TIP3    H1 8631   3.263   0.734   3.402
 2918TIP3    H2 8632   3.228   0.880   3.419
 2919TIP3   OH2 8633   2.242   0.580   3.654
 2919TIP3    H1 8634   2.317   0.615   3.603
 2919TIP3    H2 8635   2.280   0.574   3.743
 2920TIP3   OH2 8636   2.802   0.690   3.644
 2920TIP3    H1 8637   2.820   0.652   3.557
 2920TIP3    H2 8638   2.790   0.610   3.700
 2921TIP3   OH2 8639   2.845   0.608   3.196
 2921TIP3    H1 8640   2.757   0.648   3.204
 2921TIP3    H2 8641   2.832   0.528   3.253
 2922TIP3   OH2 8642   1.308   1.955   3.211
 2922TIP3    H1 8643   1.230   1.914   3.169
 2922TIP3    H2 8644   1.302   2.045   3.174
 2923TIP3   OH2 8645   2.235   0.724   3.310
 2923TIP3    H1 8646   2.298   0.675   3.366
 2923TIP3    H2 8647   2.273   0.814   3.319
 2924TIP3   OH2 8648   2.096   2.148   2.795
 2924TIP3    H1 8649   2.186   2.168   2.761
 2924TIP3    H2 8650   2.074   2.074   2.735
 2925TIP3   OH2 8651   2.789   2.255   2.897
 2925TIP3    H1 8652   2.791   2.163   2.863
 2925TIP3    H2 8653   2.796   2.308   2.816
 2926TIP3   OH2 8654   2.028   0.798   4.675
 2926TIP3    H1 8655   1.996   0.727   4.733
 2926TIP3    H2 8656   2.123   0.799   4.700
 2927TIP3   OH2 8657   2.277   0.795   4.794
 2927TIP3    H1 8658   2.362   0.771   4.754
 2927TIP3    H2 8659   2.266   0.724   4.860
 2928TIP3   OH2 8660   1.424   2.012   2.866
 2928TIP3    H1 8661   1.407   2.005   2.961
 2928TIP3    H2 8662   1.496   1.948   2.852
 2929TIP3   OH2 8663   3.101   0.856   4.582
 2929TIP3    H1 8664   3.122   0.824   4.673
 2929TIP3    H2 8665   3.189   0.852   4.538
 2930TIP3   OH2 8666   3.042   2.412   4.075
 2930TIP3    H1 8667   2.960   2.379   4.033
 2930TIP3    H2 8668   3.023   2.507   4.078
 2931TIP3   OH2 8669   4.308   1.780   2.842
 2931TIP3    H1 8670   4.279   1.872   2.821
 2931TIP3    H2 8671   4.232   1.730   2.807
 2932TIP3   OH2 8672   4.307   1.780   3.220
 2932TIP3    H1 8673   4.335   1.748   3.307
 2932TIP3    H2 8674   4.264   1.702   3.182
 2933TIP3   OH2 8675   3.610   1.676   3.583
 2933TIP3    H1 8676   3.639   1.609   3.648
 2933TIP3    H2 8677   3.686   1.736   3.583
 2934TIP3   OH2 8678   4.550   2.081   2.902
 2934TIP3    H1 8679   4.534   2.011   2.966
 2934TIP3    H2 8680   4.575   2.156   2.958
 2935TIP3   OH2 8681   3.576   2.085   3.316
 2935TIP3    H1 8682   3.566   1.987   3.316
 2935TIP3    H2 8683   3.673   2.091   3.312
 2936TIP3   OH2 8684   3.285   1.292   3.099
 2936TIP3    H1 8685   3.236   1.375   3.112
 2936TIP3    H2 8686   3.214   1.235   3.065
 2937TIP3   OH2 8687   3.345   1.576   3.263
 2937TIP3    H1 8688   3.393   1.500   3.303
 2937TIP3    H2 8689   3.404   1.599   3.190
 2938TIP3   OH2 8690   4.194   2.543   2.917
 2938TIP3    H1 8691   4.242   2.471   2.870
 2938TIP3    H2 8692   4.191   2.510   3.007
 2939TIP3   OH2 8693   4.105   2.006   3.268
 2939TIP3    H1 8694   4.141   1.929   3.221
 2939TIP3    H2 8695   4.190   2.049   3.292
 2940TIP3   OH2 8696   5.118   1.327   3.267
 2940TIP3    H1 8697   5.146   1.410   3.309
 2940TIP3    H2 8698   5.137   1.346   3.173
 2941TIP3   OH2 8699   4.520   1.509   3.303
 2941TIP3    H1 8700   4.559   1.422   3.323
 2941TIP3    H2 8701   4.487   1.495   3.212
 2942TIP3   OH2 8702   3.854   1.167   3.268
 2942TIP3    H1 8703   3.832   1.240   3.205
 2942TIP3    H2 8704   3.805   1.094   3.225
 2943TIP3   OH2 8705   4.547   1.258   2.892
 2943TIP3    H1 8706   4.621   1.241   2.955
 2943TIP3    H2 8707   4.597   1.293   2.816
 2944TIP3   OH2 8708   3.489   1.371   3.374
 2944TIP3    H1 8709   3.571   1.349   3.422
 2944TIP3    H2 8710   3.501   1.313   3.295
 2945TIP3   OH2 8711   3.930   1.568   3.164
 2945TIP3    H1 8712   4.023   1.541   3.180
 2945TIP3    H2 8713   3.890   1.483   3.134
 2946TIP3   OH2 8714   5.192   1.536   3.435
 2946TIP3    H1 8715   5.108   1.582   3.416
 2946TIP3    H2 8716   5.197   1.550   3.531
 2947TIP3   OH2 8717   3.853   1.150   3.701
 2947TIP3    H1 8718   3.791   1.187   3.635
 2947TIP3    H2 8719   3.802   1.166   3.784
 2948TIP3   OH2 8720   4.201   2.002   2.711
 2948TIP3    H1 8721   4.158   1.976   2.628
 2948TIP3    H2 8722   4.155   2.085   2.732
 2949TIP3   OH2 8723   3.959   1.925   3.500
 2949TIP3    H1 8724   3.893   1.988   3.538
 2949TIP3    H2 8725   3.999   1.979   3.429
 2950TIP3   OH2 8726   4.762   1.258   3.059
 2950TIP3    H1 8727   4.752   1.207   3.141
 2950TIP3    H2 8728   4.815   1.334   3.089
 2951TIP3   OH2 8729   3.722   1.266   3.487
 2951TIP3    H1 8730   3.784   1.338   3.509
 2951TIP3    H2 8731   3.771   1.224   3.412
 2952TIP3   OH2 8732   3.784   2.117   3.595
 2952TIP3    H1 8733   3.758   2.203   3.556
 2952TIP3    H2 8734   3.706   2.101   3.652
 2953TIP3   OH2 8735   3.183   1.810   2.831
 2953TIP3    H1 8736   3.140   1.838   2.748
 2953TIP3    H2 8737   3.210   1.898   2.868
 2954TIP3   OH2 8738   4.622   2.324   3.073
 2954TIP3    H1 8739   4.532   2.315   3.112
 2954TIP3    H2 8740   4.613   2.410   3.026
 2955TIP3   OH2 8741   4.910   1.231   3.435
 2955TIP3    H1 8742   4.821   1.256   3.405
 2955TIP3    H2 8743   4.967   1.258   3.360
 2956TIP3   OH2 8744   4.210   0.871   3.415
 2956TIP3    H1 8745   4.198   0.776   3.433
 2956TIP3    H2 8746   4.132   0.908   3.462
 2957TIP3   OH2 8747   4.322   2.370   2.745
 2957TIP3    H1 8748   4.373   2.289   2.723
 2957TIP3    H2 8749   4.381   2.437   2.704
 2958TIP3   OH2 8750   4.465   2.157   2.649
 2958TIP3    H1 8751   4.429   2.078   2.607
 2958TIP3    H2 8752   4.500   2.121   2.734
 2959TIP3   OH2 8753   4.849   2.240   3.414
 2959TIP3    H1 8754   4.835   2.161   3.356
 2959TIP3    H2 8755   4.829   2.313   3.352
 2960TIP3   OH2 8756   4.139   1.633   2.671
 2960TIP3    H1 8757   4.057   1.682   2.647
 2960TIP3    H2 8758   4.184   1.627   2.584
 2961TIP3   OH2 8759   4.097   1.414   2.394
 2961TIP3    H1 8760   4.168   1.465   2.437
 2961TIP3    H2 8761   4.151   1.350   2.343
 2962TIP3   OH2 8762   5.043   1.877   3.259
 2962TIP3    H1 8763   4.959   1.927   3.266
 2962TIP3    H2 8764   5.070   1.899   3.167
 2963TIP3   OH2 8765   4.485   1.715   2.644
 2963TIP3    H1 8766   4.430   1.740   2.721
 2963TIP3    H2 8767   4.568   1.687   2.689
 2964TIP3   OH2 8768   4.721   1.756   3.551
 2964TIP3    H1 8769   4.716   1.840   3.601
 2964TIP3    H2 8770   4.634   1.756   3.507
 2965TIP3   OH2 8771   3.719   1.713   3.058
 2965TIP3    H1 8772   3.675   1.655   2.992
 2965TIP3    H2 8773   3.795   1.658   3.087
 2966TIP3   OH2 8774   3.852   2.131   3.206
 2966TIP3    H1 8775   3.823   2.078   3.129
 2966TIP3    H2 8776   3.941   2.094   3.224
 2967TIP3   OH2 8777   3.860   1.682   3.414
 2967TIP3    H1 8778   3.889   1.664   3.322
 2967TIP3    H2 8779   3.899   1.769   3.433
 2968TIP3   OH2 8780   4.380   2.321   3.191
 2968TIP3    H1 8781   4.365   2.400   3.245
 2968TIP3    H2 8782   4.366   2.247   3.253
 2969TIP3   OH2 8783   3.990   2.241   3.737
 2969TIP3    H1 8784   3.931   2.303   3.784
 2969TIP3    H2 8785   3.924   2.187   3.689
 2970TIP3   OH2 8786   4.328   1.571   2.469
 2970TIP3    H1 8787   4.386   1.631   2.521
 2970TIP3    H2 8788   4.352   1.596   2.377
 2971TIP3   OH2 8789   3.743   1.799   3.834
 2971TIP3    H1 8790   3.747   1.884   3.883
 2971TIP3    H2 8791   3.648   1.778   3.844
 2972TIP3   OH2 8792   4.062   2.260   2.751
 2972TIP3    H1 8793   4.145   2.307   2.767
 2972TIP3    H2 8794   4.012   2.323   2.697
 2973TIP3   OH2 8795   3.786   2.411   3.825
 2973TIP3    H1 8796   3.751   2.406   3.733
 2973TIP3    H2 8797   3.706   2.389   3.878
 2974TIP3   OH2 8798   4.842   0.814   2.517
 2974TIP3    H1 8799   4.760   0.832   2.568
 2974TIP3    H2 8800   4.853   0.897   2.467
 2975TIP3   OH2 8801   3.583   1.556   2.866
 2975TIP3    H1 8802   3.519   1.602   2.808
 2975TIP3    H2 8803   3.541   1.470   2.878
 2976TIP3   OH2 8804   4.639   2.183   2.066
 2976TIP3    H1 8805   4.648   2.279   2.051
 2976TIP3    H2 8806   4.731   2.153   2.052
 2977TIP3   OH2 8807   3.370   1.941   3.769
 2977TIP3    H1 8808   3.298   1.925   3.704
 2977TIP3    H2 8809   3.399   1.850   3.792
 2978TIP3   OH2 8810   3.215   2.142   3.395
 2978TIP3    H1 8811   3.309   2.121   3.390
 2978TIP3    H2 8812   3.214   2.213   3.461
 2979TIP3   OH2 8813   5.085   2.582   3.459
 2979TIP3    H1 8814   5.083   2.485   3.472
 2979TIP3    H2 8815   5.001   2.607   3.504
 2980TIP3   OH2 8816   4.190   2.370   3.594
 2980TIP3    H1 8817   4.190   2.462   3.627
 2980TIP3    H2 8818   4.118   2.331   3.648
 2981TIP3   OH2 8819   3.941   2.495   2.553
 2981TIP3    H1 8820   3.903   2.478   2.464
 2981TIP3    H2 8821   3.919   2.589   2.567
 2982TIP3   OH2 8822   3.406   2.357   2.931
 2982TIP3    H1 8823   3.416   2.323   3.022
 2982TIP3    H2 8824   3.354   2.286   2.888
 2983TIP3   OH2 8825   4.152   2.399   2.188
 2983TIP3    H1 8826   4.211   2.330   2.150
 2983TIP3    H2 8827   4.186   2.407   2.279
 2984TIP3   OH2 8828   4.197   2.449   2.460
 2984TIP3    H1 8829   4.110   2.454   2.504
 2984TIP3    H2 8830   4.251   2.407   2.529
 2985TIP3   OH2 8831   4.976   1.717   3.732
 2985TIP3    H1 8832   4.893   1.730   3.682
 2985TIP3    H2 8833   4.989   1.621   3.722
 2986TIP3   OH2 8834   3.571   2.124   3.763
 2986TIP3    H1 8835   3.620   2.103   3.845
 2986TIP3    H2 8836   3.497   2.059   3.768
 2987TIP3   OH2 8837   3.969   0.947   3.541
 2987TIP3    H1 8838   3.880   0.915   3.517
 2987TIP3    H2 8839   3.945   1.029   3.589
 2988TIP3   OH2 8840   4.502   1.062   3.738
 2988TIP3    H1 8841   4.568   1.034   3.804
 2988TIP3    H2 8842   4.417   1.041   3.783
 2989TIP3   OH2 8843   4.748   1.493   3.660
 2989TIP3    H1 8844   4.696   1.486   3.744
 2989TIP3    H2 8845   4.717   1.577   3.622
 2990TIP3   OH2 8846   4.405   1.623   2.215
 2990TIP3    H1 8847   4.368   1.595   2.129
 2990TIP3    H2 8848   4.485   1.671   2.186
 2991TIP3   OH2 8849   4.116   0.995   2.515
 2991TIP3    H1 8850   4.083   0.993   2.606
 2991TIP3    H2 8851   4.077   0.912   2.481
 2992TIP3   OH2 8852   3.902   1.460   3.563
 2992TIP3    H1 8853   3.850   1.480   3.644
 2992TIP3    H2 8854   3.886   1.540   3.510
 2993TIP3   OH2 8855   3.785   1.347   3.076
 2993TIP3    H1 8856   3.692   1.321   3.093
 2993TIP3    H2 8857   3.799   1.307   2.987
 2994TIP3   OH2 8858   4.276   1.434   2.804
 2994TIP3    H1 8859   4.222   1.505   2.762
 2994TIP3    H2 8860   4.329   1.404   2.728
 2995TIP3   OH2 8861   4.450   1.714   3.893
 2995TIP3    H1 8862   4.426   1.641   3.954
 2995TIP3    H2 8863   4.544   1.725   3.914
 2996TIP3   OH2 8864   4.435   1.464   3.043
 2996TIP3    H1 8865   4.374   1.493   2.972
 2996TIP3    H2 8866   4.466   1.381   3.002
 2997TIP3   OH2 8867   3.722   1.490   3.772
 2997TIP3    H1 8868   3.742   1.552   3.843
 2997TIP3    H2 8869   3.707   1.407   3.821
 2998TIP3   OH2 8870   3.771   0.968   2.481
 2998TIP3    H1 8871   3.762   0.965   2.578
 2998TIP3    H2 8872   3.691   1.019   2.456
 2999TIP3   OH2 8873   3.318   1.013   3.344
 2999TIP3    H1 8874   3.386   1.047   3.406
 2999TIP3    H2 8875   3.372   0.977   3.272
 3000TIP3   OH2 8876   3.301   1.007   2.882
 3000TIP3    H1 8877   3.337   1.039   2.797
 3000TIP3    H2 8878   3.231   1.073   2.897
 3001TIP3   OH2 8879   4.448   1.710   3.468
 3001TIP3    H1 8880   4.478   1.637   3.409
 3001TIP3    H2 8881   4.417   1.658   3.545
 3002TIP3   OH2 8882   4.111   1.172   3.139
 3002TIP3    H1 8883   4.028   1.168   3.190
 3002TIP3    H2 8884   4.177   1.169   3.210
 3003TIP3   OH2 8885   3.548   1.225   3.146
 3003TIP3    H1 8886   3.453   1.232   3.120
 3003TIP3    H2 8887   3.571   1.133   3.122
 3004TIP3   OH2 8888   3.818   1.222   2.834
 3004TIP3    H1 8889   3.912   1.237   2.812
 3004TIP3    H2 8890   3.771   1.246   2.750
 3005TIP3   OH2 8891   4.605   1.245   3.340
 3005TIP3    H1 8892   4.569   1.256   3.431
 3005TIP3    H2 8893   4.540   1.182   3.302
 3006TIP3   OH2 8894   3.654   1.254   2.614
 3006TIP3    H1 8895   3.584   1.210   2.563
 3006TIP3    H2 8896   3.708   1.290   2.540
 3007TIP3   OH2 8897   4.772   2.933   3.557
 3007TIP3    H1 8898   4.769   2.956   3.463
 3007TIP3    H2 8899   4.848   2.986   3.588
 3008TIP3   OH2 8900   3.731   2.045   3.981
 3008TIP3    H1 8901   3.810   2.074   4.031
 3008TIP3    H2 8902   3.665   2.041   4.052
 3009TIP3   OH2 8903   4.197   1.498   3.237
 3009TIP3    H1 8904   4.266   1.454   3.186
 3009TIP3    H2 8905   4.205   1.456   3.324
 3010TIP3   OH2 8906   3.719   0.985   3.112
 3010TIP3    H1 8907   3.688   0.904   3.158
 3010TIP3    H2 8908   3.774   0.949   3.042
 3011TIP3   OH2 8909   4.173   1.394   3.522
 3011TIP3    H1 8910   4.082   1.427   3.538
 3011TIP3    H2 8911   4.229   1.453   3.576
 3012TIP3   OH2 8912   3.909   1.786   2.621
 3012TIP3    H1 8913   3.838   1.719   2.609
 3012TIP3    H2 8914   3.891   1.818   2.713
 3013TIP3   OH2 8915   4.810   2.021   3.251
 3013TIP3    H1 8916   4.833   2.069   3.169
 3013TIP3    H2 8917   4.724   1.979   3.228
 3014TIP3   OH2 8918   4.368   1.097   2.483
 3014TIP3    H1 8919   4.271   1.081   2.488
 3014TIP3    H2 8920   4.376   1.193   2.503
 3015TIP3   OH2 8921   4.315   2.106   3.617
 3015TIP3    H1 8922   4.325   2.076   3.708
 3015TIP3    H2 8923   4.269   2.191   3.626
 3016TIP3   OH2 8924   4.437   1.345   2.586
 3016TIP3    H1 8925   4.534   1.351   2.599
 3016TIP3    H2 8926   4.418   1.423   2.530
 3017TIP3   OH2 8927   3.604   1.809   3.298
 3017TIP3    H1 8928   3.640   1.777   3.213
 3017TIP3    H2 8929   3.635   1.742   3.360
 3018TIP3   OH2 8930   4.055   1.936   2.443
 3018TIP3    H1 8931   4.008   2.022   2.451
 3018TIP3    H2 8932   4.000   1.879   2.500
 3019TIP3   OH2 8933   3.481   1.723   3.908
 3019TIP3    H1 8934   3.500   1.712   4.003
 3019TIP3    H2 8935   3.408   1.660   3.895
 3020TIP3   OH2 8936   4.205   1.841   3.929
 3020TIP3    H1 8937   4.145   1.781   3.881
 3020TIP3    H2 8938   4.292   1.807   3.901
 3021TIP3   OH2 8939   4.471   2.366   3.510
 3021TIP3    H1 8940   4.375   2.360   3.523
 3021TIP3    H2 8941   4.497   2.415   3.591
 3022TIP3   OH2 8942   4.882   1.432   2.420
 3022TIP3    H1 8943   4.819   1.387   2.360
 3022TIP3    H2 8944   4.877   1.521   2.379
 3023TIP3   OH2 8945   5.098   2.292   3.502
 3023TIP3    H1 8946   5.000   2.286   3.495
 3023TIP3    H2 8947   5.123   2.261   3.412
 3024TIP3   OH2 8948   4.582   2.253   2.331
 3024TIP3    H1 8949   4.553   2.182   2.390
 3024TIP3    H2 8950   4.591   2.208   2.245
 3025TIP3   OH2 8951   4.576   1.882   3.171
 3025TIP3    H1 8952   4.482   1.856   3.184
 3025TIP3    H2 8953   4.610   1.803   3.125
 3026TIP3   OH2 8954   3.695   2.104   2.930
 3026TIP3    H1 8955   3.716   2.161   2.856
 3026TIP3    H2 8956   3.600   2.088   2.920
 3027TIP3   OH2 8957   3.264   1.415   2.621
 3027TIP3    H1 8958   3.312   1.498   2.642
 3027TIP3    H2 8959   3.189   1.421   2.685
 3028TIP3   OH2 8960   3.844   1.877   2.869
 3028TIP3    H1 8961   3.806   1.964   2.893
 3028TIP3    H2 8962   3.808   1.821   2.941
 3029TIP3   OH2 8963   3.970   2.456   3.390
 3029TIP3    H1 8964   4.011   2.528   3.340
 3029TIP3    H2 8965   4.046   2.420   3.439
 3030TIP3   OH2 8966   4.362   2.089   3.348
 3030TIP3    H1 8967   4.353   2.088   3.446
 3030TIP3    H2 8968   4.440   2.033   3.335
 3031TIP3   OH2 8969   4.332   1.982   2.231
 3031TIP3    H1 8970   4.384   1.956   2.311
 3031TIP3    H2 8971   4.243   1.953   2.258
 3032TIP3   OH2 8972   4.610   2.624   3.400
 3032TIP3    H1 8973   4.532   2.566   3.394
 3032TIP3    H2 8974   4.592   2.687   3.328
 3033TIP3   OH2 8975   4.674   2.458   2.052
 3033TIP3    H1 8976   4.709   2.529   1.995
 3033TIP3    H2 8977   4.594   2.503   2.085
 3034TIP3   OH2 8978   3.694   1.233   3.918
 3034TIP3    H1 8979   3.598   1.238   3.933
 3034TIP3    H2 8980   3.722   1.172   3.989
 3035TIP3   OH2 8981   4.492   1.919   2.451
 3035TIP3    H1 8982   4.482   1.849   2.519
 3035TIP3    H2 8983   4.589   1.914   2.436
 3036TIP3   OH2 8984   3.407   2.319   3.555
 3036TIP3    H1 8985   3.455   2.238   3.578
 3036TIP3    H2 8986   3.445   2.381   3.619
 3037TIP3   OH2 8987   3.697   1.961   2.224
 3037TIP3    H1 8988   3.716   1.870   2.196
 3037TIP3    H2 8989   3.685   1.950   2.320
 3038TIP3   OH2 8990   3.657   1.965   2.494
 3038TIP3    H1 8991   3.713   1.932   2.565
 3038TIP3    H2 8992   3.652   2.061   2.514
 3039TIP3   OH2 8993   3.381   1.661   2.706
 3039TIP3    H1 8994   3.317   1.707   2.764
 3039TIP3    H2 8995   3.393   1.729   2.637
 3040TIP3   OH2 8996   4.529   1.298   3.598
 3040TIP3    H1 8997   4.609   1.332   3.641
 3040TIP3    H2 8998   4.511   1.216   3.651
 3041TIP3   OH2 8999   4.408   1.050   2.761
 3041TIP3    H1 9000   4.393   1.073   2.667
 3041TIP3    H2 9001   4.447   1.133   2.797
 3042TIP3   OH2 9002   3.914   2.168   2.458
 3042TIP3    H1 9003   3.828   2.200   2.492
 3042TIP3    H2 9004   3.927   2.228   2.383
 3043TIP3   OH2 9005   4.102   1.226   2.865
 3043TIP3    H1 9006   4.166   1.298   2.847
 3043TIP3    H2 9007   4.105   1.221   2.963
 3044TIP3   OH2 9008   4.370   1.548   3.673
 3044TIP3    H1 9009   4.385   1.601   3.754
 3044TIP3    H2 9010   4.423   1.469   3.689
 3045TIP3   OH2 9011   4.246   0.958   2.970
 3045TIP3    H1 9012   4.238   1.036   3.028
 3045TIP3    H2 9013   4.305   0.994   2.900
 3046TIP3   OH2 9014   3.653   2.248   2.522
 3046TIP3    H1 9015   3.632   2.314   2.452
 3046TIP3    H2 9016   3.561   2.234   2.559
 3047TIP3   OH2 9017   3.754   0.952   2.758
 3047TIP3    H1 9018   3.752   1.043   2.793
 3047TIP3    H2 9019   3.850   0.933   2.766
 3048TIP3   OH2 9020   5.013   1.447   3.649
 3048TIP3    H1 9021   4.916   1.448   3.662
 3048TIP3    H2 9022   5.016   1.400   3.564
 3049TIP3   OH2 9023   4.661   1.642   3.042
 3049TIP3    H1 9024   4.584   1.583   3.053
 3049TIP3    H2 9025   4.731   1.593   3.090
 3050TIP3   OH2 9026   3.364   1.875   2.519
 3050TIP3    H1 9027   3.389   1.967   2.542
 3050TIP3    H2 9028   3.436   1.849   2.458
 3051TIP3   OH2 9029   3.317   1.143   2.646
 3051TIP3    H1 9030   3.315   1.240   2.639
 3051TIP3    H2 9031   3.238   1.118   2.596
 3052TIP3   OH2 9032   4.629   2.596   2.993
 3052TIP3    H1 9033   4.585   2.642   2.918
 3052TIP3    H2 9034   4.723   2.614   2.971
 3053TIP3   OH2 9035   3.705   0.867   3.519
 3053TIP3    H1 9036   3.672   0.832   3.434
 3053TIP3    H2 9037   3.697   0.789   3.579
 3054TIP3   OH2 9038   3.238   2.076   2.894
 3054TIP3    H1 9039   3.177   2.142   2.930
 3054TIP3    H2 9040   3.266   2.115   2.808
 3055TIP3   OH2 9041   3.398   2.623   3.972
 3055TIP3    H1 9042   3.485   2.620   4.018
 3055TIP3    H2 9043   3.377   2.528   3.968
 3056TIP3   OH2 9044   3.884   2.593   4.014
 3056TIP3    H1 9045   3.978   2.570   4.023
 3056TIP3    H2 9046   3.858   2.535   3.940
 3057TIP3   OH2 9047   3.866   2.167   2.150
 3057TIP3    H1 9048   3.808   2.093   2.182
 3057TIP3    H2 9049   3.939   2.116   2.111
 3058TIP3   OH2 9050   4.522   2.496   3.748
 3058TIP3    H1 9051   4.512   2.426   3.816
 3058TIP3    H2 9052   4.599   2.546   3.780
 3059TIP3   OH2 9053   4.302   2.210   2.055
 3059TIP3    H1 9054   4.345   2.143   2.111
 3059TIP3    H2 9055   4.356   2.209   1.974
 3060TIP3   OH2 9056   3.524   2.032   4.165
 3060TIP3    H1 9057   3.544   1.936   4.172
 3060TIP3    H2 9058   3.434   2.030   4.127
 3061TIP3   OH2 9059   3.510   1.683   2.359
 3061TIP3    H1 9060   3.562   1.650   2.435
 3061TIP3    H2 9061   3.580   1.685   2.290
 3062TIP3   OH2 9062   4.140   2.116   3.944
 3062TIP3    H1 9063   4.096   2.128   3.858
 3062TIP3    H2 9064   4.170   2.022   3.939
 3063TIP3   OH2 9065   4.015   1.882   2.173
 3063TIP3    H1 9066   4.018   1.892   2.270
 3063TIP3    H2 9067   4.015   1.784   2.166
 3064TIP3   OH2 9068   4.633   2.121   3.551
 3064TIP3    H1 9069   4.704   2.171   3.506
 3064TIP3    H2 9070   4.558   2.181   3.540
 3065TIP3   OH2 9071   3.650   1.767   4.151
 3065TIP3    H1 9072   3.719   1.702   4.135
 3065TIP3    H2 9073   3.673   1.798   4.241
 3066TIP3   OH2 9074   3.720   1.586   2.589
 3066TIP3    H1 9075   3.690   1.542   2.671
 3066TIP3    H2 9076   3.753   1.510   2.537
 3067TIP3   OH2 9077   3.986   1.653   3.817
 3067TIP3    H1 9078   3.907   1.710   3.820
 3067TIP3    H2 9079   4.031   1.685   3.736
 3068TIP3   OH2 9080   3.816   1.378   2.432
 3068TIP3    H1 9081   3.788   1.378   2.338
 3068TIP3    H2 9082   3.914   1.385   2.422
 3069TIP3   OH2 9083   4.502   2.054   3.950
 3069TIP3    H1 9084   4.581   2.029   3.901
 3069TIP3    H2 9085   4.498   1.984   4.018
 3070TIP3   OH2 9086   4.642   1.712   2.088
 3070TIP3    H1 9087   4.620   1.663   2.006
 3070TIP3    H2 9088   4.609   1.801   2.062
 3071TIP3   OH2 9089   4.110   1.438   3.942
 3071TIP3    H1 9090   4.107   1.357   3.888
 3071TIP3    H2 9091   4.064   1.503   3.885
 3072TIP3   OH2 9092   4.111   1.225   3.747
 3072TIP3    H1 9093   4.136   1.264   3.662
 3072TIP3    H2 9094   4.017   1.201   3.731
 3073TIP3   OH2 9095   4.142   1.763   3.621
 3073TIP3    H1 9096   4.221   1.766   3.566
 3073TIP3    H2 9097   4.084   1.829   3.578
 3074TIP3   OH2 9098   4.722   1.729   4.005
 3074TIP3    H1 9099   4.768   1.643   4.013
 3074TIP3    H2 9100   4.792   1.785   3.969
 3075TIP3   OH2 9101   4.763   1.981   3.741
 3075TIP3    H1 9102   4.704   2.033   3.681
 3075TIP3    H2 9103   4.849   1.999   3.699
 3076TIP3   OH2 9104   3.985   1.554   4.169
 3076TIP3    H1 9105   3.916   1.486   4.184
 3076TIP3    H2 9106   4.021   1.527   4.083
 3077TIP3   OH2 9107   4.243   0.988   3.811
 3077TIP3    H1 9108   4.193   1.071   3.791
 3077TIP3    H2 9109   4.172   0.921   3.802
 3078TIP3   OH2 9110   4.368   1.496   4.031
 3078TIP3    H1 9111   4.356   1.482   4.127
 3078TIP3    H2 9112   4.279   1.470   4.001
 3079TIP3   OH2 9113   4.609   1.443   3.887
 3079TIP3    H1 9114   4.531   1.443   3.946
 3079TIP3    H2 9115   4.680   1.409   3.945
 3080TIP3   OH2 9116   4.845   1.384   4.038
 3080TIP3    H1 9117   4.851   1.288   4.057
 3080TIP3    H2 9118   4.835   1.422   4.128
 3081TIP3   OH2 9119   3.826   1.334   4.217
 3081TIP3    H1 9120   3.830   1.241   4.185
 3081TIP3    H2 9121   3.866   1.322   4.307
 3082TIP3   OH2 9122   4.343   1.005   4.066
 3082TIP3    H1 9123   4.403   0.928   4.068
 3082TIP3    H2 9124   4.300   0.992   3.979
 3083TIP3   OH2 9125   4.407   1.216   4.227
 3083TIP3    H1 9126   4.383   1.144   4.165
 3083TIP3    H2 9127   4.327   1.273   4.224
 3084TIP3   OH2 9128   3.623   2.439   2.325
 3084TIP3    H1 9129   3.719   2.440   2.311
 3084TIP3    H2 9130   3.596   2.492   2.247
 3085TIP3   OH2 9131   3.100   1.822   2.546
 3085TIP3    H1 9132   3.196   1.845   2.538
 3085TIP3    H2 9133   3.101   1.731   2.509
 3086TIP3   OH2 9134   3.175   2.289   3.136
 3086TIP3    H1 9135   3.146   2.215   3.191
 3086TIP3    H2 9136   3.201   2.353   3.203
 3087TIP3   OH2 9137   4.882   2.685   2.947
 3087TIP3    H1 9138   4.906   2.721   3.034
 3087TIP3    H2 9139   4.936   2.738   2.887
 3088TIP3   OH2 9140   4.912   2.709   3.229
 3088TIP3    H1 9141   4.867   2.622   3.224
 3088TIP3    H2 9142   4.984   2.686   3.288
 3089TIP3   OH2 9143   4.958   2.385   3.802
 3089TIP3    H1 9144   4.883   2.392   3.865
 3089TIP3    H2 9145   4.997   2.474   3.807
 3090TIP3   OH2 9146   4.773   1.899   2.424
 3090TIP3    H1 9147   4.842   1.962   2.396
 3090TIP3    H2 9148   4.814   1.858   2.503
 3091TIP3   OH2 9149   4.901   1.766   2.627
 3091TIP3    H1 9150   4.834   1.722   2.683
 3091TIP3    H2 9151   4.961   1.807   2.693
 3092TIP3   OH2 9152   4.955   2.157   3.061
 3092TIP3    H1 9153   5.007   2.094   3.008
 3092TIP3    H2 9154   4.942   2.231   2.999
 3093TIP3   OH2 9155   4.787   2.458   3.255
 3093TIP3    H1 9156   4.716   2.500   3.306
 3093TIP3    H2 9157   4.737   2.410   3.186
 3094TIP3   OH2 9158   4.839   1.674   2.274
 3094TIP3    H1 9159   4.768   1.675   2.206
 3094TIP3    H2 9160   4.810   1.750   2.328
 3095TIP3   OH2 9161   4.711   1.347   2.228
 3095TIP3    H1 9162   4.669   1.386   2.151
 3095TIP3    H2 9163   4.684   1.253   2.218
 3096TIP3   OH2 9164   4.717   1.621   2.773
 3096TIP3    H1 9165   4.722   1.524   2.767
 3096TIP3    H2 9166   4.702   1.635   2.869
 3097TIP3   OH2 9167   3.344   1.683   3.519
 3097TIP3    H1 9168   3.343   1.659   3.424
 3097TIP3    H2 9169   3.441   1.690   3.536
 3098TIP3   OH2 9170   5.004   2.046   3.630
 3098TIP3    H1 9171   5.077   1.981   3.621
 3098TIP3    H2 9172   5.030   2.115   3.567
 3099TIP3   OH2 9173   5.192   1.855   3.649
 3099TIP3    H1 9174   5.116   1.805   3.686
 3099TIP3    H2 9175   5.263   1.788   3.663
 3100TIP3   OH2 9176   4.654   1.081   2.217
 3100TIP3    H1 9177   4.727   1.048   2.273
 3100TIP3    H2 9178   4.579   1.023   2.239
 3101TIP3   OH2 9179   4.712   1.338   2.670
 3101TIP3    H1 9180   4.751   1.249   2.686
 3101TIP3    H2 9181   4.769   1.369   2.599
 3102TIP3   OH2 9182   4.874   1.513   3.163
 3102TIP3    H1 9183   4.961   1.540   3.124
 3102TIP3    H2 9184   4.886   1.549   3.253
 3103TIP3   OH2 9185   4.941   1.656   3.397
 3103TIP3    H1 9186   4.862   1.688   3.445
 3103TIP3    H2 9187   4.972   1.738   3.352
 3104TIP3   OH2 9188   3.561   1.388   4.199
 3104TIP3    H1 9189   3.659   1.377   4.197
 3104TIP3    H2 9190   3.535   1.301   4.235
 3105TIP3   OH2 9191   5.397   1.249   3.953
 3105TIP3    H1 9192   5.451   1.180   3.908
 3105TIP3    H2 9193   5.367   1.303   3.877
 3106TIP3   OH2 9194   4.820   1.087   2.706
 3106TIP3    H1 9195   4.867   1.070   2.791
 3106TIP3    H2 9196   4.759   1.010   2.704
 3107TIP3   OH2 9197   3.519   1.074   3.521
 3107TIP3    H1 9198   3.581   1.000   3.535
 3107TIP3    H2 9199   3.581   1.149   3.520
 3108TIP3   OH2 9200   3.326   1.350   3.599
 3108TIP3    H1 9201   3.374   1.342   3.515
 3108TIP3    H2 9202   3.349   1.440   3.626
 3109TIP3   OH2 9203   5.266   1.388   3.759
 3109TIP3    H1 9204   5.178   1.426   3.780
 3109TIP3    H2 9205   5.239   1.316   3.699
 3110TIP3   OH2 9206   4.904   1.023   2.340
 3110TIP3    H1 9207   4.943   0.951   2.287
 3110TIP3    H2 9208   4.969   1.095   2.328
 3111TIP3   OH2 9209   3.300   0.840   3.091
 3111TIP3    H1 9210   3.216   0.859   3.136
 3111TIP3    H2 9211   3.303   0.909   3.021
 3112TIP3   OH2 9212   4.466   2.552   2.606
 3112TIP3    H1 9213   4.516   2.537   2.524
 3112TIP3    H2 9214   4.517   2.622   2.648
 3113TIP3   OH2 9215   3.525   0.931   3.915
 3113TIP3    H1 9216   3.476   0.925   3.998
 3113TIP3    H2 9217   3.458   0.970   3.856
 3114TIP3   OH2 9218   3.565   2.362   3.993
 3114TIP3    H1 9219   3.476   2.328   3.973
 3114TIP3    H2 9220   3.575   2.336   4.086
 3115TIP3   OH2 9221   3.743   2.389   3.540
 3115TIP3    H1 9222   3.694   2.464   3.500
 3115TIP3    H2 9223   3.829   2.403   3.494
 3116TIP3   OH2 9224   4.191   2.636   3.677
 3116TIP3    H1 9225   4.233   2.637   3.766
 3116TIP3    H2 9226   4.257   2.686   3.625
 3117TIP3   OH2 9227   4.369   2.786   3.534
 3117TIP3    H1 9228   4.440   2.735   3.493
 3117TIP3    H2 9229   4.420   2.843   3.595
 3118TIP3   OH2 9230   5.163   1.150   3.635
 3118TIP3    H1 9231   5.071   1.144   3.603
 3118TIP3    H2 9232   5.192   1.056   3.623
 3119TIP3   OH2 9233   3.425   2.651   3.561
 3119TIP3    H1 9234   3.336   2.685   3.535
 3119TIP3    H2 9235   3.426   2.676   3.653
 3120TIP3   OH2 9236   3.658   2.626   3.417
 3120TIP3    H1 9237   3.573   2.639   3.464
 3120TIP3    H2 9238   3.636   2.660   3.328
 3121TIP3   OH2 9239   4.086   2.657   3.217
 3121TIP3    H1 9240   4.017   2.678   3.151
 3121TIP3    H2 9241   4.098   2.744   3.260
 3122TIP3   OH2 9242   4.352   2.597   3.268
 3122TIP3    H1 9243   4.257   2.612   3.249
 3122TIP3    H2 9244   4.392   2.675   3.226
 3123TIP3   OH2 9245   4.563   2.790   3.185
 3123TIP3    H1 9246   4.546   2.874   3.137
 3123TIP3    H2 9247   4.585   2.729   3.111
 3124TIP3   OH2 9248   3.330   2.447   3.316
 3124TIP3    H1 9249   3.361   2.418   3.405
 3124TIP3    H2 9250   3.397   2.400   3.261
 3125TIP3   OH2 9251   3.525   2.313   3.174
 3125TIP3    H1 9252   3.536   2.226   3.218
 3125TIP3    H2 9253   3.617   2.344   3.171
 3126TIP3   OH2 9254   3.793   2.407   3.157
 3126TIP3    H1 9255   3.824   2.314   3.154
 3126TIP3    H2 9256   3.831   2.433   3.243
 3127TIP3   OH2 9257   4.368   1.065   3.254
 3127TIP3    H1 9258   4.324   0.997   3.308
 3127TIP3    H2 9259   4.437   1.014   3.208
 3128TIP3   OH2 9260   4.894   0.948   3.162
 3128TIP3    H1 9261   4.929   0.998   3.085
 3128TIP3    H2 9262   4.797   0.961   3.153
 3129TIP3   OH2 9263   4.987   1.047   2.924
 3129TIP3    H1 9264   5.060   0.995   2.883
 3129TIP3    H2 9265   5.020   1.139   2.908
 3130TIP3   OH2 9266   3.616   0.772   3.270
 3130TIP3    H1 9267   3.525   0.735   3.277
 3130TIP3    H2 9268   3.669   0.689   3.268
 3131TIP3   OH2 9269   3.384   0.664   2.902
 3131TIP3    H1 9270   3.444   0.718   2.847
 3131TIP3    H2 9271   3.374   0.722   2.981
 3132TIP3   OH2 9272   4.057   0.808   3.150
 3132TIP3    H1 9273   4.119   0.857   3.094
 3132TIP3    H2 9274   4.078   0.842   3.238
 3133TIP3   OH2 9275   4.613   0.952   3.135
 3133TIP3    H1 9276   4.603   0.916   3.045
 3133TIP3    H2 9277   4.596   0.871   3.189
 3134TIP3   OH2 9278   4.638   0.874   2.697
 3134TIP3    H1 9279   4.550   0.914   2.704
 3134TIP3    H2 9280   4.622   0.789   2.744
 3135TIP3   OH2 9281   3.523   0.797   2.689
 3135TIP3    H1 9282   3.572   0.740   2.627
 3135TIP3    H2 9283   3.594   0.857   2.720
 3136TIP3   OH2 9284   4.031   0.976   2.781
 3136TIP3    H1 9285   4.092   0.929   2.841
 3136TIP3    H2 9286   4.053   1.069   2.806
 3137TIP3   OH2 9287   3.892   2.407   2.280
 3137TIP3    H1 9288   3.981   2.428   2.244
 3137TIP3    H2 9289   3.871   2.331   2.223
 3138TIP3   OH2 9290   4.611   2.520   2.373
 3138TIP3    H1 9291   4.603   2.423   2.359
 3138TIP3    H2 9292   4.566   2.554   2.293
 3139TIP3   OH2 9293   3.826   1.057   4.166
 3139TIP3    H1 9294   3.792   0.978   4.213
 3139TIP3    H2 9295   3.920   1.053   4.195
 3140TIP3   OH2 9296   4.076   1.037   4.291
 3140TIP3    H1 9297   4.158   1.020   4.242
 3140TIP3    H2 9298   4.081   0.965   4.356
 3141TIP3   OH2 9299   4.897   1.112   4.069
 3141TIP3    H1 9300   4.916   1.081   4.160
 3141TIP3    H2 9301   4.985   1.106   4.027
 3142TIP3   OH2 9302   4.840   2.665   3.560
 3142TIP3    H1 9303   4.760   2.632   3.514
 3142TIP3    H2 9304   4.818   2.761   3.563
 3143TIP3   OH2 9305   6.113   2.014   2.334
 3143TIP3    H1 9306   6.093   2.110   2.328
 3143TIP3    H2 9307   6.032   1.981   2.289
 3144TIP3   OH2 9308   6.117   2.019   2.697
 3144TIP3    H1 9309   6.139   2.010   2.792
 3144TIP3    H2 9310   6.055   1.946   2.685
 3145TIP3   OH2 9311   5.405   1.932   3.068
 3145TIP3    H1 9312   5.434   1.865   3.134
 3145TIP3    H2 9313   5.478   1.995   3.073
 3146TIP3   OH2 9314   6.345   2.327   2.394
 3146TIP3    H1 9315   6.334   2.269   2.470
 3146TIP3    H2 9316   6.370   2.411   2.436
 3147TIP3   OH2 9317   5.373   2.344   2.800
 3147TIP3    H1 9318   5.363   2.246   2.803
 3147TIP3    H2 9319   5.470   2.350   2.796
 3148TIP3   OH2 9320   5.081   1.550   2.586
 3148TIP3    H1 9321   5.027   1.631   2.597
 3148TIP3    H2 9322   5.014   1.490   2.551
 3149TIP3   OH2 9323   5.144   1.837   2.755
 3149TIP3    H1 9324   5.189   1.757   2.792
 3149TIP3    H2 9325   5.192   1.849   2.672
 3150TIP3   OH2 9326   5.998   2.808   2.404
 3150TIP3    H1 9327   6.045   2.733   2.361
 3150TIP3    H2 9328   5.979   2.774   2.492
 3151TIP3   OH2 9329   5.901   2.263   2.755
 3151TIP3    H1 9330   5.932   2.193   2.697
 3151TIP3    H2 9331   5.986   2.304   2.781
 3152TIP3   OH2 9332   6.327   1.770   2.777
 3152TIP3    H1 9333   6.370   1.686   2.805
 3152TIP3    H2 9334   6.240   1.737   2.749
 3153TIP3   OH2 9335   5.647   1.424   2.755
 3153TIP3    H1 9336   5.624   1.494   2.690
 3153TIP3    H2 9337   5.603   1.347   2.713
 3154TIP3   OH2 9338   6.344   1.590   2.392
 3154TIP3    H1 9339   6.402   1.538   2.452
 3154TIP3    H2 9340   6.380   1.559   2.306
 3155TIP3   OH2 9341   5.285   1.627   2.861
 3155TIP3    H1 9342   5.367   1.603   2.909
 3155TIP3    H2 9343   5.294   1.569   2.782
 3156TIP3   OH2 9344   5.727   1.822   2.646
 3156TIP3    H1 9345   5.813   1.784   2.667
 3156TIP3    H2 9346   5.677   1.742   2.617
 3157TIP3   OH2 9347   6.989   1.781   2.917
 3157TIP3    H1 9348   6.902   1.821   2.898
 3157TIP3    H2 9349   6.996   1.799   3.012
 3158TIP3   OH2 9350   5.649   1.409   3.190
 3158TIP3    H1 9351   5.587   1.442   3.122
 3158TIP3    H2 9352   5.597   1.424   3.271
 3159TIP3   OH2 9353   6.005   2.251   2.199
 3159TIP3    H1 9354   5.955   2.228   2.119
 3159TIP3    H2 9355   5.962   2.336   2.222
 3160TIP3   OH2 9356   5.755   2.182   2.987
 3160TIP3    H1 9357   5.688   2.243   3.026
 3160TIP3    H2 9358   5.793   2.238   2.916
 3161TIP3   OH2 9359   6.564   1.515   2.545
 3161TIP3    H1 9360   6.544   1.455   2.618
 3161TIP3    H2 9361   6.600   1.594   2.589
 3162TIP3   OH2 9362   5.518   1.522   2.974
 3162TIP3    H1 9363   5.582   1.593   2.996
 3162TIP3    H2 9364   5.565   1.479   2.899
 3163TIP3   OH2 9365   5.581   2.373   3.081
 3163TIP3    H1 9366   5.555   2.459   3.042
 3163TIP3    H2 9367   5.503   2.358   3.139
 3164TIP3   OH2 9368   4.980   2.064   2.317
 3164TIP3    H1 9369   4.934   2.088   2.234
 3164TIP3    H2 9370   5.006   2.152   2.353
 3165TIP3   OH2 9371   6.418   2.575   2.556
 3165TIP3    H1 9372   6.329   2.567   2.599
 3165TIP3    H2 9373   6.410   2.665   2.518
 3166TIP3   OH2 9374   6.704   1.499   2.916
 3166TIP3    H1 9375   6.608   1.513   2.916
 3166TIP3    H2 9376   6.724   1.505   2.822
 3167TIP3   OH2 9377   6.007   1.129   2.905
 3167TIP3    H1 9378   5.994   1.034   2.919
 3167TIP3    H2 9379   5.926   1.164   2.948
 3168TIP3   OH2 9380   6.129   2.631   2.242
 3168TIP3    H1 9381   6.174   2.549   2.214
 3168TIP3    H2 9382   6.181   2.697   2.191
 3169TIP3   OH2 9383   6.263   2.415   2.139
 3169TIP3    H1 9384   6.220   2.340   2.094
 3169TIP3    H2 9385   6.294   2.373   2.222
 3170TIP3   OH2 9386   6.643   2.497   2.901
 3170TIP3    H1 9387   6.634   2.419   2.843
 3170TIP3    H2 9388   6.626   2.571   2.840
 3171TIP3   OH2 9389   5.936   1.895   2.154
 3171TIP3    H1 9390   5.850   1.941   2.140
 3171TIP3    H2 9391   5.968   1.888   2.063
 3172TIP3   OH2 9392   5.893   1.672   1.879
 3172TIP3    H1 9393   5.969   1.721   1.915
 3172TIP3    H2 9394   5.938   1.598   1.835
 3173TIP3   OH2 9395   6.837   2.121   2.735
 3173TIP3    H1 9396   6.758   2.179   2.747
 3173TIP3    H2 9397   6.871   2.154   2.649
 3174TIP3   OH2 9398   6.282   1.972   2.124
 3174TIP3    H1 9399   6.222   2.003   2.195
 3174TIP3    H2 9400   6.367   1.966   2.170
 3175TIP3   OH2 9401   6.517   2.014   3.038
 3175TIP3    H1 9402   6.516   2.095   3.091
 3175TIP3    H2 9403   6.428   2.017   2.999
 3176TIP3   OH2 9404   5.514   1.970   2.543
 3176TIP3    H1 9405   5.468   1.913   2.478
 3176TIP3    H2 9406   5.590   1.914   2.569
 3177TIP3   OH2 9407   5.644   2.384   2.693
 3177TIP3    H1 9408   5.619   2.336   2.613
 3177TIP3    H2 9409   5.733   2.349   2.712
 3178TIP3   OH2 9410   5.664   1.936   2.902
 3178TIP3    H1 9411   5.680   1.927   2.806
 3178TIP3    H2 9412   5.693   2.027   2.922
 3179TIP3   OH2 9413   6.180   2.576   2.679
 3179TIP3    H1 9414   6.160   2.658   2.728
 3179TIP3    H2 9415   6.160   2.505   2.744
 3180TIP3   OH2 9416   5.787   2.497   3.224
 3180TIP3    H1 9417   5.727   2.560   3.270
 3180TIP3    H2 9418   5.720   2.444   3.175
 3181TIP3   OH2 9419   6.127   1.820   1.953
 3181TIP3    H1 9420   6.182   1.884   2.003
 3181TIP3    H2 9421   6.149   1.847   1.860
 3182TIP3   OH2 9422   5.540   2.056   3.320
 3182TIP3    H1 9423   5.544   2.140   3.369
 3182TIP3    H2 9424   5.445   2.034   3.333
 3183TIP3   OH2 9425   5.871   2.506   2.229
 3183TIP3    H1 9426   5.935   2.572   2.260
 3183TIP3    H2 9427   5.801   2.560   2.190
 3184TIP3   OH2 9428   5.583   2.667   3.312
 3184TIP3    H1 9429   5.547   2.663   3.221
 3184TIP3    H2 9430   5.504   2.645   3.366
 3185TIP3   OH2 9431   6.638   1.072   2.003
 3185TIP3    H1 9432   6.558   1.085   2.058
 3185TIP3    H2 9433   6.643   1.157   1.955
 3186TIP3   OH2 9434   5.379   1.813   2.354
 3186TIP3    H1 9435   5.314   1.857   2.295
 3186TIP3    H2 9436   5.339   1.726   2.364
 3187TIP3   OH2 9437   6.436   2.439   1.554
 3187TIP3    H1 9438   6.444   2.536   1.537
 3187TIP3    H2 9439   6.528   2.409   1.539
 3188TIP3   OH2 9440   5.163   2.195   3.257
 3188TIP3    H1 9441   5.095   2.174   3.190
 3188TIP3    H2 9442   5.197   2.107   3.282
 3189TIP3   OH2 9443   5.014   2.388   2.892
 3189TIP3    H1 9444   5.111   2.387   2.884
 3189TIP3    H2 9445   5.000   2.469   2.943
 3190TIP3   OH2 9446   6.880   2.837   2.946
 3190TIP3    H1 9447   6.878   2.741   2.961
 3190TIP3    H2 9448   6.796   2.863   2.991
 3191TIP3   OH2 9449   5.987   2.625   3.082
 3191TIP3    H1 9450   5.987   2.718   3.114
 3191TIP3    H2 9451   5.914   2.587   3.135
 3192TIP3   OH2 9452   5.749   2.758   2.030
 3192TIP3    H1 9453   5.698   2.734   1.951
 3192TIP3    H2 9454   5.712   2.845   2.055
 3193TIP3   OH2 9455   5.185   2.605   2.414
 3193TIP3    H1 9456   5.229   2.594   2.501
 3193TIP3    H2 9457   5.123   2.530   2.417
 3194TIP3   OH2 9458   5.950   2.658   1.674
 3194TIP3    H1 9459   6.008   2.587   1.637
 3194TIP3    H2 9460   5.982   2.664   1.766
 3195TIP3   OH2 9461   6.000   2.703   1.947
 3195TIP3    H1 9462   5.908   2.717   1.981
 3195TIP3    H2 9463   6.037   2.649   2.017
 3196TIP3   OH2 9464   6.771   1.973   3.220
 3196TIP3    H1 9465   6.688   1.984   3.171
 3196TIP3    H2 9466   6.786   1.877   3.211
 3197TIP3   OH2 9467   5.368   2.378   3.249
 3197TIP3    H1 9468   5.416   2.361   3.332
 3197TIP3    H2 9469   5.293   2.314   3.255
 3198TIP3   OH2 9470   5.766   1.205   3.030
 3198TIP3    H1 9471   5.678   1.170   3.002
 3198TIP3    H2 9472   5.736   1.285   3.077
 3199TIP3   OH2 9473   6.297   1.323   3.226
 3199TIP3    H1 9474   6.364   1.290   3.289
 3199TIP3    H2 9475   6.213   1.297   3.269
 3200TIP3   OH2 9476   6.543   1.750   3.146
 3200TIP3    H1 9477   6.493   1.741   3.230
 3200TIP3    H2 9478   6.511   1.835   3.111
 3201TIP3   OH2 9479   6.203   1.877   1.701
 3201TIP3    H1 9480   6.164   1.851   1.615
 3201TIP3    H2 9481   6.280   1.928   1.672
 3202TIP3   OH2 9482   5.934   1.238   1.999
 3202TIP3    H1 9483   5.901   1.248   2.091
 3202TIP3    H2 9484   5.875   1.165   1.971
 3203TIP3   OH2 9485   5.701   1.715   3.052
 3203TIP3    H1 9486   5.646   1.734   3.132
 3203TIP3    H2 9487   5.684   1.796   2.998
 3204TIP3   OH2 9488   5.579   1.607   2.564
 3204TIP3    H1 9489   5.487   1.578   2.582
 3204TIP3    H2 9490   5.593   1.565   2.475
 3205TIP3   OH2 9491   6.080   1.698   2.274
 3205TIP3    H1 9492   6.013   1.759   2.233
 3205TIP3    H2 9493   6.114   1.652   2.194
 3206TIP3   OH2 9494   6.247   1.971   3.379
 3206TIP3    H1 9495   6.222   1.897   3.440
 3206TIP3    H2 9496   6.341   1.982   3.402
 3207TIP3   OH2 9497   5.519   1.747   3.258
 3207TIP3    H1 9498   5.534   1.809   3.330
 3207TIP3    H2 9499   5.503   1.663   3.307
 3208TIP3   OH2 9500   5.571   1.225   1.968
 3208TIP3    H1 9501   5.559   1.223   2.065
 3208TIP3    H2 9502   5.490   1.273   1.941
 3209TIP3   OH2 9503   5.109   1.273   2.837
 3209TIP3    H1 9504   5.187   1.299   2.890
 3209TIP3    H2 9505   5.146   1.233   2.757
 3210TIP3   OH2 9506   5.088   1.252   2.359
 3210TIP3    H1 9507   5.130   1.292   2.279
 3210TIP3    H2 9508   5.023   1.323   2.380
 3211TIP3   OH2 9509   6.245   1.967   2.949
 3211TIP3    H1 9510   6.279   1.892   2.896
 3211TIP3    H2 9511   6.214   1.918   3.029
 3212TIP3   OH2 9512   5.911   1.474   2.641
 3212TIP3    H1 9513   5.828   1.440   2.679
 3212TIP3    H2 9514   5.975   1.408   2.675
 3213TIP3   OH2 9515   5.344   1.481   2.633
 3213TIP3    H1 9516   5.249   1.488   2.607
 3213TIP3    H2 9517   5.366   1.389   2.610
 3214TIP3   OH2 9518   5.614   1.483   2.323
 3214TIP3    H1 9519   5.707   1.491   2.298
 3214TIP3    H2 9520   5.565   1.501   2.239
 3215TIP3   OH2 9521   6.395   1.500   2.824
 3215TIP3    H1 9522   6.361   1.509   2.915
 3215TIP3    H2 9523   6.334   1.432   2.789
 3216TIP3   OH2 9524   5.452   1.513   2.103
 3216TIP3    H1 9525   5.378   1.467   2.060
 3216TIP3    H2 9526   5.501   1.545   2.024
 3217TIP3   OH2 9527   6.570   3.189   3.045
 3217TIP3    H1 9528   6.566   3.216   2.951
 3217TIP3    H2 9529   6.646   3.241   3.077
 3218TIP3   OH2 9530   5.528   2.300   3.468
 3218TIP3    H1 9531   5.606   2.332   3.517
 3218TIP3    H2 9532   5.462   2.298   3.539
 3219TIP3   OH2 9533   6.033   1.732   2.719
 3219TIP3    H1 9534   6.001   1.646   2.683
 3219TIP3    H2 9535   6.012   1.717   2.814
 3220TIP3   OH2 9536   5.519   1.241   2.598
 3220TIP3    H1 9537   5.484   1.162   2.645
 3220TIP3    H2 9538   5.582   1.200   2.537
 3221TIP3   OH2 9539   5.970   1.667   2.994
 3221TIP3    H1 9540   5.878   1.685   3.022
 3221TIP3    H2 9541   6.023   1.712   3.063
 3222TIP3   OH2 9542   5.707   2.041   2.111
 3222TIP3    H1 9543   5.634   1.975   2.098
 3222TIP3    H2 9544   5.686   2.075   2.201
 3223TIP3   OH2 9545   6.609   2.278   2.735
 3223TIP3    H1 9546   6.637   2.329   2.655
 3223TIP3    H2 9547   6.519   2.249   2.711
 3224TIP3   OH2 9548   6.152   1.361   1.899
 3224TIP3    H1 9549   6.074   1.333   1.951
 3224TIP3    H2 9550   6.190   1.431   1.957
 3225TIP3   OH2 9551   6.112   2.364   3.103
 3225TIP3    H1 9552   6.119   2.332   3.194
 3225TIP3    H2 9553   6.065   2.449   3.113
 3226TIP3   OH2 9554   6.229   1.584   2.054
 3226TIP3    H1 9555   6.324   1.588   2.079
 3226TIP3    H2 9556   6.215   1.670   2.009
 3227TIP3   OH2 9557   5.406   2.069   2.786
 3227TIP3    H1 9558   5.435   2.034   2.700
 3227TIP3    H2 9559   5.423   1.995   2.846
 3228TIP3   OH2 9560   5.854   2.193   1.936
 3228TIP3    H1 9561   5.806   2.279   1.939
 3228TIP3    H2 9562   5.795   2.137   1.991
 3229TIP3   OH2 9563   5.278   1.981   3.395
 3229TIP3    H1 9564   5.295   1.968   3.490
 3229TIP3    H2 9565   5.206   1.918   3.378
 3230TIP3   OH2 9566   6.001   2.098   3.416
 3230TIP3    H1 9567   5.939   2.037   3.370
 3230TIP3    H2 9568   6.087   2.063   3.387
 3231TIP3   OH2 9569   6.266   2.619   2.997
 3231TIP3    H1 9570   6.170   2.616   3.011
 3231TIP3    H2 9571   6.294   2.671   3.076
 3232TIP3   OH2 9572   6.678   1.692   1.906
 3232TIP3    H1 9573   6.615   1.641   1.849
 3232TIP3    H2 9574   6.671   1.778   1.860
 3233TIP3   OH2 9575   6.893   2.547   2.991
 3233TIP3    H1 9576   6.795   2.542   2.983
 3233TIP3    H2 9577   6.919   2.518   2.901
 3234TIP3   OH2 9578   6.380   2.508   1.819
 3234TIP3    H1 9579   6.347   2.436   1.874
 3234TIP3    H2 9580   6.388   2.466   1.731
 3235TIP3   OH2 9581   6.368   2.140   2.648
 3235TIP3    H1 9582   6.274   2.116   2.662
 3235TIP3    H2 9583   6.411   2.056   2.667
 3236TIP3   OH2 9584   5.496   2.365   2.405
 3236TIP3    H1 9585   5.495   2.448   2.354
 3236TIP3    H2 9586   5.402   2.349   2.417
 3237TIP3   OH2 9587   5.063   1.671   2.114
 3237TIP3    H1 9588   5.106   1.757   2.132
 3237TIP3    H2 9589   4.983   1.677   2.170
 3238TIP3   OH2 9590   5.646   2.136   2.359
 3238TIP3    H1 9591   5.604   2.224   2.372
 3238TIP3    H2 9592   5.601   2.084   2.428
 3239TIP3   OH2 9593   5.766   2.710   2.879
 3239TIP3    H1 9594   5.805   2.784   2.827
 3239TIP3    H2 9595   5.844   2.679   2.928
 3240TIP3   OH2 9596   5.420   2.604   2.263
 3240TIP3    H1 9597   5.333   2.611   2.306
 3240TIP3    H2 9598   5.449   2.698   2.264
 3241TIP3   OH2 9599   6.157   2.340   2.836
 3241TIP3    H1 9600   6.145   2.346   2.933
 3241TIP3    H2 9601   6.243   2.297   2.831
 3242TIP3   OH2 9602   6.127   2.238   1.715
 3242TIP3    H1 9603   6.175   2.214   1.797
 3242TIP3    H2 9604   6.037   2.210   1.738
 3243TIP3   OH2 9605   6.407   2.877   2.887
 3243TIP3    H1 9606   6.327   2.821   2.881
 3243TIP3    H2 9607   6.389   2.944   2.817
 3244TIP3   OH2 9608   6.469   2.714   1.539
 3244TIP3    H1 9609   6.504   2.783   1.480
 3244TIP3    H2 9610   6.389   2.760   1.572
 3245TIP3   OH2 9611   5.489   1.491   3.406
 3245TIP3    H1 9612   5.393   1.495   3.418
 3245TIP3    H2 9613   5.515   1.427   3.474
 3246TIP3   OH2 9614   6.289   2.179   1.935
 3246TIP3    H1 9615   6.278   2.105   1.998
 3246TIP3    H2 9616   6.386   2.175   1.919
 3247TIP3   OH2 9617   5.209   2.575   3.036
 3247TIP3    H1 9618   5.256   2.497   3.068
 3247TIP3    H2 9619   5.232   2.641   3.103
 3248TIP3   OH2 9620   5.502   2.218   1.717
 3248TIP3    H1 9621   5.506   2.126   1.684
 3248TIP3    H2 9622   5.480   2.203   1.811
 3249TIP3   OH2 9623   5.445   2.224   1.988
 3249TIP3    H1 9624   5.507   2.196   2.057
 3249TIP3    H2 9625   5.448   2.322   1.995
 3250TIP3   OH2 9626   5.182   1.920   2.193
 3250TIP3    H1 9627   5.113   1.962   2.250
 3250TIP3    H2 9628   5.191   1.989   2.125
 3251TIP3   OH2 9629   6.327   1.554   3.084
 3251TIP3    H1 9630   6.403   1.589   3.132
 3251TIP3    H2 9631   6.306   1.473   3.135
 3252TIP3   OH2 9632   6.257   1.334   2.204
 3252TIP3    H1 9633   6.188   1.376   2.152
 3252TIP3    H2 9634   6.221   1.346   2.295
 3253TIP3   OH2 9635   5.711   2.424   1.942
 3253TIP3    H1 9636   5.622   2.449   1.975
 3253TIP3    H2 9637   5.720   2.487   1.869
 3254TIP3   OH2 9638   5.900   1.483   2.356
 3254TIP3    H1 9639   5.975   1.543   2.344
 3254TIP3    H2 9640   5.901   1.469   2.453
 3255TIP3   OH2 9641   6.171   1.808   3.158
 3255TIP3    H1 9642   6.182   1.860   3.240
 3255TIP3    H2 9643   6.220   1.727   3.179
 3256TIP3   OH2 9644   5.453   2.497   2.006
 3256TIP3    H1 9645   5.420   2.564   1.942
 3256TIP3    H2 9646   5.433   2.540   2.091
 3257TIP3   OH2 9647   5.554   1.208   2.242
 3257TIP3    H1 9648   5.548   1.295   2.285
 3257TIP3    H2 9649   5.649   1.189   2.255
 3258TIP3   OH2 9650   6.808   1.705   3.135
 3258TIP3    H1 9651   6.711   1.705   3.149
 3258TIP3    H2 9652   6.812   1.655   3.052
 3259TIP3   OH2 9653   5.168   2.128   2.001
 3259TIP3    H1 9654   5.228   2.204   2.005
 3259TIP3    H2 9655   5.214   2.075   1.932
 3260TIP3   OH2 9656   5.116   1.402   2.131
 3260TIP3    H1 9657   5.110   1.499   2.127
 3260TIP3    H2 9658   5.033   1.375   2.089
 3261TIP3   OH2 9659   6.425   2.851   2.487
 3261TIP3    H1 9660   6.375   2.863   2.405
 3261TIP3    H2 9661   6.515   2.880   2.461
 3262TIP3   OH2 9662   5.501   1.123   3.008
 3262TIP3    H1 9663   5.471   1.090   2.921
 3262TIP3    H2 9664   5.491   1.044   3.064
 3263TIP3   OH2 9665   5.044   2.345   2.389
 3263TIP3    H1 9666   4.968   2.372   2.443
 3263TIP3    H2 9667   5.019   2.382   2.302
 3264TIP3   OH2 9668   5.195   2.879   3.457
 3264TIP3    H1 9669   5.280   2.876   3.504
 3264TIP3    H2 9670   5.171   2.784   3.456
 3265TIP3   OH2 9671   5.683   2.849   3.502
 3265TIP3    H1 9672   5.776   2.824   3.507
 3265TIP3    H2 9673   5.653   2.792   3.428
 3266TIP3   OH2 9674   5.663   2.423   1.635
 3266TIP3    H1 9675   5.604   2.352   1.669
 3266TIP3    H2 9676   5.734   2.370   1.595
 3267TIP3   OH2 9677   6.320   2.751   3.233
 3267TIP3    H1 9678   6.309   2.682   3.302
 3267TIP3    H2 9679   6.395   2.803   3.267
 3268TIP3   OH2 9680   6.100   2.468   1.543
 3268TIP3    H1 9681   6.142   2.399   1.597
 3268TIP3    H2 9682   6.151   2.465   1.460
 3269TIP3   OH2 9683   5.328   2.288   3.658
 3269TIP3    H1 9684   5.344   2.192   3.662
 3269TIP3    H2 9685   5.239   2.291   3.616
 3270TIP3   OH2 9686   5.304   1.944   1.848
 3270TIP3    H1 9687   5.355   1.903   1.919
 3270TIP3    H2 9688   5.371   1.945   1.777
 3271TIP3   OH2 9689   5.938   2.373   3.430
 3271TIP3    H1 9690   5.890   2.386   3.345
 3271TIP3    H2 9691   5.966   2.279   3.425
 3272TIP3   OH2 9692   5.820   2.141   1.660
 3272TIP3    H1 9693   5.810   2.151   1.757
 3272TIP3    H2 9694   5.813   2.043   1.652
 3273TIP3   OH2 9695   6.428   2.375   3.032
 3273TIP3    H1 9696   6.499   2.428   2.993
 3273TIP3    H2 9697   6.354   2.438   3.029
 3274TIP3   OH2 9698   5.447   2.023   3.638
 3274TIP3    H1 9699   5.515   1.957   3.624
 3274TIP3    H2 9700   5.470   2.055   3.728
 3275TIP3   OH2 9701   5.522   1.840   2.080
 3275TIP3    H1 9702   5.483   1.797   2.158
 3275TIP3    H2 9703   5.548   1.763   2.025
 3276TIP3   OH2 9704   5.783   1.911   3.306
 3276TIP3    H1 9705   5.702   1.966   3.309
 3276TIP3    H2 9706   5.826   1.942   3.223
 3277TIP3   OH2 9707   5.610   1.635   1.913
 3277TIP3    H1 9708   5.580   1.633   1.820
 3277TIP3    H2 9709   5.706   1.647   1.902
 3278TIP3   OH2 9710   6.299   2.310   3.437
 3278TIP3    H1 9711   6.380   2.285   3.390
 3278TIP3    H2 9712   6.293   2.241   3.506
 3279TIP3   OH2 9713   6.439   1.968   1.575
 3279TIP3    H1 9714   6.415   1.920   1.493
 3279TIP3    H2 9715   6.407   2.058   1.551
 3280TIP3   OH2 9716   5.907   1.695   3.428
 3280TIP3    H1 9717   5.903   1.614   3.374
 3280TIP3    H2 9718   5.860   1.760   3.372
 3281TIP3   OH2 9719   5.907   1.485   3.232
 3281TIP3    H1 9720   5.931   1.514   3.142
 3281TIP3    H2 9721   5.813   1.458   3.219
 3282TIP3   OH2 9722   5.938   2.020   3.108
 3282TIP3    H1 9723   6.016   2.025   3.052
 3282TIP3    H2 9724   5.878   2.086   3.067
 3283TIP3   OH2 9725   6.518   1.985   3.490
 3283TIP3    H1 9726   6.563   1.900   3.504
 3283TIP3    H2 9727   6.590   2.040   3.457
 3284TIP3   OH2 9728   6.559   2.237   3.225
 3284TIP3    H1 9729   6.500   2.289   3.165
 3284TIP3    H2 9730   6.646   2.257   3.184
 3285TIP3   OH2 9731   5.783   1.810   3.657
 3285TIP3    H1 9732   5.713   1.742   3.672
 3285TIP3    H2 9733   5.817   1.783   3.569
 3286TIP3   OH2 9734   6.039   1.247   3.300
 3286TIP3    H1 9735   5.989   1.328   3.278
 3286TIP3    H2 9736   5.971   1.178   3.288
 3287TIP3   OH2 9737   6.165   1.753   3.517
 3287TIP3    H1 9738   6.153   1.739   3.613
 3287TIP3    H2 9739   6.075   1.726   3.488
 3288TIP3   OH2 9740   6.405   1.699   3.372
 3288TIP3    H1 9741   6.328   1.699   3.432
 3288TIP3    H2 9742   6.477   1.665   3.430
 3289TIP3   OH2 9743   6.638   1.640   3.524
 3289TIP3    H1 9744   6.648   1.544   3.543
 3289TIP3    H2 9745   6.630   1.679   3.614
 3290TIP3   OH2 9746   5.624   1.590   3.708
 3290TIP3    H1 9747   5.627   1.498   3.673
 3290TIP3    H2 9748   5.657   1.575   3.799
 3291TIP3   OH2 9749   6.136   1.257   3.557
 3291TIP3    H1 9750   6.202   1.185   3.553
 3291TIP3    H2 9751   6.094   1.248   3.469
 3292TIP3   OH2 9752   6.201   1.472   3.716
 3292TIP3    H1 9753   6.178   1.399   3.653
 3292TIP3    H2 9754   6.122   1.529   3.710
 3293TIP3   OH2 9755   5.420   2.700   1.820
 3293TIP3    H1 9756   5.514   2.699   1.796
 3293TIP3    H2 9757   5.383   2.744   1.741
 3294TIP3   OH2 9758   4.900   2.079   2.037
 3294TIP3    H1 9759   4.994   2.100   2.022
 3294TIP3    H2 9760   4.892   1.991   1.994
 3295TIP3   OH2 9761   4.815   2.693   2.446
 3295TIP3    H1 9762   4.746   2.632   2.412
 3295TIP3    H2 9763   4.857   2.636   2.513
 3296TIP3   OH2 9764   4.951   2.547   2.634
 3296TIP3    H1 9765   4.936   2.472   2.693
 3296TIP3    H2 9766   4.998   2.608   2.694
 3297TIP3   OH2 9767   6.666   2.963   2.425
 3297TIP3    H1 9768   6.694   2.984   2.516
 3297TIP3    H2 9769   6.746   2.986   2.375
 3298TIP3   OH2 9770   6.706   2.962   2.709
 3298TIP3    H1 9771   6.665   2.873   2.713
 3298TIP3    H2 9772   6.782   2.948   2.767
 3299TIP3   OH2 9773   6.754   2.644   3.289
 3299TIP3    H1 9774   6.680   2.649   3.352
 3299TIP3    H2 9775   6.794   2.733   3.296
 3300TIP3   OH2 9776   6.568   2.155   1.911
 3300TIP3    H1 9777   6.636   2.219   1.881
 3300TIP3    H2 9778   6.613   2.117   1.990
 3301TIP3   OH2 9779   6.695   2.028   2.121
 3301TIP3    H1 9780   6.654   1.987   2.198
 3301TIP3    H2 9781   6.775   2.068   2.161
 3302TIP3   OH2 9782   6.748   2.412   2.543
 3302TIP3    H1 9783   6.805   2.352   2.490
 3302TIP3    H2 9784   6.739   2.489   2.484
 3303TIP3   OH2 9785   6.583   2.713   2.741
 3303TIP3    H1 9786   6.513   2.757   2.795
 3303TIP3    H2 9787   6.530   2.664   2.675
 3304TIP3   OH2 9788   6.634   1.930   1.762
 3304TIP3    H1 9789   6.564   1.931   1.692
 3304TIP3    H2 9790   6.606   2.008   1.814
 3305TIP3   OH2 9791   6.504   1.597   1.719
 3305TIP3    H1 9792   6.470   1.644   1.642
 3305TIP3    H2 9793   6.470   1.507   1.703
 3306TIP3   OH2 9794   5.139   1.952   3.006
 3306TIP3    H1 9795   5.136   1.922   2.913
 3306TIP3    H2 9796   5.236   1.952   3.022
 3307TIP3   OH2 9797   6.800   2.303   3.115
 3307TIP3    H1 9798   6.873   2.237   3.109
 3307TIP3    H2 9799   6.831   2.374   3.057
 3308TIP3   OH2 9800   6.986   2.111   3.136
 3308TIP3    H1 9801   6.912   2.059   3.175
 3308TIP3    H2 9802   7.059   2.046   3.149
 3309TIP3   OH2 9803   6.440   1.322   1.724
 3309TIP3    H1 9804   6.536   1.318   1.740
 3309TIP3    H2 9805   6.408   1.273   1.801
 3310TIP3   OH2 9806   6.498   1.587   2.140
 3310TIP3    H1 9807   6.539   1.501   2.165
 3310TIP3    H2 9808   6.566   1.622   2.079
 3311TIP3   OH2 9809   6.683   1.751   2.652
 3311TIP3    H1 9810   6.763   1.791   2.614
 3311TIP3    H2 9811   6.677   1.799   2.737
 3312TIP3   OH2 9812   6.733   1.909   2.878
 3312TIP3    H1 9813   6.659   1.942   2.933
 3312TIP3    H2 9814   6.767   1.992   2.840
 3313TIP3   OH2 9815   5.357   1.642   3.686
 3313TIP3    H1 9816   5.454   1.631   3.684
 3313TIP3    H2 9817   5.330   1.556   3.724
 3314TIP3   OH2 9818   7.188   1.503   3.440
 3314TIP3    H1 9819   7.247   1.435   3.399
 3314TIP3    H2 9820   7.165   1.558   3.363
 3315TIP3   OH2 9821   6.613   1.342   2.199
 3315TIP3    H1 9822   6.650   1.316   2.285
 3315TIP3    H2 9823   6.547   1.270   2.188
 3316TIP3   OH2 9824   5.316   1.330   3.012
 3316TIP3    H1 9825   5.378   1.255   3.022
 3316TIP3    H2 9826   5.379   1.404   3.008
 3317TIP3   OH2 9827   5.121   1.606   3.087
 3317TIP3    H1 9828   5.168   1.595   3.002
 3317TIP3    H2 9829   5.150   1.694   3.114
 3318TIP3   OH2 9830   7.063   1.646   3.244
 3318TIP3    H1 9831   6.975   1.682   3.267
 3318TIP3    H2 9832   7.036   1.571   3.187
 3319TIP3   OH2 9833   6.696   1.292   1.820
 3319TIP3    H1 9834   6.728   1.213   1.773
 3319TIP3    H2 9835   6.771   1.354   1.813
 3320TIP3   OH2 9836   5.102   1.114   2.591
 3320TIP3    H1 9837   5.007   1.107   2.612
 3320TIP3    H2 9838   5.100   1.168   2.509
 3321TIP3   OH2 9839   6.271   2.808   2.094
 3321TIP3    H1 9840   6.297   2.782   2.004
 3321TIP3    H2 9841   6.348   2.856   2.123
 3322TIP3   OH2 9842   5.323   1.192   3.403
 3322TIP3    H1 9843   5.271   1.182   3.485
 3322TIP3    H2 9844   5.255   1.227   3.342
 3323TIP3   OH2 9845   5.364   2.613   3.480
 3323TIP3    H1 9846   5.272   2.586   3.460
 3323TIP3    H2 9847   5.368   2.595   3.575
 3324TIP3   OH2 9848   5.541   2.644   3.027
 3324TIP3    H1 9849   5.488   2.717   2.989
 3324TIP3    H2 9850   5.625   2.661   2.980
 3325TIP3   OH2 9851   5.989   2.890   3.163
 3325TIP3    H1 9852   6.029   2.894   3.253
 3325TIP3    H2 9853   6.054   2.942   3.111
 3326TIP3   OH2 9854   6.167   3.041   3.021
 3326TIP3    H1 9855   6.240   2.991   2.983
 3326TIP3    H2 9856   6.215   3.101   3.081
 3327TIP3   OH2 9857   6.961   1.402   3.122
 3327TIP3    H1 9858   6.868   1.392   3.096
 3327TIP3    H2 9859   6.992   1.309   3.112
 3328TIP3   OH2 9860   5.220   2.906   3.048
 3328TIP3    H1 9861   5.131   2.939   3.022
 3328TIP3    H2 9862   5.222   2.935   3.140
 3329TIP3   OH2 9863   5.455   2.883   2.905
 3329TIP3    H1 9864   5.369   2.896   2.952
 3329TIP3    H2 9865   5.432   2.917   2.816
 3330TIP3   OH2 9866   5.881   2.913   2.701
 3330TIP3    H1 9867   5.809   2.933   2.639
 3330TIP3    H2 9868   5.892   3.000   2.745
 3331TIP3   OH2 9869   6.148   2.852   2.750
 3331TIP3    H1 9870   6.052   2.867   2.734
 3331TIP3    H2 9871   6.185   2.936   2.719
 3332TIP3   OH2 9872   6.359   3.048   2.677
 3332TIP3    H1 9873   6.342   3.131   2.628
 3332TIP3    H2 9874   6.381   2.985   2.606
 3333TIP3   OH2 9875   5.130   2.701   2.794
 3333TIP3    H1 9876   5.155   2.673   2.885
 3333TIP3    H2 9877   5.200   2.655   2.743
 3334TIP3   OH2 9878   5.321   2.570   2.649
 3334TIP3    H1 9879   5.336   2.486   2.699
 3334TIP3    H2 9880   5.412   2.606   2.645
 3335TIP3   OH2 9881   5.590   2.666   2.649
 3335TIP3    H1 9882   5.618   2.574   2.639
 3335TIP3    H2 9883   5.628   2.687   2.736
 3336TIP3   OH2 9884   6.170   1.323   2.747
 3336TIP3    H1 9885   6.122   1.256   2.799
 3336TIP3    H2 9886   6.190   1.271   2.667
 3337TIP3   OH2 9887   6.693   1.219   2.652
 3337TIP3    H1 9888   6.726   1.263   2.571
 3337TIP3    H2 9889   6.596   1.213   2.635
 3338TIP3   OH2 9890   6.804   1.319   2.411
 3338TIP3    H1 9891   6.865   1.250   2.376
 3338TIP3    H2 9892   6.820   1.389   2.347
 3339TIP3   OH2 9893   5.414   1.032   2.760
 3339TIP3    H1 9894   5.322   0.997   2.758
 3339TIP3    H2 9895   5.464   0.947   2.756
 3340TIP3   OH2 9896   5.192   0.899   2.403
 3340TIP3    H1 9897   5.226   0.959   2.334
 3340TIP3    H2 9898   5.165   0.962   2.472
 3341TIP3   OH2 9899   5.842   1.082   2.640
 3341TIP3    H1 9900   5.911   1.097   2.571
 3341TIP3    H2 9901   5.891   1.101   2.720
 3342TIP3   OH2 9902   6.423   1.202   2.609
 3342TIP3    H1 9903   6.368   1.175   2.534
 3342TIP3    H2 9904   6.397   1.133   2.675
 3343TIP3   OH2 9905   6.436   1.127   2.179
 3343TIP3    H1 9906   6.355   1.181   2.194
 3343TIP3    H2 9907   6.414   1.047   2.232
 3344TIP3   OH2 9908   4.918   2.468   2.185
 3344TIP3    H1 9909   4.833   2.434   2.151
 3344TIP3    H2 9910   4.904   2.563   2.169
 3345TIP3   OH2 9911   5.315   1.060   2.170
 3345TIP3    H1 9912   5.366   1.004   2.110
 3345TIP3    H2 9913   5.385   1.116   2.209
 3346TIP3   OH2 9914   5.840   1.229   2.262
 3346TIP3    H1 9915   5.905   1.174   2.311
 3346TIP3    H2 9916   5.859   1.316   2.303
 3347TIP3   OH2 9917   5.689   2.662   1.765
 3347TIP3    H1 9918   5.776   2.684   1.728
 3347TIP3    H2 9919   5.666   2.586   1.708
 3348TIP3   OH2 9920   6.408   2.776   1.859
 3348TIP3    H1 9921   6.402   2.678   1.844
 3348TIP3    H2 9922   6.361   2.808   1.778
 3349TIP3   OH2 9923   5.621   1.315   3.651
 3349TIP3    H1 9924   5.587   1.242   3.706
 3349TIP3    H2 9925   5.716   1.313   3.676
 3350TIP3   OH2 9926   5.871   1.309   3.769
 3350TIP3    H1 9927   5.954   1.279   3.728
 3350TIP3    H2 9928   5.856   1.239   3.836
 3351TIP3   OH2 9929   4.994   2.501   1.825
 3351TIP3    H1 9930   4.988   2.524   1.919
 3351TIP3    H2 9931   5.082   2.457   1.819
 3352TIP3   OH2 9932   6.693   1.369   3.556
 3352TIP3    H1 9933   6.713   1.337   3.647
 3352TIP3    H2 9934   6.781   1.363   3.514
 3353TIP3   OH2 9935   6.635   2.921   3.049
 3353TIP3    H1 9936   6.555   2.889   3.002
 3353TIP3    H2 9937   6.616   3.017   3.050
 3354TIP3   OH2 9938   7.900   2.293   1.814
 3354TIP3    H1 9939   7.874   2.385   1.796
 3354TIP3    H2 9940   7.821   2.246   1.782
 3355TIP3   OH2 9941   7.896   2.292   2.194
 3355TIP3    H1 9942   7.929   2.265   2.282
 3355TIP3    H2 9943   7.856   2.209   2.162
 3356TIP3   OH2 9944   7.198   2.188   2.562
 3356TIP3    H1 9945   7.230   2.124   2.628
 3356TIP3    H2 9946   7.275   2.246   2.554
 3357TIP3   OH2 9947   8.142   2.593   1.876
 3357TIP3    H1 9948   8.128   2.526   1.944
 3357TIP3    H2 9949   8.168   2.671   1.929
 3358TIP3   OH2 9950   7.167   2.595   2.286
 3358TIP3    H1 9951   7.160   2.497   2.290
 3358TIP3    H2 9952   7.264   2.606   2.281
 3359TIP3   OH2 9953   6.868   1.796   2.082
 3359TIP3    H1 9954   6.824   1.882   2.083
 3359TIP3    H2 9955   6.804   1.744   2.029
 3360TIP3   OH2 9956   6.937   2.087   2.232
 3360TIP3    H1 9957   6.989   2.012   2.270
 3360TIP3    H2 9958   7.002   2.127   2.172
 3361TIP3   OH2 9959   7.786   3.055   1.890
 3361TIP3    H1 9960   7.837   2.984   1.845
 3361TIP3    H2 9961   7.787   3.025   1.981
 3362TIP3   OH2 9962   7.698   2.518   2.242
 3362TIP3    H1 9963   7.737   2.441   2.196
 3362TIP3    H2 9964   7.781   2.563   2.267
 3363TIP3   OH2 9965   8.645   1.862   2.251
 3363TIP3    H1 9966   8.705   1.918   2.306
 3363TIP3    H2 9967   8.685   1.873   2.164
 3364TIP3   OH2 9968   8.110   2.025   2.276
 3364TIP3    H1 9969   8.150   1.939   2.300
 3364TIP3    H2 9970   8.080   2.006   2.185
 3365TIP3   OH2 9971   7.437   1.681   2.247
 3365TIP3    H1 9972   7.425   1.752   2.180
 3365TIP3    H2 9973   7.398   1.606   2.198
 3366TIP3   OH2 9974   8.140   1.761   1.864
 3366TIP3    H1 9975   8.212   1.749   1.931
 3366TIP3    H2 9976   8.190   1.803   1.792
 3367TIP3   OH2 9977   7.082   1.877   2.341
 3367TIP3    H1 9978   7.170   1.867   2.383
 3367TIP3    H2 9979   7.097   1.829   2.257
 3368TIP3   OH2 9980   7.522   2.080   2.139
 3368TIP3    H1 9981   7.616   2.055   2.154
 3368TIP3    H2 9982   7.484   1.995   2.108
 3369TIP3   OH2 9983   8.779   2.044   2.406
 3369TIP3    H1 9984   8.696   2.095   2.405
 3369TIP3    H2 9985   8.821   2.075   2.489
 3370TIP3   OH2 9986   7.444   1.663   2.675
 3370TIP3    H1 9987   7.386   1.703   2.609
 3370TIP3    H2 9988   7.396   1.682   2.758
 3371TIP3   OH2 9989   7.796   2.517   1.682
 3371TIP3    H1 9990   7.749   2.492   1.602
 3371TIP3    H2 9991   7.751   2.601   1.706
 3372TIP3   OH2 9992   7.548   2.438   2.471
 3372TIP3    H1 9993   7.486   2.503   2.510
 3372TIP3    H2 9994   7.593   2.491   2.403
 3373TIP3   OH2 9995   8.354   1.768   2.037
 3373TIP3    H1 9996   8.337   1.731   2.125
 3373TIP3    H2 9997   8.407   1.846   2.059
 3374TIP3   OH2 9998   7.302   1.771   2.466
 3374TIP3    H1 9999   7.364   1.845   2.487
 3374TIP3    H210000   7.354   1.730   2.392
 3375TIP3   OH210001   7.375   2.631   2.567
 3375TIP3    H110002   7.352   2.718   2.528
 3375TIP3    H210003   7.298   2.617   2.625
 3376TIP3   OH210004   6.773   2.321   1.806
 3376TIP3    H110005   6.733   2.345   1.720
 3376TIP3    H210006   6.802   2.407   1.840
 3377TIP3   OH210007   8.213   2.835   2.041
 3377TIP3    H110008   8.123   2.828   2.082
 3377TIP3    H210009   8.206   2.923   1.999
 3378TIP3   OH210010   8.479   1.728   2.413
 3378TIP3    H110011   8.394   1.768   2.390
 3378TIP3    H210012   8.539   1.772   2.348
 3379TIP3   OH210013   7.784   1.396   2.352
 3379TIP3    H110014   7.851   1.331   2.388
 3379TIP3    H210015   7.726   1.408   2.429
 3380TIP3   OH210016   7.917   2.883   1.720
 3380TIP3    H110017   7.969   2.803   1.696
 3380TIP3    H210018   7.976   2.951   1.678
 3381TIP3   OH210019   8.060   2.668   1.622
 3381TIP3    H110020   8.012   2.591   1.590
 3381TIP3    H210021   8.095   2.634   1.708
 3382TIP3   OH210022   8.436   2.752   2.387
 3382TIP3    H110023   8.425   2.675   2.328
 3382TIP3    H210024   8.419   2.827   2.327
 3383TIP3   OH210025   7.729   2.145   1.644
 3383TIP3    H110026   7.648   2.195   1.622
 3383TIP3    H210027   7.774   2.141   1.558
 3384TIP3   OH210028   7.687   1.928   1.371
 3384TIP3    H110029   7.763   1.976   1.411
 3384TIP3    H210030   7.733   1.862   1.316
 3385TIP3   OH210031   8.632   2.386   2.233
 3385TIP3    H110032   8.549   2.439   2.239
 3385TIP3    H210033   8.661   2.406   2.142
 3386TIP3   OH210034   8.078   2.227   1.618
 3386TIP3    H110035   8.022   2.254   1.695
 3386TIP3    H210036   8.160   2.201   1.664
 3387TIP3   OH210037   8.313   2.269   2.526
 3387TIP3    H110038   8.311   2.351   2.580
 3387TIP3    H210039   8.226   2.275   2.482
 3388TIP3   OH210040   7.310   2.226   2.034
 3388TIP3    H110041   7.268   2.168   1.966
 3388TIP3    H210042   7.388   2.173   2.061
 3389TIP3   OH210043   7.438   2.634   2.183
 3389TIP3    H110044   7.421   2.591   2.098
 3389TIP3    H210045   7.529   2.605   2.203
 3390TIP3   OH210046   7.442   2.199   2.385
 3390TIP3    H110047   7.481   2.177   2.297
 3390TIP3    H210048   7.489   2.282   2.409
 3391TIP3   OH210049   7.972   2.834   2.164
 3391TIP3    H110050   7.958   2.915   2.216
 3391TIP3    H210051   7.958   2.762   2.229
 3392TIP3   OH210052   7.583   2.754   2.710
 3392TIP3    H110053   7.525   2.817   2.758
 3392TIP3    H210054   7.516   2.700   2.663
 3393TIP3   OH210055   7.923   2.079   1.447
 3393TIP3    H110056   7.978   2.141   1.501
 3393TIP3    H210057   7.949   2.108   1.356
 3394TIP3   OH210058   7.336   2.313   2.809
 3394TIP3    H110059   7.342   2.398   2.856
 3394TIP3    H210060   7.240   2.294   2.819
 3395TIP3   OH210061   7.660   2.767   1.719
 3395TIP3    H110062   7.738   2.821   1.740
 3395TIP3    H210063   7.599   2.832   1.680
 3396TIP3   OH210064   7.378   2.923   2.797
 3396TIP3    H110065   7.343   2.920   2.706
 3396TIP3    H210066   7.299   2.902   2.851
 3397TIP3   OH210067   7.174   2.068   1.842
 3397TIP3    H110068   7.112   2.115   1.782
 3397TIP3    H210069   7.135   1.980   1.845
 3398TIP3   OH210070   8.229   2.696   1.036
 3398TIP3    H110071   8.235   2.794   1.025
 3398TIP3    H210072   8.323   2.671   1.025
 3399TIP3   OH210073   6.957   2.452   2.746
 3399TIP3    H110074   6.894   2.427   2.675
 3399TIP3    H210075   6.995   2.366   2.774
 3400TIP3   OH210076   6.814   2.645   2.380
 3400TIP3    H110077   6.909   2.634   2.366
 3400TIP3    H210078   6.812   2.722   2.439
 3401TIP3   OH210079   8.673   3.098   2.431
 3401TIP3    H110080   8.674   3.002   2.447
 3401TIP3    H210081   8.591   3.123   2.478
 3402TIP3   OH210082   7.782   2.884   2.566
 3402TIP3    H110083   7.783   2.977   2.600
 3402TIP3    H210084   7.712   2.845   2.623
 3403TIP3   OH210085   7.539   3.011   1.520
 3403TIP3    H110086   7.496   2.994   1.435
 3403TIP3    H210087   7.510   3.102   1.541
 3404TIP3   OH210088   6.977   2.861   1.903
 3404TIP3    H110089   7.028   2.851   1.986
 3404TIP3    H210090   6.923   2.779   1.907
 3405TIP3   OH210091   7.744   2.912   1.161
 3405TIP3    H110092   7.803   2.843   1.125
 3405TIP3    H210093   7.778   2.922   1.252
 3406TIP3   OH210094   7.792   2.960   1.431
 3406TIP3    H110095   7.705   2.969   1.475
 3406TIP3    H210096   7.845   2.922   1.504
 3407TIP3   OH210097   8.576   2.234   2.698
 3407TIP3    H110098   8.490   2.242   2.656
 3407TIP3    H210099   8.590   2.137   2.695
 3408TIP3   OH210100   7.163   2.635   2.736
 3408TIP3    H110101   7.213   2.619   2.818
 3408TIP3    H210102   7.089   2.571   2.744
 3409TIP3   OH210103   7.550   1.454   2.520
 3409TIP3    H110104   7.459   1.431   2.494
 3409TIP3    H210105   7.533   1.538   2.566
 3410TIP3   OH210106   8.097   1.592   2.721
 3410TIP3    H110107   8.163   1.544   2.774
 3410TIP3    H210108   8.014   1.545   2.743
 3411TIP3   OH210109   8.333   2.004   2.628
 3411TIP3    H110110   8.289   1.999   2.715
 3411TIP3    H210111   8.309   2.093   2.597
 3412TIP3   OH210112   8.006   2.136   1.199
 3412TIP3    H110113   7.962   2.107   1.116
 3412TIP3    H210114   8.071   2.198   1.164
 3413TIP3   OH210115   7.739   1.503   1.505
 3413TIP3    H110116   7.689   1.517   1.588
 3413TIP3    H210117   7.680   1.435   1.464
 3414TIP3   OH210118   7.483   1.970   2.532
 3414TIP3    H110119   7.447   1.998   2.618
 3414TIP3    H210120   7.474   2.053   2.480
 3415TIP3   OH210121   7.376   1.859   2.049
 3415TIP3    H110122   7.284   1.832   2.064
 3415TIP3    H210123   7.392   1.819   1.961
 3416TIP3   OH210124   7.867   1.945   1.775
 3416TIP3    H110125   7.812   2.018   1.737
 3416TIP3    H210126   7.920   1.919   1.698
 3417TIP3   OH210127   8.043   2.228   2.865
 3417TIP3    H110128   8.021   2.153   2.926
 3417TIP3    H210129   8.137   2.240   2.886
 3418TIP3   OH210130   8.027   1.974   2.016
 3418TIP3    H110131   7.967   2.006   1.946
 3418TIP3    H210132   8.055   1.890   1.976
 3419TIP3   OH210133   7.306   2.003   2.749
 3419TIP3    H110134   7.346   2.066   2.811
 3419TIP3    H210135   7.302   1.922   2.802
 3420TIP3   OH210136   7.362   1.479   1.461
 3420TIP3    H110137   7.348   1.476   1.558
 3420TIP3    H210138   7.281   1.525   1.432
 3421TIP3   OH210139   6.885   1.508   1.849
 3421TIP3    H110140   6.927   1.544   1.768
 3421TIP3    H210141   6.821   1.579   1.867
 3422TIP3   OH210142   8.033   2.223   2.440
 3422TIP3    H110143   8.068   2.151   2.383
 3422TIP3    H210144   8.008   2.171   2.520
 3423TIP3   OH210145   7.701   1.687   2.113
 3423TIP3    H110146   7.622   1.679   2.170
 3423TIP3    H210147   7.773   1.676   2.178
 3424TIP3   OH210148   7.137   1.733   2.119
 3424TIP3    H110149   7.043   1.733   2.090
 3424TIP3    H210150   7.167   1.643   2.094
 3425TIP3   OH210151   7.412   1.735   1.807
 3425TIP3    H110152   7.505   1.753   1.786
 3425TIP3    H210153   7.364   1.758   1.725
 3426TIP3   OH210154   8.190   1.759   2.309
 3426TIP3    H110155   8.162   1.770   2.403
 3426TIP3    H210156   8.124   1.694   2.279
 3427TIP3   OH210157   7.248   1.769   1.590
 3427TIP3    H110158   7.176   1.726   1.540
 3427TIP3    H210159   7.300   1.806   1.514
 3428TIP3   OH210160   8.365   3.447   2.531
 3428TIP3    H110161   8.364   3.471   2.437
 3428TIP3    H210162   8.443   3.497   2.563
 3429TIP3   OH210163   7.323   2.557   2.955
 3429TIP3    H110164   7.404   2.587   3.001
 3429TIP3    H210165   7.260   2.558   3.029
 3430TIP3   OH210166   7.787   2.010   2.210
 3430TIP3    H110167   7.859   1.967   2.162
 3430TIP3    H210168   7.795   1.971   2.299
 3431TIP3   OH210169   7.312   1.499   2.085
 3431TIP3    H110170   7.278   1.419   2.132
 3431TIP3    H210171   7.370   1.460   2.018
 3432TIP3   OH210172   7.765   1.910   2.492
 3432TIP3    H110173   7.677   1.944   2.514
 3432TIP3    H210174   7.825   1.963   2.549
 3433TIP3   OH210175   7.501   2.299   1.593
 3433TIP3    H110176   7.429   2.234   1.582
 3433TIP3    H210177   7.484   2.332   1.685
 3434TIP3   OH210178   8.402   2.534   2.223
 3434TIP3    H110179   8.423   2.581   2.139
 3434TIP3    H210180   8.315   2.493   2.203
 3435TIP3   OH210181   7.964   1.627   1.413
 3435TIP3    H110182   7.876   1.591   1.439
 3435TIP3    H210183   7.971   1.710   1.464
 3436TIP3   OH210184   7.896   2.613   2.592
 3436TIP3    H110185   7.926   2.593   2.681
 3436TIP3    H210186   7.864   2.705   2.599
 3437TIP3   OH210187   8.032   1.850   1.556
 3437TIP3    H110188   8.127   1.862   1.575
 3437TIP3    H210189   8.010   1.932   1.508
 3438TIP3   OH210190   7.187   2.310   2.271
 3438TIP3    H110191   7.229   2.290   2.185
 3438TIP3    H210192   7.241   2.258   2.332
 3439TIP3   OH210193   7.648   2.448   1.416
 3439TIP3    H110194   7.600   2.535   1.422
 3439TIP3    H210195   7.592   2.393   1.474
 3440TIP3   OH210196   7.070   2.243   2.885
 3440TIP3    H110197   7.100   2.232   2.977
 3440TIP3    H210198   7.008   2.169   2.876
 3441TIP3   OH210199   7.799   2.353   2.903
 3441TIP3    H110200   7.745   2.294   2.848
 3441TIP3    H210201   7.889   2.322   2.879
 3442TIP3   OH210202   8.061   2.871   2.488
 3442TIP3    H110203   7.965   2.875   2.499
 3442TIP3    H210204   8.090   2.926   2.564
 3443TIP3   OH210205   8.471   1.944   1.398
 3443TIP3    H110206   8.408   1.891   1.346
 3443TIP3    H210207   8.463   2.030   1.351
 3444TIP3   OH210208   8.688   2.794   2.471
 3444TIP3    H110209   8.590   2.795   2.466
 3444TIP3    H210210   8.710   2.766   2.380
 3445TIP3   OH210211   8.170   2.766   1.302
 3445TIP3    H110212   8.146   2.698   1.366
 3445TIP3    H210213   8.182   2.717   1.219
 3446TIP3   OH210214   8.167   2.397   2.143
 3446TIP3    H110215   8.074   2.371   2.158
 3446TIP3    H210216   8.201   2.317   2.098
 3447TIP3   OH210217   7.293   2.622   1.894
 3447TIP3    H110218   7.299   2.704   1.842
 3447TIP3    H210219   7.198   2.610   1.900
 3448TIP3   OH210220   6.857   1.929   1.597
 3448TIP3    H110221   6.903   2.012   1.616
 3448TIP3    H210222   6.779   1.936   1.656
 3449TIP3   OH210223   7.435   2.390   1.840
 3449TIP3    H110224   7.400   2.480   1.857
 3449TIP3    H210225   7.399   2.341   1.916
 3450TIP3   OH210226   7.562   2.967   2.364
 3450TIP3    H110227   7.603   3.040   2.314
 3450TIP3    H210228   7.639   2.935   2.414
 3451TIP3   OH210229   7.215   2.862   1.749
 3451TIP3    H110230   7.128   2.872   1.792
 3451TIP3    H210231   7.248   2.955   1.751
 3452TIP3   OH210232   7.953   2.601   2.323
 3452TIP3    H110233   7.943   2.600   2.421
 3452TIP3    H210234   8.035   2.551   2.311
 3453TIP3   OH210235   7.925   2.488   1.203
 3453TIP3    H110236   7.976   2.466   1.284
 3453TIP3    H210237   7.835   2.468   1.233
 3454TIP3   OH210238   8.201   3.135   2.372
 3454TIP3    H110239   8.121   3.080   2.363
 3454TIP3    H210240   8.187   3.202   2.301
 3455TIP3   OH210241   8.265   2.971   1.025
 3455TIP3    H110242   8.302   3.045   0.974
 3455TIP3    H210243   8.184   3.016   1.059
 3456TIP3   OH210244   7.285   1.745   2.889
 3456TIP3    H110245   7.191   1.753   2.915
 3456TIP3    H210246   7.319   1.688   2.961
 3457TIP3   OH210247   8.084   2.425   1.420
 3457TIP3    H110248   8.075   2.361   1.493
 3457TIP3    H210249   8.181   2.427   1.410
 3458TIP3   OH210250   6.999   2.830   2.526
 3458TIP3    H110251   7.055   2.757   2.556
 3458TIP3    H210252   7.029   2.902   2.583
 3459TIP3   OH210253   7.293   2.475   1.204
 3459TIP3    H110254   7.308   2.383   1.174
 3459TIP3    H210255   7.275   2.461   1.299
 3460TIP3   OH210256   7.238   2.479   1.478
 3460TIP3    H110257   7.310   2.453   1.537
 3460TIP3    H210258   7.243   2.578   1.483
 3461TIP3   OH210259   6.975   2.175   1.680
 3461TIP3    H110260   6.909   2.220   1.736
 3461TIP3    H210261   6.991   2.243   1.612
 3462TIP3   OH210262   8.122   1.813   2.568
 3462TIP3    H110263   8.200   1.848   2.612
 3462TIP3    H210264   8.104   1.733   2.623
 3463TIP3   OH210265   7.989   1.581   1.727
 3463TIP3    H110266   7.992   1.616   1.636
 3463TIP3    H210267   8.042   1.649   1.775
 3464TIP3   OH210268   7.503   2.677   1.426
 3464TIP3    H110269   7.417   2.707   1.461
 3464TIP3    H210270   7.521   2.748   1.362
 3465TIP3   OH210271   7.695   1.738   1.838
 3465TIP3    H110272   7.757   1.812   1.821
 3465TIP3    H210273   7.697   1.733   1.937
 3466TIP3   OH210274   7.961   2.060   2.649
 3466TIP3    H110275   7.982   2.113   2.729
 3466TIP3    H210276   8.017   1.982   2.662
 3467TIP3   OH210277   7.842   1.477   1.949
 3467TIP3    H110278   7.840   1.541   2.023
 3467TIP3    H210279   7.890   1.530   1.882
 3468TIP3   OH210280   7.244   2.753   1.492
 3468TIP3    H110281   7.216   2.822   1.428
 3468TIP3    H210282   7.230   2.798   1.578
 3469TIP3   OH210283   7.349   1.465   1.735
 3469TIP3    H110284   7.345   1.556   1.770
 3469TIP3    H210285   7.445   1.448   1.745
 3470TIP3   OH210286   8.599   1.962   2.626
 3470TIP3    H110287   8.501   1.958   2.632
 3470TIP3    H210288   8.613   1.928   2.537
 3471TIP3   OH210289   8.246   2.159   2.011
 3471TIP3    H110290   8.173   2.098   2.029
 3471TIP3    H210291   8.320   2.116   2.060
 3472TIP3   OH210292   6.964   2.386   1.487
 3472TIP3    H110293   7.029   2.459   1.494
 3472TIP3    H210294   7.010   2.332   1.419
 3473TIP3   OH210295   6.908   1.659   1.624
 3473TIP3    H110296   6.906   1.755   1.613
 3473TIP3    H210297   6.833   1.630   1.570
 3474TIP3   OH210298   8.222   3.106   1.965
 3474TIP3    H110299   8.179   3.153   1.890
 3474TIP3    H210300   8.316   3.128   1.946
 3475TIP3   OH210301   7.266   1.394   2.501
 3475TIP3    H110302   7.253   1.355   2.412
 3475TIP3    H210303   7.275   1.314   2.556
 3476TIP3   OH210304   6.839   2.601   1.879
 3476TIP3    H110305   6.757   2.629   1.921
 3476TIP3    H210306   6.824   2.636   1.789
 3477TIP3   OH210307   6.991   3.135   2.946
 3477TIP3    H110308   7.078   3.136   2.992
 3477TIP3    H210309   6.973   3.040   2.943
 3478TIP3   OH210310   7.474   3.105   2.990
 3478TIP3    H110311   7.569   3.088   2.999
 3478TIP3    H210312   7.452   3.048   2.914
 3479TIP3   OH210313   7.454   2.682   1.120
 3479TIP3    H110314   7.401   2.608   1.156
 3479TIP3    H210315   7.529   2.634   1.081
 3480TIP3   OH210316   8.114   3.009   2.721
 3480TIP3    H110317   8.106   2.939   2.790
 3480TIP3    H210318   8.192   3.059   2.752
 3481TIP3   OH210319   7.895   2.722   1.030
 3481TIP3    H110320   7.945   2.661   1.086
 3481TIP3    H210321   7.949   2.725   0.948
 3482TIP3   OH210322   7.123   2.545   3.146
 3482TIP3    H110323   7.141   2.449   3.150
 3482TIP3    H210324   7.035   2.547   3.103
 3483TIP3   OH210325   7.100   2.198   1.337
 3483TIP3    H110326   7.155   2.162   1.409
 3483TIP3    H210327   7.167   2.202   1.265
 3484TIP3   OH210328   7.730   2.628   2.919
 3484TIP3    H110329   7.692   2.643   2.831
 3484TIP3    H210330   7.764   2.536   2.913
 3485TIP3   OH210331   7.607   2.391   1.148
 3485TIP3    H110332   7.609   2.405   1.244
 3485TIP3    H210333   7.609   2.293   1.143
 3486TIP3   OH210334   8.222   2.635   2.521
 3486TIP3    H110335   8.298   2.682   2.480
 3486TIP3    H210336   8.152   2.703   2.512
 3487TIP3   OH210337   7.242   2.276   3.124
 3487TIP3    H110338   7.318   2.219   3.105
 3487TIP3    H210339   7.265   2.309   3.213
 3488TIP3   OH210340   7.310   2.099   1.562
 3488TIP3    H110341   7.284   2.054   1.643
 3488TIP3    H210342   7.345   2.024   1.508
 3489TIP3   OH210343   7.570   2.157   2.781
 3489TIP3    H110344   7.500   2.225   2.790
 3489TIP3    H210345   7.624   2.194   2.708
 3490TIP3   OH210346   7.407   1.891   1.403
 3490TIP3    H110347   7.380   1.889   1.309
 3490TIP3    H210348   7.505   1.898   1.394
 3491TIP3   OH210349   8.093   2.564   2.922
 3491TIP3    H110350   8.177   2.547   2.878
 3491TIP3    H210351   8.093   2.498   2.993
 3492TIP3   OH210352   8.232   2.218   1.041
 3492TIP3    H110353   8.194   2.179   0.959
 3492TIP3    H210354   8.203   2.311   1.028
 3493TIP3   OH210355   7.695   1.950   2.919
 3493TIP3    H110356   7.703   1.869   2.864
 3493TIP3    H210357   7.655   2.014   2.857
 3494TIP3   OH210358   7.701   1.744   2.722
 3494TIP3    H110359   7.733   1.773   2.635
 3494TIP3    H210360   7.609   1.714   2.702
 3495TIP3   OH210361   7.730   2.272   2.595
 3495TIP3    H110362   7.815   2.277   2.548
 3495TIP3    H210363   7.678   2.343   2.551
 3496TIP3   OH210364   8.313   2.243   2.976
 3496TIP3    H110365   8.359   2.159   2.994
 3496TIP3    H210366   8.387   2.299   2.949
 3497TIP3   OH210367   8.354   2.492   2.710
 3497TIP3    H110368   8.296   2.546   2.651
 3497TIP3    H210369   8.442   2.511   2.670
 3498TIP3   OH210370   7.570   2.069   3.142
 3498TIP3    H110371   7.506   1.997   3.157
 3498TIP3    H210372   7.613   2.041   3.059
 3499TIP3   OH210373   7.837   1.505   2.788
 3499TIP3    H110374   7.785   1.584   2.766
 3499TIP3    H210375   7.773   1.432   2.773
 3500TIP3   OH210376   7.960   2.011   3.005
 3500TIP3    H110377   7.957   1.996   3.101
 3500TIP3    H210378   7.870   1.981   2.981
 3501TIP3   OH210379   8.202   1.959   2.859
 3501TIP3    H110380   8.126   1.953   2.920
 3501TIP3    H210381   8.275   1.924   2.915
 3502TIP3   OH210382   8.431   1.894   3.010
 3502TIP3    H110383   8.441   1.799   3.031
 3502TIP3    H210384   8.424   1.935   3.099
 3503TIP3   OH210385   7.418   1.845   3.197
 3503TIP3    H110386   7.428   1.754   3.162
 3503TIP3    H210387   7.455   1.833   3.287
 3504TIP3   OH210388   7.928   1.511   3.046
 3504TIP3    H110389   7.997   1.441   3.041
 3504TIP3    H210390   7.894   1.506   2.955
 3505TIP3   OH210391   7.996   1.727   3.203
 3505TIP3    H110392   7.975   1.654   3.140
 3505TIP3    H210393   7.917   1.785   3.195
 3506TIP3   OH210394   7.215   2.954   1.305
 3506TIP3    H110395   7.310   2.953   1.286
 3506TIP3    H210396   7.184   3.002   1.226
 3507TIP3   OH210397   6.697   2.335   1.526
 3507TIP3    H110398   6.791   2.357   1.509
 3507TIP3    H210399   6.690   2.247   1.482
 3508TIP3   OH210400   6.558   2.973   1.986
 3508TIP3    H110401   6.517   2.909   1.922
 3508TIP3    H210402   6.629   2.915   2.021
 3509TIP3   OH210403   6.740   2.812   2.120
 3509TIP3    H110404   6.738   2.730   2.172
 3509TIP3    H210405   6.799   2.865   2.176
 3510TIP3   OH210406   8.473   3.199   1.921
 3510TIP3    H110407   8.498   3.238   2.007
 3510TIP3    H210408   8.531   3.248   1.860
 3511TIP3   OH210409   8.500   3.222   2.204
 3511TIP3    H110410   8.463   3.131   2.201
 3511TIP3    H210411   8.579   3.206   2.257
 3512TIP3   OH210412   8.548   2.899   2.773
 3512TIP3    H110413   8.476   2.906   2.839
 3512TIP3    H210414   8.590   2.987   2.780
 3513TIP3   OH210415   8.363   2.410   1.391
 3513TIP3    H110416   8.431   2.478   1.370
 3513TIP3    H210417   8.403   2.371   1.472
 3514TIP3   OH210418   8.479   2.275   1.596
 3514TIP3    H110419   8.413   2.233   1.655
 3514TIP3    H210420   8.540   2.318   1.659
 3515TIP3   OH210421   8.543   2.663   2.026
 3515TIP3    H110422   8.592   2.619   1.955
 3515TIP3    H210423   8.527   2.750   1.985
 3516TIP3   OH210424   8.378   2.968   2.228
 3516TIP3    H110425   8.311   3.015   2.280
 3516TIP3    H210426   8.324   2.923   2.160
 3517TIP3   OH210427   8.410   2.178   1.249
 3517TIP3    H110428   8.342   2.189   1.179
 3517TIP3    H210429   8.385   2.253   1.307
 3518TIP3   OH210430   8.285   1.840   1.224
 3518TIP3    H110431   8.291   1.915   1.163
 3518TIP3    H210432   8.310   1.766   1.167
 3519TIP3   OH210433   8.306   2.131   1.747
 3519TIP3    H110434   8.316   2.035   1.748
 3519TIP3    H210435   8.291   2.151   1.843
 3520TIP3   OH210436   6.936   2.208   2.489
 3520TIP3    H110437   6.938   2.185   2.394
 3520TIP3    H210438   7.032   2.210   2.510
 3521TIP3   OH210439   8.596   2.557   2.601
 3521TIP3    H110440   8.671   2.495   2.594
 3521TIP3    H210441   8.626   2.632   2.546
 3522TIP3   OH210442   8.795   2.375   2.623
 3522TIP3    H110443   8.716   2.327   2.658
 3522TIP3    H210444   8.860   2.303   2.633
 3523TIP3   OH210445   8.303   1.847   1.641
 3523TIP3    H110446   8.344   1.760   1.660
 3523TIP3    H210447   8.368   1.883   1.578
 3524TIP3   OH210448   8.456   2.040   2.129
 3524TIP3    H110449   8.540   2.073   2.091
 3524TIP3    H210450   8.473   2.056   2.224
 3525TIP3   OH210451   8.530   2.168   2.372
 3525TIP3    H110452   8.453   2.201   2.421
 3525TIP3    H210453   8.562   2.249   2.327
 3526TIP3   OH210454   7.152   1.897   3.166
 3526TIP3    H110455   7.250   1.889   3.170
 3526TIP3    H210456   7.126   1.813   3.208
 3527TIP3   OH210457   8.399   1.594   1.692
 3527TIP3    H110458   8.447   1.581   1.777
 3527TIP3    H210459   8.371   1.504   1.672
 3528TIP3   OH210460   6.946   1.839   2.571
 3528TIP3    H110461   6.973   1.876   2.484
 3528TIP3    H210462   6.941   1.920   2.625
 3529TIP3   OH210463   8.844   1.890   2.747
 3529TIP3    H110464   8.766   1.941   2.774
 3529TIP3    H210465   8.804   1.833   2.679
 3530TIP3   OH210466   6.889   1.372   2.083
 3530TIP3    H110467   6.793   1.360   2.093
 3530TIP3    H210468   6.895   1.426   2.002
 3531TIP3   OH210469   8.056   3.066   1.578
 3531TIP3    H110470   8.110   3.053   1.497
 3531TIP3    H210471   8.106   3.134   1.625
 3532TIP3   OH210472   7.115   1.459   2.891
 3532TIP3    H110473   7.085   1.426   2.978
 3532TIP3    H210474   7.034   1.501   2.861
 3533TIP3   OH210475   7.158   2.870   2.964
 3533TIP3    H110476   7.066   2.841   2.949
 3533TIP3    H210477   7.169   2.854   3.058
 3534TIP3   OH210478   7.334   2.901   2.511
 3534TIP3    H110479   7.289   2.979   2.473
 3534TIP3    H210480   7.422   2.914   2.468
 3535TIP3   OH210481   7.783   3.150   2.650
 3535TIP3    H110482   7.825   3.150   2.739
 3535TIP3    H210483   7.850   3.199   2.598
 3536TIP3   OH210484   7.962   3.298   2.507
 3536TIP3    H110485   8.036   3.249   2.467
 3536TIP3    H210486   8.012   3.357   2.568
 3537TIP3   OH210487   8.750   1.667   2.608
 3537TIP3    H110488   8.658   1.661   2.577
 3537TIP3    H210489   8.782   1.578   2.586
 3538TIP3   OH210490   7.012   3.157   2.536
 3538TIP3    H110491   6.924   3.195   2.513
 3538TIP3    H210492   7.025   3.197   2.623
 3539TIP3   OH210493   7.248   3.137   2.392
 3539TIP3    H110494   7.163   3.152   2.438
 3539TIP3    H210495   7.230   3.174   2.303
 3540TIP3   OH210496   7.675   3.169   2.190
 3540TIP3    H110497   7.608   3.193   2.124
 3540TIP3    H210498   7.690   3.256   2.234
 3541TIP3   OH210499   7.944   3.107   2.239
 3541TIP3    H110500   7.850   3.126   2.221
 3541TIP3    H210501   7.988   3.185   2.202
 3542TIP3   OH210502   8.148   3.299   2.158
 3542TIP3    H110503   8.137   3.386   2.112
 3542TIP3    H210504   8.177   3.242   2.084
 3543TIP3   OH210505   6.921   2.952   2.283
 3543TIP3    H110506   6.952   2.931   2.373
 3543TIP3    H210507   6.995   2.912   2.231
 3544TIP3   OH210508   7.116   2.827   2.137
 3544TIP3    H110509   7.134   2.742   2.184
 3544TIP3    H210510   7.206   2.865   2.132
 3545TIP3   OH210511   7.381   2.922   2.140
 3545TIP3    H110512   7.416   2.832   2.126
 3545TIP3    H210513   7.425   2.945   2.223
 3546TIP3   OH210514   7.952   1.575   2.213
 3546TIP3    H110515   7.907   1.516   2.277
 3546TIP3    H210516   8.032   1.524   2.191
 3547TIP3   OH210517   8.483   1.441   2.131
 3547TIP3    H110518   8.520   1.500   2.063
 3547TIP3    H210519   8.392   1.475   2.141
 3548TIP3   OH210520   8.578   1.555   1.903
 3548TIP3    H110521   8.662   1.521   1.871
 3548TIP3    H210522   8.595   1.652   1.898
 3549TIP3   OH210523   7.209   1.289   2.247
 3549TIP3    H110524   7.118   1.253   2.244
 3549TIP3    H210525   7.261   1.205   2.246
 3550TIP3   OH210526   6.989   1.155   1.885
 3550TIP3    H110527   7.024   1.214   1.816
 3550TIP3    H210528   6.965   1.218   1.955
 3551TIP3   OH210529   7.652   1.329   2.122
 3551TIP3    H110530   7.713   1.386   2.075
 3551TIP3    H210531   7.681   1.345   2.215
 3552TIP3   OH210532   8.194   1.452   2.120
 3552TIP3    H110533   8.199   1.420   2.029
 3552TIP3    H210534   8.202   1.371   2.172
 3553TIP3   OH210535   6.710   2.728   1.677
 3553TIP3    H110536   6.627   2.692   1.642
 3553TIP3    H210537   6.701   2.820   1.645
 3554TIP3   OH210538   7.110   1.321   1.661
 3554TIP3    H110539   7.154   1.259   1.600
 3554TIP3    H210540   7.186   1.370   1.697
 3555TIP3   OH210541   7.630   1.486   1.759
 3555TIP3    H110542   7.680   1.446   1.831
 3555TIP3    H210543   7.645   1.581   1.780
 3556TIP3   OH210544   7.484   2.919   1.254
 3556TIP3    H110545   7.572   2.940   1.218
 3556TIP3    H210546   7.462   2.843   1.196
 3557TIP3   OH210547   8.203   3.033   1.346
 3557TIP3    H110548   8.193   2.936   1.331
 3557TIP3    H210549   8.158   3.068   1.266
 3558TIP3   OH210550   7.416   1.569   3.135
 3558TIP3    H110551   7.385   1.497   3.193
 3558TIP3    H210552   7.512   1.569   3.159
 3559TIP3   OH210553   7.665   1.565   3.253
 3559TIP3    H110554   7.750   1.542   3.213
 3559TIP3    H210555   7.656   1.494   3.320
 3560TIP3   OH210556   6.789   2.753   1.312
 3560TIP3    H110557   6.791   2.783   1.404
 3560TIP3    H210558   6.878   2.712   1.301
 3561TIP3   OH210559   8.488   1.624   3.046
 3561TIP3    H110560   8.509   1.594   3.137
 3561TIP3    H210561   8.576   1.620   3.002
 3562TIP3   OH210562   8.429   3.179   2.536
 3562TIP3    H110563   8.350   3.148   2.488
 3562TIP3    H210564   8.412   3.275   2.537
 3563TIP3   OH210565   8.655   2.062   1.568
 3563TIP3    H110566   8.589   2.133   1.577
 3563TIP3    H210567   8.603   1.996   1.518
 3564TIP3   OH210568   8.706   2.353   1.726
 3564TIP3    H110569   8.751   2.280   1.769
 3564TIP3    H210570   8.749   2.353   1.639
 3565TIP3   OH210571   8.566   2.582   1.309
 3565TIP3    H110572   8.535   2.602   1.220
 3565TIP3    H210573   8.595   2.671   1.339
 3566TIP3   OH210574   8.748   2.690   2.221
 3566TIP3    H110575   8.676   2.660   2.163
 3566TIP3    H210576   8.783   2.606   2.258
 3567TIP3   OH210577   8.613   2.901   1.870
 3567TIP3    H110578   8.709   2.911   1.864
 3567TIP3    H210579   8.590   2.983   1.918
 3568TIP3   OH210580   8.743   3.119   1.408
 3568TIP3    H110581   8.803   3.120   1.486
 3568TIP3    H210582   8.684   3.046   1.430
 3569TIP3   OH210583   8.894   2.915   2.239
 3569TIP3    H110584   8.928   2.896   2.327
 3569TIP3    H210585   8.833   2.838   2.226
 3570TIP3   OH210586   8.663   1.806   1.848
 3570TIP3    H110587   8.727   1.846   1.910
 3570TIP3    H210588   8.707   1.820   1.763
 3571TIP3   OH210589   8.857   2.486   2.369
 3571TIP3    H110590   8.877   2.464   2.462
 3571TIP3    H210591   8.786   2.423   2.349
 3572TIP3   OH210592   8.664   2.247   1.154
 3572TIP3    H110593   8.663   2.343   1.139
 3572TIP3    H210594   8.575   2.232   1.193
 3573TIP3   OH210595   8.796   3.088   2.018
 3573TIP3    H110596   8.835   3.023   2.078
 3573TIP3    H210597   8.822   3.172   2.060
 3574TIP3   OH210598   8.627   2.843   1.365
 3574TIP3    H110599   8.553   2.881   1.414
 3574TIP3    H210600   8.619   2.893   1.281
 3575TIP3   OH210601   8.784   3.388   2.435
 3575TIP3    H110602   8.874   3.382   2.471
 3575TIP3    H210603   8.761   3.294   2.428
 3576TIP3   OH210604   8.918   2.824   2.618
 3576TIP3    H110605   8.946   2.739   2.657
 3576TIP3    H210606   8.832   2.803   2.577
 3577TIP3   OH210607   8.488   2.597   1.003
 3577TIP3    H110608   8.585   2.594   1.012
 3577TIP3    H210609   8.472   2.510   0.961
 3578TIP3   OH210610   8.405   3.205   1.422
 3578TIP3    H110611   8.337   3.143   1.388
 3578TIP3    H210612   8.450   3.149   1.489
 3579TIP3   OH210613   8.541   3.054   1.609
 3579TIP3    H110614   8.527   2.986   1.676
 3579TIP3    H210615   8.593   3.119   1.661
 3580TIP3   OH210616   8.761   2.450   1.982
 3580TIP3    H110617   8.732   2.434   1.890
 3580TIP3    H210618   8.838   2.508   1.969
 3581TIP3   OH210619   8.931   2.140   2.633
 3581TIP3    H110620   9.022   2.174   2.648
 3581TIP3    H210621   8.926   2.067   2.697
 3582TIP3   OH210622   8.698   2.140   2.030
 3582TIP3    H110623   8.769   2.074   2.027
 3582TIP3    H210624   8.740   2.218   2.069
 3583TIP3   OH210625   8.953   3.125   2.466
 3583TIP3    H110626   8.865   3.099   2.436
 3583TIP3    H210627   8.954   3.097   2.558
 3584TIP3   OH210628   8.799   3.405   2.031
 3584TIP3    H110629   8.715   3.447   2.001
 3584TIP3    H210630   8.818   3.462   2.108
 3585TIP3   OH210631   9.042   3.378   1.883
 3585TIP3    H110632   8.956   3.400   1.923
 3585TIP3    H210633   9.037   3.425   1.798
 3586TIP3   OH210634   8.720   3.208   1.763
 3586TIP3    H110635   8.748   3.193   1.856
 3586TIP3    H210636   8.801   3.178   1.717
 3587TIP3   OH210637   8.926   3.101   1.610
 3587TIP3    H110638   8.950   3.008   1.622
 3587TIP3    H210639   9.014   3.144   1.622
 3588TIP3   OH210640   8.509   2.978   1.159
 3588TIP3    H110641   8.421   2.953   1.123
 3588TIP3    H210642   8.502   3.074   1.153
 3589TIP3   OH210643   8.595   3.011   0.809
 3589TIP3    H110644   8.568   3.052   0.893
 3589TIP3    H210645   8.669   2.955   0.837
 3590TIP3   OH210646   0.366   3.095   3.520
 3590TIP3    H110647   0.334   3.184   3.495
 3590TIP3    H210648   0.295   3.041   3.479
 3591TIP3   OH210649   0.346   3.085   3.888
 3591TIP3    H110650   0.380   3.050   3.973
 3591TIP3    H210651   0.313   3.005   3.845
 3592TIP3   OH210652  -0.352   2.980   4.247
 3592TIP3    H110653  -0.329   2.909   4.310
 3592TIP3    H210654  -0.277   3.040   4.260
 3593TIP3   OH210655   0.588   3.386   3.567
 3593TIP3    H110656   0.582   3.309   3.625
 3593TIP3    H210657   0.629   3.453   3.624
 3594TIP3   OH210658  -0.371   3.385   3.967
 3594TIP3    H110659  -0.392   3.290   3.976
 3594TIP3    H210660  -0.276   3.383   3.982
 3595TIP3   OH210661   0.240   3.835   3.583
 3595TIP3    H110662   0.287   3.771   3.524
 3595TIP3    H210663   0.267   3.803   3.669
 3596TIP3   OH210664   0.151   3.312   3.932
 3596TIP3    H110665   0.180   3.232   3.884
 3596TIP3    H210666   0.240   3.347   3.955
 3597TIP3   OH210667   1.163   2.630   3.928
 3597TIP3    H110668   1.189   2.709   3.979
 3597TIP3    H210669   1.182   2.659   3.837
 3598TIP3   OH210670   0.565   2.813   3.969
 3598TIP3    H110671   0.603   2.725   3.988
 3598TIP3    H210672   0.529   2.799   3.879
 3599TIP3   OH210673  -0.102   2.487   3.908
 3599TIP3    H110674  -0.126   2.537   3.829
 3599TIP3    H210675  -0.078   2.402   3.867
 3600TIP3   OH210676   0.597   2.575   3.584
 3600TIP3    H110677   0.677   2.549   3.634
 3600TIP3    H210678   0.636   2.604   3.500
 3601TIP3   OH210679  -0.471   2.666   4.036
 3601TIP3    H110680  -0.393   2.646   4.092
 3601TIP3    H210681  -0.433   2.652   3.948
 3602TIP3   OH210682  -0.020   2.870   3.824
 3602TIP3    H110683   0.075   2.855   3.844
 3602TIP3    H210684  -0.049   2.780   3.808
 3603TIP3   OH210685   1.233   2.832   4.100
 3603TIP3    H110686   1.150   2.882   4.084
 3603TIP3    H210687   1.250   2.856   4.193
 3604TIP3   OH210688  -0.110   2.452   4.359
 3604TIP3    H110689  -0.176   2.488   4.297
 3604TIP3    H210690  -0.155   2.468   4.445
 3605TIP3   OH210691   0.252   3.307   3.382
 3605TIP3    H110692   0.214   3.279   3.297
 3605TIP3    H210693   0.203   3.390   3.397
 3606TIP3   OH210694   0.005   3.224   4.160
 3606TIP3    H110695  -0.061   3.284   4.201
 3606TIP3    H210696   0.046   3.280   4.093
 3607TIP3   OH210697   0.827   2.552   3.724
 3607TIP3    H110698   0.797   2.508   3.805
 3607TIP3    H210699   0.865   2.635   3.758
 3608TIP3   OH210700  -0.227   2.579   4.138
 3608TIP3    H110701  -0.172   2.651   4.177
 3608TIP3    H210702  -0.165   2.543   4.072
 3609TIP3   OH210703  -0.169   3.411   4.252
 3609TIP3    H110704  -0.198   3.499   4.219
 3609TIP3    H210705  -0.243   3.395   4.315
 3610TIP3   OH210706   0.653   3.627   3.745
 3610TIP3    H110707   0.559   3.619   3.763
 3610TIP3    H210708   0.657   3.709   3.691
 3611TIP3   OH210709   0.954   2.529   4.095
 3611TIP3    H110710   0.866   2.559   4.069
 3611TIP3    H210711   1.011   2.560   4.022
 3612TIP3   OH210712   0.266   2.184   4.085
 3612TIP3    H110713   0.249   2.088   4.096
 3612TIP3    H210714   0.181   2.217   4.121
 3613TIP3   OH210715   0.370   3.673   3.410
 3613TIP3    H110716   0.418   3.590   3.387
 3613TIP3    H210717   0.430   3.738   3.366
 3614TIP3   OH210718   0.507   3.459   3.313
 3614TIP3    H110719   0.474   3.378   3.272
 3614TIP3    H210720   0.542   3.424   3.398
 3615TIP3   OH210721   0.887   3.541   4.078
 3615TIP3    H110722   0.883   3.463   4.020
 3615TIP3    H210723   0.880   3.615   4.014
 3616TIP3   OH210724   0.207   2.952   3.353
 3616TIP3    H110725   0.120   2.950   3.308
 3616TIP3    H210726   0.263   2.946   3.273
 3617TIP3   OH210727   1.086   3.172   3.919
 3617TIP3    H110728   1.005   3.227   3.927
 3617TIP3    H210729   1.116   3.199   3.830
 3618TIP3   OH210730   0.530   3.023   3.311
 3618TIP3    H110731   0.480   3.048   3.392
 3618TIP3    H210732   0.610   2.984   3.350
 3619TIP3   OH210733   0.766   3.056   4.216
 3619TIP3    H110734   0.765   3.138   4.269
 3619TIP3    H210735   0.679   3.062   4.172
 3620TIP3   OH210736  -0.230   3.019   3.727
 3620TIP3    H110737  -0.283   2.947   3.687
 3620TIP3    H210738  -0.151   2.969   3.757
 3621TIP3   OH210739  -0.093   3.441   3.862
 3621TIP3    H110740  -0.127   3.386   3.789
 3621TIP3    H210741  -0.009   3.394   3.884
 3622TIP3   OH210742  -0.098   2.984   4.073
 3622TIP3    H110743  -0.061   2.969   3.984
 3622TIP3    H210744  -0.058   3.070   4.099
 3623TIP3   OH210745   0.393   3.633   3.870
 3623TIP3    H110746   0.446   3.687   3.930
 3623TIP3    H210747   0.404   3.544   3.909
 3624TIP3   OH210748   0.037   3.548   4.388
 3624TIP3    H110749  -0.018   3.605   4.447
 3624TIP3    H210750  -0.033   3.489   4.352
 3625TIP3   OH210751   0.357   2.910   3.127
 3625TIP3    H110752   0.428   2.925   3.194
 3625TIP3    H210753   0.411   2.905   3.046
 3626TIP3   OH210754  -0.201   3.108   4.487
 3626TIP3    H110755  -0.199   3.192   4.537
 3626TIP3    H210756  -0.292   3.078   4.507
 3627TIP3   OH210757   0.110   3.562   3.390
 3627TIP3    H110758   0.189   3.606   3.425
 3627TIP3    H210759   0.043   3.631   3.390
 3628TIP3   OH210760  -0.168   3.712   4.486
 3628TIP3    H110761  -0.217   3.693   4.404
 3628TIP3    H210762  -0.233   3.680   4.553
 3629TIP3   OH210763   0.687   3.488   2.730
 3629TIP3    H110764   0.696   3.585   2.715
 3629TIP3    H210765   0.780   3.458   2.716
 3630TIP3   OH210766  -0.582   3.256   4.425
 3630TIP3    H110767  -0.653   3.218   4.372
 3630TIP3    H210768  -0.553   3.178   4.474
 3631TIP3   OH210769   1.129   3.881   4.122
 3631TIP3    H110770   1.129   3.785   4.140
 3631TIP3    H210771   1.047   3.908   4.168
 3632TIP3   OH210772   0.216   3.688   4.238
 3632TIP3    H110773   0.231   3.765   4.299
 3632TIP3    H210774   0.155   3.634   4.295
 3633TIP3   OH210775  -0.053   3.804   3.206
 3633TIP3    H110776  -0.046   3.792   3.109
 3633TIP3    H210777  -0.029   3.898   3.219
 3634TIP3   OH210778  -0.541   3.640   3.571
 3634TIP3    H110779  -0.503   3.623   3.659
 3634TIP3    H210780  -0.597   3.559   3.558
 3635TIP3   OH210781   0.191   3.692   2.857
 3635TIP3    H110782   0.255   3.629   2.816
 3635TIP3    H210783   0.233   3.707   2.945
 3636TIP3   OH210784   0.235   3.751   3.130
 3636TIP3    H110785   0.160   3.739   3.191
 3636TIP3    H210786   0.308   3.713   3.183
 3637TIP3   OH210787   1.020   3.017   4.396
 3637TIP3    H110788   0.938   3.028   4.347
 3637TIP3    H210789   1.035   2.920   4.389
 3638TIP3   OH210790  -0.373   3.429   4.424
 3638TIP3    H110791  -0.333   3.421   4.512
 3638TIP3    H210792  -0.447   3.364   4.430
 3639TIP3   OH210793   0.010   2.253   4.205
 3639TIP3    H110794  -0.071   2.220   4.166
 3639TIP3    H210795  -0.022   2.327   4.259
 3640TIP3   OH210796   0.547   2.365   4.402
 3640TIP3    H110797   0.615   2.336   4.466
 3640TIP3    H210798   0.463   2.342   4.446
 3641TIP3   OH210799   0.788   2.791   4.320
 3641TIP3    H110800   0.741   2.786   4.406
 3641TIP3    H210801   0.762   2.879   4.286
 3642TIP3   OH210802   0.430   2.933   2.868
 3642TIP3    H110803   0.417   2.890   2.783
 3642TIP3    H210804   0.511   2.983   2.852
 3643TIP3   OH210805  -0.051   2.767   4.228
 3643TIP3    H110806  -0.102   2.786   4.310
 3643TIP3    H210807  -0.071   2.847   4.175
 3644TIP3   OH210808   0.317   2.746   3.484
 3644TIP3    H110809   0.268   2.821   3.443
 3644TIP3    H210810   0.384   2.729   3.414
 3645TIP3   OH210811   0.494   3.015   4.554
 3645TIP3    H110812   0.472   2.941   4.616
 3645TIP3    H210813   0.588   3.029   4.577
 3646TIP3   OH210814   0.473   2.777   3.714
 3646TIP3    H110815   0.412   2.799   3.640
 3646TIP3    H210816   0.510   2.694   3.676
 3647TIP3   OH210817  -0.232   2.792   4.433
 3647TIP3    H110818  -0.221   2.855   4.505
 3647TIP3    H210819  -0.247   2.709   4.482
 3648TIP3   OH210820   0.486   3.013   4.130
 3648TIP3    H110821   0.521   2.940   4.074
 3648TIP3    H210822   0.461   2.960   4.210
 3649TIP3   OH210823   0.179   2.501   3.814
 3649TIP3    H110824   0.104   2.504   3.874
 3649TIP3    H210825   0.252   2.475   3.873
 3650TIP3   OH210826   0.649   2.548   3.999
 3650TIP3    H110827   0.615   2.558   4.091
 3650TIP3    H210828   0.588   2.480   3.965
 3651TIP3   OH210829   0.816   4.235   4.221
 3651TIP3    H110830   0.818   4.261   4.128
 3651TIP3    H210831   0.895   4.282   4.256
 3652TIP3   OH210832  -0.213   3.341   4.643
 3652TIP3    H110833  -0.137   3.375   4.694
 3652TIP3    H210834  -0.283   3.348   4.712
 3653TIP3   OH210835   0.237   2.803   3.902
 3653TIP3    H110836   0.303   2.757   3.847
 3653TIP3    H210837   0.249   2.760   3.988
 3654TIP3   OH210838   0.217   2.696   4.185
 3654TIP3    H110839   0.128   2.731   4.205
 3654TIP3    H210840   0.276   2.752   4.240
 3655TIP3   OH210841  -0.097   3.169   3.317
 3655TIP3    H110842  -0.084   3.076   3.291
 3655TIP3    H210843  -0.071   3.170   3.412
 3656TIP3   OH210844   0.856   3.324   3.914
 3656TIP3    H110845   0.881   3.370   3.831
 3656TIP3    H210846   0.771   3.281   3.890
 3657TIP3   OH210847   0.361   3.412   4.282
 3657TIP3    H110848   0.382   3.363   4.363
 3657TIP3    H210849   0.306   3.484   4.317
 3658TIP3   OH210850   0.499   2.709   3.288
 3658TIP3    H110851   0.589   2.674   3.294
 3658TIP3    H210852   0.471   2.675   3.200
 3659TIP3   OH210853  -0.354   3.110   3.961
 3659TIP3    H110854  -0.312   3.078   3.879
 3659TIP3    H210855  -0.322   3.047   4.027
 3660TIP3   OH210856   0.107   3.258   3.151
 3660TIP3    H110857   0.054   3.339   3.139
 3660TIP3    H210858   0.042   3.203   3.201
 3661TIP3   OH210859  -0.444   3.024   4.574
 3661TIP3    H110860  -0.436   3.019   4.671
 3661TIP3    H210861  -0.537   2.996   4.559
 3662TIP3   OH210862   0.251   3.143   4.591
 3662TIP3    H110863   0.192   3.081   4.546
 3662TIP3    H210864   0.339   3.108   4.566
 3663TIP3   OH210865   0.500   3.694   4.156
 3663TIP3    H110866   0.423   3.650   4.196
 3663TIP3    H210867   0.545   3.724   4.239
 3664TIP3   OH210868   0.922   2.735   3.088
 3664TIP3    H110869   0.863   2.693   3.021
 3664TIP3    H210870   0.920   2.825   3.050
 3665TIP3   OH210871   1.140   3.590   4.169
 3665TIP3    H110872   1.042   3.586   4.160
 3665TIP3    H210873   1.166   3.562   4.078
 3666TIP3   OH210874   0.615   3.554   2.992
 3666TIP3    H110875   0.603   3.480   3.052
 3666TIP3    H210876   0.635   3.511   2.907
 3667TIP3   OH210877   0.618   3.185   3.833
 3667TIP3    H110878   0.526   3.156   3.845
 3667TIP3    H210879   0.656   3.107   3.789
 3668TIP3   OH210880  -0.256   3.414   3.584
 3668TIP3    H110881  -0.254   3.490   3.523
 3668TIP3    H210882  -0.348   3.387   3.580
 3669TIP3   OH210883  -0.081   3.202   3.587
 3669TIP3    H110884  -0.138   3.281   3.583
 3669TIP3    H210885  -0.136   3.140   3.639
 3670TIP3   OH210886  -0.322   3.659   3.418
 3670TIP3    H110887  -0.405   3.657   3.471
 3670TIP3    H210888  -0.288   3.748   3.441
 3671TIP3   OH210889   0.413   3.396   4.011
 3671TIP3    H110890   0.402   3.388   4.109
 3671TIP3    H210891   0.486   3.334   3.995
 3672TIP3   OH210892   0.378   3.283   2.892
 3672TIP3    H110893   0.429   3.262   2.973
 3672TIP3    H210894   0.294   3.239   2.911
 3673TIP3   OH210895   0.655   3.927   4.068
 3673TIP3    H110896   0.583   3.863   4.068
 3673TIP3    H210897   0.635   3.987   3.992
 3674TIP3   OH210898   0.719   3.760   2.716
 3674TIP3    H110899   0.760   3.830   2.663
 3674TIP3    H210900   0.639   3.808   2.745
 3675TIP3   OH210901  -0.252   2.531   4.587
 3675TIP3    H110902  -0.343   2.544   4.618
 3675TIP3    H210903  -0.220   2.467   4.653
 3676TIP3   OH210904   0.537   3.217   3.111
 3676TIP3    H110905   0.525   3.150   3.182
 3676TIP3    H210906   0.634   3.214   3.102
 3677TIP3   OH210907  -0.508   3.644   4.208
 3677TIP3    H110908  -0.490   3.550   4.224
 3677TIP3    H210909  -0.528   3.674   4.297
 3678TIP3   OH210910  -0.327   3.297   3.242
 3678TIP3    H110911  -0.250   3.272   3.297
 3678TIP3    H210912  -0.310   3.391   3.223
 3679TIP3   OH210913   0.574   2.598   4.259
 3679TIP3    H110914   0.652   2.636   4.302
 3679TIP3    H210915   0.557   2.518   4.313
 3680TIP3   OH210916   0.528   2.423   3.373
 3680TIP3    H110917   0.434   2.397   3.368
 3680TIP3    H210918   0.535   2.457   3.464
 3681TIP3   OH210919  -0.051   3.467   3.080
 3681TIP3    H110920  -0.132   3.494   3.128
 3681TIP3    H210921  -0.007   3.553   3.071
 3682TIP3   OH210922   0.213   2.498   3.523
 3682TIP3    H110923   0.246   2.588   3.504
 3682TIP3    H210924   0.185   2.509   3.615
 3683TIP3   OH210925   0.415   2.849   4.337
 3683TIP3    H110926   0.432   2.902   4.418
 3683TIP3    H210927   0.470   2.770   4.353
 3684TIP3   OH210928   0.318   2.267   3.653
 3684TIP3    H110929   0.310   2.324   3.731
 3684TIP3    H210930   0.395   2.305   3.610
 3685TIP3   OH210931  -0.290   3.556   3.173
 3685TIP3    H110932  -0.350   3.604   3.114
 3685TIP3    H210933  -0.308   3.594   3.262
 3686TIP3   OH210934   1.055   2.748   4.316
 3686TIP3    H110935   0.957   2.747   4.325
 3686TIP3    H210936   1.063   2.707   4.229
 3687TIP3   OH210937   0.706   2.945   3.706
 3687TIP3    H110938   0.628   2.888   3.719
 3687TIP3    H210939   0.776   2.896   3.754
 3688TIP3   OH210940   0.672   3.892   3.654
 3688TIP3    H110941   0.632   3.942   3.578
 3688TIP3    H210942   0.767   3.914   3.637
 3689TIP3   OH210943   4.959   9.080   9.198
 3689TIP3    H110944   4.863   9.072   9.201
 3689TIP3    H210945   4.980   9.030   9.116
 3690TIP3   OH210946  -0.073   3.903   4.673
 3690TIP3    H110947   0.018   3.876   4.693
 3690TIP3    H210948  -0.097   3.839   4.604
 3691TIP3   OH210949   0.572   3.788   4.404
 3691TIP3    H110950   0.559   3.725   4.478
 3691TIP3    H210951   0.644   3.844   4.438
 3692TIP3   OH210952   0.351   3.520   2.724
 3692TIP3    H110953   0.380   3.445   2.779
 3692TIP3    H210954   0.416   3.519   2.652
 3693TIP3   OH210955  -0.405   3.317   4.838
 3693TIP3    H110956  -0.373   3.225   4.839
 3693TIP3    H210957  -0.500   3.301   4.823
 3694TIP3   OH210958   0.188   3.416   4.603
 3694TIP3    H110959   0.140   3.419   4.519
 3694TIP3    H210960   0.220   3.323   4.606
 3695TIP3   OH210961   0.677   3.421   4.211
 3695TIP3    H110962   0.752   3.467   4.169
 3695TIP3    H210963   0.606   3.485   4.201
 3696TIP3   OH210964  -0.315   3.050   4.830
 3696TIP3    H110965  -0.236   3.000   4.804
 3696TIP3    H210966  -0.287   3.086   4.918
 3697TIP3   OH210967   0.033   2.954   4.480
 3697TIP3    H110968  -0.046   3.012   4.482
 3697TIP3    H210969   0.079   2.985   4.399
 3698TIP3   OH210970   0.545   3.352   4.609
 3698TIP3    H110971   0.633   3.335   4.572
 3698TIP3    H210972   0.543   3.288   4.682
 3699TIP3   OH210973   0.680   3.008   2.735
 3699TIP3    H110974   0.692   3.001   2.639
 3699TIP3    H210975   0.649   3.102   2.736
 3700TIP3   OH210976   0.152   2.738   4.607
 3700TIP3    H110977   0.152   2.658   4.552
 3700TIP3    H210978   0.108   2.804   4.549
 3701TIP3   OH210979   0.152   2.526   4.410
 3701TIP3    H110980   0.181   2.563   4.325
 3701TIP3    H210981   0.059   2.502   4.391
 3702TIP3   OH210982   0.187   3.062   4.284
 3702TIP3    H110983   0.268   3.063   4.231
 3702TIP3    H210984   0.130   3.128   4.238
 3703TIP3   OH210985   0.765   3.029   4.665
 3703TIP3    H110986   0.812   2.947   4.683
 3703TIP3    H210987   0.837   3.088   4.637
 3704TIP3   OH210988   0.808   3.279   4.400
 3704TIP3    H110989   0.750   3.333   4.341
 3704TIP3    H210990   0.896   3.299   4.360
 3705TIP3   OH210991   0.025   2.857   4.831
 3705TIP3    H110992  -0.040   2.786   4.847
 3705TIP3    H210993   0.065   2.828   4.746
 3706TIP3   OH210994   0.289   2.292   4.477
 3706TIP3    H110995   0.238   2.373   4.455
 3706TIP3    H210996   0.220   2.223   4.466
 3707TIP3   OH210997   0.413   2.797   4.694
 3707TIP3    H110998   0.407   2.785   4.791
 3707TIP3    H210999   0.323   2.770   4.669
 3708TIP3   OH211000   0.653   2.742   4.548
 3708TIP3    H111001   0.578   2.744   4.610
 3708TIP3    H211002   0.726   2.712   4.606
 3709TIP3   OH211003   0.881   2.682   4.699
 3709TIP3    H111004   0.894   2.587   4.721
 3709TIP3    H211005   0.877   2.724   4.788
 3710TIP3   OH211006  -0.131   2.636   4.887
 3710TIP3    H111007  -0.122   2.546   4.852
 3710TIP3    H211008  -0.093   2.623   4.977
 3711TIP3   OH211009   0.382   2.300   4.735
 3711TIP3    H111010   0.451   2.230   4.731
 3711TIP3    H211011   0.343   2.293   4.646
 3712TIP3   OH211012   0.448   2.515   4.894
 3712TIP3    H111013   0.425   2.443   4.830
 3712TIP3    H211014   0.370   2.574   4.888
 3713TIP3   OH211015  -0.337   3.764   2.981
 3713TIP3    H111016  -0.246   3.735   2.959
 3713TIP3    H211017  -0.372   3.772   2.889
 3714TIP3   OH211018   0.921   3.992   3.611
 3714TIP3    H111019   0.951   4.027   3.697
 3714TIP3    H211020   0.984   4.033   3.550
 3715TIP3   OH211021   0.952   4.011   3.893
 3715TIP3    H111022   0.918   3.919   3.889
 3715TIP3    H211023   1.031   3.997   3.948
 3716TIP3   OH211024   0.999   3.687   4.463
 3716TIP3    H111025   0.928   3.695   4.530
 3716TIP3    H211026   1.042   3.775   4.470
 3717TIP3   OH211027   0.817   3.201   3.086
 3717TIP3    H111028   0.887   3.264   3.059
 3717TIP3    H211029   0.859   3.161   3.166
 3718TIP3   OH211030   0.945   3.067   3.288
 3718TIP3    H111031   0.880   3.024   3.348
 3718TIP3    H211032   1.010   3.105   3.349
 3719TIP3   OH211033   0.993   3.456   3.717
 3719TIP3    H111034   1.052   3.394   3.670
 3719TIP3    H211035   0.994   3.534   3.659
 3720TIP3   OH211036   0.835   3.757   3.916
 3720TIP3    H111037   0.768   3.801   3.972
 3720TIP3    H211038   0.781   3.709   3.851
 3721TIP3   OH211039   0.879   2.975   2.939
 3721TIP3    H111040   0.809   2.978   2.872
 3721TIP3    H211041   0.854   3.052   2.995
 3722TIP3   OH211042   0.761   2.650   2.888
 3722TIP3    H111043   0.691   2.693   2.837
 3722TIP3    H211044   0.738   2.556   2.879
 3723TIP3   OH211045   0.761   2.923   3.436
 3723TIP3    H111046   0.764   2.826   3.428
 3723TIP3    H211047   0.747   2.936   3.533
 3724TIP3   OH211048  -0.606   3.023   4.135
 3724TIP3    H111049  -0.583   2.939   4.092
 3724TIP3    H211050  -0.527   3.031   4.192
 3725TIP3   OH211051   1.048   3.347   4.290
 3725TIP3    H111052   1.121   3.281   4.284
 3725TIP3    H211053   1.081   3.420   4.235
 3726TIP3   OH211054   1.234   3.155   4.311
 3726TIP3    H111055   1.161   3.104   4.351
 3726TIP3    H211056   1.308   3.092   4.325
 3727TIP3   OH211057   0.768   2.651   3.334
 3727TIP3    H111058   0.801   2.559   3.342
 3727TIP3    H211059   0.821   2.683   3.259
 3728TIP3   OH211060   0.918   2.812   3.826
 3728TIP3    H111061   1.003   2.840   3.787
 3728TIP3    H211062   0.929   2.849   3.916
 3729TIP3   OH211063   0.984   2.955   4.058
 3729TIP3    H111064   0.907   2.990   4.109
 3729TIP3    H211065   1.017   3.037   4.015
 3730TIP3   OH211066  -0.404   2.660   4.860
 3730TIP3    H111067  -0.309   2.680   4.848
 3730TIP3    H211068  -0.399   2.598   4.933
 3731TIP3   OH211069   1.435   2.545   4.615
 3731TIP3    H111070   1.495   2.480   4.573
 3731TIP3    H211071   1.412   2.603   4.540
 3732TIP3   OH211072   0.866   2.399   3.361
 3732TIP3    H111073   0.872   2.407   3.458
 3732TIP3    H211074   0.794   2.332   3.361
 3733TIP3   OH211075  -0.597   2.656   4.288
 3733TIP3    H111076  -0.575   2.657   4.194
 3733TIP3    H211077  -0.644   2.740   4.299
 3734TIP3   OH211078   1.312   2.690   4.421
 3734TIP3    H111079   1.226   2.728   4.449
 3734TIP3    H211080   1.281   2.618   4.364
 3735TIP3   OH211081   1.027   2.304   2.997
 3735TIP3    H111082   1.037   2.265   2.908
 3735TIP3    H211083   1.070   2.392   2.984
 3736TIP3   OH211084   0.504   3.856   3.266
 3736TIP3    H111085   0.559   3.841   3.186
 3736TIP3    H211086   0.558   3.921   3.313
 3737TIP3   OH211087  -0.435   2.240   4.589
 3737TIP3    H111088  -0.488   2.223   4.668
 3737TIP3    H211089  -0.499   2.282   4.531
 3738TIP3   OH211090  -0.356   3.625   4.659
 3738TIP3    H111091  -0.442   3.669   4.646
 3738TIP3    H211092  -0.356   3.615   4.756
 3739TIP3   OH211093  -0.209   3.674   4.194
 3739TIP3    H111094  -0.279   3.738   4.172
 3739TIP3    H211095  -0.130   3.728   4.187
 3740TIP3   OH211096   0.238   3.940   4.334
 3740TIP3    H111097   0.271   3.937   4.426
 3740TIP3    H211098   0.309   3.994   4.292
 3741TIP3   OH211099   0.424   4.082   4.196
 3741TIP3    H111100   0.505   4.039   4.164
 3741TIP3    H211101   0.465   4.146   4.259
 3742TIP3   OH211102   1.210   2.451   4.296
 3742TIP3    H111103   1.116   2.447   4.269
 3742TIP3    H211104   1.236   2.357   4.284
 3743TIP3   OH211105  -0.297   3.920   4.083
 3743TIP3    H111106  -0.379   3.933   4.134
 3743TIP3    H211107  -0.320   3.961   3.997
 3744TIP3   OH211108   0.352   3.927   3.919
 3744TIP3    H111109   0.302   4.010   3.903
 3744TIP3    H211110   0.442   3.959   3.896
 3745TIP3   OH211111   0.587   4.077   3.847
 3745TIP3    H111112   0.582   4.167   3.808
 3745TIP3    H211113   0.628   4.027   3.773
 3746TIP3   OH211114  -0.577   3.763   3.955
 3746TIP3    H111115  -0.558   3.726   4.044
 3746TIP3    H211116  -0.521   3.701   3.902
 3747TIP3   OH211117  -0.420   3.597   3.808
 3747TIP3    H111118  -0.411   3.515   3.862
 3747TIP3    H211119  -0.327   3.625   3.800
 3748TIP3   OH211120  -0.153   3.712   3.826
 3748TIP3    H111121  -0.119   3.620   3.816
 3748TIP3    H211122  -0.180   3.711   3.919
 3749TIP3   OH211123   0.406   2.366   3.915
 3749TIP3    H111124   0.367   2.297   3.974
 3749TIP3    H211125   0.483   2.318   3.878
 3750TIP3   OH211126   0.932   2.256   3.831
 3750TIP3    H111127   0.952   2.296   3.745
 3750TIP3    H211128   0.835   2.263   3.832
 3751TIP3   OH211129   1.068   2.340   3.586
 3751TIP3    H111130   1.143   2.327   3.647
 3751TIP3    H211131   1.076   2.437   3.571
 3752TIP3   OH211132   0.650   2.263   3.810
 3752TIP3    H111133   0.668   2.235   3.717
 3752TIP3    H211134   0.634   2.176   3.854
 3753TIP3   OH211135  -0.065   3.717   2.939
 3753TIP3    H111136   0.027   3.727   2.906
 3753TIP3    H211137  -0.095   3.644   2.883
 3754TIP3   OH211138   0.651   3.820   3.037
 3754TIP3    H111139   0.643   3.723   3.021
 3754TIP3    H211140   0.613   3.855   2.953
 3755TIP3   OH211141  -0.133   2.360   4.827
 3755TIP3    H111142  -0.166   2.285   4.881
 3755TIP3    H211143  -0.038   2.357   4.853
 3756TIP3   OH211144   0.118   2.351   4.945
 3756TIP3    H111145   0.203   2.327   4.904
 3756TIP3    H211146   0.106   2.279   5.009
 3757TIP3   OH211147   0.942   2.412   4.733
 3757TIP3    H111148   0.961   2.381   4.824
 3757TIP3    H211149   1.030   2.408   4.692
 3758TIP3   OH211150   0.886   3.968   4.223
 3758TIP3    H111151   0.804   3.939   4.179
 3758TIP3    H211152   0.870   4.065   4.228
 3759TIP3   OH211153   2.147   3.336   2.994
 3759TIP3    H111154   2.120   3.428   2.974
 3759TIP3    H211155   2.071   3.288   2.956
 3760TIP3   OH211156   2.145   3.339   3.370
 3760TIP3    H111157   2.175   3.306   3.456
 3760TIP3    H211158   2.105   3.260   3.330
 3761TIP3   OH211159   1.446   3.234   3.737
 3761TIP3    H111160   1.479   3.168   3.801
 3761TIP3    H211161   1.523   3.293   3.731
 3762TIP3   OH211162   2.389   3.639   3.052
 3762TIP3    H111163   2.378   3.570   3.119
 3762TIP3    H211164   2.418   3.715   3.106
 3763TIP3   OH211165   1.416   3.641   3.463
 3763TIP3    H111166   1.409   3.543   3.466
 3763TIP3    H211167   1.513   3.651   3.457
 3764TIP3   OH211168   1.123   2.843   3.250
 3764TIP3    H111169   1.081   2.930   3.266
 3764TIP3    H211170   1.049   2.795   3.210
 3765TIP3   OH211171   1.184   3.133   3.414
 3765TIP3    H111172   1.234   3.058   3.455
 3765TIP3    H211173   1.247   3.167   3.350
 3766TIP3   OH211174   2.036   4.101   3.068
 3766TIP3    H111175   2.084   4.030   3.020
 3766TIP3    H211176   2.035   4.067   3.158
 3767TIP3   OH211177   1.946   3.562   3.420
 3767TIP3    H111178   1.984   3.487   3.371
 3767TIP3    H211179   2.030   3.608   3.444
 3768TIP3   OH211180   2.953   2.882   3.416
 3768TIP3    H111181   2.985   2.965   3.457
 3768TIP3    H211182   2.993   2.890   3.327
 3769TIP3   OH211183   2.356   3.064   3.455
 3769TIP3    H111184   2.401   2.980   3.473
 3769TIP3    H211185   2.328   3.051   3.362
 3770TIP3   OH211186   1.692   2.724   3.420
 3770TIP3    H111187   1.675   2.797   3.357
 3770TIP3    H211188   1.644   2.651   3.374
 3771TIP3   OH211189   2.390   2.816   3.044
 3771TIP3    H111190   2.466   2.802   3.106
 3771TIP3    H211191   2.438   2.848   2.965
 3772TIP3   OH211192   1.329   2.928   3.525
 3772TIP3    H111193   1.413   2.910   3.572
 3772TIP3    H211194   1.344   2.873   3.445
 3773TIP3   OH211195   1.771   3.125   3.316
 3773TIP3    H111196   1.865   3.100   3.329
 3773TIP3    H211197   1.733   3.041   3.284
 3774TIP3   OH211198   3.030   3.088   3.590
 3774TIP3    H111199   2.949   3.139   3.569
 3774TIP3    H211200   3.050   3.121   3.679
 3775TIP3   OH211201   1.692   2.707   3.851
 3775TIP3    H111202   1.632   2.747   3.785
 3775TIP3    H211203   1.641   2.725   3.933
 3776TIP3   OH211204   2.038   3.557   2.864
 3776TIP3    H111205   2.001   3.537   2.777
 3776TIP3    H211206   1.997   3.643   2.884
 3777TIP3   OH211207   1.798   3.482   3.650
 3777TIP3    H111208   1.735   3.548   3.687
 3777TIP3    H211209   1.841   3.534   3.579
 3778TIP3   OH211210   2.603   2.811   3.217
 3778TIP3    H111211   2.601   2.773   3.306
 3778TIP3    H211212   2.659   2.889   3.230
 3779TIP3   OH211213   1.562   2.825   3.637
 3779TIP3    H111214   1.624   2.897   3.660
 3779TIP3    H211215   1.611   2.783   3.563
 3780TIP3   OH211216   1.625   3.675   3.744
 3780TIP3    H111217   1.601   3.761   3.705
 3780TIP3    H211218   1.547   3.661   3.802
 3781TIP3   OH211219   1.022   3.367   2.983
 3781TIP3    H111220   0.984   3.394   2.897
 3781TIP3    H211221   1.053   3.453   3.020
 3782TIP3   OH211222   2.462   3.881   3.222
 3782TIP3    H111223   2.371   3.874   3.260
 3782TIP3    H211224   2.455   3.967   3.176
 3783TIP3   OH211225   2.755   2.779   3.589
 3783TIP3    H111226   2.668   2.812   3.560
 3783TIP3    H211227   2.814   2.812   3.518
 3784TIP3   OH211228   2.047   2.429   3.559
 3784TIP3    H111229   2.042   2.334   3.584
 3784TIP3    H211230   1.971   2.465   3.610
 3785TIP3   OH211231   2.164   3.930   2.897
 3785TIP3    H111232   2.214   3.848   2.874
 3785TIP3    H211233   2.224   3.996   2.854
 3786TIP3   OH211234   2.303   3.715   2.800
 3786TIP3    H111235   2.276   3.634   2.754
 3786TIP3    H211236   2.339   3.679   2.884
 3787TIP3   OH211237   2.687   3.797   3.565
 3787TIP3    H111238   2.678   3.720   3.505
 3787TIP3    H211239   2.671   3.872   3.504
 3788TIP3   OH211240   1.979   3.191   2.821
 3788TIP3    H111241   1.899   3.241   2.795
 3788TIP3    H211242   2.027   3.185   2.736
 3789TIP3   OH211243   1.938   2.971   2.544
 3789TIP3    H111244   2.009   3.023   2.587
 3789TIP3    H211245   1.993   2.908   2.493
 3790TIP3   OH211246   2.883   3.432   3.410
 3790TIP3    H111247   2.800   3.485   3.414
 3790TIP3    H211248   2.912   3.453   3.319
 3791TIP3   OH211249   2.324   3.272   2.794
 3791TIP3    H111250   2.271   3.297   2.873
 3791TIP3    H211251   2.409   3.245   2.837
 3792TIP3   OH211252   2.560   3.312   3.704
 3792TIP3    H111253   2.559   3.399   3.749
 3792TIP3    H211254   2.475   3.316   3.657
 3793TIP3   OH211255   1.557   3.270   3.212
 3793TIP3    H111256   1.517   3.213   3.143
 3793TIP3    H211257   1.636   3.218   3.238
 3794TIP3   OH211258   1.686   3.678   3.360
 3794TIP3    H111259   1.668   3.637   3.274
 3794TIP3    H211260   1.778   3.649   3.379
 3795TIP3   OH211261   1.695   3.242   3.563
 3795TIP3    H111262   1.729   3.222   3.474
 3795TIP3    H211263   1.738   3.327   3.585
 3796TIP3   OH211264   2.219   3.879   3.341
 3796TIP3    H111265   2.206   3.959   3.394
 3796TIP3    H211266   2.206   3.807   3.405
 3797TIP3   OH211267   1.832   3.796   3.889
 3797TIP3    H111268   1.774   3.860   3.935
 3797TIP3    H211269   1.765   3.744   3.840
 3798TIP3   OH211270   2.166   3.130   2.620
 3798TIP3    H111271   2.226   3.188   2.671
 3798TIP3    H211272   2.192   3.155   2.527
 3799TIP3   OH211273   1.586   3.356   3.986
 3799TIP3    H111274   1.591   3.442   4.033
 3799TIP3    H211275   1.490   3.337   3.996
 3800TIP3   OH211276   1.907   3.813   2.897
 3800TIP3    H111277   1.987   3.866   2.915
 3800TIP3    H211278   1.848   3.877   2.856
 3801TIP3   OH211279   1.628   3.966   3.973
 3801TIP3    H111280   1.591   3.964   3.883
 3801TIP3    H211281   1.549   3.946   4.028
 3802TIP3   OH211282   2.677   2.374   2.656
 3802TIP3    H111283   2.609   2.395   2.724
 3802TIP3    H211284   2.705   2.464   2.630
 3803TIP3   OH211285   1.423   3.112   3.019
 3803TIP3    H111286   1.363   3.160   2.959
 3803TIP3    H211287   1.381   3.026   3.023
 3804TIP3   OH211288   2.481   3.740   2.217
 3804TIP3    H111289   2.489   3.837   2.201
 3804TIP3    H211290   2.573   3.710   2.202
 3805TIP3   OH211291   1.204   3.496   3.923
 3805TIP3    H111292   1.145   3.470   3.850
 3805TIP3    H211293   1.244   3.410   3.950
 3806TIP3   OH211294   1.060   3.688   3.559
 3806TIP3    H111295   1.156   3.681   3.544
 3806TIP3    H211296   1.056   3.770   3.611
 3807TIP3   OH211297   2.926   4.140   3.609
 3807TIP3    H111298   2.923   4.043   3.622
 3807TIP3    H211299   2.842   4.165   3.654
 3808TIP3   OH211300   2.031   3.927   3.745
 3808TIP3    H111301   2.032   4.020   3.776
 3808TIP3    H211302   1.961   3.889   3.800
 3809TIP3   OH211303   1.787   4.055   2.697
 3809TIP3    H111304   1.746   4.037   2.611
 3809TIP3    H211305   1.758   4.146   2.717
 3810TIP3   OH211306   1.227   3.906   3.079
 3810TIP3    H111307   1.278   3.897   3.163
 3810TIP3    H211308   1.167   3.830   3.088
 3811TIP3   OH211309   1.993   3.956   2.338
 3811TIP3    H111310   2.052   3.887   2.300
 3811TIP3    H211311   2.028   3.965   2.429
 3812TIP3   OH211312   2.041   4.006   2.609
 3812TIP3    H111313   1.953   4.013   2.652
 3812TIP3    H211314   2.094   3.964   2.679
 3813TIP3   OH211315   2.817   3.270   3.883
 3813TIP3    H111316   2.737   3.288   3.831
 3813TIP3    H211317   2.828   3.174   3.870
 3814TIP3   OH211318   1.411   3.678   3.912
 3814TIP3    H111319   1.462   3.664   3.994
 3814TIP3    H211320   1.337   3.615   3.922
 3815TIP3   OH211321   1.811   2.505   3.693
 3815TIP3    H111322   1.721   2.477   3.670
 3815TIP3    H211323   1.790   2.589   3.738
 3816TIP3   OH211324   2.345   2.621   3.888
 3816TIP3    H111325   2.412   2.588   3.952
 3816TIP3    H211326   2.261   2.595   3.931
 3817TIP3   OH211327   2.583   3.046   3.806
 3817TIP3    H111328   2.536   3.046   3.892
 3817TIP3    H211329   2.561   3.133   3.769
 3818TIP3   OH211330   2.243   3.183   2.365
 3818TIP3    H111331   2.209   3.154   2.278
 3818TIP3    H211332   2.326   3.228   2.339
 3819TIP3   OH211333   1.955   2.558   2.667
 3819TIP3    H111334   1.925   2.553   2.759
 3819TIP3    H211335   1.920   2.473   2.633
 3820TIP3   OH211336   1.740   3.019   3.712
 3820TIP3    H111337   1.692   3.041   3.794
 3820TIP3    H211338   1.725   3.100   3.658
 3821TIP3   OH211339   1.627   2.904   3.228
 3821TIP3    H111340   1.533   2.881   3.242
 3821TIP3    H211341   1.641   2.866   3.138
 3822TIP3   OH211342   2.115   2.989   2.953
 3822TIP3    H111343   2.063   3.062   2.911
 3822TIP3    H211344   2.172   2.961   2.878
 3823TIP3   OH211345   2.280   3.269   4.039
 3823TIP3    H111346   2.262   3.195   4.101
 3823TIP3    H211347   2.377   3.276   4.043
 3824TIP3   OH211348   2.273   3.021   3.195
 3824TIP3    H111349   2.216   3.053   3.122
 3824TIP3    H211350   2.306   2.939   3.152
 3825TIP3   OH211351   1.560   3.049   3.923
 3825TIP3    H111352   1.587   3.112   3.990
 3825TIP3    H211353   1.550   2.967   3.975
 3826TIP3   OH211354   1.604   2.524   2.633
 3826TIP3    H111355   1.599   2.518   2.730
 3826TIP3    H211356   1.530   2.583   2.614
 3827TIP3   OH211357   1.161   2.574   3.502
 3827TIP3    H111358   1.231   2.608   3.561
 3827TIP3    H211359   1.206   2.572   3.416
 3828TIP3   OH211360   1.138   2.562   3.017
 3828TIP3    H111361   1.179   2.602   2.937
 3828TIP3    H211362   1.076   2.634   3.038
 3829TIP3   OH211363   2.285   3.267   3.618
 3829TIP3    H111364   2.317   3.194   3.559
 3829TIP3    H211365   2.255   3.214   3.695
 3830TIP3   OH211366   1.951   2.726   3.290
 3830TIP3    H111367   1.870   2.724   3.344
 3830TIP3    H211368   2.020   2.732   3.358
 3831TIP3   OH211369   1.386   2.780   3.299
 3831TIP3    H111370   1.293   2.789   3.268
 3831TIP3    H211371   1.413   2.692   3.267
 3832TIP3   OH211372   1.659   2.780   2.985
 3832TIP3    H111373   1.754   2.794   2.965
 3832TIP3    H211374   1.614   2.804   2.900
 3833TIP3   OH211375   2.443   2.800   3.492
 3833TIP3    H111376   2.408   2.813   3.583
 3833TIP3    H211377   2.374   2.742   3.454
 3834TIP3   OH211378   1.496   2.811   2.764
 3834TIP3    H111379   1.422   2.774   2.714
 3834TIP3    H211380   1.549   2.849   2.691
 3835TIP3   OH211381   2.614   4.491   3.708
 3835TIP3    H111382   2.612   4.514   3.614
 3835TIP3    H211383   2.691   4.541   3.740
 3836TIP3   OH211384   1.572   3.600   4.131
 3836TIP3    H111385   1.652   3.632   4.178
 3836TIP3    H211386   1.508   3.602   4.204
 3837TIP3   OH211387   2.037   3.052   3.384
 3837TIP3    H111388   2.111   3.018   3.332
 3837TIP3    H211389   2.052   3.012   3.471
 3838TIP3   OH211390   1.561   2.544   3.255
 3838TIP3    H111391   1.555   2.455   3.290
 3838TIP3    H211392   1.617   2.532   3.177
 3839TIP3   OH211393   2.012   2.947   3.679
 3839TIP3    H111394   1.924   2.987   3.690
 3839TIP3    H211395   2.071   3.009   3.727
 3840TIP3   OH211396   1.748   3.344   2.769
 3840TIP3    H111397   1.676   3.279   2.759
 3840TIP3    H211398   1.733   3.377   2.861
 3841TIP3   OH211399   2.651   3.579   3.401
 3841TIP3    H111400   2.677   3.627   3.320
 3841TIP3    H211401   2.565   3.538   3.376
 3842TIP3   OH211402   2.210   2.655   2.636
 3842TIP3    H111403   2.112   2.643   2.637
 3842TIP3    H211404   2.221   2.751   2.653
 3843TIP3   OH211405   2.148   3.659   3.769
 3843TIP3    H111406   2.169   3.641   3.862
 3843TIP3    H211407   2.112   3.749   3.772
 3844TIP3   OH211408   2.281   2.904   2.738
 3844TIP3    H111409   2.378   2.905   2.745
 3844TIP3    H211410   2.263   2.980   2.679
 3845TIP3   OH211411   1.437   3.359   3.448
 3845TIP3    H111412   1.479   3.335   3.362
 3845TIP3    H211413   1.485   3.300   3.509
 3846TIP3   OH211414   1.896   3.493   2.591
 3846TIP3    H111415   1.849   3.579   2.598
 3846TIP3    H211416   1.842   3.437   2.650
 3847TIP3   OH211417   1.321   3.287   4.060
 3847TIP3    H111418   1.346   3.275   4.154
 3847TIP3    H211419   1.254   3.217   4.049
 3848TIP3   OH211420   2.041   3.398   4.081
 3848TIP3    H111421   1.984   3.340   4.028
 3848TIP3    H211422   2.130   3.367   4.052
 3849TIP3   OH211423   2.310   3.915   3.664
 3849TIP3    H111424   2.214   3.919   3.675
 3849TIP3    H211425   2.339   3.970   3.741
 3850TIP3   OH211426   2.719   2.992   2.577
 3850TIP3    H111427   2.663   2.941   2.514
 3850TIP3    H211428   2.716   3.078   2.530
 3851TIP3   OH211429   2.938   3.847   3.654
 3851TIP3    H111430   2.840   3.844   3.645
 3851TIP3    H211431   2.964   3.818   3.564
 3852TIP3   OH211432   2.419   3.811   2.480
 3852TIP3    H111433   2.397   3.738   2.539
 3852TIP3    H211434   2.432   3.766   2.394
 3853TIP3   OH211435   2.416   3.440   3.323
 3853TIP3    H111436   2.322   3.415   3.333
 3853TIP3    H211437   2.451   3.362   3.276
 3854TIP3   OH211438   1.542   3.667   3.072
 3854TIP3    H111439   1.548   3.748   3.019
 3854TIP3    H211440   1.447   3.655   3.077
 3855TIP3   OH211441   1.107   2.984   2.783
 3855TIP3    H111442   1.156   3.066   2.805
 3855TIP3    H211443   1.032   2.989   2.846
 3856TIP3   OH211444   1.683   3.434   3.017
 3856TIP3    H111445   1.649   3.524   3.034
 3856TIP3    H211446   1.646   3.386   3.093
 3857TIP3   OH211447   1.811   4.012   3.541
 3857TIP3    H111448   1.851   4.085   3.490
 3857TIP3    H211449   1.888   3.980   3.591
 3858TIP3   OH211450   1.464   3.907   2.925
 3858TIP3    H111451   1.377   3.916   2.969
 3858TIP3    H211452   1.496   3.999   2.927
 3859TIP3   OH211453   2.201   3.646   3.499
 3859TIP3    H111454   2.194   3.644   3.597
 3859TIP3    H211455   2.282   3.595   3.484
 3860TIP3   OH211456   2.173   3.538   2.383
 3860TIP3    H111457   2.227   3.514   2.461
 3860TIP3    H211458   2.085   3.511   2.413
 3861TIP3   OH211459   2.449   4.181   3.550
 3861TIP3    H111460   2.370   4.126   3.540
 3861TIP3    H211461   2.435   4.247   3.478
 3862TIP3   OH211462   2.515   4.015   2.202
 3862TIP3    H111463   2.552   4.086   2.148
 3862TIP3    H211464   2.435   4.061   2.235
 3863TIP3   OH211465   1.536   2.789   4.069
 3863TIP3    H111466   1.441   2.798   4.088
 3863TIP3    H211467   1.566   2.733   4.142
 3864TIP3   OH211468   2.333   3.477   2.603
 3864TIP3    H111469   2.324   3.406   2.670
 3864TIP3    H211470   2.430   3.473   2.587
 3865TIP3   OH211471   1.248   3.875   3.703
 3865TIP3    H111472   1.304   3.802   3.732
 3865TIP3    H211473   1.279   3.946   3.761
 3866TIP3   OH211474   1.540   3.521   2.382
 3866TIP3    H111475   1.557   3.430   2.349
 3866TIP3    H211476   1.522   3.504   2.476
 3867TIP3   OH211477   1.485   3.523   2.658
 3867TIP3    H111478   1.561   3.498   2.712
 3867TIP3    H211479   1.491   3.622   2.660
 3868TIP3   OH211480   1.225   3.222   2.858
 3868TIP3    H111481   1.160   3.269   2.915
 3868TIP3    H211482   1.243   3.290   2.790
 3869TIP3   OH211483   2.367   2.857   3.751
 3869TIP3    H111484   2.451   2.892   3.785
 3869TIP3    H211485   2.355   2.775   3.803
 3870TIP3   OH211486   2.240   2.612   2.914
 3870TIP3    H111487   2.233   2.629   2.818
 3870TIP3    H211488   2.286   2.693   2.945
 3871TIP3   OH211489   1.750   3.721   2.604
 3871TIP3    H111490   1.665   3.753   2.637
 3871TIP3    H211491   1.770   3.789   2.538
 3872TIP3   OH211492   1.939   2.785   3.015
 3872TIP3    H111493   2.006   2.854   2.994
 3872TIP3    H211494   1.947   2.781   3.113
 3873TIP3   OH211495   2.206   3.103   3.822
 3873TIP3    H111496   2.222   3.157   3.902
 3873TIP3    H211497   2.264   3.026   3.835
 3874TIP3   OH211498   2.086   2.516   3.121
 3874TIP3    H111499   2.075   2.595   3.178
 3874TIP3    H211500   2.145   2.553   3.050
 3875TIP3   OH211501   1.492   3.797   2.668
 3875TIP3    H111502   1.464   3.867   2.605
 3875TIP3    H211503   1.478   3.843   2.754
 3876TIP3   OH211504   1.597   2.511   2.912
 3876TIP3    H111505   1.597   2.604   2.939
 3876TIP3    H211506   1.694   2.493   2.917
 3877TIP3   OH211507   2.851   3.005   3.807
 3877TIP3    H111508   2.753   3.000   3.809
 3877TIP3    H211509   2.868   2.974   3.717
 3878TIP3   OH211510   2.500   3.200   3.193
 3878TIP3    H111511   2.426   3.138   3.204
 3878TIP3    H211512   2.573   3.154   3.240
 3879TIP3   OH211513   1.212   3.432   2.662
 3879TIP3    H111514   1.276   3.504   2.672
 3879TIP3    H211515   1.260   3.378   2.596
 3880TIP3   OH211516   1.162   2.717   2.801
 3880TIP3    H111517   1.155   2.814   2.792
 3880TIP3    H211518   1.098   2.684   2.735
 3881TIP3   OH211519   2.469   4.153   3.143
 3881TIP3    H111520   2.427   4.200   3.068
 3881TIP3    H211521   2.563   4.172   3.122
 3882TIP3   OH211522   1.545   2.425   3.675
 3882TIP3    H111523   1.509   2.391   3.590
 3882TIP3    H211524   1.543   2.344   3.731
 3883TIP3   OH211525   1.086   3.639   3.055
 3883TIP3    H111526   1.010   3.675   3.101
 3883TIP3    H211527   1.073   3.679   2.966
 3884TIP3   OH211528   1.241   4.181   4.121
 3884TIP3    H111529   1.326   4.184   4.169
 3884TIP3    H211530   1.223   4.086   4.122
 3885TIP3   OH211531   1.723   4.150   4.166
 3885TIP3    H111532   1.818   4.136   4.176
 3885TIP3    H211533   1.702   4.092   4.090
 3886TIP3   OH211534   1.706   3.725   2.297
 3886TIP3    H111535   1.650   3.652   2.333
 3886TIP3    H211536   1.780   3.674   2.260
 3887TIP3   OH211537   2.364   4.053   3.896
 3887TIP3    H111538   2.355   3.984   3.967
 3887TIP3    H211539   2.440   4.105   3.928
 3888TIP3   OH211540   2.141   3.767   2.205
 3888TIP3    H111541   2.188   3.703   2.261
 3888TIP3    H211542   2.196   3.768   2.124
 3889TIP3   OH211543   1.372   3.589   4.321
 3889TIP3    H111544   1.389   3.493   4.327
 3889TIP3    H211545   1.283   3.591   4.280
 3890TIP3   OH211546   1.350   3.242   2.518
 3890TIP3    H111547   1.409   3.208   2.588
 3890TIP3    H211548   1.415   3.246   2.443
 3891TIP3   OH211549   1.982   3.674   4.094
 3891TIP3    H111550   1.938   3.691   4.009
 3891TIP3    H211551   2.010   3.580   4.086
 3892TIP3   OH211552   1.852   3.438   2.322
 3892TIP3    H111553   1.859   3.451   2.418
 3892TIP3    H211554   1.856   3.339   2.317
 3893TIP3   OH211555   2.472   3.680   3.701
 3893TIP3    H111556   2.546   3.726   3.655
 3893TIP3    H211557   2.401   3.746   3.689
 3894TIP3   OH211558   1.490   3.320   4.302
 3894TIP3    H111559   1.565   3.261   4.287
 3894TIP3    H211560   1.512   3.355   4.391
 3895TIP3   OH211561   1.555   3.143   2.737
 3895TIP3    H111562   1.535   3.098   2.820
 3895TIP3    H211563   1.594   3.070   2.683
 3896TIP3   OH211564   1.825   3.207   3.964
 3896TIP3    H111565   1.749   3.269   3.969
 3896TIP3    H211566   1.873   3.241   3.884
 3897TIP3   OH211567   1.658   2.936   2.583
 3897TIP3    H111568   1.632   2.937   2.489
 3897TIP3    H211569   1.756   2.942   2.574
 3898TIP3   OH211570   2.340   3.609   4.098
 3898TIP3    H111571   2.418   3.595   4.044
 3898TIP3    H211572   2.352   3.543   4.168
 3899TIP3   OH211573   2.480   3.270   2.240
 3899TIP3    H111574   2.460   3.221   2.157
 3899TIP3    H211575   2.448   3.359   2.213
 3900TIP3   OH211576   1.950   2.996   4.092
 3900TIP3    H111577   1.949   2.915   4.037
 3900TIP3    H211578   1.906   3.061   4.033
 3901TIP3   OH211579   1.950   2.781   3.899
 3901TIP3    H111580   1.978   2.823   3.815
 3901TIP3    H211581   1.857   2.759   3.880
 3902TIP3   OH211582   1.981   3.319   3.770
 3902TIP3    H111583   2.063   3.327   3.719
 3902TIP3    H211584   1.925   3.387   3.729
 3903TIP3   OH211585   2.602   3.541   3.892
 3903TIP3    H111586   2.544   3.592   3.831
 3903TIP3    H211587   2.689   3.559   3.850
 3904TIP3   OH211588   1.826   3.111   4.318
 3904TIP3    H111589   1.756   3.044   4.335
 3904TIP3    H211590   1.862   3.082   4.232
 3905TIP3   OH211591   2.085   2.547   3.963
 3905TIP3    H111592   2.035   2.629   3.942
 3905TIP3    H211593   2.015   2.479   3.953
 3906TIP3   OH211594   2.208   3.053   4.184
 3906TIP3    H111595   2.193   3.036   4.279
 3906TIP3    H211596   2.119   3.028   4.151
 3907TIP3   OH211597   2.452   3.013   4.043
 3907TIP3    H111598   2.372   3.001   4.097
 3907TIP3    H211599   2.522   2.976   4.101
 3908TIP3   OH211600   2.680   2.943   4.219
 3908TIP3    H111601   2.699   2.847   4.212
 3908TIP3    H211602   2.637   2.948   4.305
 3909TIP3   OH211603   1.666   2.890   4.372
 3909TIP3    H111604   1.676   2.799   4.339
 3909TIP3    H211605   1.702   2.880   4.463
 3910TIP3   OH211606   2.180   2.558   4.221
 3910TIP3    H111607   2.248   2.488   4.218
 3910TIP3    H211608   2.141   2.549   4.132
 3911TIP3   OH211609   2.247   2.774   4.377
 3911TIP3    H111610   2.223   2.701   4.316
 3911TIP3    H211611   2.167   2.831   4.374
 3912TIP3   OH211612   1.463   3.999   2.481
 3912TIP3    H111613   1.559   3.997   2.463
 3912TIP3    H211614   1.433   4.047   2.402
 3913TIP3   OH211615   0.945   3.382   2.702
 3913TIP3    H111616   1.040   3.406   2.687
 3913TIP3    H211617   0.941   3.294   2.660
 3914TIP3   OH211618   0.855   3.993   3.112
 3914TIP3    H111619   0.789   3.929   3.077
 3914TIP3    H211620   0.902   3.937   3.178
 3915TIP3   OH211621   0.993   3.848   3.298
 3915TIP3    H111622   0.987   3.772   3.358
 3915TIP3    H211623   1.046   3.909   3.353
 3916TIP3   OH211624   2.720   4.247   3.097
 3916TIP3    H111625   2.749   4.281   3.183
 3916TIP3    H211626   2.781   4.291   3.036
 3917TIP3   OH211627   2.751   4.268   3.380
 3917TIP3    H111628   2.709   4.179   3.375
 3917TIP3    H211629   2.828   4.246   3.436
 3918TIP3   OH211630   2.799   3.941   3.954
 3918TIP3    H111631   2.724   3.951   4.016
 3918TIP3    H211632   2.839   4.030   3.956
 3919TIP3   OH211633   2.612   3.458   2.574
 3919TIP3    H111634   2.682   3.520   2.545
 3919TIP3    H211635   2.655   3.417   2.652
 3920TIP3   OH211636   2.740   3.326   2.776
 3920TIP3    H111637   2.676   3.282   2.835
 3920TIP3    H211638   2.806   3.362   2.839
 3921TIP3   OH211639   2.794   3.713   3.209
 3921TIP3    H111640   2.848   3.651   3.157
 3921TIP3    H211641   2.786   3.789   3.148
 3922TIP3   OH211642   2.628   4.015   3.406
 3922TIP3    H111643   2.557   4.058   3.456
 3922TIP3    H211644   2.578   3.967   3.337
 3923TIP3   OH211645   2.679   3.233   2.424
 3923TIP3    H111646   2.608   3.234   2.357
 3923TIP3    H211647   2.651   3.309   2.479
 3924TIP3   OH211648   2.546   2.907   2.382
 3924TIP3    H111649   2.513   2.943   2.299
 3924TIP3    H211650   2.524   2.811   2.371
 3925TIP3   OH211651   2.555   3.178   2.923
 3925TIP3    H111652   2.567   3.082   2.918
 3925TIP3    H211653   2.543   3.193   3.019
 3926TIP3   OH211654   1.183   3.256   3.669
 3926TIP3    H111655   1.182   3.226   3.575
 3926TIP3    H211656   1.280   3.256   3.686
 3927TIP3   OH211657   2.843   3.603   3.780
 3927TIP3    H111658   2.918   3.540   3.773
 3927TIP3    H211659   2.869   3.674   3.719
 3928TIP3   OH211660   3.031   3.414   3.813
 3928TIP3    H111661   2.955   3.358   3.840
 3928TIP3    H211662   3.104   3.348   3.817
 3929TIP3   OH211663   2.495   2.640   2.366
 3929TIP3    H111664   2.578   2.613   2.411
 3929TIP3    H211665   2.429   2.579   2.399
 3930TIP3   OH211666   2.562   2.890   2.820
 3930TIP3    H111667   2.615   2.810   2.838
 3930TIP3    H211668   2.612   2.927   2.746
 3931TIP3   OH211669   2.713   3.074   3.313
 3931TIP3    H111670   2.800   3.099   3.273
 3931TIP3    H211671   2.729   3.108   3.403
 3932TIP3   OH211672   2.782   3.215   3.550
 3932TIP3    H111673   2.703   3.250   3.594
 3932TIP3    H211674   2.815   3.293   3.501
 3933TIP3   OH211675   1.399   2.941   4.340
 3933TIP3    H111676   1.497   2.935   4.346
 3933TIP3    H211677   1.375   2.857   4.385
 3934TIP3   OH211678   3.232   2.801   4.103
 3934TIP3    H111679   3.291   2.735   4.061
 3934TIP3    H211680   3.208   2.859   4.027
 3935TIP3   OH211681   1.362   2.633   3.676
 3935TIP3    H111682   1.428   2.562   3.689
 3935TIP3    H211683   1.421   2.710   3.671
 3936TIP3   OH211684   1.164   2.905   3.749
 3936TIP3    H111685   1.215   2.903   3.665
 3936TIP3    H211686   1.191   2.990   3.785
 3937TIP3   OH211687   3.105   2.948   3.909
 3937TIP3    H111688   3.013   2.980   3.916
 3937TIP3    H211689   3.090   2.871   3.850
 3938TIP3   OH211690   2.745   2.586   2.473
 3938TIP3    H111691   2.807   2.514   2.449
 3938TIP3    H211692   2.811   2.657   2.492
 3939TIP3   OH211693   1.141   2.422   3.251
 3939TIP3    H111694   1.056   2.471   3.252
 3939TIP3    H211695   1.179   2.459   3.169
 3940TIP3   OH211696   2.306   4.112   2.756
 3940TIP3    H111697   2.356   4.095   2.674
 3940TIP3    H211698   2.360   4.179   2.799
 3941TIP3   OH211699   1.361   2.480   4.057
 3941TIP3    H111700   1.318   2.481   4.145
 3941TIP3    H211701   1.296   2.530   4.004
 3942TIP3   OH211702   1.408   3.912   4.141
 3942TIP3    H111703   1.315   3.886   4.126
 3942TIP3    H211704   1.417   3.900   4.237
 3943TIP3   OH211705   1.583   3.945   3.687
 3943TIP3    H111706   1.536   4.023   3.650
 3943TIP3    H211707   1.670   3.959   3.644
 3944TIP3   OH211708   2.031   4.193   3.825
 3944TIP3    H111709   2.072   4.195   3.914
 3944TIP3    H211710   2.098   4.244   3.774
 3945TIP3   OH211711   2.210   4.344   3.684
 3945TIP3    H111712   2.283   4.293   3.644
 3945TIP3    H211713   2.260   4.401   3.745
 3946TIP3   OH211714   3.005   2.710   3.787
 3946TIP3    H111715   2.916   2.710   3.749
 3946TIP3    H211716   3.034   2.616   3.774
 3947TIP3   OH211717   1.261   4.202   3.713
 3947TIP3    H111718   1.173   4.239   3.690
 3947TIP3    H211719   1.274   4.243   3.800
 3948TIP3   OH211720   1.497   4.182   3.569
 3948TIP3    H111721   1.412   4.196   3.615
 3948TIP3    H211722   1.478   4.218   3.480
 3949TIP3   OH211723   1.924   4.214   3.367
 3949TIP3    H111724   1.857   4.236   3.301
 3949TIP3    H211725   1.938   4.301   3.411
 3950TIP3   OH211726   2.192   4.153   3.418
 3950TIP3    H111727   2.098   4.170   3.399
 3950TIP3    H211728   2.234   4.230   3.377
 3951TIP3   OH211729   2.402   4.346   3.335
 3951TIP3    H111730   2.387   4.431   3.288
 3951TIP3    H211731   2.426   4.286   3.261
 3952TIP3   OH211732   1.171   3.998   3.458
 3952TIP3    H111733   1.200   3.976   3.549
 3952TIP3    H211734   1.245   3.956   3.407
 3953TIP3   OH211735   1.365   3.871   3.313
 3953TIP3    H111736   1.383   3.787   3.360
 3953TIP3    H211737   1.455   3.909   3.308
 3954TIP3   OH211738   1.630   3.967   3.316
 3954TIP3    H111739   1.664   3.877   3.302
 3954TIP3    H211740   1.674   3.989   3.400
 3955TIP3   OH211741   2.212   2.625   3.406
 3955TIP3    H111742   2.163   2.558   3.457
 3955TIP3    H211743   2.278   2.570   3.358
 3956TIP3   OH211744   2.718   2.503   3.343
 3956TIP3    H111745   2.786   2.542   3.287
 3956TIP3    H211746   2.637   2.524   3.293
 3957TIP3   OH211747   1.441   2.319   3.441
 3957TIP3    H111748   1.387   2.308   3.361
 3957TIP3    H211749   1.501   2.241   3.435
 3958TIP3   OH211750   1.274   2.199   3.092
 3958TIP3    H111751   1.318   2.236   3.012
 3958TIP3    H211752   1.186   2.239   3.082
 3959TIP3   OH211753   1.895   2.368   3.305
 3959TIP3    H111754   1.954   2.414   3.243
 3959TIP3    H211755   1.929   2.400   3.390
 3960TIP3   OH211756   2.434   2.476   3.285
 3960TIP3    H111757   2.446   2.498   3.191
 3960TIP3    H211758   2.435   2.379   3.281
 3961TIP3   OH211759   2.473   2.425   2.841
 3961TIP3    H111760   2.388   2.469   2.853
 3961TIP3    H211761   2.462   2.344   2.893
 3962TIP3   OH211762   0.959   3.770   2.854
 3962TIP3    H111763   0.876   3.739   2.814
 3962TIP3    H211764   0.951   3.865   2.835
 3963TIP3   OH211765   1.369   2.344   2.874
 3963TIP3    H111766   1.403   2.289   2.799
 3963TIP3    H211767   1.445   2.403   2.890
 3964TIP3   OH211768   1.873   2.533   2.934
 3964TIP3    H111769   1.937   2.487   2.990
 3964TIP3    H211770   1.896   2.626   2.956
 3965TIP3   OH211771   1.733   3.963   2.431
 3965TIP3    H111772   1.821   3.984   2.395
 3965TIP3    H211773   1.711   3.887   2.372
 3966TIP3   OH211774   2.450   4.077   2.523
 3966TIP3    H111775   2.442   3.980   2.509
 3966TIP3    H211776   2.407   4.111   2.442
 3967TIP3   OH211777   1.666   2.611   4.309
 3967TIP3    H111778   1.633   2.542   4.369
 3967TIP3    H211779   1.761   2.612   4.337
 3968TIP3   OH211780   1.914   2.608   4.430
 3968TIP3    H111781   1.999   2.580   4.393
 3968TIP3    H211782   1.900   2.540   4.499
 3969TIP3   OH211783   1.036   3.793   2.490
 3969TIP3    H111784   1.042   3.828   2.580
 3969TIP3    H211785   1.126   3.754   2.476
 3970TIP3   OH211786   2.737   2.674   4.218
 3970TIP3    H111787   2.756   2.639   4.308
 3970TIP3    H211788   2.825   2.665   4.174
 3971TIP3   OH211789   2.680   4.223   3.711
 3971TIP3    H111790   2.600   4.191   3.664
 3971TIP3    H211791   2.660   4.319   3.713
 3972TIP3   OH211792   3.942   3.597   2.482
 3972TIP3    H111793   3.917   3.689   2.460
 3972TIP3    H211794   3.867   3.548   2.445
 3973TIP3   OH211795   3.935   3.598   2.860
 3973TIP3    H111796   3.972   3.562   2.943
 3973TIP3    H211797   3.902   3.517   2.817
 3974TIP3   OH211798   3.243   3.493   3.226
 3974TIP3    H111799   3.276   3.425   3.287
 3974TIP3    H211800   3.323   3.546   3.211
 3975TIP3   OH211801   4.178   3.907   2.537
 3975TIP3    H111802   4.179   3.826   2.589
 3975TIP3    H211803   4.210   3.973   2.601
 3976TIP3   OH211804   3.214   3.899   2.951
 3976TIP3    H111805   3.205   3.802   2.953
 3976TIP3    H211806   3.310   3.908   2.945
 3977TIP3   OH211807   2.919   3.107   2.741
 3977TIP3    H111808   2.864   3.187   2.745
 3977TIP3    H211809   2.856   3.045   2.701
 3978TIP3   OH211810   2.981   3.391   2.905
 3978TIP3    H111811   3.029   3.314   2.942
 3978TIP3    H211812   3.037   3.414   2.829
 3979TIP3   OH211813   3.834   4.358   2.553
 3979TIP3    H111814   3.883   4.286   2.509
 3979TIP3    H211815   3.828   4.325   2.644
 3980TIP3   OH211816   3.742   3.820   2.906
 3980TIP3    H111817   3.780   3.741   2.863
 3980TIP3    H211818   3.826   3.865   2.929
 3981TIP3   OH211819   4.758   3.140   2.905
 3981TIP3    H111820   4.783   3.224   2.947
 3981TIP3    H211821   4.768   3.163   2.811
 3982TIP3   OH211822   4.145   3.318   2.947
 3982TIP3    H111823   4.193   3.234   2.960
 3982TIP3    H211824   4.130   3.316   2.851
 3983TIP3   OH211825   3.491   2.982   2.906
 3983TIP3    H111826   3.469   3.053   2.842
 3983TIP3    H211827   3.453   2.905   2.859
 3984TIP3   OH211828   4.186   3.073   2.529
 3984TIP3    H111829   4.260   3.057   2.591
 3984TIP3    H211830   4.235   3.111   2.454
 3985TIP3   OH211831   3.125   3.183   3.012
 3985TIP3    H111832   3.208   3.161   3.058
 3985TIP3    H211833   3.134   3.126   2.933
 3986TIP3   OH211834   3.567   3.381   2.804
 3986TIP3    H111835   3.660   3.355   2.817
 3986TIP3    H211836   3.527   3.298   2.772
 3987TIP3   OH211837   4.829   3.349   3.075
 3987TIP3    H111838   4.746   3.396   3.052
 3987TIP3    H211839   4.837   3.371   3.168
 3988TIP3   OH211840   3.489   2.965   3.338
 3988TIP3    H111841   3.426   2.998   3.270
 3988TIP3    H211842   3.437   2.983   3.419
 3989TIP3   OH211843   3.850   3.826   2.336
 3989TIP3    H111844   3.791   3.789   2.269
 3989TIP3    H211845   3.797   3.904   2.365
 3990TIP3   OH211846   3.595   3.739   3.136
 3990TIP3    H111847   3.531   3.804   3.174
 3990TIP3    H211848   3.637   3.791   3.065
 3991TIP3   OH211849   4.400   3.069   2.698
 3991TIP3    H111850   4.388   3.027   2.784
 3991TIP3    H211851   4.450   3.150   2.722
 3992TIP3   OH211852   3.358   3.081   3.122
 3992TIP3    H111853   3.422   3.152   3.145
 3992TIP3    H211854   3.407   3.039   3.048
 3993TIP3   OH211855   3.422   3.932   3.232
 3993TIP3    H111856   3.396   4.017   3.191
 3993TIP3    H211857   3.343   3.918   3.289
 3994TIP3   OH211858   2.819   3.623   2.468
 3994TIP3    H111859   2.777   3.647   2.384
 3994TIP3    H211860   2.848   3.709   2.504
 3995TIP3   OH211861   4.259   4.139   2.710
 3995TIP3    H111862   4.169   4.129   2.749
 3995TIP3    H211863   4.250   4.225   2.665
 3996TIP3   OH211864   4.548   3.043   3.071
 3996TIP3    H111865   4.459   3.070   3.041
 3996TIP3    H211866   4.604   3.073   2.997
 3997TIP3   OH211867   3.854   2.686   3.058
 3997TIP3    H111868   3.840   2.592   3.075
 3997TIP3    H211869   3.772   2.725   3.095
 3998TIP3   OH211870   3.963   4.184   2.383
 3998TIP3    H111871   4.015   4.103   2.365
 3998TIP3    H211872   4.021   4.251   2.340
 3999TIP3   OH211873   4.106   3.956   2.277
 3999TIP3    H111874   4.030   3.895   2.282
 3999TIP3    H211875   4.147   3.938   2.365
 4000TIP3   OH211876   4.485   4.054   3.051
 4000TIP3    H111877   4.473   3.976   2.992
 4000TIP3    H211878   4.467   4.128   2.989
 4001TIP3   OH211879   3.773   3.449   2.310
 4001TIP3    H111880   3.691   3.496   2.287
 4001TIP3    H211881   3.817   3.441   2.223
 4002TIP3   OH211882   3.733   3.226   2.029
 4002TIP3    H111883   3.802   3.271   2.081
 4002TIP3    H211884   3.787   3.164   1.978
 4003TIP3   OH211885   4.680   3.690   2.897
 4003TIP3    H111886   4.596   3.741   2.902
 4003TIP3    H211887   4.708   3.712   2.806
 4004TIP3   OH211888   4.121   3.514   2.285
 4004TIP3    H111889   4.078   3.546   2.367
 4004TIP3    H211890   4.216   3.527   2.305
 4005TIP3   OH211891   4.358   3.569   3.189
 4005TIP3    H111892   4.353   3.654   3.237
 4005TIP3    H211893   4.272   3.571   3.142
 4006TIP3   OH211894   3.355   3.528   2.696
 4006TIP3    H111895   3.313   3.470   2.629
 4006TIP3    H211896   3.432   3.474   2.724
 4007TIP3   OH211897   3.484   3.938   2.846
 4007TIP3    H111898   3.463   3.892   2.763
 4007TIP3    H211899   3.575   3.906   2.864
 4008TIP3   OH211900   3.491   3.498   3.052
 4008TIP3    H111901   3.524   3.477   2.962
 4008TIP3    H211902   3.535   3.584   3.071
 4009TIP3   OH211903   4.016   4.136   2.827
 4009TIP3    H111904   4.002   4.215   2.883
 4009TIP3    H211905   4.003   4.062   2.889
 4010TIP3   OH211906   3.628   4.055   3.375
 4010TIP3    H111907   3.569   4.118   3.421
 4010TIP3    H211908   3.562   4.001   3.326
 4011TIP3   OH211909   3.964   3.384   2.111
 4011TIP3    H111910   4.021   3.433   2.175
 4011TIP3    H211911   3.978   3.433   2.029
 4012TIP3   OH211912   3.383   3.612   3.476
 4012TIP3    H111913   3.386   3.699   3.521
 4012TIP3    H211914   3.287   3.594   3.479
 4013TIP3   OH211915   3.705   4.067   2.381
 4013TIP3    H111916   3.781   4.123   2.404
 4013TIP3    H211917   3.642   4.130   2.344
 4014TIP3   OH211918   3.423   4.225   3.461
 4014TIP3    H111919   3.388   4.221   3.370
 4014TIP3    H211920   3.344   4.202   3.514
 4015TIP3   OH211921   4.480   2.629   2.154
 4015TIP3    H111922   4.398   2.647   2.206
 4015TIP3    H211923   4.491   2.713   2.105
 4016TIP3   OH211924   3.220   3.370   2.503
 4016TIP3    H111925   3.156   3.414   2.445
 4016TIP3    H211926   3.179   3.283   2.515
 4017TIP3   OH211927   4.279   3.983   1.724
 4017TIP3    H111928   4.278   4.077   1.694
 4017TIP3    H211929   4.368   3.956   1.690
 4018TIP3   OH211930   3.002   3.754   3.409
 4018TIP3    H111931   2.938   3.731   3.338
 4018TIP3    H211932   3.039   3.667   3.434
 4019TIP3   OH211933   2.856   3.944   3.045
 4019TIP3    H111934   2.951   3.939   3.032
 4019TIP3    H211935   2.847   4.026   3.096
 4020TIP3   OH211936   4.722   4.396   3.096
 4020TIP3    H111937   4.720   4.300   3.108
 4020TIP3    H211938   4.638   4.422   3.141
 4021TIP3   OH211939   3.828   4.184   3.232
 4021TIP3    H111940   3.827   4.277   3.264
 4021TIP3    H211941   3.756   4.145   3.286
 4022TIP3   OH211942   3.587   4.315   2.182
 4022TIP3    H111943   3.539   4.295   2.100
 4022TIP3    H211944   3.554   4.404   2.205
 4023TIP3   OH211945   3.025   4.162   2.565
 4023TIP3    H111946   3.072   4.152   2.651
 4023TIP3    H211947   2.965   4.086   2.570
 4024TIP3   OH211948   3.792   4.212   1.823
 4024TIP3    H111949   3.847   4.137   1.793
 4024TIP3    H211950   3.822   4.223   1.916
 4025TIP3   OH211951   3.838   4.261   2.094
 4025TIP3    H111952   3.749   4.271   2.135
 4025TIP3    H211953   3.887   4.220   2.167
 4026TIP3   OH211954   4.612   3.530   3.370
 4026TIP3    H111955   4.532   3.544   3.318
 4026TIP3    H211956   4.625   3.434   3.359
 4027TIP3   OH211957   3.208   3.936   3.399
 4027TIP3    H111958   3.257   3.919   3.482
 4027TIP3    H211959   3.134   3.873   3.406
 4028TIP3   OH211960   3.605   2.758   3.176
 4028TIP3    H111961   3.513   2.730   3.157
 4028TIP3    H211962   3.585   2.843   3.220
 4029TIP3   OH211963   4.140   2.877   3.376
 4029TIP3    H111964   4.207   2.848   3.441
 4029TIP3    H211965   4.055   2.855   3.420
 4030TIP3   OH211966   4.384   3.306   3.295
 4030TIP3    H111967   4.333   3.301   3.379
 4030TIP3    H211968   4.356   3.391   3.258
 4031TIP3   OH211969   3.752   2.811   2.153
 4031TIP3    H111970   3.721   2.808   2.245
 4031TIP3    H211971   3.714   2.727   2.120
 4032TIP3   OH211972   3.538   3.275   3.199
 4032TIP3    H111973   3.487   3.296   3.280
 4032TIP3    H211974   3.522   3.356   3.145
 4033TIP3   OH211975   3.420   3.160   2.713
 4033TIP3    H111976   3.327   3.134   2.729
 4033TIP3    H211977   3.435   3.120   2.625
 4034TIP3   OH211978   3.911   3.247   2.440
 4034TIP3    H111979   3.859   3.319   2.400
 4034TIP3    H211980   3.968   3.219   2.366
 4035TIP3   OH211981   4.087   3.528   3.530
 4035TIP3    H111982   4.065   3.454   3.590
 4035TIP3    H211983   4.181   3.540   3.550
 4036TIP3   OH211984   4.068   3.276   2.681
 4036TIP3    H111985   4.012   3.308   2.607
 4036TIP3    H211986   4.101   3.194   2.639
 4037TIP3   OH211987   3.356   3.306   3.409
 4037TIP3    H111988   3.386   3.368   3.477
 4037TIP3    H211989   3.347   3.223   3.459
 4038TIP3   OH211990   3.406   2.779   2.120
 4038TIP3    H111991   3.395   2.779   2.217
 4038TIP3    H211992   3.328   2.832   2.093
 4039TIP3   OH211993   2.929   2.796   2.488
 4039TIP3    H111994   2.967   2.856   2.421
 4039TIP3    H211995   2.885   2.858   2.548
 4040TIP3   OH211996   4.082   3.525   3.106
 4040TIP3    H111997   4.112   3.451   3.047
 4040TIP3    H211998   4.052   3.473   3.183
 4041TIP3   OH211999   3.746   2.984   2.774
 4041TIP3    H112000   3.665   2.983   2.828
 4041TIP3    H212001   3.815   2.986   2.843
 4042TIP3   OH212002   3.180   3.037   2.781
 4042TIP3    H112003   3.085   3.051   2.760
 4042TIP3    H212004   3.187   2.941   2.771
 4043TIP3   OH212005   3.455   3.035   2.471
 4043TIP3    H112006   3.549   3.053   2.451
 4043TIP3    H212007   3.408   3.061   2.388
 4044TIP3   OH212008   4.244   3.057   2.978
 4044TIP3    H112009   4.206   3.070   3.068
 4044TIP3    H212010   4.178   2.998   2.939
 4045TIP3   OH212011   3.293   3.069   2.253
 4045TIP3    H112012   3.218   3.026   2.209
 4045TIP3    H212013   3.342   3.102   2.175
 4046TIP3   OH212014   4.410   4.747   3.195
 4046TIP3    H112015   4.408   4.772   3.100
 4046TIP3    H212016   4.486   4.799   3.227
 4047TIP3   OH212017   3.368   3.857   3.619
 4047TIP3    H112018   3.448   3.889   3.665
 4047TIP3    H212019   3.303   3.860   3.692
 4048TIP3   OH212020   3.833   3.309   2.870
 4048TIP3    H112021   3.909   3.275   2.819
 4048TIP3    H212022   3.849   3.269   2.957
 4049TIP3   OH212023   3.391   2.778   2.750
 4049TIP3    H112024   3.322   2.720   2.789
 4049TIP3    H212025   3.377   2.768   2.654
 4050TIP3   OH212026   3.809   3.203   3.168
 4050TIP3    H112027   3.720   3.242   3.177
 4050TIP3    H212028   3.867   3.266   3.214
 4051TIP3   OH212029   3.545   3.600   2.258
 4051TIP3    H112030   3.473   3.533   2.247
 4051TIP3    H212031   3.526   3.632   2.350
 4052TIP3   OH212032   4.448   3.835   2.889
 4052TIP3    H112033   4.471   3.883   2.806
 4052TIP3    H212034   4.362   3.794   2.866
 4053TIP3   OH212035   4.004   2.912   2.114
 4053TIP3    H112036   3.907   2.896   2.125
 4053TIP3    H212037   4.015   3.005   2.141
 4054TIP3   OH212038   3.948   3.918   3.254
 4054TIP3    H112039   3.965   3.894   3.346
 4054TIP3    H212040   3.907   4.006   3.261
 4055TIP3   OH212041   4.071   3.153   2.223
 4055TIP3    H112042   4.167   3.155   2.242
 4055TIP3    H212043   4.059   3.235   2.171
 4056TIP3   OH212044   3.239   3.621   2.934
 4056TIP3    H112045   3.275   3.594   2.848
 4056TIP3    H212046   3.277   3.555   2.994
 4057TIP3   OH212047   3.691   3.748   2.082
 4057TIP3    H112048   3.644   3.835   2.087
 4057TIP3    H212049   3.633   3.693   2.139
 4058TIP3   OH212050   3.116   3.544   3.548
 4058TIP3    H112051   3.141   3.528   3.641
 4058TIP3    H212052   3.049   3.475   3.532
 4059TIP3   OH212053   3.842   3.654   3.567
 4059TIP3    H112054   3.785   3.597   3.514
 4059TIP3    H212055   3.931   3.622   3.539
 4060TIP3   OH212056   4.107   4.179   3.148
 4060TIP3    H112057   4.011   4.175   3.160
 4060TIP3    H212058   4.134   4.229   3.228
 4061TIP3   OH212059   4.527   3.238   2.051
 4061TIP3    H112060   4.454   3.200   1.997
 4061TIP3    H212061   4.523   3.330   2.022
 4062TIP3   OH212062   4.735   4.105   3.140
 4062TIP3    H112063   4.637   4.100   3.132
 4062TIP3    H212064   4.760   4.075   3.049
 4063TIP3   OH212065   4.188   4.066   1.966
 4063TIP3    H112066   4.212   4.015   2.045
 4063TIP3    H212067   4.241   4.029   1.893
 4064TIP3   OH212068   4.210   3.704   2.815
 4064TIP3    H112069   4.117   3.677   2.821
 4064TIP3    H212070   4.248   3.622   2.776
 4065TIP3   OH212071   3.337   3.924   2.557
 4065TIP3    H112072   3.339   4.006   2.505
 4065TIP3    H212073   3.242   3.909   2.566
 4066TIP3   OH212074   2.900   3.232   2.261
 4066TIP3    H112075   2.947   3.315   2.282
 4066TIP3    H212076   2.823   3.238   2.321
 4067TIP3   OH212077   3.482   3.693   2.505
 4067TIP3    H112078   3.443   3.781   2.522
 4067TIP3    H212079   3.444   3.641   2.578
 4068TIP3   OH212080   3.607   4.269   3.029
 4068TIP3    H112081   3.647   4.341   2.977
 4068TIP3    H212082   3.685   4.235   3.077
 4069TIP3   OH212083   3.260   4.163   2.411
 4069TIP3    H112084   3.173   4.171   2.456
 4069TIP3    H212085   3.291   4.256   2.414
 4070TIP3   OH212086   3.999   3.905   2.984
 4070TIP3    H112087   3.992   3.900   3.082
 4070TIP3    H212088   4.077   3.849   2.968
 4071TIP3   OH212089   4.246   4.438   3.038
 4071TIP3    H112090   4.168   4.380   3.030
 4071TIP3    H212091   4.230   4.502   2.965
 4072TIP3   OH212092   4.307   4.265   1.690
 4072TIP3    H112093   4.346   4.334   1.633
 4072TIP3    H212094   4.229   4.316   1.722
 4073TIP3   OH212095   3.333   3.050   3.558
 4073TIP3    H112096   3.236   3.047   3.565
 4073TIP3    H212097   3.359   2.984   3.624
 4074TIP3   OH212098   3.046   4.133   3.188
 4074TIP3    H112099   3.098   4.056   3.216
 4074TIP3    H212100   3.078   4.200   3.250
 4075TIP3   OH212101   3.339   3.776   1.867
 4075TIP3    H112102   3.351   3.685   1.836
 4075TIP3    H212103   3.320   3.762   1.962
 4076TIP3   OH212104   3.283   3.781   2.140
 4076TIP3    H112105   3.352   3.753   2.202
 4076TIP3    H212106   3.289   3.879   2.147
 4077TIP3   OH212107   3.021   3.476   2.344
 4077TIP3    H112108   2.954   3.520   2.400
 4077TIP3    H212109   3.034   3.546   2.276
 4078TIP3   OH212110   4.165   3.114   3.237
 4078TIP3    H112111   4.247   3.148   3.275
 4078TIP3    H212112   4.150   3.032   3.289
 4079TIP3   OH212113   4.050   2.867   2.395
 4079TIP3    H112114   4.035   2.892   2.302
 4079TIP3    H212115   4.089   2.949   2.432
 4080TIP3   OH212116   3.549   3.980   2.090
 4080TIP3    H112117   3.462   4.007   2.125
 4080TIP3    H212118   3.563   4.049   2.024
 4081TIP3   OH212119   3.737   3.041   2.502
 4081TIP3    H112120   3.803   3.112   2.484
 4081TIP3    H212121   3.742   3.034   2.599
 4082TIP3   OH212122   4.004   3.362   3.312
 4082TIP3    H112123   4.025   3.415   3.391
 4082TIP3    H212124   4.061   3.284   3.323
 4083TIP3   OH212125   3.888   2.769   2.597
 4083TIP3    H112126   3.874   2.839   2.663
 4083TIP3    H212127   3.948   2.814   2.533
 4084TIP3   OH212128   3.291   4.054   2.156
 4084TIP3    H112129   3.260   4.123   2.093
 4084TIP3    H212130   3.274   4.098   2.242
 4085TIP3   OH212131   3.396   2.767   2.403
 4085TIP3    H112132   3.393   2.861   2.428
 4085TIP3    H212133   3.492   2.751   2.407
 4086TIP3   OH212134   4.650   3.261   3.289
 4086TIP3    H112135   4.552   3.260   3.299
 4086TIP3    H212136   4.657   3.223   3.201
 4087TIP3   OH212137   4.290   3.464   2.715
 4087TIP3    H112138   4.227   3.399   2.680
 4087TIP3    H212139   4.371   3.411   2.726
 4088TIP3   OH212140   3.009   3.687   2.150
 4088TIP3    H112141   3.073   3.760   2.158
 4088TIP3    H212142   3.055   3.633   2.083
 4089TIP3   OH212143   2.963   2.967   2.275
 4089TIP3    H112144   2.950   3.063   2.271
 4089TIP3    H212145   2.877   2.932   2.249
 4090TIP3   OH212146   4.265   4.411   2.630
 4090TIP3    H112147   4.223   4.457   2.554
 4090TIP3    H212148   4.359   4.430   2.609
 4091TIP3   OH212149   3.341   2.680   3.153
 4091TIP3    H112150   3.302   2.648   3.069
 4091TIP3    H212151   3.327   2.603   3.212
 4092TIP3   OH212152   2.884   3.901   2.541
 4092TIP3    H112153   2.807   3.931   2.590
 4092TIP3    H212154   2.863   3.938   2.452
 4093TIP3   OH212155   3.036   4.438   3.608
 4093TIP3    H112156   3.122   4.437   3.655
 4093TIP3    H212157   3.015   4.343   3.607
 4094TIP3   OH212158   3.521   4.407   3.653
 4094TIP3    H112159   3.615   4.387   3.660
 4094TIP3    H212160   3.496   4.349   3.578
 4095TIP3   OH212161   3.502   3.981   1.784
 4095TIP3    H112162   3.443   3.911   1.821
 4095TIP3    H212163   3.574   3.926   1.750
 4096TIP3   OH212164   4.158   4.311   3.385
 4096TIP3    H112165   4.149   4.241   3.454
 4096TIP3    H212166   4.236   4.361   3.417
 4097TIP3   OH212167   3.948   4.013   1.694
 4097TIP3    H112168   4.035   4.010   1.737
 4097TIP3    H212169   3.975   4.023   1.600
 4098TIP3   OH212170   3.167   3.845   3.809
 4098TIP3    H112171   3.184   3.749   3.811
 4098TIP3    H212172   3.080   3.848   3.766
 4099TIP3   OH212173   3.145   3.500   2.000
 4099TIP3    H112174   3.198   3.462   2.072
 4099TIP3    H212175   3.213   3.503   1.929
 4100TIP3   OH212176   3.776   3.929   3.582
 4100TIP3    H112177   3.734   3.944   3.495
 4100TIP3    H212178   3.807   3.836   3.575
 4101TIP3   OH212179   3.656   3.698   1.808
 4101TIP3    H112180   3.663   3.712   1.904
 4101TIP3    H212181   3.658   3.600   1.804
 4102TIP3   OH212182   4.270   3.937   3.189
 4102TIP3    H112183   4.342   3.984   3.143
 4102TIP3    H212184   4.196   3.999   3.176
 4103TIP3   OH212185   3.286   3.574   3.791
 4103TIP3    H112186   3.365   3.524   3.767
 4103TIP3    H212187   3.311   3.611   3.878
 4104TIP3   OH212188   3.357   3.399   2.226
 4104TIP3    H112189   3.327   3.356   2.308
 4104TIP3    H212190   3.389   3.323   2.174
 4105TIP3   OH212191   3.621   3.464   3.453
 4105TIP3    H112192   3.545   3.525   3.456
 4105TIP3    H212193   3.669   3.497   3.373
 4106TIP3   OH212194   3.452   3.193   2.065
 4106TIP3    H112195   3.424   3.192   1.971
 4106TIP3    H212196   3.549   3.200   2.056
 4107TIP3   OH212197   4.138   3.867   3.587
 4107TIP3    H112198   4.218   3.846   3.537
 4107TIP3    H212199   4.138   3.798   3.656
 4108TIP3   OH212200   3.744   3.252   3.581
 4108TIP3    H112201   3.745   3.171   3.525
 4108TIP3    H212202   3.702   3.317   3.521
 4109TIP3   OH212203   3.747   3.038   3.386
 4109TIP3    H112204   3.775   3.080   3.303
 4109TIP3    H212205   3.654   3.015   3.367
 4110TIP3   OH212206   3.778   3.577   3.260
 4110TIP3    H112207   3.858   3.580   3.207
 4110TIP3    H212208   3.721   3.644   3.215
 4111TIP3   OH212209   4.359   3.544   3.643
 4111TIP3    H112210   4.407   3.459   3.648
 4111TIP3    H212211   4.427   3.602   3.606
 4112TIP3   OH212212   4.399   3.795   3.378
 4112TIP3    H112213   4.341   3.847   3.318
 4112TIP3    H212214   4.486   3.814   3.336
 4113TIP3   OH212215   3.620   3.368   3.807
 4113TIP3    H112216   3.553   3.298   3.820
 4113TIP3    H212217   3.657   3.343   3.720
 4114TIP3   OH212218   3.880   2.804   3.451
 4114TIP3    H112219   3.832   2.886   3.429
 4114TIP3    H212220   3.810   2.736   3.439
 4115TIP3   OH212221   4.006   3.309   3.668
 4115TIP3    H112222   3.995   3.298   3.764
 4115TIP3    H212223   3.916   3.283   3.638
 4116TIP3   OH212224   4.247   3.259   3.524
 4116TIP3    H112225   4.169   3.258   3.583
 4116TIP3    H212226   4.318   3.225   3.582
 4117TIP3   OH212227   4.479   3.197   3.676
 4117TIP3    H112228   4.488   3.102   3.695
 4117TIP3    H212229   4.472   3.237   3.765
 4118TIP3   OH212230   3.461   3.148   3.861
 4118TIP3    H112231   3.469   3.059   3.823
 4118TIP3    H212232   3.498   3.132   3.950
 4119TIP3   OH212233   3.976   2.814   3.708
 4119TIP3    H112234   4.043   2.743   3.703
 4119TIP3    H212235   3.935   2.806   3.619
 4120TIP3   OH212236   4.040   3.028   3.868
 4120TIP3    H112237   4.018   2.957   3.804
 4120TIP3    H212238   3.963   3.087   3.861
 4121TIP3   OH212239   3.260   4.258   1.969
 4121TIP3    H112240   3.355   4.255   1.949
 4121TIP3    H212241   3.228   4.303   1.889
 4122TIP3   OH212242   2.741   3.637   2.187
 4122TIP3    H112243   2.835   3.659   2.172
 4122TIP3    H212244   2.735   3.549   2.144
 4123TIP3   OH212245   2.653   4.250   2.597
 4123TIP3    H112246   2.586   4.188   2.563
 4123TIP3    H212247   2.698   4.194   2.664
 4124TIP3   OH212248   2.790   4.105   2.785
 4124TIP3    H112249   2.780   4.029   2.844
 4124TIP3    H212250   2.841   4.166   2.842
 4125TIP3   OH212251   4.516   4.506   2.583
 4125TIP3    H112252   4.543   4.536   2.671
 4125TIP3    H212253   4.580   4.550   2.525
 4126TIP3   OH212254   4.549   4.523   2.865
 4126TIP3    H112255   4.505   4.436   2.862
 4126TIP3    H212256   4.623   4.502   2.923
 4127TIP3   OH212257   4.595   4.199   3.440
 4127TIP3    H112258   4.520   4.207   3.503
 4127TIP3    H212259   4.634   4.288   3.444
 4128TIP3   OH212260   4.384   3.727   2.019
 4128TIP3    H112261   4.471   3.772   2.019
 4128TIP3    H212262   4.390   3.682   2.108
 4129TIP3   OH212263   4.593   3.973   2.698
 4129TIP3    H112264   4.641   3.905   2.646
 4129TIP3    H212265   4.578   4.043   2.632
 4130TIP3   OH212266   4.425   4.273   2.892
 4130TIP3    H112267   4.353   4.313   2.944
 4130TIP3    H212268   4.374   4.223   2.823
 4131TIP3   OH212269   4.490   3.486   1.905
 4131TIP3    H112270   4.404   3.457   1.872
 4131TIP3    H212271   4.466   3.545   1.980
 4132TIP3   OH212272   4.337   3.171   1.858
 4132TIP3    H112273   4.305   3.186   1.768
 4132TIP3    H212274   4.318   3.074   1.866
 4133TIP3   OH212275   2.979   3.509   3.158
 4133TIP3    H112276   2.977   3.480   3.064
 4133TIP3    H212277   3.076   3.512   3.174
 4134TIP3   OH212278   4.641   3.860   3.268
 4134TIP3    H112279   4.714   3.795   3.258
 4134TIP3    H212280   4.666   3.930   3.205
 4135TIP3   OH212281   4.828   3.669   3.287
 4135TIP3    H112282   4.752   3.619   3.325
 4135TIP3    H212283   4.900   3.603   3.301
 4136TIP3   OH212284   4.291   2.902   1.859
 4136TIP3    H112285   4.366   2.866   1.910
 4136TIP3    H212286   4.218   2.840   1.878
 4137TIP3   OH212287   4.334   3.138   2.299
 4137TIP3    H112288   4.388   3.056   2.311
 4137TIP3    H212289   4.401   3.200   2.265
 4138TIP3   OH212290   4.516   3.319   2.799
 4138TIP3    H112291   4.600   3.350   2.759
 4138TIP3    H212292   4.523   3.362   2.887
 4139TIP3   OH212293   4.579   3.470   3.034
 4139TIP3    H112294   4.499   3.504   3.080
 4139TIP3    H212295   4.610   3.551   2.987
 4140TIP3   OH212296   3.194   3.199   3.835
 4140TIP3    H112297   3.291   3.191   3.831
 4140TIP3    H212298   3.171   3.112   3.874
 4141TIP3   OH212299   5.035   3.063   3.590
 4141TIP3    H112300   5.088   2.994   3.544
 4141TIP3    H212301   5.003   3.117   3.515
 4142TIP3   OH212302   4.464   2.897   2.341
 4142TIP3    H112303   4.506   2.884   2.428
 4142TIP3    H212304   4.399   2.824   2.341
 4143TIP3   OH212305   3.160   2.895   3.209
 4143TIP3    H112306   3.211   2.815   3.185
 4143TIP3    H212307   3.217   2.964   3.171
 4144TIP3   OH212308   2.958   3.168   3.236
 4144TIP3    H112309   3.009   3.148   3.155
 4144TIP3    H212310   2.994   3.254   3.259
 4145TIP3   OH212311   4.903   3.202   3.398
 4145TIP3    H112312   4.815   3.241   3.418
 4145TIP3    H212313   4.875   3.131   3.336
 4146TIP3   OH212314   4.541   2.838   1.974
 4146TIP3    H112315   4.579   2.765   1.922
 4146TIP3    H212316   4.609   2.908   1.966
 4147TIP3   OH212317   4.104   4.366   2.242
 4147TIP3    H112318   4.156   4.355   2.160
 4147TIP3    H212319   4.154   4.435   2.289
 4148TIP3   OH212320   3.168   2.755   3.556
 4148TIP3    H112321   3.112   2.744   3.635
 4148TIP3    H212322   3.102   2.784   3.490
 4149TIP3   OH212323   3.204   4.171   3.629
 4149TIP3    H112324   3.112   4.144   3.611
 4149TIP3    H212325   3.211   4.156   3.724
 4150TIP3   OH212326   3.380   4.203   3.176
 4150TIP3    H112327   3.332   4.279   3.137
 4150TIP3    H212328   3.466   4.217   3.132
 4151TIP3   OH212329   3.828   4.450   3.314
 4151TIP3    H112330   3.870   4.452   3.402
 4151TIP3    H212331   3.894   4.500   3.261
 4152TIP3   OH212332   4.006   4.600   3.171
 4152TIP3    H112333   4.078   4.549   3.130
 4152TIP3    H212334   4.057   4.658   3.232
 4153TIP3   OH212335   4.800   2.965   3.272
 4153TIP3    H112336   4.709   2.963   3.239
 4153TIP3    H212337   4.827   2.871   3.259
 4154TIP3   OH212338   3.059   4.462   3.198
 4154TIP3    H112339   2.971   4.497   3.174
 4154TIP3    H212340   3.065   4.494   3.289
 4155TIP3   OH212341   3.295   4.440   3.056
 4155TIP3    H112342   3.209   4.454   3.101
 4155TIP3    H212343   3.274   4.474   2.966
 4156TIP3   OH212344   3.721   4.471   2.853
 4156TIP3    H112345   3.651   4.492   2.788
 4156TIP3    H212346   3.734   4.558   2.897
 4157TIP3   OH212347   3.989   4.411   2.905
 4157TIP3    H112348   3.894   4.426   2.886
 4157TIP3    H212349   4.029   4.489   2.864
 4158TIP3   OH212350   4.200   4.604   2.823
 4158TIP3    H112351   4.183   4.688   2.775
 4158TIP3    H212352   4.223   4.543   2.749
 4159TIP3   OH212353   2.969   4.256   2.945
 4159TIP3    H112354   2.996   4.231   3.036
 4159TIP3    H212355   3.041   4.213   2.894
 4160TIP3   OH212356   3.162   4.127   2.800
 4160TIP3    H112357   3.179   4.043   2.848
 4160TIP3    H212358   3.252   4.165   2.795
 4161TIP3   OH212359   3.428   4.223   2.801
 4161TIP3    H112360   3.460   4.132   2.789
 4161TIP3    H212361   3.470   4.244   2.887
 4162TIP3   OH212362   4.006   2.881   2.892
 4162TIP3    H112363   3.960   2.812   2.943
 4162TIP3    H212364   4.075   2.830   2.845
 4163TIP3   OH212365   4.531   2.759   2.799
 4163TIP3    H112366   4.566   2.812   2.723
 4163TIP3    H212367   4.435   2.777   2.792
 4164TIP3   OH212368   4.626   2.859   2.563
 4164TIP3    H112369   4.698   2.810   2.519
 4164TIP3    H212370   4.656   2.952   2.547
 4165TIP3   OH212371   3.253   2.592   2.904
 4165TIP3    H112372   3.155   2.598   2.886
 4165TIP3    H212373   3.263   2.495   2.911
 4166TIP3   OH212374   3.003   2.464   2.548
 4166TIP3    H112375   3.045   2.533   2.496
 4166TIP3    H212376   2.989   2.511   2.633
 4167TIP3   OH212377   4.249   2.765   2.773
 4167TIP3    H112378   4.240   2.734   2.683
 4167TIP3    H212379   4.232   2.684   2.826
 4168TIP3   OH212380   4.275   2.688   2.334
 4168TIP3    H112381   4.188   2.732   2.342
 4168TIP3    H212382   4.257   2.604   2.381
 4169TIP3   OH212383   2.758   4.026   2.337
 4169TIP3    H112384   2.673   3.993   2.301
 4169TIP3    H212385   2.745   4.121   2.321
 4170TIP3   OH212386   3.159   2.628   2.299
 4170TIP3    H112387   3.215   2.554   2.275
 4170TIP3    H212388   3.218   2.681   2.356
 4171TIP3   OH212389   3.672   2.789   2.421
 4171TIP3    H112390   3.740   2.749   2.478
 4171TIP3    H212391   3.688   2.884   2.443
 4172TIP3   OH212392   3.529   4.220   1.916
 4172TIP3    H112393   3.617   4.242   1.879
 4172TIP3    H212394   3.507   4.143   1.858
 4173TIP3   OH212395   4.248   4.332   2.008
 4173TIP3    H112396   4.225   4.237   1.994
 4173TIP3    H212397   4.204   4.372   1.930
 4174TIP3   OH212398   3.460   2.870   3.802
 4174TIP3    H112399   3.430   2.796   3.858
 4174TIP3    H212400   3.555   2.871   3.825
 4175TIP3   OH212401   3.710   2.867   3.918
 4175TIP3    H112402   3.794   2.840   3.878
 4175TIP3    H212403   3.698   2.797   3.985
 4176TIP3   OH212404   2.835   4.059   1.975
 4176TIP3    H112405   2.832   4.081   2.070
 4176TIP3    H212406   2.922   4.015   1.966
 4177TIP3   OH212407   4.534   2.926   3.706
 4177TIP3    H112408   4.554   2.895   3.797
 4177TIP3    H212409   4.622   2.921   3.663
 4178TIP3   OH212410   4.476   4.480   3.198
 4178TIP3    H112411   4.397   4.447   3.151
 4178TIP3    H212412   4.456   4.575   3.200
 4179TIP3   OH212413   5.741   3.850   1.964
 4179TIP3    H112414   5.715   3.943   1.947
 4179TIP3    H212415   5.661   3.804   1.933
 4180TIP3   OH212416   5.745   3.847   2.340
 4180TIP3    H112417   5.769   3.822   2.431
 4180TIP3    H212418   5.693   3.770   2.311
 4181TIP3   OH212419   5.041   3.749   2.708
 4181TIP3    H112420   5.075   3.682   2.771
 4181TIP3    H212421   5.117   3.808   2.700
 4182TIP3   OH212422   5.983   4.150   2.026
 4182TIP3    H112423   5.967   4.085   2.096
 4182TIP3    H212424   6.009   4.229   2.077
 4183TIP3   OH212425   5.010   4.160   2.438
 4183TIP3    H112426   5.003   4.062   2.441
 4183TIP3    H212427   5.107   4.168   2.433
 4184TIP3   OH212428   4.711   3.385   2.234
 4184TIP3    H112429   4.647   3.454   2.264
 4184TIP3    H212430   4.646   3.321   2.201
 4185TIP3   OH212431   4.828   3.669   2.397
 4185TIP3    H112432   4.844   3.579   2.431
 4185TIP3    H212433   4.803   3.652   2.305
 4186TIP3   OH212434   5.628   4.614   2.040
 4186TIP3    H112435   5.679   4.542   1.996
 4186TIP3    H212436   5.624   4.583   2.131
 4187TIP3   OH212437   5.538   4.077   2.393
 4187TIP3    H112438   5.574   4.003   2.341
 4187TIP3    H212439   5.623   4.120   2.418
 4188TIP3   OH212440   6.552   3.398   2.379
 4188TIP3    H112441   6.570   3.474   2.438
 4188TIP3    H212442   6.593   3.429   2.297
 4189TIP3   OH212443   5.955   3.582   2.427
 4189TIP3    H112444   5.991   3.493   2.446
 4189TIP3    H212445   5.918   3.567   2.337
 4190TIP3   OH212446   5.290   3.238   2.390
 4190TIP3    H112447   5.265   3.311   2.330
 4190TIP3    H212448   5.241   3.164   2.348
 4191TIP3   OH212449   5.974   3.327   2.015
 4191TIP3    H112450   6.038   3.315   2.086
 4191TIP3    H212451   6.025   3.373   1.946
 4192TIP3   OH212452   4.919   3.432   2.503
 4192TIP3    H112453   5.004   3.413   2.546
 4192TIP3    H212454   4.929   3.381   2.420
 4193TIP3   OH212455   5.363   3.639   2.283
 4193TIP3    H112456   5.454   3.611   2.304
 4193TIP3    H212457   5.321   3.554   2.256
 4194TIP3   OH212458   6.615   3.594   2.564
 4194TIP3    H112459   6.537   3.651   2.543
 4194TIP3    H212460   6.643   3.632   2.649
 4195TIP3   OH212461   5.286   3.221   2.827
 4195TIP3    H112462   5.226   3.258   2.759
 4195TIP3    H212463   5.233   3.239   2.908
 4196TIP3   OH212464   5.638   4.074   1.833
 4196TIP3    H112465   5.589   4.049   1.753
 4196TIP3    H212466   5.594   4.158   1.857
 4197TIP3   OH212467   5.392   3.997   2.626
 4197TIP3    H112468   5.326   4.060   2.662
 4197TIP3    H212469   5.432   4.049   2.553
 4198TIP3   OH212470   5.157   3.335   2.611
 4198TIP3    H112471   5.218   3.409   2.633
 4198TIP3    H212472   5.206   3.294   2.535
 4199TIP3   OH212473   5.218   4.189   2.719
 4199TIP3    H112474   5.192   4.274   2.679
 4199TIP3    H212475   5.139   4.173   2.776
 4200TIP3   OH212476   4.617   3.882   1.955
 4200TIP3    H112477   4.582   3.914   1.870
 4200TIP3    H212478   4.651   3.964   1.996
 4201TIP3   OH212479   6.054   4.393   2.193
 4201TIP3    H112480   5.965   4.386   2.234
 4201TIP3    H212481   6.048   4.480   2.149
 4202TIP3   OH212482   6.341   3.291   2.547
 4202TIP3    H112483   6.252   3.325   2.527
 4202TIP3    H212484   6.396   3.335   2.479
 4203TIP3   OH212485   5.646   2.943   2.542
 4203TIP3    H112486   5.629   2.848   2.556
 4203TIP3    H212487   5.566   2.981   2.586
 4204TIP3   OH212488   5.760   4.442   1.872
 4204TIP3    H112489   5.811   4.361   1.847
 4204TIP3    H212490   5.818   4.509   1.829
 4205TIP3   OH212491   5.901   4.226   1.772
 4205TIP3    H112492   5.852   4.150   1.739
 4205TIP3    H212493   5.935   4.192   1.857
 4206TIP3   OH212494   6.281   4.310   2.539
 4206TIP3    H112495   6.270   4.233   2.479
 4206TIP3    H212496   6.262   4.385   2.479
 4207TIP3   OH212497   5.571   3.701   1.794
 4207TIP3    H112498   5.489   3.751   1.776
 4207TIP3    H212499   5.614   3.701   1.707
 4208TIP3   OH212500   5.530   3.487   1.514
 4208TIP3    H112501   5.599   3.537   1.561
 4208TIP3    H212502   5.586   3.422   1.466
 4209TIP3   OH212503   6.475   3.941   2.379
 4209TIP3    H112504   6.393   3.995   2.387
 4209TIP3    H212505   6.505   3.969   2.290
 4210TIP3   OH212506   5.918   3.784   1.767
 4210TIP3    H112507   5.861   3.811   1.844
 4210TIP3    H212508   6.001   3.763   1.814
 4211TIP3   OH212509   6.154   3.826   2.676
 4211TIP3    H112510   6.152   3.910   2.726
 4211TIP3    H212511   6.067   3.830   2.632
 4212TIP3   OH212512   5.152   3.786   2.177
 4212TIP3    H112513   5.108   3.725   2.114
 4212TIP3    H212514   5.227   3.731   2.209
 4213TIP3   OH212515   5.282   4.198   2.330
 4213TIP3    H112516   5.258   4.147   2.252
 4213TIP3    H212517   5.371   4.164   2.350
 4214TIP3   OH212518   5.306   3.748   2.542
 4214TIP3    H112519   5.319   3.740   2.446
 4214TIP3    H212520   5.332   3.841   2.560
 4215TIP3   OH212521   5.814   4.392   2.314
 4215TIP3    H112522   5.798   4.473   2.366
 4215TIP3    H212523   5.798   4.320   2.379
 4216TIP3   OH212524   5.424   4.311   2.863
 4216TIP3    H112525   5.365   4.374   2.908
 4216TIP3    H212526   5.358   4.258   2.813
 4217TIP3   OH212527   5.763   3.639   1.593
 4217TIP3    H112528   5.818   3.702   1.645
 4217TIP3    H212529   5.787   3.666   1.501
 4218TIP3   OH212530   5.178   3.867   2.962
 4218TIP3    H112531   5.182   3.954   3.007
 4218TIP3    H212532   5.083   3.849   2.969
 4219TIP3   OH212533   5.503   4.323   1.867
 4219TIP3    H112534   5.578   4.380   1.891
 4219TIP3    H212535   5.439   4.387   1.831
 4220TIP3   OH212536   5.220   4.481   2.948
 4220TIP3    H112537   5.185   4.478   2.857
 4220TIP3    H212538   5.141   4.459   3.002
 4221TIP3   OH212539   6.277   2.889   1.646
 4221TIP3    H112540   6.195   2.908   1.698
 4221TIP3    H212541   6.281   2.966   1.587
 4222TIP3   OH212542   5.020   3.623   1.984
 4222TIP3    H112543   4.953   3.669   1.929
 4222TIP3    H212544   4.972   3.543   2.008
 4223TIP3   OH212545   6.072   4.253   1.186
 4223TIP3    H112546   6.080   4.350   1.176
 4223TIP3    H212547   6.166   4.225   1.176
 4224TIP3   OH212548   4.799   4.010   2.894
 4224TIP3    H112549   4.733   3.989   2.825
 4224TIP3    H212550   4.834   3.921   2.918
 4225TIP3   OH212551   4.651   4.207   2.523
 4225TIP3    H112552   4.746   4.194   2.519
 4225TIP3    H212553   4.644   4.283   2.582
 4226TIP3   OH212554   6.519   4.653   2.585
 4226TIP3    H112555   6.515   4.556   2.598
 4226TIP3    H212556   6.435   4.680   2.628
 4227TIP3   OH212557   5.624   4.440   2.719
 4227TIP3    H112558   5.624   4.533   2.750
 4227TIP3    H212559   5.552   4.402   2.773
 4228TIP3   OH212560   5.382   4.570   1.670
 4228TIP3    H112561   5.336   4.552   1.586
 4228TIP3    H212562   5.351   4.660   1.692
 4229TIP3   OH212563   4.821   4.420   2.053
 4229TIP3    H112564   4.870   4.410   2.137
 4229TIP3    H212565   4.761   4.344   2.059
 4230TIP3   OH212566   5.585   4.470   1.311
 4230TIP3    H112567   5.644   4.401   1.275
 4230TIP3    H212568   5.618   4.480   1.402
 4231TIP3   OH212569   5.634   4.517   1.581
 4231TIP3    H112570   5.546   4.527   1.624
 4231TIP3    H212571   5.685   4.479   1.654
 4232TIP3   OH212572   6.409   3.785   2.859
 4232TIP3    H112573   6.328   3.802   2.808
 4232TIP3    H212574   6.419   3.688   2.849
 4233TIP3   OH212575   5.004   4.193   2.886
 4233TIP3    H112576   5.053   4.175   2.968
 4233TIP3    H212577   4.930   4.129   2.892
 4234TIP3   OH212578   5.404   3.018   2.665
 4234TIP3    H112579   5.315   2.986   2.641
 4234TIP3    H212580   5.378   3.100   2.711
 4235TIP3   OH212581   5.935   3.132   2.862
 4235TIP3    H112582   6.000   3.106   2.930
 4235TIP3    H212583   5.849   3.113   2.906
 4236TIP3   OH212584   6.179   3.563   2.781
 4236TIP3    H112585   6.129   3.558   2.865
 4236TIP3    H212586   6.151   3.649   2.745
 4237TIP3   OH212587   5.837   3.690   1.337
 4237TIP3    H112588   5.803   3.665   1.250
 4237TIP3    H212589   5.913   3.746   1.313
 4238TIP3   OH212590   5.553   3.064   1.638
 4238TIP3    H112591   5.517   3.063   1.729
 4238TIP3    H212592   5.510   2.983   1.604
 4239TIP3   OH212593   5.338   3.527   2.689
 4239TIP3    H112594   5.284   3.549   2.768
 4239TIP3    H212595   5.325   3.608   2.635
 4240TIP3   OH212596   5.219   3.417   2.200
 4240TIP3    H112597   5.125   3.394   2.217
 4240TIP3    H212598   5.230   3.377   2.111
 4241TIP3   OH212599   5.710   3.505   1.927
 4241TIP3    H112600   5.654   3.576   1.889
 4241TIP3    H212601   5.761   3.477   1.849
 4242TIP3   OH212602   5.883   3.783   3.014
 4242TIP3    H112603   5.860   3.711   3.077
 4242TIP3    H212604   5.976   3.799   3.037
 4243TIP3   OH212605   5.866   3.535   2.169
 4243TIP3    H112606   5.808   3.578   2.102
 4243TIP3    H212607   5.881   3.451   2.122
 4244TIP3   OH212608   5.157   3.561   2.895
 4244TIP3    H112609   5.172   3.627   2.965
 4244TIP3    H212610   5.140   3.480   2.946
 4245TIP3   OH212611   5.207   3.040   1.606
 4245TIP3    H112612   5.195   3.035   1.702
 4245TIP3    H212613   5.125   3.087   1.580
 4246TIP3   OH212614   4.746   3.084   2.475
 4246TIP3    H112615   4.823   3.114   2.528
 4246TIP3    H212616   4.786   3.048   2.394
 4247TIP3   OH212617   4.729   3.064   1.995
 4247TIP3    H112618   4.770   3.106   1.916
 4247TIP3    H212619   4.663   3.133   2.018
 4248TIP3   OH212620   5.879   3.781   2.592
 4248TIP3    H112621   5.911   3.709   2.533
 4248TIP3    H212622   5.848   3.730   2.669
 4249TIP3   OH212623   5.546   3.238   2.264
 4249TIP3    H112624   5.458   3.237   2.308
 4249TIP3    H212625   5.605   3.246   2.340
 4250TIP3   OH212626   4.978   3.298   2.267
 4250TIP3    H112627   4.883   3.309   2.244
 4250TIP3    H212628   4.995   3.205   2.246
 4251TIP3   OH212629   5.253   3.293   1.957
 4251TIP3    H112630   5.345   3.310   1.930
 4251TIP3    H212631   5.201   3.316   1.876
 4252TIP3   OH212632   6.030   3.316   2.459
 4252TIP3    H112633   6.001   3.328   2.552
 4252TIP3    H212634   5.964   3.251   2.428
 4253TIP3   OH212635   5.090   3.324   1.739
 4253TIP3    H112636   5.015   3.281   1.694
 4253TIP3    H212637   5.139   3.359   1.662
 4254TIP3   OH212638   6.206   5.004   2.681
 4254TIP3    H112639   6.204   5.029   2.587
 4254TIP3    H212640   6.282   5.056   2.713
 4255TIP3   OH212641   5.165   4.114   3.105
 4255TIP3    H112642   5.243   4.146   3.153
 4255TIP3    H212643   5.099   4.114   3.177
 4256TIP3   OH212644   5.629   3.567   2.362
 4256TIP3    H112645   5.700   3.522   2.314
 4256TIP3    H212646   5.636   3.529   2.451
 4257TIP3   OH212647   5.158   3.054   2.238
 4257TIP3    H112648   5.120   2.976   2.282
 4257TIP3    H212649   5.199   3.016   2.159
 4258TIP3   OH212650   5.607   3.464   2.648
 4258TIP3    H112651   5.516   3.498   2.662
 4258TIP3    H212652   5.662   3.525   2.700
 4259TIP3   OH212653   5.344   3.855   1.745
 4259TIP3    H112654   5.271   3.791   1.734
 4259TIP3    H212655   5.326   3.890   1.836
 4260TIP3   OH212656   6.245   4.091   2.375
 4260TIP3    H112657   6.269   4.140   2.293
 4260TIP3    H212658   6.158   4.053   2.351
 4261TIP3   OH212659   5.801   3.169   1.607
 4261TIP3    H112660   5.705   3.150   1.612
 4261TIP3    H212661   5.807   3.265   1.625
 4262TIP3   OH212662   5.744   4.175   2.741
 4262TIP3    H112663   5.759   4.152   2.834
 4262TIP3    H212664   5.704   4.263   2.747
 4263TIP3   OH212665   5.873   3.418   1.708
 4263TIP3    H112666   5.969   3.434   1.715
 4263TIP3    H212667   5.843   3.495   1.655
 4264TIP3   OH212668   5.054   3.890   2.426
 4264TIP3    H112669   5.072   3.852   2.337
 4264TIP3    H212670   5.042   3.810   2.479
 4265TIP3   OH212671   5.487   4.005   1.565
 4265TIP3    H112672   5.441   4.092   1.571
 4265TIP3    H212673   5.433   3.950   1.624
 4266TIP3   OH212674   4.914   3.796   3.032
 4266TIP3    H112675   4.931   3.782   3.127
 4266TIP3    H212676   4.843   3.733   3.014
 4267TIP3   OH212677   5.638   3.910   3.055
 4267TIP3    H112678   5.577   3.853   3.004
 4267TIP3    H212679   5.725   3.879   3.023
 4268TIP3   OH212680   5.904   4.429   2.638
 4268TIP3    H112681   5.807   4.431   2.648
 4268TIP3    H212682   5.931   4.484   2.715
 4269TIP3   OH212683   6.311   3.504   1.547
 4269TIP3    H112684   6.251   3.459   1.483
 4269TIP3    H212685   6.308   3.594   1.506
 4270TIP3   OH212686   6.530   4.359   2.629
 4270TIP3    H112687   6.432   4.357   2.619
 4270TIP3    H212688   6.556   4.332   2.538
 4271TIP3   OH212689   6.012   4.324   1.452
 4271TIP3    H112690   5.986   4.256   1.516
 4271TIP3    H212691   6.024   4.275   1.369
 4272TIP3   OH212692   6.008   3.954   2.295
 4272TIP3    H112693   5.915   3.928   2.308
 4272TIP3    H212694   6.042   3.876   2.248
 4273TIP3   OH212695   5.134   4.179   2.041
 4273TIP3    H112696   5.135   4.262   1.991
 4273TIP3    H212697   5.039   4.166   2.055
 4274TIP3   OH212698   4.706   3.487   1.744
 4274TIP3    H112699   4.752   3.570   1.767
 4274TIP3    H212700   4.631   3.490   1.807
 4275TIP3   OH212701   5.279   3.949   1.991
 4275TIP3    H112702   5.241   4.038   2.008
 4275TIP3    H212703   5.240   3.898   2.063
 4276TIP3   OH212704   5.403   4.526   2.515
 4276TIP3    H112705   5.443   4.598   2.464
 4276TIP3    H212706   5.481   4.493   2.564
 4277TIP3   OH212707   5.056   4.420   1.898
 4277TIP3    H112708   4.969   4.428   1.943
 4277TIP3    H212709   5.087   4.513   1.901
 4278TIP3   OH212710   5.794   4.158   2.473
 4278TIP3    H112711   5.785   4.158   2.571
 4278TIP3    H212712   5.876   4.108   2.461
 4279TIP3   OH212713   5.765   4.049   1.354
 4279TIP3    H112714   5.817   4.025   1.434
 4279TIP3    H212715   5.676   4.026   1.384
 4280TIP3   OH212716   6.043   4.694   2.523
 4280TIP3    H112717   5.963   4.639   2.513
 4280TIP3    H212718   6.028   4.760   2.451
 4281TIP3   OH212719   6.107   4.528   1.176
 4281TIP3    H112720   6.145   4.601   1.125
 4281TIP3    H212721   6.027   4.574   1.209
 4282TIP3   OH212722   5.127   3.304   3.043
 4282TIP3    H112723   5.030   3.310   3.055
 4282TIP3    H212724   5.151   3.241   3.113
 4283TIP3   OH212725   5.925   3.983   1.570
 4283TIP3    H112726   5.916   3.919   1.643
 4283TIP3    H212727   6.023   3.985   1.560
 4284TIP3   OH212728   4.842   4.390   2.674
 4284TIP3    H112729   4.893   4.312   2.703
 4284TIP3    H212730   4.872   4.455   2.738
 4285TIP3   OH212731   5.135   4.032   1.354
 4285TIP3    H112732   5.147   3.940   1.325
 4285TIP3    H212733   5.116   4.020   1.449
 4286TIP3   OH212734   5.079   4.037   1.627
 4286TIP3    H112735   5.147   4.011   1.691
 4286TIP3    H212736   5.083   4.135   1.633
 4287TIP3   OH212737   4.817   3.732   1.830
 4287TIP3    H112738   4.753   3.776   1.889
 4287TIP3    H212739   4.832   3.803   1.764
 4288TIP3   OH212740   5.967   3.364   2.719
 4288TIP3    H112741   6.040   3.406   2.766
 4288TIP3    H212742   5.948   3.286   2.774
 4289TIP3   OH212743   5.843   3.117   1.883
 4289TIP3    H112744   5.822   3.139   1.789
 4289TIP3    H212745   5.874   3.203   1.917
 4290TIP3   OH212746   5.344   4.236   1.575
 4290TIP3    H112747   5.258   4.263   1.612
 4290TIP3    H212748   5.362   4.309   1.514
 4291TIP3   OH212749   5.541   3.295   1.989
 4291TIP3    H112750   5.601   3.370   1.972
 4291TIP3    H212751   5.538   3.294   2.087
 4292TIP3   OH212752   5.803   3.619   2.798
 4292TIP3    H112753   5.816   3.677   2.875
 4292TIP3    H212754   5.858   3.542   2.820
 4293TIP3   OH212755   5.682   3.031   2.099
 4293TIP3    H112756   5.661   3.112   2.149
 4293TIP3    H212757   5.738   3.067   2.026
 4294TIP3   OH212758   5.086   4.310   1.642
 4294TIP3    H112759   5.057   4.380   1.579
 4294TIP3    H212760   5.071   4.354   1.729
 4295TIP3   OH212761   5.189   3.022   1.883
 4295TIP3    H112762   5.185   3.113   1.917
 4295TIP3    H212763   5.285   3.005   1.890
 4296TIP3   OH212764   6.444   3.513   2.783
 4296TIP3    H112765   6.346   3.513   2.787
 4296TIP3    H212766   6.458   3.494   2.689
 4297TIP3   OH212767   6.094   3.712   2.162
 4297TIP3    H112768   6.016   3.657   2.183
 4297TIP3    H212769   6.165   3.668   2.214
 4298TIP3   OH212770   4.802   3.944   1.636
 4298TIP3    H112771   4.865   4.018   1.645
 4298TIP3    H212772   4.850   3.891   1.569
 4299TIP3   OH212773   4.755   3.216   1.768
 4299TIP3    H112774   4.750   3.314   1.762
 4299TIP3    H212775   4.670   3.189   1.730
 4300TIP3   OH212776   6.062   4.664   2.116
 4300TIP3    H112777   6.019   4.711   2.041
 4300TIP3    H212778   6.156   4.685   2.096
 4301TIP3   OH212779   5.142   2.936   2.643
 4301TIP3    H112780   5.106   2.905   2.557
 4301TIP3    H212781   5.128   2.858   2.701
 4302TIP3   OH212782   4.679   4.155   2.026
 4302TIP3    H112783   4.609   4.189   2.082
 4302TIP3    H212784   4.656   4.196   1.939
 4303TIP3   OH212785   4.832   4.693   3.094
 4303TIP3    H112786   4.918   4.693   3.142
 4303TIP3    H212787   4.810   4.599   3.094
 4304TIP3   OH212788   5.317   4.662   3.140
 4304TIP3    H112789   5.412   4.644   3.146
 4304TIP3    H212790   5.292   4.605   3.065
 4305TIP3   OH212791   5.297   4.238   1.268
 4305TIP3    H112792   5.239   4.168   1.307
 4305TIP3    H212793   5.372   4.183   1.238
 4306TIP3   OH212794   5.956   4.567   2.871
 4306TIP3    H112795   5.947   4.497   2.940
 4306TIP3    H212796   6.032   4.619   2.903
 4307TIP3   OH212797   5.734   4.279   1.178
 4307TIP3    H112798   5.780   4.217   1.237
 4307TIP3    H212799   5.792   4.282   1.100
 4308TIP3   OH212800   4.964   4.102   3.295
 4308TIP3    H112801   4.981   4.006   3.298
 4308TIP3    H212802   4.876   4.105   3.252
 4309TIP3   OH212803   4.940   3.756   1.487
 4309TIP3    H112804   4.994   3.720   1.559
 4309TIP3    H212805   5.008   3.760   1.416
 4310TIP3   OH212806   5.573   4.186   3.068
 4310TIP3    H112807   5.529   4.202   2.982
 4310TIP3    H212808   5.603   4.093   3.061
 4311TIP3   OH212809   5.450   3.953   1.294
 4311TIP3    H112810   5.450   3.966   1.391
 4311TIP3    H212811   5.447   3.855   1.290
 4312TIP3   OH212812   6.065   4.192   2.674
 4312TIP3    H112813   6.138   4.241   2.630
 4312TIP3    H212814   5.993   4.256   2.665
 4313TIP3   OH212815   5.082   3.836   3.277
 4313TIP3    H112816   5.154   3.775   3.259
 4313TIP3    H212817   5.107   3.869   3.367
 4314TIP3   OH212818   5.152   3.656   1.713
 4314TIP3    H112819   5.121   3.616   1.796
 4314TIP3    H212820   5.184   3.579   1.663
 4315TIP3   OH212821   5.421   3.724   2.942
 4315TIP3    H112822   5.340   3.780   2.945
 4315TIP3    H212823   5.464   3.755   2.859
 4316TIP3   OH212824   5.248   3.448   1.552
 4316TIP3    H112825   5.220   3.449   1.458
 4316TIP3    H212826   5.345   3.458   1.543
 4317TIP3   OH212827   5.933   4.123   3.074
 4317TIP3    H112828   6.015   4.104   3.026
 4317TIP3    H212829   5.934   4.055   3.144
 4318TIP3   OH212830   6.077   3.783   1.211
 4318TIP3    H112831   6.051   3.735   1.130
 4318TIP3    H212832   6.044   3.873   1.188
 4319TIP3   OH212833   5.544   3.509   3.065
 4319TIP3    H112834   5.539   3.429   3.010
 4319TIP3    H212835   5.499   3.576   3.009
 4320TIP3   OH212836   5.545   3.294   2.870
 4320TIP3    H112837   5.569   3.337   2.786
 4320TIP3    H212838   5.450   3.272   2.854
 4321TIP3   OH212839   5.577   3.834   2.745
 4321TIP3    H112840   5.655   3.843   2.689
 4321TIP3    H212841   5.516   3.899   2.704
 4322TIP3   OH212842   6.155   3.799   3.129
 4322TIP3    H112843   6.207   3.717   3.135
 4322TIP3    H212844   6.221   3.861   3.094
 4323TIP3   OH212845   6.196   4.050   2.862
 4323TIP3    H112846   6.137   4.103   2.803
 4323TIP3    H212847   6.283   4.071   2.821
 4324TIP3   OH212848   5.422   3.622   3.296
 4324TIP3    H112849   5.351   3.556   3.308
 4324TIP3    H212850   5.454   3.599   3.206
 4325TIP3   OH212851   5.676   3.060   2.937
 4325TIP3    H112852   5.628   3.142   2.915
 4325TIP3    H212853   5.605   2.993   2.926
 4326TIP3   OH212854   5.803   3.565   3.155
 4326TIP3    H112855   5.789   3.555   3.251
 4326TIP3    H212856   5.713   3.541   3.123
 4327TIP3   OH212857   6.041   3.509   3.007
 4327TIP3    H112858   5.964   3.515   3.068
 4327TIP3    H212859   6.113   3.481   3.068
 4328TIP3   OH212860   6.274   3.454   3.162
 4328TIP3    H112861   6.282   3.358   3.183
 4328TIP3    H212862   6.267   3.494   3.251
 4329TIP3   OH212863   5.259   3.404   3.346
 4329TIP3    H112864   5.264   3.313   3.310
 4329TIP3    H212865   5.293   3.389   3.436
 4330TIP3   OH212866   5.773   3.070   3.194
 4330TIP3    H112867   5.839   2.998   3.187
 4330TIP3    H212868   5.731   3.064   3.106
 4331TIP3   OH212869   5.837   3.284   3.355
 4331TIP3    H112870   5.813   3.214   3.290
 4331TIP3    H212871   5.760   3.344   3.349
 4332TIP3   OH212872   5.055   4.512   1.455
 4332TIP3    H112873   5.151   4.511   1.436
 4332TIP3    H212874   5.024   4.560   1.376
 4333TIP3   OH212875   4.535   3.889   1.671
 4333TIP3    H112876   4.629   3.916   1.659
 4333TIP3    H212877   4.535   3.801   1.627
 4334TIP3   OH212878   4.451   4.506   2.085
 4334TIP3    H112879   4.383   4.444   2.050
 4334TIP3    H212880   4.495   4.451   2.152
 4335TIP3   OH212881   4.587   4.360   2.271
 4335TIP3    H112882   4.577   4.285   2.333
 4335TIP3    H212883   4.636   4.422   2.328
 4336TIP3   OH212884   6.314   4.757   2.071
 4336TIP3    H112885   6.338   4.794   2.157
 4336TIP3    H212886   6.371   4.808   2.011
 4337TIP3   OH212887   6.342   4.780   2.353
 4337TIP3    H112888   6.303   4.690   2.349
 4337TIP3    H212889   6.419   4.762   2.408
 4338TIP3   OH212890   6.392   4.455   2.927
 4338TIP3    H112891   6.317   4.464   2.989
 4338TIP3    H212892   6.431   4.544   2.930
 4339TIP3   OH212893   6.207   3.969   1.546
 4339TIP3    H112894   6.275   4.035   1.519
 4339TIP3    H212895   6.250   3.930   1.625
 4340TIP3   OH212896   6.335   3.835   1.748
 4340TIP3    H112897   6.269   3.797   1.809
 4340TIP3    H212898   6.400   3.877   1.808
 4341TIP3   OH212899   6.387   4.227   2.183
 4341TIP3    H112900   6.440   4.167   2.128
 4341TIP3    H212901   6.377   4.305   2.125
 4342TIP3   OH212902   6.220   4.526   2.380
 4342TIP3    H112903   6.150   4.573   2.430
 4342TIP3    H212904   6.168   4.480   2.310
 4343TIP3   OH212905   6.272   3.742   1.400
 4343TIP3    H112906   6.201   3.746   1.331
 4343TIP3    H212907   6.246   3.820   1.453
 4344TIP3   OH212908   6.146   3.416   1.354
 4344TIP3    H112909   6.102   3.460   1.280
 4344TIP3    H212910   6.116   3.323   1.340
 4345TIP3   OH212911   6.150   3.694   1.897
 4345TIP3    H112912   6.155   3.597   1.897
 4345TIP3    H212913   6.134   3.713   1.992
 4346TIP3   OH212914   4.775   3.766   2.647
 4346TIP3    H112915   4.776   3.739   2.552
 4346TIP3    H212916   4.872   3.766   2.664
 4347TIP3   OH212917   6.437   4.116   2.753
 4347TIP3    H112918   6.511   4.053   2.744
 4347TIP3    H212919   6.463   4.189   2.694
 4348TIP3   OH212920   6.623   3.924   2.772
 4348TIP3    H112921   6.549   3.874   2.813
 4348TIP3    H212922   6.696   3.860   2.785
 4349TIP3   OH212923   6.086   3.152   1.343
 4349TIP3    H112924   6.157   3.113   1.397
 4349TIP3    H212925   6.009   3.094   1.361
 4350TIP3   OH212926   6.156   3.410   1.799
 4350TIP3    H112927   6.172   3.318   1.775
 4350TIP3    H212928   6.203   3.457   1.728
 4351TIP3   OH212929   6.308   3.592   2.286
 4351TIP3    H112930   6.396   3.617   2.250
 4351TIP3    H212931   6.317   3.625   2.377
 4352TIP3   OH212932   6.373   3.727   2.522
 4352TIP3    H112933   6.295   3.761   2.569
 4352TIP3    H212934   6.404   3.807   2.475
 4353TIP3   OH212935   4.992   3.455   3.321
 4353TIP3    H112936   5.089   3.446   3.320
 4353TIP3    H212937   4.967   3.369   3.361
 4354TIP3   OH212938   6.828   3.316   3.078
 4354TIP3    H112939   6.885   3.250   3.032
 4354TIP3    H212940   6.799   3.372   3.004
 4355TIP3   OH212941   4.955   3.142   2.646
 4355TIP3    H112942   5.020   3.070   2.659
 4355TIP3    H212943   5.013   3.220   2.644
 4356TIP3   OH212944   4.761   3.419   2.729
 4356TIP3    H112945   4.804   3.409   2.642
 4356TIP3    H212946   4.781   3.511   2.749
 4357TIP3   OH212947   6.699   3.457   2.887
 4357TIP3    H112948   6.612   3.498   2.908
 4357TIP3    H212949   6.670   3.389   2.824
 4358TIP3   OH212950   6.343   3.095   1.471
 4358TIP3    H112951   6.373   3.023   1.411
 4358TIP3    H212952   6.402   3.168   1.447
 4359TIP3   OH212953   4.740   2.924   2.226
 4359TIP3    H112954   4.646   2.921   2.251
 4359TIP3    H212955   4.737   2.981   2.146
 4360TIP3   OH212956   5.898   4.624   1.729
 4360TIP3    H112957   5.951   4.610   1.647
 4360TIP3    H212958   5.948   4.693   1.774
 4361TIP3   OH212959   4.961   3.002   3.039
 4361TIP3    H112960   4.909   2.997   3.121
 4361TIP3    H212961   4.895   3.042   2.978
 4362TIP3   OH212962   5.000   4.427   3.116
 4362TIP3    H112963   4.908   4.400   3.097
 4362TIP3    H212964   5.006   4.411   3.211
 4363TIP3   OH212965   5.177   4.459   2.663
 4363TIP3    H112966   5.127   4.534   2.625
 4363TIP3    H212967   5.262   4.474   2.618
 4364TIP3   OH212968   5.624   4.706   2.800
 4364TIP3    H112969   5.665   4.709   2.889
 4364TIP3    H212970   5.690   4.757   2.748
 4365TIP3   OH212971   5.803   4.856   2.658
 4365TIP3    H112972   5.876   4.807   2.617
 4365TIP3    H212973   5.853   4.915   2.719
 4366TIP3   OH212974   6.598   3.221   2.758
 4366TIP3    H112975   6.505   3.218   2.730
 4366TIP3    H212976   6.624   3.127   2.744
 4367TIP3   OH212977   4.855   4.720   2.684
 4367TIP3    H112978   4.766   4.755   2.662
 4367TIP3    H212979   4.862   4.751   2.776
 4368TIP3   OH212980   5.091   4.697   2.542
 4368TIP3    H112981   5.005   4.710   2.589
 4368TIP3    H212982   5.070   4.730   2.453
 4369TIP3   OH212983   5.517   4.727   2.340
 4369TIP3    H112984   5.448   4.749   2.275
 4369TIP3    H212985   5.530   4.814   2.383
 4370TIP3   OH212986   5.785   4.666   2.390
 4370TIP3    H112987   5.690   4.683   2.372
 4370TIP3    H212988   5.827   4.744   2.351
 4371TIP3   OH212989   5.992   4.858   2.309
 4371TIP3    H112990   5.979   4.944   2.263
 4371TIP3    H212991   6.018   4.800   2.234
 4372TIP3   OH212992   4.766   4.514   2.431
 4372TIP3    H112993   4.792   4.488   2.522
 4372TIP3    H212994   4.837   4.469   2.381
 4373TIP3   OH212995   4.958   4.384   2.285
 4373TIP3    H112996   4.973   4.301   2.335
 4373TIP3    H212997   5.049   4.421   2.282
 4374TIP3   OH212998   5.224   4.480   2.288
 4374TIP3    H112999   5.256   4.388   2.277
 4374TIP3    H213000   5.266   4.501   2.374
 4375TIP3   OH213001   5.809   3.136   2.386
 4375TIP3    H113002   5.756   3.072   2.437
 4375TIP3    H213003   5.860   3.078   2.328
 4376TIP3   OH213004   5.050   2.845   2.395
 4376TIP3    H113005   4.958   2.812   2.394
 4376TIP3    H213006   5.099   2.760   2.391
 4377TIP3   OH213007   4.840   2.713   2.043
 4377TIP3    H113008   4.865   2.772   1.970
 4377TIP3    H213009   4.805   2.777   2.109
 4378TIP3   OH213010   5.496   2.875   2.272
 4378TIP3    H113011   5.556   2.930   2.220
 4378TIP3    H213012   5.501   2.915   2.360
 4379TIP3   OH213013   6.061   3.020   2.243
 4379TIP3    H113014   6.028   2.978   2.163
 4379TIP3    H213015   6.044   2.949   2.310
 4380TIP3   OH213016   6.070   2.943   1.820
 4380TIP3    H113017   5.985   2.989   1.830
 4380TIP3    H213018   6.052   2.860   1.868
 4381TIP3   OH213019   4.551   4.281   1.823
 4381TIP3    H113020   4.466   4.252   1.785
 4381TIP3    H213021   4.543   4.377   1.809
 4382TIP3   OH213022   4.951   2.875   1.805
 4382TIP3    H113023   5.000   2.811   1.749
 4382TIP3    H213024   5.024   2.927   1.843
 4383TIP3   OH213025   5.466   3.047   1.903
 4383TIP3    H113026   5.520   2.997   1.966
 4383TIP3    H213027   5.489   3.139   1.930
 4384TIP3   OH213028   5.325   4.475   1.404
 4384TIP3    H113029   5.413   4.497   1.368
 4384TIP3    H213030   5.303   4.400   1.345
 4385TIP3   OH213031   6.044   4.591   1.496
 4385TIP3    H113032   6.034   4.494   1.482
 4385TIP3    H213033   5.999   4.626   1.416
 4386TIP3   OH213034   5.258   3.127   3.287
 4386TIP3    H113035   5.224   3.055   3.344
 4386TIP3    H213036   5.352   3.127   3.313
 4387TIP3   OH213037   5.507   3.124   3.406
 4387TIP3    H113038   5.590   3.095   3.366
 4387TIP3    H213039   5.492   3.053   3.473
 4388TIP3   OH213040   4.629   4.309   1.463
 4388TIP3    H113041   4.629   4.341   1.554
 4388TIP3    H213042   4.719   4.270   1.453
 4389TIP3   OH213043   6.330   3.182   3.193
 4389TIP3    H113044   6.351   3.152   3.284
 4389TIP3    H213045   6.418   3.179   3.150
 4390TIP3   OH213046   6.272   4.736   2.685
 4390TIP3    H113047   6.193   4.704   2.637
 4390TIP3    H213048   6.254   4.832   2.686
 4391TIP3   OH213049   7.537   4.106   1.452
 4391TIP3    H113050   7.512   4.199   1.435
 4391TIP3    H213051   7.457   4.061   1.421
 4392TIP3   OH213052   7.534   4.106   1.830
 4392TIP3    H113053   7.565   4.080   1.918
 4392TIP3    H213054   7.493   4.025   1.797
 4393TIP3   OH213055   6.837   4.004   2.196
 4393TIP3    H113056   6.869   3.939   2.262
 4393TIP3    H213057   6.912   4.065   2.192
 4394TIP3   OH213058   7.776   4.409   1.513
 4394TIP3    H113059   7.768   4.341   1.581
 4394TIP3    H213060   7.806   4.486   1.565
 4395TIP3   OH213061   6.805   4.411   1.923
 4395TIP3    H113062   6.797   4.313   1.927
 4395TIP3    H213063   6.902   4.420   1.918
 4396TIP3   OH213064   6.507   3.608   1.716
 4396TIP3    H113065   6.467   3.696   1.730
 4396TIP3    H213066   6.437   3.566   1.664
 4397TIP3   OH213067   6.573   3.902   1.874
 4397TIP3    H113068   6.625   3.829   1.914
 4397TIP3    H213069   6.637   3.939   1.811
 4398TIP3   OH213070   7.422   4.869   1.526
 4398TIP3    H113071   7.474   4.798   1.483
 4398TIP3    H213072   7.421   4.841   1.618
 4399TIP3   OH213073   7.335   4.331   1.879
 4399TIP3    H113074   7.375   4.256   1.832
 4399TIP3    H213075   7.418   4.378   1.904
 4400TIP3   OH213076   8.343   3.654   1.876
 4400TIP3    H113077   8.372   3.735   1.922
 4400TIP3    H213078   8.372   3.674   1.785
 4401TIP3   OH213079   7.744   3.835   1.915
 4401TIP3    H113080   7.789   3.751   1.935
 4401TIP3    H213081   7.717   3.821   1.823
 4402TIP3   OH213082   7.081   3.494   1.880
 4402TIP3    H113083   7.064   3.568   1.818
 4402TIP3    H213084   7.034   3.422   1.833
 4403TIP3   OH213085   7.777   3.584   1.502
 4403TIP3    H113086   7.850   3.569   1.567
 4403TIP3    H213087   7.828   3.621   1.428
 4404TIP3   OH213088   6.718   3.696   1.985
 4404TIP3    H113089   6.802   3.678   2.032
 4404TIP3    H213090   6.733   3.643   1.904
 4405TIP3   OH213091   7.160   3.895   1.775
 4405TIP3    H113092   7.254   3.869   1.790
 4405TIP3    H213093   7.121   3.810   1.744
 4406TIP3   OH213094   8.415   3.855   2.053
 4406TIP3    H113095   8.336   3.909   2.032
 4406TIP3    H213096   8.444   3.894   2.137
 4407TIP3   OH213097   7.080   3.476   2.312
 4407TIP3    H113098   7.020   3.515   2.245
 4407TIP3    H213099   7.029   3.497   2.393
 4408TIP3   OH213100   7.431   4.329   1.321
 4408TIP3    H113101   7.385   4.308   1.239
 4408TIP3    H213102   7.390   4.415   1.344
 4409TIP3   OH213103   7.186   4.252   2.110
 4409TIP3    H113104   7.123   4.317   2.148
 4409TIP3    H213105   7.230   4.305   2.040
 4410TIP3   OH213106   7.990   3.586   1.672
 4410TIP3    H113107   7.982   3.541   1.757
 4410TIP3    H213108   8.046   3.663   1.695
 4411TIP3   OH213109   6.948   3.591   2.098
 4411TIP3    H113110   7.009   3.665   2.121
 4411TIP3    H213111   6.998   3.551   2.023
 4412TIP3   OH213112   7.014   4.445   2.204
 4412TIP3    H113113   6.990   4.532   2.165
 4412TIP3    H213114   6.935   4.432   2.262
 4413TIP3   OH213115   6.413   4.136   1.442
 4413TIP3    H113116   6.369   4.164   1.360
 4413TIP3    H213117   6.441   4.222   1.480
 4414TIP3   OH213118   7.849   4.650   1.680
 4414TIP3    H113119   7.759   4.643   1.720
 4414TIP3    H213120   7.843   4.737   1.637
 4415TIP3   OH213121   8.140   3.549   2.041
 4415TIP3    H113122   8.054   3.587   2.015
 4415TIP3    H213123   8.200   3.585   1.972
 4416TIP3   OH213124   7.439   3.199   2.024
 4416TIP3    H113125   7.428   3.104   2.042
 4416TIP3    H213126   7.361   3.236   2.072
 4417TIP3   OH213127   7.555   4.698   1.357
 4417TIP3    H113128   7.606   4.617   1.334
 4417TIP3    H213129   7.612   4.766   1.315
 4418TIP3   OH213130   7.697   4.483   1.259
 4418TIP3    H113131   7.653   4.404   1.225
 4418TIP3    H213132   7.731   4.450   1.345
 4419TIP3   OH213133   8.075   4.567   2.026
 4419TIP3    H113134   8.067   4.490   1.966
 4419TIP3    H213135   8.060   4.642   1.964
 4420TIP3   OH213136   7.365   3.957   1.280
 4420TIP3    H113137   7.286   4.010   1.258
 4420TIP3    H213138   7.414   3.958   1.196
 4421TIP3   OH213139   7.326   3.744   0.999
 4421TIP3    H113140   7.393   3.793   1.050
 4421TIP3    H213141   7.383   3.680   0.952
 4422TIP3   OH213142   8.269   4.196   1.866
 4422TIP3    H113143   8.190   4.254   1.873
 4422TIP3    H213144   8.302   4.223   1.778
 4423TIP3   OH213145   7.713   4.041   1.255
 4423TIP3    H113146   7.660   4.067   1.333
 4423TIP3    H213147   7.798   4.015   1.298
 4424TIP3   OH213148   7.950   4.082   2.165
 4424TIP3    H113149   7.950   4.166   2.215
 4424TIP3    H213150   7.864   4.090   2.118
 4425TIP3   OH213151   6.947   4.040   1.670
 4425TIP3    H113152   6.907   3.983   1.602
 4425TIP3    H213153   7.025   3.988   1.698
 4426TIP3   OH213154   7.076   4.448   1.820
 4426TIP3    H113155   7.058   4.405   1.736
 4426TIP3    H213156   7.167   4.419   1.839
 4427TIP3   OH213157   7.085   4.011   2.023
 4427TIP3    H113158   7.119   3.994   1.933
 4427TIP3    H213159   7.127   4.097   2.046
 4428TIP3   OH213160   7.608   4.648   1.801
 4428TIP3    H113161   7.594   4.730   1.852
 4428TIP3    H213162   7.594   4.577   1.866
 4429TIP3   OH213163   7.220   4.566   2.350
 4429TIP3    H113164   7.162   4.631   2.395
 4429TIP3    H213165   7.154   4.515   2.300
 4430TIP3   OH213166   7.557   3.899   1.080
 4430TIP3    H113167   7.615   3.958   1.134
 4430TIP3    H213168   7.583   3.925   0.989
 4431TIP3   OH213169   6.974   4.124   2.448
 4431TIP3    H113170   6.980   4.211   2.493
 4431TIP3    H213171   6.878   4.107   2.456
 4432TIP3   OH213172   7.297   4.581   1.352
 4432TIP3    H113173   7.375   4.635   1.377
 4432TIP3    H213174   7.235   4.648   1.321
 4433TIP3   OH213175   7.016   4.737   2.434
 4433TIP3    H113176   6.981   4.736   2.343
 4433TIP3    H213177   6.937   4.715   2.488
 4434TIP3   OH213178   8.071   3.141   1.127
 4434TIP3    H113179   7.990   3.162   1.179
 4434TIP3    H213180   8.084   3.226   1.079
 4435TIP3   OH213181   6.815   3.882   1.473
 4435TIP3    H113182   6.750   3.930   1.417
 4435TIP3    H213183   6.769   3.798   1.487
 4436TIP3   OH213184   7.865   4.507   0.674
 4436TIP3    H113185   7.874   4.604   0.661
 4436TIP3    H213186   7.959   4.479   0.662
 4437TIP3   OH213187   6.594   4.266   2.383
 4437TIP3    H113188   6.529   4.245   2.313
 4437TIP3    H213189   6.631   4.179   2.407
 4438TIP3   OH213190   6.449   4.458   2.019
 4438TIP3    H113191   6.545   4.457   2.008
 4438TIP3    H213192   6.436   4.540   2.069
 4439TIP3   OH213193   8.313   4.909   2.069
 4439TIP3    H113194   8.312   4.812   2.083
 4439TIP3    H213195   8.230   4.934   2.115
 4440TIP3   OH213196   7.420   4.697   2.205
 4440TIP3    H113197   7.421   4.790   2.237
 4440TIP3    H213198   7.349   4.659   2.260
 4441TIP3   OH213199   7.178   4.827   1.157
 4441TIP3    H113200   7.131   4.812   1.073
 4441TIP3    H213201   7.148   4.916   1.182
 4442TIP3   OH213202   6.617   4.675   1.539
 4442TIP3    H113203   6.667   4.667   1.623
 4442TIP3    H213204   6.551   4.605   1.550
 4443TIP3   OH213205   7.382   4.727   0.799
 4443TIP3    H113206   7.443   4.657   0.766
 4443TIP3    H213207   7.415   4.738   0.891
 4444TIP3   OH213208   7.429   4.773   1.068
 4444TIP3    H113209   7.342   4.784   1.113
 4444TIP3    H213210   7.483   4.738   1.140
 4445TIP3   OH213211   8.203   4.040   2.347
 4445TIP3    H113212   8.125   4.056   2.291
 4445TIP3    H213213   8.218   3.944   2.335
 4446TIP3   OH213214   6.801   4.448   2.372
 4446TIP3    H113215   6.849   4.434   2.455
 4446TIP3    H213216   6.726   4.386   2.381
 4447TIP3   OH213217   7.199   3.272   2.154
 4447TIP3    H113218   7.108   3.245   2.130
 4447TIP3    H213219   7.178   3.357   2.197
 4448TIP3   OH213220   7.733   3.387   2.348
 4448TIP3    H113221   7.801   3.363   2.414
 4448TIP3    H213222   7.649   3.368   2.395
 4449TIP3   OH213223   7.970   3.815   2.263
 4449TIP3    H113224   7.925   3.813   2.351
 4449TIP3    H213225   7.950   3.905   2.231
 4450TIP3   OH213226   7.628   3.948   0.822
 4450TIP3    H113227   7.602   3.921   0.732
 4450TIP3    H213228   7.706   4.003   0.804
 4451TIP3   OH213229   7.344   3.324   1.125
 4451TIP3    H113230   7.313   3.322   1.217
 4451TIP3    H213231   7.307   3.239   1.093
 4452TIP3   OH213232   7.127   3.787   2.171
 4452TIP3    H113233   7.080   3.811   2.254
 4452TIP3    H213234   7.114   3.868   2.118
 4453TIP3   OH213235   7.016   3.673   1.687
 4453TIP3    H113236   6.922   3.649   1.703
 4453TIP3    H213237   7.029   3.634   1.598
 4454TIP3   OH213238   7.504   3.759   1.413
 4454TIP3    H113239   7.451   3.832   1.373
 4454TIP3    H213240   7.560   3.733   1.337
 4455TIP3   OH213241   7.679   4.040   2.501
 4455TIP3    H113242   7.658   3.967   2.563
 4455TIP3    H213243   7.773   4.056   2.522
 4456TIP3   OH213244   7.662   3.789   1.656
 4456TIP3    H113245   7.605   3.823   1.584
 4456TIP3    H213246   7.694   3.707   1.613
 4457TIP3   OH213247   6.949   3.818   2.383
 4457TIP3    H113248   6.976   3.884   2.449
 4457TIP3    H213249   6.940   3.738   2.437
 4458TIP3   OH213250   6.999   3.294   1.092
 4458TIP3    H113251   6.993   3.292   1.189
 4458TIP3    H213252   6.920   3.346   1.069
 4459TIP3   OH213253   6.524   3.324   1.485
 4459TIP3    H113254   6.566   3.361   1.404
 4459TIP3    H213255   6.461   3.397   1.504
 4460TIP3   OH213256   7.668   4.037   2.077
 4460TIP3    H113257   7.703   3.964   2.020
 4460TIP3    H213258   7.643   3.986   2.157
 4461TIP3   OH213259   7.338   3.495   1.749
 4461TIP3    H113260   7.258   3.495   1.804
 4461TIP3    H213261   7.408   3.500   1.816
 4462TIP3   OH213262   6.775   3.553   1.756
 4462TIP3    H113263   6.680   3.556   1.731
 4462TIP3    H213264   6.801   3.461   1.734
 4463TIP3   OH213265   7.048   3.548   1.444
 4463TIP3    H113266   7.142   3.565   1.425
 4463TIP3    H213267   7.002   3.574   1.361
 4464TIP3   OH213268   7.833   3.572   1.948
 4464TIP3    H113269   7.799   3.584   2.040
 4464TIP3    H213270   7.767   3.511   1.912
 4465TIP3   OH213271   6.884   3.580   1.224
 4465TIP3    H113272   6.812   3.538   1.174
 4465TIP3    H213273   6.937   3.618   1.150
 4466TIP3   OH213274   8.002   5.261   2.168
 4466TIP3    H113275   8.000   5.286   2.074
 4466TIP3    H213276   8.079   5.311   2.200
 4467TIP3   OH213277   6.961   4.368   2.592
 4467TIP3    H113278   7.041   4.402   2.638
 4467TIP3    H213279   6.896   4.373   2.665
 4468TIP3   OH213280   7.425   3.821   1.844
 4468TIP3    H113281   7.501   3.787   1.794
 4468TIP3    H213282   7.441   3.784   1.932
 4469TIP3   OH213283   6.948   3.314   1.721
 4469TIP3    H113284   6.922   3.232   1.766
 4469TIP3    H213285   7.005   3.282   1.649
 4470TIP3   OH213286   7.401   3.717   2.142
 4470TIP3    H113287   7.313   3.758   2.151
 4470TIP3    H213288   7.461   3.779   2.189
 4471TIP3   OH213289   7.140   4.113   1.230
 4471TIP3    H113290   7.066   4.049   1.220
 4471TIP3    H213291   7.122   4.147   1.321
 4472TIP3   OH213292   8.041   4.349   1.861
 4472TIP3    H113293   8.066   4.398   1.780
 4472TIP3    H213294   7.955   4.310   1.836
 4473TIP3   OH213295   7.597   3.427   1.088
 4473TIP3    H113296   7.500   3.412   1.098
 4473TIP3    H213297   7.609   3.520   1.114
 4474TIP3   OH213298   7.533   4.427   2.230
 4474TIP3    H113299   7.561   4.411   2.321
 4474TIP3    H213300   7.500   4.519   2.233
 4475TIP3   OH213301   7.668   3.670   1.193
 4475TIP3    H113302   7.764   3.677   1.212
 4475TIP3    H213303   7.650   3.751   1.142
 4476TIP3   OH213304   6.826   4.127   1.908
 4476TIP3    H113305   6.868   4.105   1.823
 4476TIP3    H213306   6.873   4.069   1.970
 4477TIP3   OH213307   7.281   4.261   1.046
 4477TIP3    H113308   7.236   4.348   1.055
 4477TIP3    H213309   7.229   4.207   1.108
 4478TIP3   OH213310   6.710   4.054   2.520
 4478TIP3    H113311   6.733   4.043   2.614
 4478TIP3    H213312   6.640   3.988   2.508
 4479TIP3   OH213313   7.435   4.166   2.542
 4479TIP3    H113314   7.379   4.110   2.486
 4479TIP3    H213315   7.525   4.136   2.514
 4480TIP3   OH213316   7.698   4.684   2.126
 4480TIP3    H113317   7.602   4.689   2.136
 4480TIP3    H213318   7.727   4.739   2.202
 4481TIP3   OH213319   8.108   3.759   1.033
 4481TIP3    H113320   8.045   3.715   0.971
 4481TIP3    H213321   8.106   3.848   0.992
 4482TIP3   OH213322   8.326   4.618   2.115
 4482TIP3    H113323   8.228   4.613   2.106
 4482TIP3    H213324   8.352   4.589   2.025
 4483TIP3   OH213325   7.802   4.581   0.938
 4483TIP3    H113326   7.787   4.510   1.002
 4483TIP3    H213327   7.822   4.534   0.855
 4484TIP3   OH213328   7.804   4.211   1.781
 4484TIP3    H113329   7.711   4.185   1.793
 4484TIP3    H213330   7.839   4.132   1.735
 4485TIP3   OH213331   6.930   4.435   1.528
 4485TIP3    H113332   6.934   4.519   1.478
 4485TIP3    H213333   6.835   4.427   1.542
 4486TIP3   OH213334   6.494   3.742   1.234
 4486TIP3    H113335   6.540   3.826   1.253
 4486TIP3    H213336   6.416   3.750   1.294
 4487TIP3   OH213337   7.072   4.204   1.476
 4487TIP3    H113338   7.036   4.294   1.492
 4487TIP3    H213339   7.035   4.156   1.552
 4488TIP3   OH213340   7.200   4.781   2.001
 4488TIP3    H113341   7.238   4.855   1.951
 4488TIP3    H213342   7.278   4.750   2.051
 4489TIP3   OH213343   6.853   4.676   1.384
 4489TIP3    H113344   6.766   4.684   1.429
 4489TIP3    H213345   6.885   4.768   1.388
 4490TIP3   OH213346   7.590   4.415   1.960
 4490TIP3    H113347   7.582   4.413   2.058
 4490TIP3    H213348   7.673   4.368   1.947
 4491TIP3   OH213349   7.560   4.303   0.844
 4491TIP3    H113350   7.615   4.281   0.922
 4491TIP3    H213351   7.472   4.283   0.879
 4492TIP3   OH213352   7.838   4.951   2.010
 4492TIP3    H113353   7.758   4.896   1.999
 4492TIP3    H213354   7.825   5.017   1.939
 4493TIP3   OH213355   7.898   4.781   0.678
 4493TIP3    H113356   7.932   4.829   0.602
 4493TIP3    H213357   7.823   4.838   0.707
 4494TIP3   OH213358   6.926   3.559   2.531
 4494TIP3    H113359   6.830   3.566   2.548
 4494TIP3    H213360   6.955   3.500   2.602
 4495TIP3   OH213361   7.722   4.238   1.056
 4495TIP3    H113362   7.713   4.175   1.130
 4495TIP3    H213363   7.819   4.241   1.047
 4496TIP3   OH213364   6.639   4.645   2.161
 4496TIP3    H113365   6.693   4.572   2.195
 4496TIP3    H213366   6.666   4.717   2.219
 4497TIP3   OH213367   6.930   4.288   0.839
 4497TIP3    H113368   6.946   4.195   0.814
 4497TIP3    H213369   6.913   4.279   0.936
 4498TIP3   OH213370   6.878   4.294   1.111
 4498TIP3    H113371   6.944   4.268   1.177
 4498TIP3    H213372   6.879   4.392   1.120
 4499TIP3   OH213373   6.612   3.989   1.317
 4499TIP3    H113374   6.546   4.034   1.374
 4499TIP3    H213375   6.626   4.059   1.250
 4500TIP3   OH213376   7.758   3.624   2.207
 4500TIP3    H113377   7.837   3.666   2.245
 4500TIP3    H213378   7.746   3.544   2.263
 4501TIP3   OH213379   7.639   3.378   1.371
 4501TIP3    H113380   7.626   3.404   1.278
 4501TIP3    H213381   7.679   3.459   1.409
 4502TIP3   OH213382   7.139   4.492   1.058
 4502TIP3    H113383   7.054   4.519   1.098
 4502TIP3    H213384   7.161   4.572   1.008
 4503TIP3   OH213385   7.329   3.554   1.475
 4503TIP3    H113386   7.394   3.625   1.457
 4503TIP3    H213387   7.335   3.548   1.573
 4504TIP3   OH213388   7.597   3.874   2.286
 4504TIP3    H113389   7.616   3.930   2.364
 4504TIP3    H213390   7.656   3.798   2.301
 4505TIP3   OH213391   7.475   3.285   1.579
 4505TIP3    H113392   7.470   3.359   1.641
 4505TIP3    H213393   7.535   3.322   1.510
 4506TIP3   OH213394   6.881   4.566   1.130
 4506TIP3    H113395   6.852   4.636   1.067
 4506TIP3    H213396   6.866   4.611   1.216
 4507TIP3   OH213397   6.985   3.279   1.369
 4507TIP3    H113398   6.983   3.371   1.403
 4507TIP3    H213399   7.081   3.261   1.377
 4508TIP3   OH213400   8.238   3.773   2.269
 4508TIP3    H113401   8.140   3.769   2.269
 4508TIP3    H213402   8.258   3.748   2.178
 4509TIP3   OH213403   7.890   3.970   1.653
 4509TIP3    H113404   7.815   3.908   1.667
 4509TIP3    H213405   7.963   3.925   1.700
 4510TIP3   OH213406   6.601   4.200   1.124
 4510TIP3    H113407   6.660   4.276   1.134
 4510TIP3    H213408   6.650   4.149   1.056
 4511TIP3   OH213409   6.545   3.472   1.257
 4511TIP3    H113410   6.545   3.570   1.251
 4511TIP3    H213411   6.464   3.450   1.211
 4512TIP3   OH213412   7.858   4.921   1.602
 4512TIP3    H113413   7.816   4.968   1.527
 4512TIP3    H213414   7.952   4.942   1.583
 4513TIP3   OH213415   6.931   3.194   2.133
 4513TIP3    H113416   6.906   3.161   2.044
 4513TIP3    H213417   6.924   3.114   2.189
 4514TIP3   OH213418   6.472   4.405   1.513
 4514TIP3    H113419   6.401   4.442   1.566
 4514TIP3    H213420   6.455   4.449   1.427
 4515TIP3   OH213421   6.629   4.950   2.583
 4515TIP3    H113422   6.715   4.951   2.630
 4515TIP3    H213423   6.608   4.855   2.581
 4516TIP3   OH213424   7.112   4.918   2.629
 4516TIP3    H113425   7.208   4.903   2.634
 4516TIP3    H213426   7.089   4.862   2.552
 4517TIP3   OH213427   7.091   4.493   0.752
 4517TIP3    H113428   7.034   4.426   0.796
 4517TIP3    H213429   7.169   4.439   0.734
 4518TIP3   OH213430   7.751   4.823   2.359
 4518TIP3    H113431   7.743   4.754   2.428
 4518TIP3    H213432   7.828   4.875   2.389
 4519TIP3   OH213433   7.528   4.533   0.671
 4519TIP3    H113434   7.576   4.475   0.733
 4519TIP3    H213435   7.588   4.536   0.594
 4520TIP3   OH213436   6.760   4.358   2.783
 4520TIP3    H113437   6.776   4.262   2.785
 4520TIP3    H213438   6.672   4.362   2.740
 4521TIP3   OH213439   6.738   4.011   0.973
 4521TIP3    H113440   6.791   3.978   1.048
 4521TIP3    H213441   6.807   4.016   0.904
 4522TIP3   OH213442   7.369   4.442   2.556
 4522TIP3    H113443   7.328   4.459   2.469
 4522TIP3    H213444   7.400   4.350   2.548
 4523TIP3   OH213445   7.242   4.209   0.777
 4523TIP3    H113446   7.247   4.224   0.874
 4523TIP3    H213447   7.241   4.111   0.775
 4524TIP3   OH213448   7.860   4.450   2.160
 4524TIP3    H113449   7.935   4.494   2.116
 4524TIP3    H213450   7.791   4.518   2.149
 4525TIP3   OH213451   6.878   4.088   2.764
 4525TIP3    H113452   6.957   4.037   2.744
 4525TIP3    H213453   6.901   4.124   2.852
 4526TIP3   OH213454   6.946   3.913   1.197
 4526TIP3    H113455   6.920   3.874   1.282
 4526TIP3    H213456   6.981   3.836   1.148
 4527TIP3   OH213457   7.212   3.975   2.423
 4527TIP3    H113458   7.138   4.038   2.429
 4527TIP3    H213459   7.262   4.010   2.345
 4528TIP3   OH213460   7.045   3.704   1.039
 4528TIP3    H113461   7.018   3.707   0.945
 4528TIP3    H213462   7.142   3.714   1.031
 4529TIP3   OH213463   7.729   4.378   2.559
 4529TIP3    H113464   7.812   4.363   2.513
 4529TIP3    H213465   7.732   4.311   2.630
 4530TIP3   OH213466   7.872   4.039   0.694
 4530TIP3    H113467   7.841   3.989   0.617
 4530TIP3    H213468   7.838   4.129   0.672
 4531TIP3   OH213469   7.335   3.764   2.554
 4531TIP3    H113470   7.338   3.685   2.497
 4531TIP3    H213471   7.294   3.831   2.495
 4532TIP3   OH213472   7.339   3.549   2.359
 4532TIP3    H113473   7.368   3.594   2.276
 4532TIP3    H213474   7.245   3.529   2.339
 4533TIP3   OH213475   7.369   4.087   2.231
 4533TIP3    H113476   7.452   4.096   2.183
 4533TIP3    H213477   7.314   4.156   2.189
 4534TIP3   OH213478   7.952   4.056   2.615
 4534TIP3    H113479   8.002   3.974   2.622
 4534TIP3    H213480   8.019   4.117   2.581
 4535TIP3   OH213481   7.991   4.307   2.348
 4535TIP3    H113482   7.934   4.361   2.289
 4535TIP3    H213483   8.079   4.327   2.308
 4536TIP3   OH213484   7.214   3.881   2.782
 4536TIP3    H113485   7.144   3.813   2.794
 4536TIP3    H213486   7.250   3.855   2.694
 4537TIP3   OH213487   7.472   3.316   2.425
 4537TIP3    H113488   7.425   3.400   2.402
 4537TIP3    H213489   7.402   3.250   2.413
 4538TIP3   OH213490   7.599   3.822   2.642
 4538TIP3    H113491   7.591   3.813   2.738
 4538TIP3    H213492   7.508   3.797   2.615
 4539TIP3   OH213493   7.837   3.768   2.495
 4539TIP3    H113494   7.762   3.772   2.557
 4539TIP3    H213495   7.911   3.739   2.553
 4540TIP3   OH213496   8.062   3.709   2.650
 4540TIP3    H113497   8.078   3.614   2.669
 4540TIP3    H213498   8.062   3.750   2.739
 4541TIP3   OH213499   7.052   3.660   2.834
 4541TIP3    H113500   7.065   3.571   2.797
 4541TIP3    H213501   7.088   3.649   2.924
 4542TIP3   OH213502   7.566   3.325   2.683
 4542TIP3    H113503   7.636   3.256   2.677
 4542TIP3    H213504   7.528   3.319   2.593
 4543TIP3   OH213505   7.630   3.539   2.844
 4543TIP3    H113506   7.608   3.470   2.778
 4543TIP3    H213507   7.555   3.601   2.835
 4544TIP3   OH213508   6.851   4.764   0.939
 4544TIP3    H113509   6.947   4.767   0.923
 4544TIP3    H213510   6.820   4.819   0.864
 4545TIP3   OH213511   6.333   4.151   1.159
 4545TIP3    H113512   6.427   4.173   1.147
 4545TIP3    H213513   6.329   4.062   1.117
 4546TIP3   OH213514   6.248   4.762   1.570
 4546TIP3    H113515   6.178   4.701   1.537
 4546TIP3    H213516   6.291   4.706   1.638
 4547TIP3   OH213517   6.386   4.616   1.756
 4547TIP3    H113518   6.371   4.544   1.819
 4547TIP3    H213519   6.435   4.679   1.813
 4548TIP3   OH213520   8.109   5.017   1.557
 4548TIP3    H113521   8.135   5.050   1.645
 4548TIP3    H213522   8.170   5.064   1.499
 4549TIP3   OH213523   8.140   5.036   1.839
 4549TIP3    H113524   8.099   4.947   1.836
 4549TIP3    H213525   8.216   5.017   1.896
 4550TIP3   OH213526   8.186   4.713   2.413
 4550TIP3    H113527   8.113   4.721   2.477
 4550TIP3    H213528   8.227   4.801   2.417
 4551TIP3   OH213529   8.002   4.226   1.033
 4551TIP3    H113530   8.072   4.290   1.007
 4551TIP3    H213531   8.044   4.187   1.113
 4552TIP3   OH213532   8.128   4.094   1.235
 4552TIP3    H113533   8.066   4.052   1.298
 4552TIP3    H213534   8.198   4.130   1.294
 4553TIP3   OH213535   8.179   4.482   1.667
 4553TIP3    H113536   8.237   4.421   1.617
 4553TIP3    H213537   8.174   4.559   1.606
 4554TIP3   OH213538   8.016   4.784   1.865
 4554TIP3    H113539   7.946   4.828   1.917
 4554TIP3    H213540   7.965   4.736   1.797
 4555TIP3   OH213541   8.069   4.000   0.884
 4555TIP3    H113542   7.997   4.006   0.818
 4555TIP3    H213543   8.045   4.076   0.942
 4556TIP3   OH213544   7.938   3.674   0.840
 4556TIP3    H113545   7.899   3.713   0.761
 4556TIP3    H213546   7.912   3.580   0.830
 4557TIP3   OH213547   7.943   3.948   1.384
 4557TIP3    H113548   7.955   3.852   1.383
 4557TIP3    H213549   7.931   3.966   1.480
 4558TIP3   OH213550   6.573   4.019   2.130
 4558TIP3    H113551   6.571   3.995   2.036
 4558TIP3    H213552   6.670   4.023   2.147
 4559TIP3   OH213553   8.232   4.373   2.239
 4559TIP3    H113554   8.306   4.309   2.232
 4559TIP3    H213555   8.262   4.444   2.180
 4560TIP3   OH213556   8.417   4.181   2.265
 4560TIP3    H113557   8.344   4.128   2.303
 4560TIP3    H213558   8.492   4.118   2.275
 4561TIP3   OH213559   7.882   3.409   0.827
 4561TIP3    H113560   7.960   3.379   0.879
 4561TIP3    H213561   7.812   3.348   0.855
 4562TIP3   OH213562   7.938   3.663   1.280
 4562TIP3    H113563   7.981   3.576   1.295
 4562TIP3    H213564   7.998   3.699   1.212
 4563TIP3   OH213565   8.102   3.842   1.773
 4563TIP3    H113566   8.188   3.868   1.733
 4563TIP3    H213567   8.116   3.878   1.863
 4564TIP3   OH213568   8.169   3.983   2.008
 4564TIP3    H113569   8.091   4.020   2.055
 4564TIP3    H213570   8.202   4.062   1.961
 4565TIP3   OH213571   6.785   3.706   2.796
 4565TIP3    H113572   6.883   3.703   2.803
 4565TIP3    H213573   6.762   3.625   2.846
 4566TIP3   OH213574   8.622   3.571   2.565
 4566TIP3    H113575   8.680   3.505   2.520
 4566TIP3    H213576   8.595   3.629   2.490
 4567TIP3   OH213577   8.050   3.414   1.317
 4567TIP3    H113578   8.099   3.400   1.400
 4567TIP3    H213579   7.990   3.337   1.317
 4568TIP3   OH213580   6.740   3.394   2.154
 4568TIP3    H113581   6.811   3.327   2.155
 4568TIP3    H213582   6.793   3.474   2.137
 4569TIP3   OH213583   6.557   3.675   2.210
 4569TIP3    H113584   6.607   3.676   2.126
 4569TIP3    H213585   6.576   3.764   2.243
 4570TIP3   OH213586   8.494   3.715   2.374
 4570TIP3    H113587   8.406   3.753   2.391
 4570TIP3    H213588   8.470   3.645   2.310
 4571TIP3   OH213589   8.130   3.352   0.947
 4571TIP3    H113590   8.173   3.280   0.897
 4571TIP3    H213591   8.198   3.423   0.943
 4572TIP3   OH213592   6.521   3.180   1.714
 4572TIP3    H113593   6.431   3.164   1.685
 4572TIP3    H213594   6.550   3.241   1.643
 4573TIP3   OH213595   7.692   4.880   1.215
 4573TIP3    H113596   7.748   4.867   1.136
 4573TIP3    H213597   7.742   4.948   1.264
 4574TIP3   OH213598   6.755   3.258   2.524
 4574TIP3    H113599   6.706   3.255   2.608
 4574TIP3    H213600   6.689   3.301   2.465
 4575TIP3   OH213601   6.797   4.679   2.602
 4575TIP3    H113602   6.704   4.656   2.585
 4575TIP3    H213603   6.803   4.672   2.698
 4576TIP3   OH213604   6.973   4.715   2.149
 4576TIP3    H113605   6.924   4.791   2.111
 4576TIP3    H213606   7.059   4.731   2.104
 4577TIP3   OH213607   7.421   4.962   2.287
 4577TIP3    H113608   7.462   4.965   2.376
 4577TIP3    H213609   7.487   5.013   2.234
 4578TIP3   OH213610   7.600   5.112   2.145
 4578TIP3    H113611   7.673   5.064   2.104
 4578TIP3    H213612   7.649   5.171   2.206
 4579TIP3   OH213613   8.392   3.478   2.247
 4579TIP3    H113614   8.302   3.476   2.212
 4579TIP3    H213615   8.422   3.385   2.232
 4580TIP3   OH213616   6.650   4.972   2.175
 4580TIP3    H113617   6.563   5.007   2.148
 4580TIP3    H213618   6.660   5.014   2.261
 4581TIP3   OH213619   6.886   4.951   2.029
 4581TIP3    H113620   6.800   4.966   2.075
 4581TIP3    H213621   6.866   4.988   1.940
 4582TIP3   OH213622   7.313   4.984   1.827
 4582TIP3    H113623   7.244   5.006   1.761
 4582TIP3    H213624   7.327   5.070   1.870
 4583TIP3   OH213625   7.581   4.922   1.877
 4583TIP3    H113626   7.486   4.940   1.859
 4583TIP3    H213627   7.623   5.001   1.839
 4584TIP3   OH213628   7.789   5.115   1.796
 4584TIP3    H113629   7.775   5.201   1.750
 4584TIP3    H213630   7.814   5.056   1.722
 4585TIP3   OH213631   6.561   4.769   1.916
 4585TIP3    H113632   6.587   4.746   2.008
 4585TIP3    H213633   6.635   4.726   1.867
 4586TIP3   OH213634   6.755   4.640   1.772
 4586TIP3    H113635   6.772   4.557   1.822
 4586TIP3    H213636   6.844   4.679   1.769
 4587TIP3   OH213637   7.019   4.736   1.776
 4587TIP3    H113638   7.053   4.645   1.766
 4587TIP3    H213639   7.061   4.760   1.860
 4588TIP3   OH213640   7.595   3.392   1.860
 4588TIP3    H113641   7.554   3.323   1.915
 4588TIP3    H213642   7.670   3.344   1.819
 4589TIP3   OH213643   8.122   3.267   1.768
 4589TIP3    H113644   8.160   3.323   1.697
 4589TIP3    H213645   8.028   3.293   1.766
 4590TIP3   OH213646   8.216   3.373   1.534
 4590TIP3    H113647   8.290   3.322   1.494
 4590TIP3    H213648   8.250   3.465   1.520
 4591TIP3   OH213649   6.849   3.101   1.886
 4591TIP3    H113650   6.757   3.075   1.871
 4591TIP3    H213651   6.896   3.015   1.880
 4592TIP3   OH213652   6.641   2.968   1.531
 4592TIP3    H113653   6.667   3.022   1.454
 4592TIP3    H213654   6.600   3.034   1.589
 4593TIP3   OH213655   7.287   3.135   1.762
 4593TIP3    H113656   7.346   3.185   1.703
 4593TIP3    H213657   7.312   3.171   1.849
 4594TIP3   OH213658   7.836   3.279   1.748
 4594TIP3    H113659   7.835   3.246   1.657
 4594TIP3    H213660   7.822   3.197   1.800
 4595TIP3   OH213661   7.866   3.200   1.307
 4595TIP3    H113662   7.780   3.244   1.318
 4595TIP3    H213663   7.851   3.116   1.355
 4596TIP3   OH213664   6.351   4.539   1.310
 4596TIP3    H113665   6.265   4.508   1.275
 4596TIP3    H213666   6.340   4.634   1.298
 4597TIP3   OH213667   6.748   3.128   1.297
 4597TIP3    H113668   6.797   3.068   1.237
 4597TIP3    H213669   6.821   3.184   1.330
 4598TIP3   OH213670   7.262   3.303   1.392
 4598TIP3    H113671   7.324   3.259   1.452
 4598TIP3    H213672   7.282   3.397   1.416
 4599TIP3   OH213673   7.121   4.731   0.891
 4599TIP3    H113674   7.211   4.753   0.857
 4599TIP3    H213675   7.100   4.656   0.832
 4600TIP3   OH213676   7.841   4.846   0.985
 4600TIP3    H113677   7.832   4.749   0.972
 4600TIP3    H213678   7.794   4.879   0.907
 4601TIP3   OH213679   7.054   3.379   2.769
 4601TIP3    H113680   7.021   3.311   2.831
 4601TIP3    H213681   7.149   3.382   2.796
 4602TIP3   OH213682   7.301   3.378   2.890
 4602TIP3    H113683   7.387   3.358   2.850
 4602TIP3    H213684   7.293   3.306   2.956
 4603TIP3   OH213685   6.424   4.566   0.949
 4603TIP3    H113686   6.421   4.599   1.040
 4603TIP3    H213687   6.514   4.529   0.943
 4604TIP3   OH213688   8.127   3.438   2.680
 4604TIP3    H113689   8.148   3.408   2.770
 4604TIP3    H213690   8.215   3.436   2.636
 4605TIP3   OH213691   8.068   4.993   2.172
 4605TIP3    H113692   7.988   4.961   2.124
 4605TIP3    H213693   8.049   5.089   2.174
 4606TIP3   OH213694   8.626   4.267   1.698
 4606TIP3    H113695   8.662   4.197   1.755
 4606TIP3    H213696   8.707   4.298   1.652
 4607TIP3   OH213697   8.593   4.666   1.412
 4607TIP3    H113698   8.587   4.568   1.415
 4607TIP3    H213699   8.690   4.677   1.407
 4608TIP3   OH213700   8.307   3.871   1.194
 4608TIP3    H113701   8.265   3.957   1.211
 4608TIP3    H213702   8.232   3.820   1.158
 4609TIP3   OH213703   8.367   4.157   1.358
 4609TIP3    H113704   8.417   4.084   1.401
 4609TIP3    H213705   8.437   4.200   1.307
 4610TIP3   OH213706   9.121   5.076   1.034
 4610TIP3    H113707   9.204   5.076   0.982
 4610TIP3    H213708   9.155   5.070   1.124
 4611TIP3   OH213709   9.076   4.602   1.374
 4611TIP3    H113710   9.087   4.540   1.299
 4611TIP3    H213711   9.170   4.601   1.404
 4612TIP3   OH213712   8.854   3.747   1.378
 4612TIP3    H113713   8.875   3.817   1.314
 4612TIP3    H213714   8.821   3.677   1.319
 4613TIP3   OH213715   8.512   3.954   1.472
 4613TIP3    H113716   8.595   3.936   1.521
 4613TIP3    H213717   8.530   3.900   1.391
 4614TIP3   OH213718   8.921   4.172   1.247
 4614TIP3    H113719   9.008   4.177   1.292
 4614TIP3    H213720   8.911   4.075   1.232
 4615TIP3   OH213721   8.869   3.731   1.804
 4615TIP3    H113722   8.816   3.772   1.733
 4615TIP3    H213723   8.819   3.758   1.883
 4616TIP3   OH213724   8.979   4.505   1.627
 4616TIP3    H113725   8.915   4.576   1.650
 4616TIP3    H213726   9.019   4.539   1.545
 4617TIP3   OH213727   8.736   3.849   1.593
 4617TIP3    H113728   8.799   3.923   1.612
 4617TIP3    H213729   8.783   3.807   1.517
 4618TIP3   OH213730   8.804   4.706   1.691
 4618TIP3    H113731   8.781   4.794   1.655
 4618TIP3    H213732   8.727   4.691   1.749
 4619TIP3   OH213733   8.208   4.393   0.932
 4619TIP3    H113734   8.164   4.420   0.849
 4619TIP3    H213735   8.238   4.480   0.968
 4620TIP3   OH213736   8.723   4.313   1.142
 4620TIP3    H113737   8.692   4.247   1.077
 4620TIP3    H213738   8.800   4.264   1.182
 4621TIP3   OH213739   8.848   4.725   1.294
 4621TIP3    H113740   8.836   4.668   1.217
 4621TIP3    H213741   8.932   4.690   1.331
 4622TIP3   OH213742   8.844   4.293   1.514
 4622TIP3    H113743   8.900   4.260   1.440
 4622TIP3    H213744   8.907   4.358   1.552
 4623TIP3   OH213745   9.014   4.832   1.831
 4623TIP3    H113746   8.953   4.890   1.882
 4623TIP3    H213747   8.951   4.773   1.785
 4624TIP3   OH213748   8.776   4.379   1.945
 4624TIP3    H113749   8.776   4.468   1.985
 4624TIP3    H213750   8.680   4.365   1.933
 4625TIP3   OH213751   9.078   4.868   0.844
 4625TIP3    H113752   9.110   4.900   0.930
 4625TIP3    H213753   8.999   4.922   0.836
 4626TIP3   OH213754   8.809   4.997   1.921
 4626TIP3    H113755   8.774   4.991   1.830
 4626TIP3    H213756   8.731   4.974   1.976
 4627TIP3   OH213757   8.615   4.132   0.949
 4627TIP3    H113758   8.542   4.179   0.903
 4627TIP3    H213759   8.569   4.055   0.984
 4628TIP3   OH213760   8.389   4.524   1.869
 4628TIP3    H113761   8.329   4.498   1.797
 4628TIP3    H213762   8.428   4.439   1.897
 4629TIP3   OH213763   8.245   4.715   1.503
 4629TIP3    H113764   8.341   4.708   1.493
 4629TIP3    H213765   8.237   4.795   1.557
 4630TIP3   OH213766   9.202   4.966   1.686
 4630TIP3    H113767   9.202   5.053   1.728
 4630TIP3    H213768   9.136   4.917   1.741
 4631TIP3   OH213769   8.415   4.933   1.026
 4631TIP3    H113770   8.463   4.923   1.111
 4631TIP3    H213771   8.353   4.859   1.032
 4632TIP3   OH213772   8.593   4.709   1.862
 4632TIP3    H113773   8.646   4.690   1.943
 4632TIP3    H213774   8.521   4.643   1.868
 4633TIP3   OH213775   8.984   3.518   1.653
 4633TIP3    H113776   8.891   3.503   1.628
 4633TIP3    H213777   8.980   3.611   1.681
 4634TIP3   OH213778   8.912   4.043   1.649
 4634TIP3    H113779   8.883   4.074   1.736
 4634TIP3    H213780   8.931   4.126   1.603
 4635TIP3   OH213781   8.810   3.925   1.171
 4635TIP3    H113782   8.721   3.899   1.201
 4635TIP3    H213783   8.811   3.889   1.080
 4636TIP3   OH213784   8.737   4.076   1.875
 4636TIP3    H113785   8.778   4.138   1.937
 4636TIP3    H213786   8.738   3.992   1.924
 4637TIP3   OH213787   8.766   3.563   0.577
 4637TIP3    H113788   8.758   3.551   0.672
 4637TIP3    H213789   8.684   3.609   0.554
 4638TIP3   OH213790   8.340   3.595   1.448
 4638TIP3    H113791   8.410   3.631   1.506
 4638TIP3    H213792   8.388   3.568   1.369
 4639TIP3   OH213793   8.314   3.578   0.968
 4639TIP3    H113794   8.360   3.619   0.891
 4639TIP3    H213795   8.254   3.651   0.993
 4640TIP3   OH213796   8.570   3.810   1.243
 4640TIP3    H113797   8.475   3.814   1.218
 4640TIP3    H213798   8.597   3.719   1.222
 4641TIP3   OH213799   8.815   3.824   0.915
 4641TIP3    H113800   8.893   3.860   0.871
 4641TIP3    H213801   8.747   3.839   0.845
 4642TIP3   OH213802   8.660   3.846   0.698
 4642TIP3    H113803   8.593   3.798   0.646
 4642TIP3    H213804   8.726   3.867   0.629
 4643TIP3   OH213805   8.755   4.629   2.079
 4643TIP3    H113806   8.836   4.658   2.125
 4643TIP3    H213807   8.692   4.630   2.153
 4644TIP3   OH213808   8.735   3.571   1.197
 4644TIP3    H113809   8.708   3.494   1.252
 4644TIP3    H213810   8.809   3.536   1.146
 4645TIP3   OH213811   8.896   4.390   0.705
 4645TIP3    H113812   8.844   4.308   0.712
 4645TIP3    H213813   8.908   4.414   0.800
 4646TIP3   OH213814   9.285   4.696   1.735
 4646TIP3    H113815   9.326   4.667   1.818
 4646TIP3    H213816   9.275   4.791   1.746
 4647TIP3   OH213817   8.610   4.382   1.389
 4647TIP3    H113818   8.649   4.366   1.301
 4647TIP3    H213819   8.679   4.342   1.446
 4648TIP3   OH213820   8.500   4.318   2.011
 4648TIP3    H113821   8.533   4.302   2.102
 4648TIP3    H213822   8.441   4.243   1.996
 4649TIP3   OH213823   9.205   4.373   2.056
 4649TIP3    H113824   9.140   4.357   1.986
 4649TIP3    H213825   9.277   4.314   2.029
 4650TIP3   OH213826   8.724   4.691   1.013
 4650TIP3    H113827   8.725   4.777   0.966
 4650TIP3    H213828   8.630   4.677   1.027
 4651TIP3   OH213829   8.287   4.001   0.717
 4651TIP3    H113830   8.337   4.082   0.741
 4651TIP3    H213831   8.213   4.006   0.782
 4652TIP3   OH213832   8.879   4.468   0.964
 4652TIP3    H113833   8.832   4.553   0.980
 4652TIP3    H213834   8.843   4.414   1.036
 4653TIP3   OH213835   8.995   5.037   1.489
 4653TIP3    H113836   9.036   5.109   1.438
 4653TIP3    H213837   9.071   5.002   1.540
 4654TIP3   OH213838   8.650   4.933   0.872
 4654TIP3    H113839   8.565   4.940   0.919
 4654TIP3    H213840   8.681   5.026   0.876
 4655TIP3   OH213841   8.720   3.819   2.022
 4655TIP3    H113842   8.624   3.822   2.035
 4655TIP3    H213843   8.747   3.752   2.089
 4656TIP3   OH213844   8.434   4.902   1.648
 4656TIP3    H113845   8.487   4.826   1.677
 4656TIP3    H213846   8.465   4.970   1.710
 4657TIP3   OH213847   8.636   4.546   0.661
 4657TIP3    H113848   8.724   4.509   0.678
 4657TIP3    H213849   8.656   4.640   0.643
 4658TIP3   OH213850   8.404   4.241   0.811
 4658TIP3    H113851   8.339   4.289   0.868
 4658TIP3    H213852   8.427   4.311   0.748
 4659TIP3   OH213853   8.616   4.819   0.621
 4659TIP3    H113854   8.669   4.886   0.572
 4659TIP3    H213855   8.626   4.853   0.712
 4660TIP3   OH213856   8.781   3.547   0.856
 4660TIP3    H113857   8.755   3.627   0.906
 4660TIP3    H213858   8.867   3.579   0.822
 4661TIP3   OH213859   8.378   4.480   0.616
 4661TIP3    H113860   8.455   4.530   0.651
 4661TIP3    H213861   8.428   4.406   0.575
 4662TIP3   OH213862   8.348   3.733   0.743
 4662TIP3    H113863   8.343   3.830   0.739
 4662TIP3    H213864   8.265   3.706   0.704
 4663TIP3   OH213865   8.715   3.451   1.620
 4663TIP3    H113866   8.694   3.418   1.530
 4663TIP3    H213867   8.715   3.369   1.674
 4664TIP3   OH213868   8.272   4.666   1.002
 4664TIP3    H113869   8.198   4.700   1.054
 4664TIP3    H213870   8.252   4.706   0.914
 4665TIP3   OH213871   8.425   5.207   2.069
 4665TIP3    H113872   8.511   5.207   2.115
 4665TIP3    H213873   8.405   5.112   2.067
 4666TIP3   OH213874   8.909   5.181   2.108
 4666TIP3    H113875   9.001   5.155   2.126
 4666TIP3    H213876   8.886   5.118   2.036
 4667TIP3   OH213877   8.556   4.614   2.270
 4667TIP3    H113878   8.574   4.519   2.272
 4667TIP3    H213879   8.468   4.617   2.226
 4668TIP3   OH213880   8.502   4.260   0.530
 4668TIP3    H113881   8.565   4.239   0.602
 4668TIP3    H213882   8.562   4.241   0.455
 4669TIP3   OH213883   9.149   4.695   2.043
 4669TIP3    H113884   9.124   4.715   1.950
 4669TIP3    H213885   9.209   4.620   2.033
 4670TIP3   OH213886   8.674   4.343   2.251
 4670TIP3    H113887   8.755   4.297   2.226
 4670TIP3    H213888   8.699   4.379   2.339
 4671TIP3   OH213889   8.735   4.163   0.686
 4671TIP3    H113890   8.714   4.129   0.775
 4671TIP3    H213891   8.768   4.084   0.640
 4672TIP3   OH213892   9.000   4.227   1.891
 4672TIP3    H113893   8.926   4.289   1.910
 4672TIP3    H213894   9.048   4.277   1.822
 4673TIP3   OH213895   8.847   3.949   0.527
 4673TIP3    H113896   8.824   3.939   0.433
 4673TIP3    H213897   8.939   3.979   0.521
 4674TIP3   OH213898   9.090   4.022   2.057
 4674TIP3    H113899   9.122   3.941   2.011
 4674TIP3    H213900   9.053   4.075   1.983
 4675TIP3   OH213901   9.122   3.815   1.865
 4675TIP3    H113902   9.159   3.830   1.776
 4675TIP3    H213903   9.035   3.776   1.842
 4676TIP3   OH213904   9.190   4.386   1.768
 4676TIP3    H113905   9.226   4.331   1.695
 4676TIP3    H213906   9.133   4.445   1.714
 4677TIP3   OH213907   8.986   4.151   2.269
 4677TIP3    H113908   8.925   4.076   2.284
 4677TIP3    H213909   9.029   4.123   2.185
 4678TIP3   OH213910   8.845   3.920   2.324
 4678TIP3    H113911   8.869   3.840   2.274
 4678TIP3    H213912   8.881   3.900   2.412
 4679TIP3   OH213913   8.122   4.401   0.659
 4679TIP3    H113914   8.212   4.437   0.646
 4679TIP3    H213915   8.126   4.318   0.609
 4680TIP3   OH213916   8.044   5.022   1.058
 4680TIP3    H113917   7.977   4.959   1.024
 4680TIP3    H213918   8.088   4.966   1.125
 4681TIP3   OH213919   8.180   4.875   1.244
 4681TIP3    H113920   8.169   4.800   1.304
 4681TIP3    H213921   8.230   4.936   1.302
 4682TIP3   OH213922   8.366   4.281   1.616
 4682TIP3    H113923   8.370   4.254   1.522
 4682TIP3    H213924   8.463   4.285   1.638
 4683TIP3   OH213925   8.578   3.964   2.286
 4683TIP3    H113926   8.676   3.961   2.289
 4683TIP3    H213927   8.558   3.881   2.334
 4684TIP3   OH213928   8.538   3.660   1.627
 4684TIP3    H113929   8.602   3.586   1.635
 4684TIP3    H213930   8.601   3.735   1.620
 4685TIP3   OH213931   8.348   3.933   1.696
 4685TIP3    H113932   8.399   3.925   1.613
 4685TIP3    H213933   8.380   4.018   1.729
 4686TIP3   OH213934   8.330   3.427   1.191
 4686TIP3    H113935   8.238   3.435   1.223
 4686TIP3    H213936   8.331   3.491   1.117
 4687TIP3   OH213937   8.545   3.511   2.008
 4687TIP3    H113938   8.500   3.514   2.094
 4687TIP3    H213939   8.480   3.555   1.951
 4688TIP3   OH213940   8.591   4.943   2.089
 4688TIP3    H113941   8.500   4.913   2.073
 4688TIP3    H213942   8.602   4.925   2.183
 4689TIP3   OH213943   8.766   4.975   1.636
 4689TIP3    H113944   8.721   5.052   1.597
 4689TIP3    H213945   8.853   4.986   1.593
 4690TIP3   OH213946   9.227   5.234   1.770
 4690TIP3    H113947   9.250   5.223   1.866
 4690TIP3    H213948   9.312   5.262   1.735
 4691TIP3   OH213949   8.447   5.232   1.657
 4691TIP3    H113950   8.358   5.267   1.636
 4691TIP3    H213951   8.456   5.264   1.748
 4692TIP3   OH213952   8.684   5.213   1.517
 4692TIP3    H113953   8.598   5.225   1.563
 4692TIP3    H213954   8.663   5.245   1.427
 4693TIP3   OH213955   9.094   5.244   1.310
 4693TIP3    H113956   9.024   5.263   1.244
 4693TIP3    H213957   9.105   5.331   1.353
 4694TIP3   OH213958   9.356   5.200   1.352
 4694TIP3    H113959   9.260   5.197   1.339
 4694TIP3    H213960   9.378   5.287   1.317
 4695TIP3   OH213961   8.359   5.026   1.404
 4695TIP3    H113962   8.384   5.001   1.496
 4695TIP3    H213963   8.431   4.981   1.355
 4696TIP3   OH213964   8.551   4.896   1.259
 4696TIP3    H113965   8.567   4.812   1.308
 4696TIP3    H213966   8.642   4.934   1.257
 4697TIP3   OH213967   8.815   4.997   1.261
 4697TIP3    H113968   8.839   4.903   1.253
 4697TIP3    H213969   8.859   5.017   1.346
 4698TIP3   OH213970   8.638   3.364   1.362
 4698TIP3    H113971   8.545   3.335   1.364
 4698TIP3    H213972   8.683   3.277   1.367
 4699TIP3   OH213973   8.427   3.225   1.010
 4699TIP3    H113974   8.456   3.288   0.941
 4699TIP3    H213975   8.397   3.286   1.080
 4700TIP3   OH213976   8.146   4.793   0.802
 4700TIP3    H113977   8.060   4.761   0.769
 4700TIP3    H213978   8.137   4.887   0.779
 4701TIP3   OH213979   8.541   3.387   0.788
 4701TIP3    H113980   8.586   3.329   0.724
 4701TIP3    H213981   8.615   3.441   0.823
 4702TIP3   OH213982   8.817   3.624   2.236
 4702TIP3    H113983   8.787   3.563   2.305
 4702TIP3    H213984   8.911   3.636   2.264
 4703TIP3   OH213985   9.051   3.640   2.370
 4703TIP3    H113986   9.147   3.649   2.357
 4703TIP3    H213987   9.050   3.569   2.437
 4704TIP3   OH213988   8.232   4.816   0.503
 4704TIP3    H113989   8.238   4.873   0.581
 4704TIP3    H213990   8.325   4.804   0.478
 4705TIP3   OH213991  -0.012   4.891   3.143
 4705TIP3    H113992  -0.034   4.985   3.128
 4705TIP3    H213993  -0.094   4.850   3.110
 4706TIP3   OH213994   0.001   4.887   3.511
 4706TIP3    H113995   0.020   4.870   3.605
 4706TIP3    H213996  -0.055   4.813   3.486
 4707TIP3   OH213997   0.229   5.195   3.203
 4707TIP3    H113998   0.219   5.132   3.274
 4707TIP3    H213999   0.256   5.275   3.251
 4708TIP3   OH214000  -0.136   5.641   3.207
 4708TIP3    H114001  -0.070   5.574   3.179
 4708TIP3    H214002  -0.136   5.636   3.303
 4709TIP3   OH214003  -0.224   5.065   3.548
 4709TIP3    H114004  -0.141   5.028   3.512
 4709TIP3    H214005  -0.189   5.146   3.590
 4710TIP3   OH214006   0.796   4.442   3.568
 4710TIP3    H114007   0.824   4.523   3.614
 4710TIP3    H214008   0.821   4.463   3.476
 4711TIP3   OH214009   0.193   4.621   3.608
 4711TIP3    H114010   0.243   4.539   3.624
 4711TIP3    H214011   0.169   4.610   3.514
 4712TIP3   OH214012  -0.432   4.279   3.577
 4712TIP3    H114013  -0.468   4.358   3.532
 4712TIP3    H214014  -0.467   4.209   3.518
 4713TIP3   OH214015   0.229   4.370   3.192
 4713TIP3    H114016   0.303   4.357   3.257
 4713TIP3    H214017   0.279   4.409   3.117
 4714TIP3   OH214018  -0.385   4.688   3.482
 4714TIP3    H114019  -0.292   4.658   3.485
 4714TIP3    H214020  -0.430   4.614   3.438
 4715TIP3   OH214021   0.867   4.644   3.743
 4715TIP3    H114022   0.788   4.699   3.723
 4715TIP3    H214023   0.896   4.682   3.828
 4716TIP3   OH214024  -0.119   5.114   3.013
 4716TIP3    H114025  -0.156   5.101   2.925
 4716TIP3    H214026  -0.154   5.203   3.035
 4717TIP3   OH214027   0.441   4.373   3.364
 4717TIP3    H114028   0.436   4.333   3.451
 4717TIP3    H214029   0.497   4.451   3.382
 4718TIP3   OH214030   0.304   5.436   3.367
 4718TIP3    H114031   0.216   5.430   3.411
 4718TIP3    H214032   0.297   5.524   3.325
 4719TIP3   OH214033   0.593   4.332   3.732
 4719TIP3    H114034   0.509   4.375   3.708
 4719TIP3    H214035   0.655   4.369   3.665
 4720TIP3   OH214036  -0.123   3.980   3.696
 4720TIP3    H114037  -0.114   3.889   3.730
 4720TIP3    H214038  -0.181   4.019   3.764
 4721TIP3   OH214039   0.014   5.478   3.047
 4721TIP3    H114040   0.068   5.401   3.017
 4721TIP3    H214041   0.067   5.551   3.008
 4722TIP3   OH214042   0.153   5.266   2.946
 4722TIP3    H114043   0.114   5.186   2.909
 4722TIP3    H214044   0.185   5.235   3.033
 4723TIP3   OH214045   0.528   5.354   3.716
 4723TIP3    H114046   0.518   5.278   3.655
 4723TIP3    H214047   0.509   5.430   3.656
 4724TIP3   OH214048  -0.183   4.742   2.969
 4724TIP3    H114049  -0.260   4.798   2.944
 4724TIP3    H214050  -0.130   4.746   2.887
 4725TIP3   OH214051  -0.221   4.528   2.699
 4725TIP3    H114052  -0.153   4.582   2.743
 4725TIP3    H214053  -0.162   4.471   2.644
 4726TIP3   OH214054   0.723   4.985   3.557
 4726TIP3    H114055   0.642   5.041   3.564
 4726TIP3    H214056   0.754   5.012   3.468
 4727TIP3   OH214057   0.165   4.827   2.945
 4727TIP3    H114058   0.112   4.854   3.024
 4727TIP3    H214059   0.250   4.803   2.988
 4728TIP3   OH214060   0.402   4.870   3.855
 4728TIP3    H114061   0.404   4.952   3.908
 4728TIP3    H214062   0.319   4.883   3.806
 4729TIP3   OH214063  -0.456   4.787   3.724
 4729TIP3    H114064  -0.418   4.759   3.638
 4729TIP3    H214065  -0.413   4.872   3.740
 4730TIP3   OH214066   0.067   5.435   3.493
 4730TIP3    H114067   0.043   5.517   3.540
 4730TIP3    H214068   0.044   5.364   3.557
 4731TIP3   OH214069   0.008   4.688   2.769
 4731TIP3    H114070   0.068   4.746   2.822
 4731TIP3    H214071   0.034   4.713   2.677
 4732TIP3   OH214072  -0.254   5.374   3.044
 4732TIP3    H114073  -0.174   5.417   3.078
 4732TIP3    H214074  -0.300   5.451   3.007
 4733TIP3   OH214075   0.524   3.931   2.816
 4733TIP3    H114076   0.444   3.953   2.868
 4733TIP3    H214077   0.538   4.013   2.765
 4734TIP3   OH214078   0.322   5.296   2.366
 4734TIP3    H114079   0.333   5.392   2.351
 4734TIP3    H214080   0.414   5.263   2.354
 4735TIP3   OH214081   0.767   5.697   3.760
 4735TIP3    H114082   0.764   5.601   3.775
 4735TIP3    H214083   0.683   5.724   3.805
 4736TIP3   OH214084  -0.110   5.466   3.909
 4736TIP3    H114085  -0.103   5.561   3.933
 4736TIP3    H214086  -0.204   5.461   3.889
 4737TIP3   OH214087  -0.347   5.590   2.868
 4737TIP3    H114088  -0.379   5.585   2.776
 4737TIP3    H214089  -0.362   5.682   2.893
 4738TIP3   OH214090  -0.165   5.514   2.489
 4738TIP3    H114091  -0.106   5.445   2.450
 4738TIP3    H214092  -0.124   5.525   2.578
 4739TIP3   OH214093  -0.101   5.557   2.756
 4739TIP3    H114094  -0.183   5.557   2.810
 4739TIP3    H214095  -0.036   5.531   2.822
 4740TIP3   OH214096   0.658   4.829   4.036
 4740TIP3    H114097   0.578   4.845   3.984
 4740TIP3    H214098   0.671   4.733   4.027
 4741TIP3   OH214099  -0.357   4.061   3.853
 4741TIP3    H114100  -0.436   4.038   3.804
 4741TIP3    H214101  -0.350   4.157   3.837
 4742TIP3   OH214102   0.194   4.151   4.028
 4742TIP3    H114103   0.256   4.153   4.103
 4742TIP3    H214104   0.107   4.149   4.071
 4743TIP3   OH214105   0.419   4.602   3.951
 4743TIP3    H114106   0.377   4.601   4.040
 4743TIP3    H214107   0.402   4.694   3.922
 4744TIP3   OH214108   0.081   4.736   2.512
 4744TIP3    H114109   0.054   4.709   2.422
 4744TIP3    H214110   0.162   4.786   2.490
 4745TIP3   OH214111  -0.199   4.116   2.806
 4745TIP3    H114112  -0.222   4.118   2.900
 4745TIP3    H214113  -0.250   4.039   2.777
 4746TIP3   OH214114  -0.434   4.559   3.871
 4746TIP3    H114115  -0.471   4.599   3.950
 4746TIP3    H214116  -0.440   4.636   3.809
 4747TIP3   OH214117  -0.541   4.445   3.380
 4747TIP3    H114118  -0.634   4.470   3.365
 4747TIP3    H214119  -0.518   4.405   3.294
 4748TIP3   OH214120  -0.043   4.546   3.099
 4748TIP3    H114121  -0.095   4.620   3.061
 4748TIP3    H214122   0.015   4.522   3.025
 4749TIP3   OH214123   0.134   4.825   4.187
 4749TIP3    H114124   0.113   4.755   4.252
 4749TIP3    H214125   0.226   4.846   4.212
 4750TIP3   OH214126   0.113   4.576   3.347
 4750TIP3    H114127   0.061   4.616   3.275
 4750TIP3    H214128   0.144   4.495   3.301
 4751TIP3   OH214129  -0.491   4.087   2.814
 4751TIP3    H114130  -0.528   4.055   2.897
 4751TIP3    H214131  -0.568   4.128   2.770
 4752TIP3   OH214132   0.112   4.824   3.767
 4752TIP3    H114133   0.151   4.754   3.710
 4752TIP3    H214134   0.097   4.773   3.849
 4753TIP3   OH214135  -0.198   4.283   3.432
 4753TIP3    H114136  -0.277   4.288   3.490
 4753TIP3    H214137  -0.126   4.288   3.498
 4754TIP3   OH214138  -0.492   4.330   3.130
 4754TIP3    H114139  -0.398   4.358   3.121
 4754TIP3    H214140  -0.536   4.368   3.052
 4755TIP3   OH214141   0.287   4.359   3.639
 4755TIP3    H114142   0.253   4.372   3.730
 4755TIP3    H214143   0.219   4.302   3.601
 4756TIP3   OH214144  -0.679   4.380   2.907
 4756TIP3    H114145  -0.706   4.315   2.839
 4756TIP3    H214146  -0.606   4.422   2.857
 4757TIP3   OH214147   0.455   6.049   3.858
 4757TIP3    H114148   0.452   6.073   3.764
 4757TIP3    H214149   0.531   6.100   3.889
 4758TIP3   OH214150  -0.122   4.602   3.529
 4758TIP3    H114151  -0.043   4.579   3.478
 4758TIP3    H214152  -0.098   4.574   3.619
 4759TIP3   OH214153  -0.556   4.100   3.415
 4759TIP3    H114154  -0.626   4.032   3.431
 4759TIP3    H214155  -0.543   4.092   3.320
 4760TIP3   OH214156  -0.146   4.501   3.842
 4760TIP3    H114157  -0.231   4.548   3.842
 4760TIP3    H214158  -0.084   4.566   3.882
 4761TIP3   OH214159  -0.405   4.894   2.908
 4761TIP3    H114160  -0.485   4.838   2.905
 4761TIP3    H214161  -0.413   4.935   2.998
 4762TIP3   OH214162   0.494   5.136   3.551
 4762TIP3    H114163   0.518   5.186   3.470
 4762TIP3    H214164   0.406   5.098   3.527
 4763TIP3   OH214165   0.056   4.211   2.786
 4763TIP3    H114166  -0.042   4.205   2.781
 4763TIP3    H214167   0.071   4.308   2.798
 4764TIP3   OH214168  -0.018   5.206   3.926
 4764TIP3    H114169   0.018   5.205   4.016
 4764TIP3    H214170  -0.049   5.299   3.919
 4765TIP3   OH214171   0.121   4.460   2.883
 4765TIP3    H114172   0.218   4.467   2.899
 4765TIP3    H214173   0.103   4.539   2.828
 4766TIP3   OH214174  -0.256   5.041   2.733
 4766TIP3    H114175  -0.301   5.128   2.742
 4766TIP3    H214176  -0.309   4.987   2.795
 4767TIP3   OH214177  -0.101   4.961   4.237
 4767TIP3    H114178  -0.155   4.891   4.196
 4767TIP3    H214179  -0.011   4.937   4.206
 4768TIP3   OH214180   0.156   5.467   3.818
 4768TIP3    H114181   0.060   5.470   3.830
 4768TIP3    H214182   0.184   5.526   3.892
 4769TIP3   OH214183   0.561   4.549   2.724
 4769TIP3    H114184   0.498   4.504   2.662
 4769TIP3    H214185   0.559   4.638   2.681
 4770TIP3   OH214186   0.778   5.403   3.805
 4770TIP3    H114187   0.680   5.401   3.796
 4770TIP3    H214188   0.804   5.376   3.714
 4771TIP3   OH214189   0.256   5.371   2.628
 4771TIP3    H114190   0.239   5.301   2.693
 4771TIP3    H214191   0.274   5.321   2.546
 4772TIP3   OH214192   0.259   4.998   3.472
 4772TIP3    H114193   0.165   4.973   3.483
 4772TIP3    H214194   0.293   4.920   3.424
 4773TIP3   OH214195  -0.433   4.992   3.155
 4773TIP3    H114196  -0.434   5.087   3.173
 4773TIP3    H214197  -0.479   4.959   3.233
 4774TIP3   OH214198   0.042   5.199   3.651
 4774TIP3    H114199   0.031   5.200   3.749
 4774TIP3    H214200   0.130   5.159   3.642
 4775TIP3   OH214201   0.013   5.094   2.534
 4775TIP3    H114202   0.069   5.070   2.611
 4775TIP3    H214203  -0.074   5.071   2.567
 4776TIP3   OH214204   0.291   5.737   3.698
 4776TIP3    H114205   0.210   5.685   3.688
 4776TIP3    H214206   0.278   5.805   3.628
 4777TIP3   OH214207   0.356   5.573   2.351
 4777TIP3    H114208   0.394   5.650   2.305
 4777TIP3    H214209   0.275   5.616   2.386
 4778TIP3   OH214210   0.173   5.028   2.750
 4778TIP3    H114211   0.167   4.961   2.821
 4778TIP3    H214212   0.270   5.030   2.736
 4779TIP3   OH214213  -0.565   5.054   2.555
 4779TIP3    H114214  -0.546   4.966   2.516
 4779TIP3    H214215  -0.568   5.033   2.650
 4780TIP3   OH214216   0.210   4.406   3.896
 4780TIP3    H114217   0.285   4.454   3.936
 4780TIP3    H214218   0.203   4.326   3.952
 4781TIP3   OH214219   0.089   4.168   3.061
 4781TIP3    H114220   0.079   4.191   2.967
 4781TIP3    H214221   0.132   4.249   3.097
 4782TIP3   OH214222  -0.402   5.264   2.755
 4782TIP3    H114223  -0.481   5.300   2.796
 4782TIP3    H214224  -0.379   5.333   2.691
 4783TIP3   OH214225  -0.220   4.350   3.164
 4783TIP3    H114226  -0.153   4.419   3.143
 4783TIP3    H214227  -0.208   4.341   3.261
 4784TIP3   OH214228   0.046   4.662   3.978
 4784TIP3    H114229   0.066   4.721   4.055
 4784TIP3    H214230   0.108   4.588   3.994
 4785TIP3   OH214231  -0.055   4.079   3.275
 4785TIP3    H114232  -0.060   4.150   3.342
 4785TIP3    H214233   0.007   4.120   3.210
 4786TIP3   OH214234  -0.520   4.033   3.107
 4786TIP3    H114235  -0.607   4.078   3.093
 4786TIP3    H214236  -0.458   4.106   3.084
 4787TIP3   OH214237   0.688   4.560   3.957
 4787TIP3    H114238   0.590   4.557   3.957
 4787TIP3    H214239   0.708   4.539   3.865
 4788TIP3   OH214240   0.343   4.756   3.342
 4788TIP3    H114241   0.268   4.697   3.358
 4788TIP3    H214242   0.416   4.712   3.390
 4789TIP3   OH214243   0.314   5.706   3.294
 4789TIP3    H114244   0.272   5.756   3.220
 4789TIP3    H214245   0.408   5.726   3.274
 4790TIP3   OH214246  -0.421   5.274   2.455
 4790TIP3    H114247  -0.470   5.198   2.493
 4790TIP3    H214248  -0.361   5.229   2.394
 4791TIP3   OH214249   0.212   5.609   4.047
 4791TIP3    H114250   0.203   5.539   4.115
 4791TIP3    H214251   0.286   5.663   4.081
 4792TIP3   OH214252  -0.018   5.322   2.356
 4792TIP3    H114253   0.029   5.261   2.416
 4792TIP3    H214254   0.042   5.325   2.278
 4793TIP3   OH214255  -0.164   5.237   4.239
 4793TIP3    H114256  -0.222   5.224   4.163
 4793TIP3    H214257  -0.133   5.145   4.253
 4794TIP3   OH214258  -0.292   4.988   2.465
 4794TIP3    H114259  -0.289   5.007   2.561
 4794TIP3    H214260  -0.293   4.890   2.466
 4795TIP3   OH214261   0.312   5.237   3.848
 4795TIP3    H114262   0.388   5.283   3.806
 4795TIP3    H214263   0.244   5.307   3.840
 4796TIP3   OH214264  -0.605   4.703   2.886
 4796TIP3    H114265  -0.618   4.656   2.970
 4796TIP3    H214266  -0.562   4.635   2.831
 4797TIP3   OH214267  -0.259   4.772   4.109
 4797TIP3    H114268  -0.340   4.824   4.117
 4797TIP3    H214269  -0.230   4.798   4.018
 4798TIP3   OH214270  -0.494   4.491   2.746
 4798TIP3    H114271  -0.523   4.495   2.652
 4798TIP3    H214272  -0.397   4.500   2.734
 4799TIP3   OH214273   0.178   5.157   4.249
 4799TIP3    H114274   0.265   5.152   4.206
 4799TIP3    H214275   0.189   5.097   4.325
 4800TIP3   OH214276   0.318   4.826   2.391
 4800TIP3    H114277   0.312   4.782   2.304
 4800TIP3    H214278   0.295   4.918   2.363
 4801TIP3   OH214279  -0.200   4.540   4.255
 4801TIP3    H114280  -0.211   4.466   4.194
 4801TIP3    H214281  -0.229   4.618   4.203
 4802TIP3   OH214282  -0.216   4.319   4.035
 4802TIP3    H114283  -0.177   4.374   3.964
 4802TIP3    H214284  -0.309   4.346   4.031
 4803TIP3   OH214285  -0.180   4.892   3.874
 4803TIP3    H114286  -0.088   4.881   3.847
 4803TIP3    H214287  -0.190   4.988   3.864
 4804TIP3   OH214288   0.402   4.843   4.302
 4804TIP3    H114289   0.456   4.765   4.321
 4804TIP3    H214290   0.469   4.907   4.273
 4805TIP3   OH214291   0.444   5.092   4.034
 4805TIP3    H114292   0.385   5.147   3.977
 4805TIP3    H214293   0.531   5.115   3.995
 4806TIP3   OH214294  -0.074   4.095   4.110
 4806TIP3    H114295  -0.117   4.180   4.086
 4806TIP3    H214296  -0.151   4.035   4.107
 4807TIP3   OH214297   0.055   4.610   4.333
 4807TIP3    H114298   0.050   4.604   4.430
 4807TIP3    H214299  -0.036   4.583   4.310
 4808TIP3   OH214300   0.287   4.547   4.183
 4808TIP3    H114301   0.215   4.560   4.247
 4808TIP3    H214302   0.362   4.525   4.242
 4809TIP3   OH214303   0.510   4.494   4.337
 4809TIP3    H114304   0.529   4.401   4.361
 4809TIP3    H214305   0.511   4.539   4.424
 4810TIP3   OH214306   0.020   4.116   4.369
 4810TIP3    H114307   0.090   4.048   4.368
 4810TIP3    H214308  -0.019   4.106   4.280
 4811TIP3   OH214309   0.084   4.328   4.532
 4811TIP3    H114310   0.058   4.259   4.467
 4811TIP3    H214311   0.010   4.392   4.525
 4812TIP3   OH214312   0.566   5.798   3.248
 4812TIP3    H114313   0.586   5.834   3.336
 4812TIP3    H214314   0.616   5.858   3.190
 4813TIP3   OH214315   0.593   5.822   3.528
 4813TIP3    H114316   0.551   5.734   3.526
 4813TIP3    H214317   0.667   5.804   3.588
 4814TIP3   OH214318   0.639   5.500   4.102
 4814TIP3    H114319   0.565   5.509   4.166
 4814TIP3    H214320   0.680   5.589   4.106
 4815TIP3   OH214321   0.453   5.015   2.724
 4815TIP3    H114322   0.522   5.078   2.694
 4815TIP3    H214323   0.497   4.975   2.802
 4816TIP3   OH214324   0.582   4.881   2.925
 4816TIP3    H114325   0.518   4.841   2.987
 4816TIP3    H214326   0.648   4.921   2.986
 4817TIP3   OH214327   0.635   5.271   3.360
 4817TIP3    H114328   0.689   5.211   3.305
 4817TIP3    H214329   0.624   5.348   3.301
 4818TIP3   OH214330   0.468   5.571   3.556
 4818TIP3    H114331   0.398   5.617   3.607
 4818TIP3    H214332   0.416   5.526   3.487
 4819TIP3   OH214333   0.518   4.786   2.576
 4819TIP3    H114334   0.447   4.792   2.507
 4819TIP3    H214335   0.495   4.865   2.629
 4820TIP3   OH214336   0.388   4.461   2.535
 4820TIP3    H114337   0.357   4.508   2.456
 4820TIP3    H214338   0.361   4.369   2.515
 4821TIP3   OH214339   0.395   4.737   3.074
 4821TIP3    H114340   0.409   4.641   3.072
 4821TIP3    H214341   0.384   4.755   3.170
 4822TIP3   OH214342   0.685   5.161   3.929
 4822TIP3    H114343   0.760   5.098   3.921
 4822TIP3    H214344   0.713   5.234   3.871
 4823TIP3   OH214345   0.871   4.969   3.948
 4823TIP3    H114346   0.799   4.918   3.990
 4823TIP3    H214347   0.946   4.906   3.961
 4824TIP3   OH214348   0.337   4.193   2.513
 4824TIP3    H114349   0.415   4.168   2.567
 4824TIP3    H214350   0.266   4.135   2.544
 4825TIP3   OH214351   0.391   4.452   2.970
 4825TIP3    H114352   0.435   4.365   2.984
 4825TIP3    H214353   0.449   4.489   2.901
 4826TIP3   OH214354   0.555   4.629   3.464
 4826TIP3    H114355   0.641   4.655   3.423
 4826TIP3    H214356   0.568   4.667   3.553
 4827TIP3   OH214357   0.620   4.771   3.697
 4827TIP3    H114358   0.543   4.808   3.746
 4827TIP3    H214359   0.654   4.851   3.651
 4828TIP3   OH214360   1.069   4.355   4.252
 4828TIP3    H114361   1.132   4.293   4.209
 4828TIP3    H214362   1.047   4.417   4.180
 4829TIP3   OH214363   0.501   4.203   3.008
 4829TIP3    H114364   0.553   4.188   3.090
 4829TIP3    H214365   0.444   4.124   3.007
 4830TIP3   OH214366   0.948   4.505   4.061
 4830TIP3    H114367   0.862   4.543   4.088
 4830TIP3    H214368   0.918   4.434   4.001
 4831TIP3   OH214369   0.584   4.140   2.638
 4831TIP3    H114370   0.627   4.068   2.588
 4831TIP3    H214371   0.650   4.212   2.633
 4832TIP3   OH214372   0.152   5.658   2.902
 4832TIP3    H114373   0.210   5.652   2.823
 4832TIP3    H214374   0.187   5.735   2.948
 4833TIP3   OH214375  -0.094   5.725   3.987
 4833TIP3    H114376  -0.086   5.767   4.074
 4833TIP3    H214377  -0.053   5.792   3.929
 4834TIP3   OH214378   0.050   5.907   3.838
 4834TIP3    H114379   0.116   5.853   3.794
 4834TIP3    H214380   0.106   5.960   3.899
 4835TIP3   OH214381   0.845   4.267   3.937
 4835TIP3    H114382   0.755   4.268   3.900
 4835TIP3    H214383   0.874   4.174   3.922
 4836TIP3   OH214384  -0.222   5.782   3.494
 4836TIP3    H114385  -0.287   5.806   3.426
 4836TIP3    H214386  -0.208   5.869   3.537
 4837TIP3   OH214387   0.036   5.712   3.566
 4837TIP3    H114388  -0.059   5.727   3.546
 4837TIP3    H214389   0.074   5.793   3.529
 4838TIP3   OH214390   0.248   5.905   3.486
 4838TIP3    H114391   0.229   5.989   3.439
 4838TIP3    H214392   0.267   5.844   3.411
 4839TIP3   OH214393   0.046   4.178   3.546
 4839TIP3    H114394   0.009   4.109   3.604
 4839TIP3    H214395   0.126   4.133   3.509
 4840TIP3   OH214396   0.572   4.055   3.458
 4840TIP3    H114397   0.614   4.108   3.388
 4840TIP3    H214398   0.481   4.088   3.456
 4841TIP3   OH214399   0.668   4.160   3.225
 4841TIP3    H114400   0.741   4.109   3.184
 4841TIP3    H214401   0.702   4.252   3.210
 4842TIP3   OH214402  -0.258   3.932   3.422
 4842TIP3    H114403  -0.182   3.983   3.390
 4842TIP3    H214404  -0.251   3.953   3.517
 4843TIP3   OH214405   0.281   4.065   3.439
 4843TIP3    H114406   0.298   4.035   3.349
 4843TIP3    H214407   0.272   3.980   3.489
 4844TIP3   OH214408   0.318   3.988   2.996
 4844TIP3    H114409   0.233   4.034   3.005
 4844TIP3    H214410   0.301   3.906   3.047
 4845TIP3   OH214411  -0.249   4.093   3.091
 4845TIP3    H114412  -0.169   4.082   3.148
 4845TIP3    H214413  -0.253   4.191   3.098
 4846TIP3   OH214414  -0.416   5.517   2.606
 4846TIP3    H114415  -0.327   5.528   2.565
 4846TIP3    H214416  -0.460   5.470   2.532
 4847TIP3   OH214417   0.299   5.637   2.668
 4847TIP3    H114418   0.285   5.539   2.658
 4847TIP3    H214419   0.248   5.670   2.591
 4848TIP3   OH214420  -0.249   4.142   4.566
 4848TIP3    H114421  -0.159   4.131   4.533
 4848TIP3    H214422  -0.245   4.093   4.649
 4849TIP3   OH214423   0.578   4.224   4.370
 4849TIP3    H114424   0.599   4.196   4.461
 4849TIP3    H214425   0.667   4.225   4.328
 4850TIP3   OH214426   0.521   5.781   3.860
 4850TIP3    H114427   0.441   5.748   3.814
 4850TIP3    H214428   0.501   5.877   3.863
 4851TIP3   OH214429   1.785   5.151   2.630
 4851TIP3    H114430   1.758   5.243   2.611
 4851TIP3    H214431   1.708   5.103   2.595
 4852TIP3   OH214432   1.783   5.153   3.007
 4852TIP3    H114433   1.813   5.121   3.094
 4852TIP3    H214434   1.742   5.073   2.970
 4853TIP3   OH214435   1.085   5.049   3.373
 4853TIP3    H114436   1.117   4.983   3.438
 4853TIP3    H214437   1.161   5.108   3.369
 4854TIP3   OH214438   2.025   5.454   2.689
 4854TIP3    H114439   2.015   5.384   2.755
 4854TIP3    H214440   2.055   5.529   2.744
 4855TIP3   OH214441   1.054   5.456   3.098
 4855TIP3    H114442   1.044   5.359   3.102
 4855TIP3    H214443   1.151   5.465   3.097
 4856TIP3   OH214444   0.760   4.659   2.888
 4856TIP3    H114445   0.715   4.745   2.900
 4856TIP3    H214446   0.689   4.608   2.845
 4857TIP3   OH214447   0.821   4.947   3.052
 4857TIP3    H114448   0.871   4.873   3.092
 4857TIP3    H214449   0.882   4.978   2.984
 4858TIP3   OH214450   1.673   5.916   2.704
 4858TIP3    H114451   1.722   5.844   2.658
 4858TIP3    H214452   1.670   5.882   2.795
 4859TIP3   OH214453   1.583   5.377   3.056
 4859TIP3    H114454   1.621   5.301   3.009
 4859TIP3    H214455   1.667   5.422   3.080
 4860TIP3   OH214456   2.595   4.699   3.054
 4860TIP3    H114457   2.624   4.782   3.096
 4860TIP3    H214458   2.618   4.716   2.961
 4861TIP3   OH214459   1.994   4.880   3.092
 4861TIP3    H114460   2.038   4.795   3.111
 4861TIP3    H214461   1.965   4.866   2.999
 4862TIP3   OH214462   1.330   4.539   3.056
 4862TIP3    H114463   1.312   4.612   2.994
 4862TIP3    H214464   1.283   4.466   3.011
 4863TIP3   OH214465   2.025   4.630   2.679
 4863TIP3    H114466   2.099   4.614   2.743
 4863TIP3    H214467   2.076   4.665   2.604
 4864TIP3   OH214468   0.966   4.741   3.163
 4864TIP3    H114469   1.049   4.723   3.209
 4864TIP3    H214470   0.979   4.687   3.082
 4865TIP3   OH214471   1.408   4.940   2.952
 4865TIP3    H114472   1.502   4.914   2.967
 4865TIP3    H214473   1.369   4.856   2.921
 4866TIP3   OH214474   2.669   4.906   3.224
 4866TIP3    H114475   2.586   4.953   3.203
 4866TIP3    H214476   2.676   4.924   3.319
 4867TIP3   OH214477   1.329   4.521   3.489
 4867TIP3    H114478   1.270   4.560   3.422
 4867TIP3    H214479   1.278   4.541   3.570
 4868TIP3   OH214480   1.677   5.372   2.501
 4868TIP3    H114481   1.637   5.349   2.416
 4868TIP3    H214482   1.635   5.458   2.520
 4869TIP3   OH214483   1.436   5.297   3.287
 4869TIP3    H114484   1.372   5.361   3.325
 4869TIP3    H214485   1.478   5.350   3.216
 4870TIP3   OH214486   2.238   4.631   2.848
 4870TIP3    H114487   2.233   4.581   2.930
 4870TIP3    H214488   2.294   4.707   2.873
 4871TIP3   OH214489   1.199   4.637   3.275
 4871TIP3    H114490   1.261   4.711   3.297
 4871TIP3    H214491   1.248   4.597   3.200
 4872TIP3   OH214492   1.262   5.489   3.380
 4872TIP3    H114493   1.237   5.576   3.343
 4872TIP3    H214494   1.184   5.475   3.439
 4873TIP3   OH214495   0.659   5.179   2.620
 4873TIP3    H114496   0.622   5.198   2.532
 4873TIP3    H214497   0.688   5.266   2.651
 4874TIP3   OH214498   2.099   5.696   2.860
 4874TIP3    H114499   2.009   5.688   2.898
 4874TIP3    H214500   2.092   5.781   2.814
 4875TIP3   OH214501   2.389   4.600   3.221
 4875TIP3    H114502   2.301   4.629   3.192
 4875TIP3    H214503   2.447   4.630   3.148
 4876TIP3   OH214504   1.688   4.244   3.201
 4876TIP3    H114505   1.676   4.148   3.219
 4876TIP3    H214506   1.610   4.280   3.248
 4877TIP3   OH214507   1.802   5.745   2.534
 4877TIP3    H114508   1.851   5.662   2.512
 4877TIP3    H214509   1.861   5.810   2.491
 4878TIP3   OH214510   1.941   5.530   2.437
 4878TIP3    H114511   1.912   5.449   2.393
 4878TIP3    H214512   1.977   5.494   2.522
 4879TIP3   OH214513   2.324   5.611   3.202
 4879TIP3    H114514   2.315   5.533   3.142
 4879TIP3    H214515   2.308   5.685   3.140
 4880TIP3   OH214516   1.616   5.005   2.457
 4880TIP3    H114517   1.535   5.055   2.434
 4880TIP3    H214518   1.663   5.001   2.373
 4881TIP3   OH214519   1.575   4.788   2.178
 4881TIP3    H114520   1.644   4.837   2.225
 4881TIP3    H214521   1.630   4.724   2.129
 4882TIP3   OH214522   2.521   5.247   3.046
 4882TIP3    H114523   2.438   5.300   3.051
 4882TIP3    H214524   2.550   5.268   2.955
 4883TIP3   OH214525   1.962   5.086   2.431
 4883TIP3    H114526   1.909   5.111   2.510
 4883TIP3    H214527   2.046   5.060   2.474
 4884TIP3   OH214528   2.199   5.128   3.340
 4884TIP3    H114529   2.194   5.212   3.389
 4884TIP3    H214530   2.112   5.130   3.294
 4885TIP3   OH214531   1.196   5.085   2.847
 4885TIP3    H114532   1.154   5.027   2.780
 4885TIP3    H214533   1.273   5.032   2.874
 4886TIP3   OH214534   1.327   5.498   2.994
 4886TIP3    H114535   1.306   5.449   2.914
 4886TIP3    H214536   1.417   5.465   3.014
 4887TIP3   OH214537   1.334   5.055   3.200
 4887TIP3    H114538   1.367   5.037   3.110
 4887TIP3    H214539   1.376   5.141   3.222
 4888TIP3   OH214540   1.856   5.694   2.977
 4888TIP3    H114541   1.843   5.773   3.032
 4888TIP3    H214542   1.843   5.620   3.041
 4889TIP3   OH214543   1.469   5.612   3.524
 4889TIP3    H114544   1.410   5.675   3.572
 4889TIP3    H214545   1.402   5.559   3.477
 4890TIP3   OH214546   1.804   4.944   2.257
 4890TIP3    H114547   1.864   5.003   2.309
 4890TIP3    H214548   1.831   4.970   2.165
 4891TIP3   OH214549   1.223   5.171   3.623
 4891TIP3    H114550   1.228   5.256   3.670
 4891TIP3    H214551   1.127   5.152   3.633
 4892TIP3   OH214552   1.545   5.627   2.530
 4892TIP3    H114553   1.625   5.679   2.553
 4892TIP3    H214554   1.485   5.695   2.498
 4893TIP3   OH214555   1.264   5.781   3.612
 4893TIP3    H114556   1.228   5.778   3.521
 4893TIP3    H214557   1.186   5.760   3.666
 4894TIP3   OH214558   2.320   4.187   2.304
 4894TIP3    H114559   2.239   4.206   2.355
 4894TIP3    H214560   2.332   4.270   2.254
 4895TIP3   OH214561   1.061   4.926   2.654
 4895TIP3    H114562   0.998   4.974   2.596
 4895TIP3    H214563   1.017   4.841   2.662
 4896TIP3   OH214564   2.118   5.554   1.853
 4896TIP3    H114565   2.127   5.650   1.838
 4896TIP3    H214566   2.211   5.524   1.840
 4897TIP3   OH214567   0.843   5.311   3.559
 4897TIP3    H114568   0.779   5.288   3.489
 4897TIP3    H214569   0.880   5.224   3.585
 4898TIP3   OH214570   0.697   5.503   3.194
 4898TIP3    H114571   0.793   5.503   3.186
 4898TIP3    H214572   0.681   5.584   3.244
 4899TIP3   OH214573   2.567   5.955   3.256
 4899TIP3    H114574   2.563   5.858   3.260
 4899TIP3    H214575   2.479   5.978   3.293
 4900TIP3   OH214576   1.668   5.742   3.381
 4900TIP3    H114577   1.668   5.834   3.414
 4900TIP3    H214578   1.597   5.703   3.437
 4901TIP3   OH214579   1.418   5.869   2.332
 4901TIP3    H114580   1.381   5.853   2.243
 4901TIP3    H214581   1.394   5.961   2.351
 4902TIP3   OH214582   0.867   5.721   2.716
 4902TIP3    H114583   0.914   5.711   2.802
 4902TIP3    H214584   0.806   5.645   2.722
 4903TIP3   OH214585   1.625   5.768   1.977
 4903TIP3    H114586   1.686   5.700   1.939
 4903TIP3    H214587   1.663   5.778   2.067
 4904TIP3   OH214588   1.676   5.821   2.248
 4904TIP3    H114589   1.590   5.824   2.294
 4904TIP3    H214590   1.733   5.779   2.314
 4905TIP3   OH214591   2.458   5.092   3.515
 4905TIP3    H114592   2.374   5.104   3.469
 4905TIP3    H214593   2.470   4.995   3.509
 4906TIP3   OH214594   1.049   5.493   3.549
 4906TIP3    H114595   1.098   5.478   3.632
 4906TIP3    H214596   0.975   5.430   3.558
 4907TIP3   OH214597   1.448   4.317   3.330
 4907TIP3    H114598   1.357   4.288   3.306
 4907TIP3    H214599   1.425   4.401   3.374
 4908TIP3   OH214600   1.981   4.433   3.525
 4908TIP3    H114601   2.049   4.407   3.590
 4908TIP3    H214602   1.897   4.413   3.571
 4909TIP3   OH214603   2.223   4.863   3.445
 4909TIP3    H114604   2.174   4.858   3.530
 4909TIP3    H214605   2.196   4.950   3.410
 4910TIP3   OH214606   1.880   4.995   2.001
 4910TIP3    H114607   1.848   4.967   1.913
 4910TIP3    H214608   1.961   5.043   1.976
 4911TIP3   OH214609   1.592   4.368   2.301
 4911TIP3    H114610   1.561   4.366   2.394
 4911TIP3    H214611   1.556   4.284   2.269
 4912TIP3   OH214612   1.378   4.832   3.349
 4912TIP3    H114613   1.329   4.855   3.431
 4912TIP3    H214614   1.363   4.913   3.295
 4913TIP3   OH214615   1.264   4.718   2.864
 4913TIP3    H114616   1.170   4.694   2.880
 4913TIP3    H214617   1.278   4.679   2.775
 4914TIP3   OH214618   1.753   4.805   2.590
 4914TIP3    H114619   1.700   4.877   2.549
 4914TIP3    H214620   1.808   4.777   2.514
 4915TIP3   OH214621   1.928   5.085   3.678
 4915TIP3    H114622   1.905   5.012   3.740
 4915TIP3    H214623   2.021   5.099   3.701
 4916TIP3   OH214624   1.911   4.835   2.831
 4916TIP3    H114625   1.853   4.866   2.759
 4916TIP3    H214626   1.944   4.753   2.789
 4917TIP3   OH214627   1.197   4.863   3.560
 4917TIP3    H114628   1.225   4.927   3.627
 4917TIP3    H214629   1.188   4.781   3.612
 4918TIP3   OH214630   1.247   4.338   2.269
 4918TIP3    H114631   1.241   4.337   2.366
 4918TIP3    H214632   1.169   4.392   2.246
 4919TIP3   OH214633   0.791   4.383   3.141
 4919TIP3    H114634   0.865   4.418   3.195
 4919TIP3    H214635   0.834   4.356   3.059
 4920TIP3   OH214636   0.766   4.366   2.659
 4920TIP3    H114637   0.810   4.405   2.580
 4920TIP3    H214638   0.706   4.440   2.681
 4921TIP3   OH214639   1.922   5.082   3.255
 4921TIP3    H114640   1.954   5.009   3.197
 4921TIP3    H214641   1.894   5.030   3.333
 4922TIP3   OH214642   1.588   4.542   2.926
 4922TIP3    H114643   1.506   4.540   2.980
 4922TIP3    H214644   1.657   4.543   2.995
 4923TIP3   OH214645   1.024   4.596   2.935
 4923TIP3    H114646   0.930   4.603   2.908
 4923TIP3    H214647   1.049   4.506   2.909
 4924TIP3   OH214648   1.296   4.593   2.622
 4924TIP3    H114649   1.390   4.609   2.601
 4924TIP3    H214650   1.250   4.618   2.538
 4925TIP3   OH214651   2.083   4.617   3.127
 4925TIP3    H114652   2.047   4.629   3.218
 4925TIP3    H214653   2.018   4.556   3.089
 4926TIP3   OH214654   1.134   4.625   2.401
 4926TIP3    H114655   1.061   4.583   2.352
 4926TIP3    H214656   1.186   4.662   2.327
 4927TIP3   OH214657   2.252   6.304   3.345
 4927TIP3    H114658   2.248   6.329   3.251
 4927TIP3    H214659   2.328   6.357   3.376
 4928TIP3   OH214660   1.210   5.415   3.769
 4928TIP3    H114661   1.289   5.446   3.816
 4928TIP3    H214662   1.145   5.416   3.841
 4929TIP3   OH214663   1.674   4.868   3.022
 4929TIP3    H114664   1.747   4.830   2.970
 4929TIP3    H214665   1.687   4.828   3.110
 4930TIP3   OH214666   1.197   4.359   2.898
 4930TIP3    H114667   1.168   4.277   2.942
 4930TIP3    H214668   1.252   4.326   2.826
 4931TIP3   OH214669   1.650   4.763   3.316
 4931TIP3    H114670   1.561   4.802   3.327
 4931TIP3    H214671   1.708   4.824   3.365
 4932TIP3   OH214672   1.386   5.159   2.406
 4932TIP3    H114673   1.315   5.092   2.397
 4932TIP3    H214674   1.370   5.191   2.499
 4933TIP3   OH214675   2.289   5.393   3.038
 4933TIP3    H114676   2.314   5.441   2.956
 4933TIP3    H214677   2.203   5.353   3.014
 4934TIP3   OH214678   1.846   4.470   2.270
 4934TIP3    H114679   1.749   4.456   2.275
 4934TIP3    H214680   1.857   4.565   2.291
 4935TIP3   OH214681   1.788   5.475   3.405
 4935TIP3    H114682   1.806   5.452   3.497
 4935TIP3    H214683   1.748   5.563   3.412
 4936TIP3   OH214684   1.916   4.716   2.372
 4936TIP3    H114685   2.012   4.722   2.387
 4936TIP3    H214686   1.898   4.796   2.317
 4937TIP3   OH214687   1.077   5.176   3.085
 4937TIP3    H114688   1.117   5.150   3.000
 4937TIP3    H214689   1.119   5.114   3.147
 4938TIP3   OH214690   1.533   5.305   2.226
 4938TIP3    H114691   1.487   5.392   2.236
 4938TIP3    H214692   1.479   5.249   2.287
 4939TIP3   OH214693   0.959   5.100   3.696
 4939TIP3    H114694   0.984   5.089   3.791
 4939TIP3    H214695   0.890   5.032   3.686
 4940TIP3   OH214696   1.684   5.213   3.716
 4940TIP3    H114697   1.627   5.154   3.665
 4940TIP3    H214698   1.773   5.181   3.689
 4941TIP3   OH214699   1.948   5.734   3.298
 4941TIP3    H114700   1.851   5.733   3.311
 4941TIP3    H214701   1.975   5.785   3.377
 4942TIP3   OH214702   2.359   4.805   2.207
 4942TIP3    H114703   2.295   4.760   2.147
 4942TIP3    H214704   2.354   4.895   2.167
 4943TIP3   OH214705   2.572   5.670   3.289
 4943TIP3    H114706   2.475   5.660   3.277
 4943TIP3    H214707   2.604   5.636   3.203
 4944TIP3   OH214708   2.050   5.626   2.115
 4944TIP3    H114709   2.038   5.553   2.177
 4944TIP3    H214710   2.070   5.580   2.031
 4945TIP3   OH214711   2.053   5.255   2.959
 4945TIP3    H114712   1.960   5.229   2.970
 4945TIP3    H214713   2.088   5.176   2.913
 4946TIP3   OH214714   1.178   5.480   2.706
 4946TIP3    H114715   1.181   5.563   2.656
 4946TIP3    H214716   1.083   5.468   2.718
 4947TIP3   OH214717   0.746   4.785   2.410
 4947TIP3    H114718   0.789   4.871   2.423
 4947TIP3    H214719   0.665   4.795   2.464
 4948TIP3   OH214720   1.322   5.249   2.655
 4948TIP3    H114721   1.285   5.338   2.672
 4948TIP3    H214722   1.284   5.198   2.729
 4949TIP3   OH214723   1.448   5.827   3.178
 4949TIP3    H114724   1.489   5.899   3.128
 4949TIP3    H214725   1.525   5.793   3.228
 4950TIP3   OH214726   1.096   5.723   2.558
 4950TIP3    H114727   1.012   5.727   2.608
 4950TIP3    H214728   1.128   5.815   2.566
 4951TIP3   OH214729   1.839   5.461   3.136
 4951TIP3    H114730   1.831   5.459   3.234
 4951TIP3    H214731   1.919   5.408   3.122
 4952TIP3   OH214732   1.809   5.352   2.020
 4952TIP3    H114733   1.864   5.329   2.098
 4952TIP3    H214734   1.722   5.325   2.052
 4953TIP3   OH214735   2.088   5.996   3.188
 4953TIP3    H114736   2.009   5.938   3.180
 4953TIP3    H214737   2.072   6.060   3.116
 4954TIP3   OH214738   2.151   5.829   1.839
 4954TIP3    H114739   2.192   5.900   1.786
 4954TIP3    H214740   2.072   5.876   1.870
 4955TIP3   OH214741   1.174   4.603   3.707
 4955TIP3    H114742   1.079   4.611   3.726
 4955TIP3    H214743   1.205   4.546   3.779
 4956TIP3   OH214744   1.970   5.290   2.238
 4956TIP3    H114745   1.961   5.221   2.307
 4956TIP3    H214746   2.067   5.286   2.223
 4957TIP3   OH214747   0.890   5.690   3.336
 4957TIP3    H114748   0.941   5.615   3.371
 4957TIP3    H214749   0.913   5.759   3.400
 4958TIP3   OH214750   1.172   5.336   2.020
 4958TIP3    H114751   1.190   5.246   1.987
 4958TIP3    H214752   1.156   5.318   2.115
 4959TIP3   OH214753   1.122   5.342   2.295
 4959TIP3    H114754   1.193   5.306   2.350
 4959TIP3    H214755   1.136   5.439   2.304
 4960TIP3   OH214756   0.864   5.035   2.494
 4960TIP3    H114757   0.795   5.079   2.549
 4960TIP3    H214758   0.875   5.102   2.424
 4961TIP3   OH214759   2.007   4.669   3.385
 4961TIP3    H114760   2.086   4.707   3.426
 4961TIP3    H214761   1.992   4.589   3.439
 4962TIP3   OH214762   1.885   4.423   2.549
 4962TIP3    H114763   1.873   4.446   2.455
 4962TIP3    H214764   1.926   4.505   2.585
 4963TIP3   OH214765   1.392   5.535   2.240
 4963TIP3    H114766   1.308   5.568   2.278
 4963TIP3    H214767   1.410   5.602   2.173
 4964TIP3   OH214768   1.578   4.599   2.652
 4964TIP3    H114769   1.644   4.670   2.633
 4964TIP3    H214770   1.584   4.593   2.750
 4965TIP3   OH214771   1.846   4.919   3.462
 4965TIP3    H114772   1.865   4.974   3.541
 4965TIP3    H214773   1.903   4.842   3.477
 4966TIP3   OH214774   1.724   4.330   2.756
 4966TIP3    H114775   1.717   4.406   2.817
 4966TIP3    H214776   1.783   4.366   2.687
 4967TIP3   OH214777   1.138   5.616   2.310
 4967TIP3    H114778   1.098   5.685   2.257
 4967TIP3    H214779   1.123   5.650   2.402
 4968TIP3   OH214780   1.233   4.324   2.546
 4968TIP3    H114781   1.231   4.416   2.580
 4968TIP3    H214782   1.329   4.306   2.554
 4969TIP3   OH214783   2.490   4.820   3.439
 4969TIP3    H114784   2.392   4.819   3.449
 4969TIP3    H214785   2.497   4.779   3.352
 4970TIP3   OH214786   2.138   5.015   2.831
 4970TIP3    H114787   2.063   4.953   2.842
 4970TIP3    H214788   2.211   4.967   2.878
 4971TIP3   OH214789   0.850   5.251   2.299
 4971TIP3    H114790   0.927   5.310   2.309
 4971TIP3    H214791   0.890   5.188   2.235
 4972TIP3   OH214792   0.795   4.517   2.433
 4972TIP3    H114793   0.797   4.615   2.427
 4972TIP3    H214794   0.716   4.498   2.382
 4973TIP3   OH214795   2.106   5.968   2.780
 4973TIP3    H114796   2.064   6.015   2.705
 4973TIP3    H214797   2.201   5.987   2.760
 4974TIP3   OH214798   1.182   4.238   3.309
 4974TIP3    H114799   1.151   4.206   3.221
 4974TIP3    H214800   1.171   4.159   3.365
 4975TIP3   OH214801   0.725   5.459   2.689
 4975TIP3    H114802   0.650   5.489   2.743
 4975TIP3    H214803   0.701   5.496   2.601
 4976TIP3   OH214804   0.878   5.995   3.757
 4976TIP3    H114805   0.963   5.995   3.806
 4976TIP3    H214806   0.856   5.900   3.758
 4977TIP3   OH214807   1.362   5.966   3.801
 4977TIP3    H114808   1.456   5.944   3.812
 4977TIP3    H214809   1.338   5.907   3.727
 4978TIP3   OH214810   1.341   5.539   1.936
 4978TIP3    H114811   1.288   5.465   1.972
 4978TIP3    H214812   1.418   5.491   1.901
 4979TIP3   OH214813   2.002   5.866   3.533
 4979TIP3    H114814   1.990   5.798   3.603
 4979TIP3    H214815   2.075   5.920   3.568
 4980TIP3   OH214816   1.777   5.582   1.842
 4980TIP3    H114817   1.826   5.521   1.900
 4980TIP3    H214818   1.833   5.583   1.761
 4981TIP3   OH214819   1.009   5.403   3.958
 4981TIP3    H114820   1.025   5.308   3.964
 4981TIP3    H214821   0.921   5.406   3.916
 4982TIP3   OH214822   0.998   5.073   2.162
 4982TIP3    H114823   1.049   5.021   2.226
 4982TIP3    H214824   1.055   5.065   2.083
 4983TIP3   OH214825   1.620   5.488   3.731
 4983TIP3    H114826   1.575   5.502   3.645
 4983TIP3    H214827   1.649   5.395   3.726
 4984TIP3   OH214828   1.488   5.252   1.958
 4984TIP3    H114829   1.496   5.265   2.055
 4984TIP3    H214830   1.491   5.154   1.953
 4985TIP3   OH214831   2.110   5.494   3.339
 4985TIP3    H114832   2.182   5.541   3.292
 4985TIP3    H214833   2.037   5.557   3.327
 4986TIP3   OH214834   1.127   5.132   3.940
 4986TIP3    H114835   1.205   5.077   3.924
 4986TIP3    H214836   1.149   5.169   4.028
 4987TIP3   OH214837   1.200   4.956   2.378
 4987TIP3    H114838   1.169   4.914   2.459
 4987TIP3    H214839   1.233   4.880   2.325
 4988TIP3   OH214840   1.461   5.020   3.600
 4988TIP3    H114841   1.386   5.083   3.607
 4988TIP3    H214842   1.510   5.055   3.522
 4989TIP3   OH214843   1.294   4.749   2.216
 4989TIP3    H114844   1.267   4.751   2.122
 4989TIP3    H214845   1.391   4.758   2.208
 4990TIP3   OH214846   1.978   5.424   3.737
 4990TIP3    H114847   2.059   5.401   3.689
 4990TIP3    H214848   1.977   5.358   3.808
 4991TIP3   OH214849   2.117   5.084   1.876
 4991TIP3    H114850   2.095   5.037   1.793
 4991TIP3    H214851   2.087   5.175   1.851
 4992TIP3   OH214852   1.585   4.809   3.730
 4992TIP3    H114853   1.586   4.729   3.674
 4992TIP3    H214854   1.542   4.875   3.671
 4993TIP3   OH214855   1.588   4.594   3.535
 4993TIP3    H114856   1.616   4.638   3.452
 4993TIP3    H214857   1.494   4.573   3.516
 4994TIP3   OH214858   1.618   5.133   3.408
 4994TIP3    H114859   1.700   5.140   3.357
 4994TIP3    H214860   1.562   5.201   3.365
 4995TIP3   OH214861   2.198   5.100   3.789
 4995TIP3    H114862   2.246   5.018   3.807
 4995TIP3    H214863   2.269   5.158   3.759
 4996TIP3   OH214864   2.242   5.354   3.527
 4996TIP3    H114865   2.182   5.406   3.468
 4996TIP3    H214866   2.328   5.373   3.484
 4997TIP3   OH214867   1.461   4.926   3.955
 4997TIP3    H114868   1.392   4.858   3.971
 4997TIP3    H214869   1.498   4.897   3.870
 4998TIP3   OH214870   1.721   4.361   3.601
 4998TIP3    H114871   1.673   4.444   3.579
 4998TIP3    H214872   1.651   4.294   3.589
 4999TIP3   OH214873   1.847   4.867   3.818
 4999TIP3    H114874   1.839   4.857   3.915
 4999TIP3    H214875   1.756   4.841   3.792
 5000TIP3   OH214876   2.086   4.812   3.672
 5000TIP3    H114877   2.010   4.816   3.734
 5000TIP3    H214878   2.159   4.782   3.731
 5001TIP3   OH214879   2.319   4.754   3.823
 5001TIP3    H114880   2.329   4.659   3.845
 5001TIP3    H214881   2.312   4.796   3.911
 5002TIP3   OH214882   1.301   4.705   4.010
 5002TIP3    H114883   1.314   4.614   3.976
 5002TIP3    H214884   1.337   4.695   4.100
 5003TIP3   OH214885   1.815   4.370   3.858
 5003TIP3    H114886   1.884   4.301   3.853
 5003TIP3    H214887   1.776   4.363   3.769
 5004TIP3   OH214888   1.881   4.586   4.018
 5004TIP3    H114889   1.857   4.515   3.954
 5004TIP3    H214890   1.803   4.646   4.012
 5005TIP3   OH214891   0.583   5.193   2.349
 5005TIP3    H114892   0.675   5.217   2.325
 5005TIP3    H214893   0.567   5.122   2.282
 5006TIP3   OH214894   0.501   5.808   2.744
 5006TIP3    H114895   0.430   5.748   2.713
 5006TIP3    H214896   0.541   5.753   2.814
 5007TIP3   OH214897   0.633   5.664   2.935
 5007TIP3    H114898   0.618   5.589   2.995
 5007TIP3    H214899   0.682   5.724   2.994
 5008TIP3   OH214900   2.356   6.064   2.734
 5008TIP3    H114901   2.386   6.098   2.820
 5008TIP3    H214902   2.420   6.104   2.673
 5009TIP3   OH214903   2.387   6.082   3.017
 5009TIP3    H114904   2.346   5.994   3.012
 5009TIP3    H214905   2.466   6.061   3.068
 5010TIP3   OH214906   2.436   5.758   3.598
 5010TIP3    H114907   2.358   5.766   3.656
 5010TIP3    H214908   2.469   5.850   3.595
 5011TIP3   OH214909   2.248   5.270   2.211
 5011TIP3    H114910   2.316   5.335   2.182
 5011TIP3    H214911   2.293   5.230   2.289
 5012TIP3   OH214912   2.379   5.139   2.412
 5012TIP3    H114913   2.317   5.097   2.475
 5012TIP3    H214914   2.448   5.177   2.469
 5013TIP3   OH214915   2.432   5.527   2.846
 5013TIP3    H114916   2.485   5.464   2.794
 5013TIP3    H214917   2.424   5.603   2.785
 5014TIP3   OH214918   2.266   5.830   3.043
 5014TIP3    H114919   2.194   5.872   3.093
 5014TIP3    H214920   2.216   5.781   2.973
 5015TIP3   OH214921   2.315   5.043   2.063
 5015TIP3    H114922   2.244   5.049   1.995
 5015TIP3    H214923   2.293   5.121   2.118
 5016TIP3   OH214924   2.188   4.718   2.016
 5016TIP3    H114925   2.147   4.759   1.940
 5016TIP3    H214926   2.161   4.625   2.005
 5017TIP3   OH214927   2.191   4.993   2.561
 5017TIP3    H114928   2.203   4.897   2.558
 5017TIP3    H214929   2.180   5.009   2.658
 5018TIP3   OH214930   0.821   5.065   3.307
 5018TIP3    H114931   0.819   5.039   3.213
 5018TIP3    H214932   0.918   5.068   3.324
 5019TIP3   OH214933   2.485   5.419   3.418
 5019TIP3    H114934   2.559   5.356   3.406
 5019TIP3    H214935   2.509   5.491   3.358
 5020TIP3   OH214936   2.682   5.233   3.450
 5020TIP3    H114937   2.599   5.187   3.478
 5020TIP3    H214938   2.743   5.156   3.455
 5021TIP3   OH214939   2.132   4.453   2.003
 5021TIP3    H114940   2.207   4.422   2.057
 5021TIP3    H214941   2.059   4.393   2.028
 5022TIP3   OH214942   2.188   4.709   2.457
 5022TIP3    H114943   2.230   4.621   2.472
 5022TIP3    H214944   2.247   4.744   2.388
 5023TIP3   OH214945   2.352   4.886   2.951
 5023TIP3    H114946   2.438   4.912   2.910
 5023TIP3    H214947   2.365   4.922   3.040
 5024TIP3   OH214948   2.419   5.028   3.185
 5024TIP3    H114949   2.341   5.062   3.232
 5024TIP3    H214950   2.451   5.108   3.137
 5025TIP3   OH214951   1.034   4.752   3.972
 5025TIP3    H114952   1.132   4.750   3.980
 5025TIP3    H214953   1.012   4.670   4.022
 5026TIP3   OH214954   2.871   4.618   3.739
 5026TIP3    H114955   2.929   4.552   3.696
 5026TIP3    H214956   2.845   4.675   3.664
 5027TIP3   OH214957   2.298   4.459   2.494
 5027TIP3    H114958   2.347   4.443   2.578
 5027TIP3    H214959   2.238   4.382   2.492
 5028TIP3   OH214960   0.997   4.446   3.315
 5028TIP3    H114961   1.061   4.373   3.324
 5028TIP3    H214962   1.058   4.522   3.308
 5029TIP3   OH214963   0.801   4.720   3.387
 5029TIP3    H114964   0.851   4.714   3.303
 5029TIP3    H214965   0.827   4.808   3.418
 5030TIP3   OH214966   2.744   4.762   3.546
 5030TIP3    H114967   2.655   4.798   3.566
 5030TIP3    H214968   2.719   4.689   3.486
 5031TIP3   OH214969   2.380   4.396   2.125
 5031TIP3    H114970   2.420   4.323   2.074
 5031TIP3    H214971   2.447   4.467   2.117
 5032TIP3   OH214972   0.783   4.221   2.885
 5032TIP3    H114973   0.690   4.225   2.911
 5032TIP3    H214974   0.785   4.282   2.807
 5033TIP3   OH214975   1.940   5.929   2.391
 5033TIP3    H114976   1.992   5.910   2.310
 5033TIP3    H214977   1.997   5.991   2.438
 5034TIP3   OH214978   1.002   4.299   3.700
 5034TIP3    H114979   0.956   4.302   3.785
 5034TIP3    H214980   0.937   4.342   3.642
 5035TIP3   OH214981   1.045   5.727   3.779
 5035TIP3    H114982   0.952   5.702   3.763
 5035TIP3    H214983   1.053   5.713   3.875
 5036TIP3   OH214984   1.221   5.759   3.326
 5036TIP3    H114985   1.172   5.835   3.288
 5036TIP3    H214986   1.307   5.776   3.281
 5037TIP3   OH214987   1.669   6.008   3.463
 5037TIP3    H114988   1.709   6.009   3.552
 5037TIP3    H214989   1.735   6.059   3.412
 5038TIP3   OH214990   1.847   6.158   3.321
 5038TIP3    H114991   1.920   6.107   3.281
 5038TIP3    H214992   1.898   6.216   3.382
 5039TIP3   OH214993   2.641   4.523   3.423
 5039TIP3    H114994   2.549   4.518   3.390
 5039TIP3    H214995   2.670   4.430   3.410
 5040TIP3   OH214996   0.900   6.021   3.348
 5040TIP3    H114997   0.810   6.054   3.325
 5040TIP3    H214998   0.907   6.053   3.439
 5041TIP3   OH214999   1.135   5.998   3.206
 5041TIP3    H115000   1.050   6.011   3.253
 5041TIP3    H215001   1.113   6.033   3.117
 5042TIP3   OH215002   1.562   6.030   3.003
 5042TIP3    H115003   1.492   6.051   2.939
 5042TIP3    H215004   1.575   6.116   3.048
 5043TIP3   OH215005   1.830   5.968   3.055
 5043TIP3    H115006   1.735   5.985   3.036
 5043TIP3    H215007   1.872   6.046   3.015
 5044TIP3   OH215008   2.038   6.160   2.973
 5044TIP3    H115009   2.024   6.245   2.925
 5044TIP3    H215010   2.064   6.100   2.899
 5045TIP3   OH215011   0.813   5.815   3.093
 5045TIP3    H115012   0.836   5.790   3.185
 5045TIP3    H215013   0.885   5.769   3.045
 5046TIP3   OH215014   1.005   5.684   2.948
 5046TIP3    H115015   1.019   5.600   2.998
 5046TIP3    H215016   1.095   5.721   2.947
 5047TIP3   OH215017   1.270   5.781   2.951
 5047TIP3    H115018   1.302   5.689   2.942
 5047TIP3    H215019   1.311   5.803   3.037
 5048TIP3   OH215020   1.845   4.437   3.039
 5048TIP3    H115021   1.802   4.368   3.092
 5048TIP3    H215022   1.917   4.389   2.995
 5049TIP3   OH215023   2.370   4.318   2.949
 5049TIP3    H115024   2.408   4.368   2.874
 5049TIP3    H215025   2.275   4.336   2.941
 5050TIP3   OH215026   2.464   4.416   2.712
 5050TIP3    H115027   2.537   4.365   2.670
 5050TIP3    H215028   2.498   4.508   2.697
 5051TIP3   OH215029   1.095   4.146   3.060
 5051TIP3    H115030   1.003   4.112   3.058
 5051TIP3    H215031   1.145   4.061   3.056
 5052TIP3   OH215032   0.878   4.014   2.703
 5052TIP3    H115033   0.912   4.071   2.632
 5052TIP3    H215034   0.851   4.080   2.770
 5053TIP3   OH215035   1.536   4.179   2.939
 5053TIP3    H115036   1.595   4.229   2.879
 5053TIP3    H215037   1.560   4.216   3.025
 5054TIP3   OH215038   2.087   4.324   2.923
 5054TIP3    H115039   2.084   4.290   2.833
 5054TIP3    H215040   2.072   4.242   2.976
 5055TIP3   OH215041   2.115   4.246   2.484
 5055TIP3    H115042   2.028   4.287   2.492
 5055TIP3    H215043   2.100   4.161   2.531
 5056TIP3   OH215044   0.602   5.583   2.482
 5056TIP3    H115045   0.517   5.548   2.450
 5056TIP3    H215046   0.583   5.678   2.481
 5057TIP3   OH215047   0.997   4.173   2.472
 5057TIP3    H115048   1.047   4.113   2.413
 5057TIP3    H215049   1.069   4.229   2.507
 5058TIP3   OH215050   1.510   4.348   2.569
 5058TIP3    H115051   1.572   4.303   2.628
 5058TIP3    H215052   1.531   4.441   2.593
 5059TIP3   OH215053   1.363   5.785   2.062
 5059TIP3    H115054   1.455   5.797   2.032
 5059TIP3    H215055   1.342   5.703   2.011
 5060TIP3   OH215056   2.086   5.891   2.160
 5060TIP3    H115057   2.078   5.794   2.146
 5060TIP3    H215058   2.046   5.925   2.078
 5061TIP3   OH215059   1.303   4.423   3.945
 5061TIP3    H115060   1.270   4.355   4.007
 5061TIP3    H215061   1.397   4.427   3.973
 5062TIP3   OH215062   1.550   4.422   4.066
 5062TIP3    H115063   1.637   4.399   4.029
 5062TIP3    H215064   1.539   4.353   4.134
 5063TIP3   OH215065   0.690   5.655   2.133
 5063TIP3    H115066   0.663   5.641   2.225
 5063TIP3    H215067   0.757   5.585   2.121
 5064TIP3   OH215068   2.375   4.482   3.857
 5064TIP3    H115069   2.395   4.453   3.948
 5064TIP3    H215070   2.463   4.479   3.815
 5065TIP3   OH215071   2.316   6.036   3.351
 5065TIP3    H115072   2.238   6.004   3.302
 5065TIP3    H215073   2.298   6.132   3.351
 5066TIP3   OH215074   3.584   5.411   2.114
 5066TIP3    H115075   3.554   5.502   2.094
 5066TIP3    H215076   3.504   5.361   2.089
 5067TIP3   OH215077   3.588   5.406   2.490
 5067TIP3    H115078   3.609   5.376   2.580
 5067TIP3    H215079   3.534   5.333   2.457
 5068TIP3   OH215080   2.879   5.311   2.867
 5068TIP3    H115081   2.916   5.241   2.925
 5068TIP3    H215082   2.959   5.353   2.835
 5069TIP3   OH215083   3.834   5.705   2.176
 5069TIP3    H115084   3.803   5.641   2.241
 5069TIP3    H215085   3.844   5.785   2.230
 5070TIP3   OH215086   2.851   5.713   2.590
 5070TIP3    H115087   2.843   5.615   2.588
 5070TIP3    H215088   2.948   5.721   2.580
 5071TIP3   OH215089   2.554   4.912   2.377
 5071TIP3    H115090   2.516   5.001   2.385
 5071TIP3    H215091   2.481   4.865   2.334
 5072TIP3   OH215092   2.625   5.207   2.531
 5072TIP3    H115093   2.675   5.132   2.570
 5072TIP3    H215094   2.685   5.236   2.460
 5073TIP3   OH215095   3.469   6.172   2.190
 5073TIP3    H115096   3.520   6.101   2.146
 5073TIP3    H215097   3.464   6.140   2.281
 5074TIP3   OH215098   3.378   5.636   2.545
 5074TIP3    H115099   3.407   5.560   2.493
 5074TIP3    H215100   3.465   5.675   2.567
 5075TIP3   OH215101   4.390   4.955   2.541
 5075TIP3    H115102   4.419   5.037   2.586
 5075TIP3    H215103   4.415   4.972   2.449
 5076TIP3   OH215104   3.797   5.139   2.577
 5076TIP3    H115105   3.834   5.051   2.596
 5076TIP3    H215106   3.761   5.125   2.488
 5077TIP3   OH215107   3.129   4.791   2.545
 5077TIP3    H115108   3.109   4.865   2.484
 5077TIP3    H215109   3.077   4.720   2.501
 5078TIP3   OH215110   3.822   4.884   2.166
 5078TIP3    H115111   3.895   4.869   2.230
 5078TIP3    H215112   3.872   4.922   2.091
 5079TIP3   OH215113   2.761   4.999   2.653
 5079TIP3    H115114   2.847   4.979   2.696
 5079TIP3    H215115   2.772   4.945   2.571
 5080TIP3   OH215116   3.214   5.206   2.467
 5080TIP3    H115117   3.300   5.160   2.458
 5080TIP3    H215118   3.157   5.158   2.404
 5081TIP3   OH215119   4.463   5.165   2.707
 5081TIP3    H115120   4.377   5.210   2.696
 5081TIP3    H215121   4.480   5.184   2.801
 5082TIP3   OH215122   3.126   4.779   2.977
 5082TIP3    H115123   3.067   4.816   2.908
 5082TIP3    H215124   3.073   4.799   3.057
 5083TIP3   OH215125   3.480   5.635   1.984
 5083TIP3    H115126   3.429   5.606   1.907
 5083TIP3    H215127   3.434   5.718   2.006
 5084TIP3   OH215128   3.236   5.555   2.776
 5084TIP3    H115129   3.169   5.619   2.811
 5084TIP3    H215130   3.274   5.606   2.702
 5085TIP3   OH215131   4.037   4.886   2.334
 5085TIP3    H115132   4.022   4.838   2.416
 5085TIP3    H215133   4.088   4.963   2.364
 5086TIP3   OH215134   2.997   4.893   2.762
 5086TIP3    H115135   3.059   4.967   2.781
 5086TIP3    H215136   3.043   4.852   2.685
 5087TIP3   OH215137   3.060   5.747   2.869
 5087TIP3    H115138   3.033   5.831   2.827
 5087TIP3    H215139   2.980   5.732   2.924
 5088TIP3   OH215140   2.443   5.440   2.114
 5088TIP3    H115141   2.422   5.461   2.021
 5088TIP3    H215142   2.488   5.521   2.145
 5089TIP3   OH215143   3.899   5.950   2.342
 5089TIP3    H115144   3.811   5.942   2.385
 5089TIP3    H215145   3.889   6.037   2.298
 5090TIP3   OH215146   4.184   4.857   2.708
 5090TIP3    H115147   4.095   4.885   2.680
 5090TIP3    H215148   4.241   4.887   2.635
 5091TIP3   OH215149   3.485   4.501   2.690
 5091TIP3    H115150   3.472   4.405   2.706
 5091TIP3    H215151   3.407   4.537   2.735
 5092TIP3   OH215152   3.603   6.000   2.025
 5092TIP3    H115153   3.652   5.919   1.998
 5092TIP3    H215154   3.660   6.067   1.980
 5093TIP3   OH215155   3.743   5.784   1.924
 5093TIP3    H115156   3.695   5.709   1.888
 5093TIP3    H215157   3.778   5.747   2.008
 5094TIP3   OH215158   4.124   5.868   2.687
 5094TIP3    H115159   4.104   5.790   2.630
 5094TIP3    H215160   4.100   5.944   2.630
 5095TIP3   OH215161   3.413   5.259   1.945
 5095TIP3    H115162   3.331   5.310   1.926
 5095TIP3    H215163   3.455   5.257   1.858
 5096TIP3   OH215164   3.378   5.051   1.661
 5096TIP3    H115165   3.448   5.094   1.713
 5096TIP3    H215166   3.429   4.981   1.617
 5097TIP3   OH215167   4.313   5.506   2.537
 5097TIP3    H115168   4.234   5.562   2.549
 5097TIP3    H215169   4.297   5.469   2.449
 5098TIP3   OH215170   3.761   5.344   1.918
 5098TIP3    H115171   3.703   5.369   1.994
 5098TIP3    H215172   3.842   5.316   1.965
 5099TIP3   OH215173   3.996   5.384   2.825
 5099TIP3    H115174   3.993   5.466   2.879
 5099TIP3    H215175   3.907   5.387   2.784
 5100TIP3   OH215176   3.121   5.755   2.481
 5100TIP3    H115177   3.097   5.705   2.402
 5100TIP3    H215178   3.210   5.720   2.501
 5101TIP3   OH215179   3.124   5.313   2.698
 5101TIP3    H115180   3.153   5.286   2.607
 5101TIP3    H215181   3.169   5.399   2.708
 5102TIP3   OH215182   3.661   5.948   2.465
 5102TIP3    H115183   3.640   6.029   2.515
 5102TIP3    H215184   3.641   5.877   2.529
 5103TIP3   OH215185   3.266   5.869   3.012
 5103TIP3    H115186   3.207   5.932   3.058
 5103TIP3    H215187   3.200   5.816   2.963
 5104TIP3   OH215188   3.606   5.199   1.744
 5104TIP3    H115189   3.662   5.260   1.796
 5104TIP3    H215190   3.629   5.225   1.651
 5105TIP3   OH215191   3.022   5.422   3.118
 5105TIP3    H115192   3.023   5.511   3.159
 5105TIP3    H215193   2.926   5.407   3.109
 5106TIP3   OH215194   3.345   5.881   2.015
 5106TIP3    H115195   3.417   5.940   2.042
 5106TIP3    H215196   3.279   5.943   1.980
 5107TIP3   OH215197   3.061   6.039   3.096
 5107TIP3    H115198   3.028   6.036   3.004
 5107TIP3    H215199   2.982   6.012   3.148
 5108TIP3   OH215200   4.117   4.442   1.792
 5108TIP3    H115201   4.035   4.462   1.842
 5108TIP3    H215202   4.128   4.526   1.741
 5109TIP3   OH215203   3.913   5.811   1.340
 5109TIP3    H115204   3.921   5.908   1.325
 5109TIP3    H215205   4.006   5.782   1.327
 5110TIP3   OH215206   2.638   5.568   3.047
 5110TIP3    H115207   2.576   5.546   2.975
 5110TIP3    H215208   2.676   5.481   3.070
 5111TIP3   OH215209   2.493   5.759   2.682
 5111TIP3    H115210   2.588   5.750   2.667
 5111TIP3    H215211   2.488   5.841   2.734
 5112TIP3   OH215212   4.360   6.209   2.731
 5112TIP3    H115213   4.358   6.115   2.756
 5112TIP3    H215214   4.278   6.240   2.777
 5113TIP3   OH215215   3.465   5.999   2.868
 5113TIP3    H115216   3.465   6.092   2.901
 5113TIP3    H215217   3.394   5.960   2.923
 5114TIP3   OH215218   3.223   6.128   1.820
 5114TIP3    H115219   3.178   6.109   1.736
 5114TIP3    H215220   3.192   6.218   1.841
 5115TIP3   OH215221   2.662   5.978   2.203
 5115TIP3    H115222   2.710   5.967   2.288
 5115TIP3    H215223   2.606   5.898   2.204
 5116TIP3   OH215224   3.427   6.028   1.462
 5116TIP3    H115225   3.485   5.959   1.425
 5116TIP3    H215226   3.461   6.037   1.553
 5117TIP3   OH215227   3.475   6.076   1.732
 5117TIP3    H115228   3.386   6.086   1.774
 5117TIP3    H215229   3.525   6.034   1.805
 5118TIP3   OH215230   4.250   5.344   3.007
 5118TIP3    H115231   4.167   5.359   2.961
 5118TIP3    H215232   4.263   5.248   2.997
 5119TIP3   OH215233   2.843   5.750   3.033
 5119TIP3    H115234   2.893   5.734   3.115
 5119TIP3    H215235   2.769   5.686   3.041
 5120TIP3   OH215236   3.244   4.574   2.816
 5120TIP3    H115237   3.154   4.544   2.792
 5120TIP3    H215238   3.221   4.658   2.859
 5121TIP3   OH215239   3.776   4.690   3.012
 5121TIP3    H115240   3.844   4.663   3.077
 5121TIP3    H215241   3.692   4.670   3.057
 5122TIP3   OH215242   4.020   5.121   2.932
 5122TIP3    H115243   3.971   5.115   3.017
 5122TIP3    H215244   3.991   5.207   2.897
 5123TIP3   OH215245   3.676   5.251   1.487
 5123TIP3    H115246   3.643   5.223   1.399
 5123TIP3    H215247   3.755   5.302   1.461
 5124TIP3   OH215248   3.388   4.625   1.787
 5124TIP3    H115249   3.359   4.623   1.881
 5124TIP3    H215250   3.351   4.540   1.757
 5125TIP3   OH215251   3.178   5.087   2.838
 5125TIP3    H115252   3.125   5.110   2.917
 5125TIP3    H215253   3.163   5.167   2.782
 5126TIP3   OH215254   3.070   4.967   2.352
 5126TIP3    H115255   2.975   4.985   2.363
 5126TIP3    H215256   3.072   4.930   2.261
 5127TIP3   OH215257   3.551   5.062   2.078
 5127TIP3    H115258   3.495   5.133   2.038
 5127TIP3    H215259   3.603   5.034   2.000
 5128TIP3   OH215260   3.725   5.341   3.164
 5128TIP3    H115261   3.703   5.268   3.227
 5128TIP3    H215262   3.818   5.358   3.187
 5129TIP3   OH215263   3.712   5.092   2.317
 5129TIP3    H115264   3.649   5.123   2.249
 5129TIP3    H215265   3.740   5.009   2.274
 5130TIP3   OH215266   2.995   5.119   3.045
 5130TIP3    H115267   3.024   5.183   3.112
 5130TIP3    H215268   2.984   5.038   3.097
 5131TIP3   OH215269   3.044   4.601   1.756
 5131TIP3    H115270   3.046   4.593   1.853
 5131TIP3    H215271   2.950   4.619   1.741
 5132TIP3   OH215272   2.588   4.639   2.629
 5132TIP3    H115273   2.662   4.676   2.680
 5132TIP3    H215274   2.628   4.616   2.544
 5133TIP3   OH215275   2.563   4.624   2.140
 5133TIP3    H115276   2.614   4.665   2.068
 5133TIP3    H215277   2.503   4.697   2.166
 5134TIP3   OH215278   3.724   5.339   2.743
 5134TIP3    H115279   3.753   5.266   2.684
 5134TIP3    H215280   3.691   5.287   2.820
 5135TIP3   OH215281   3.385   4.794   2.412
 5135TIP3    H115282   3.300   4.797   2.459
 5135TIP3    H215283   3.448   4.801   2.486
 5136TIP3   OH215284   2.815   4.847   2.435
 5136TIP3    H115285   2.725   4.859   2.398
 5136TIP3    H215286   2.845   4.764   2.395
 5137TIP3   OH215287   3.093   4.843   2.102
 5137TIP3    H115288   3.187   4.866   2.092
 5137TIP3    H215289   3.050   4.887   2.026
 5138TIP3   OH215290   3.878   4.872   2.612
 5138TIP3    H115291   3.845   4.885   2.704
 5138TIP3    H215292   3.811   4.811   2.577
 5139TIP3   OH215293   2.937   4.899   1.872
 5139TIP3    H115294   2.846   4.867   1.876
 5139TIP3    H215295   2.968   4.857   1.790
 5140TIP3   OH215296   4.046   6.563   2.833
 5140TIP3    H115297   4.048   6.588   2.739
 5140TIP3    H215298   4.123   6.611   2.869
 5141TIP3   OH215299   3.001   5.672   3.253
 5141TIP3    H115300   3.082   5.700   3.299
 5141TIP3    H215301   2.941   5.661   3.328
 5142TIP3   OH215302   3.481   5.121   2.512
 5142TIP3    H115303   3.551   5.076   2.462
 5142TIP3    H215304   3.486   5.080   2.600
 5143TIP3   OH215305   2.994   4.613   2.385
 5143TIP3    H115306   2.961   4.532   2.430
 5143TIP3    H215307   3.050   4.577   2.316
 5144TIP3   OH215308   3.448   5.019   2.802
 5144TIP3    H115309   3.358   5.056   2.811
 5144TIP3    H215310   3.503   5.082   2.851
 5145TIP3   OH215311   3.185   5.414   1.897
 5145TIP3    H115312   3.112   5.350   1.887
 5145TIP3    H215313   3.169   5.447   1.989
 5146TIP3   OH215314   4.083   5.650   2.521
 5146TIP3    H115315   4.095   5.691   2.433
 5146TIP3    H215316   3.996   5.606   2.510
 5147TIP3   OH215317   3.641   4.727   1.754
 5147TIP3    H115318   3.544   4.713   1.761
 5147TIP3    H215319   3.652   4.821   1.777
 5148TIP3   OH215320   3.586   5.733   2.891
 5148TIP3    H115321   3.605   5.709   2.982
 5148TIP3    H215322   3.545   5.821   2.899
 5149TIP3   OH215323   3.713   4.972   1.858
 5149TIP3    H115324   3.809   4.980   1.873
 5149TIP3    H215325   3.692   5.052   1.805
 5150TIP3   OH215326   2.878   5.436   2.569
 5150TIP3    H115327   2.888   5.402   2.477
 5150TIP3    H215328   2.919   5.364   2.618
 5151TIP3   OH215329   3.325   5.562   1.711
 5151TIP3    H115330   3.281   5.650   1.721
 5151TIP3    H215331   3.273   5.508   1.775
 5152TIP3   OH215332   2.752   5.356   3.183
 5152TIP3    H115333   2.767   5.339   3.277
 5152TIP3    H215334   2.684   5.290   3.160
 5153TIP3   OH215335   3.480   5.467   3.206
 5153TIP3    H115336   3.423   5.412   3.150
 5153TIP3    H215337   3.569   5.437   3.177
 5154TIP3   OH215338   3.745   5.990   2.787
 5154TIP3    H115339   3.649   5.990   2.799
 5154TIP3    H215340   3.773   6.042   2.866
 5155TIP3   OH215341   4.156   5.062   1.695
 5155TIP3    H115342   4.093   5.016   1.635
 5155TIP3    H215343   4.152   5.150   1.653
 5156TIP3   OH215344   4.374   5.914   2.777
 5156TIP3    H115345   4.276   5.913   2.769
 5156TIP3    H215346   4.399   5.892   2.685
 5157TIP3   OH215347   3.856   5.881   1.605
 5157TIP3    H115348   3.827   5.810   1.664
 5157TIP3    H215349   3.866   5.836   1.519
 5158TIP3   OH215350   3.851   5.510   2.446
 5158TIP3    H115351   3.757   5.486   2.460
 5158TIP3    H215352   3.882   5.430   2.399
 5159TIP3   OH215353   2.977   5.738   2.196
 5159TIP3    H115354   2.973   5.819   2.143
 5159TIP3    H215355   2.883   5.714   2.203
 5160TIP3   OH215356   2.535   5.039   1.898
 5160TIP3    H115357   2.582   5.124   1.914
 5160TIP3    H215358   2.460   5.049   1.960
 5161TIP3   OH215359   3.119   5.500   2.144
 5161TIP3    H115360   3.078   5.585   2.169
 5161TIP3    H215361   3.068   5.437   2.198
 5162TIP3   OH215362   3.244   6.083   2.666
 5162TIP3    H115363   3.284   6.156   2.615
 5162TIP3    H215364   3.321   6.050   2.715
 5163TIP3   OH215365   2.896   5.977   2.048
 5163TIP3    H115366   2.810   5.985   2.093
 5163TIP3    H215367   2.927   6.070   2.051
 5164TIP3   OH215368   3.636   5.716   2.622
 5164TIP3    H115369   3.625   5.717   2.720
 5164TIP3    H215370   3.715   5.662   2.614
 5165TIP3   OH215371   3.605   5.606   1.506
 5165TIP3    H115372   3.660   5.582   1.584
 5165TIP3    H215373   3.517   5.587   1.540
 5166TIP3   OH215374   3.883   6.249   2.670
 5166TIP3    H115375   3.803   6.194   2.664
 5166TIP3    H215376   3.867   6.316   2.601
 5167TIP3   OH215377   3.948   6.085   1.326
 5167TIP3    H115378   3.984   6.155   1.269
 5167TIP3    H215379   3.868   6.133   1.359
 5168TIP3   OH215380   2.968   4.864   3.195
 5168TIP3    H115381   2.871   4.866   3.205
 5168TIP3    H215382   2.994   4.799   3.262
 5169TIP3   OH215383   3.766   5.543   1.722
 5169TIP3    H115384   3.756   5.478   1.793
 5169TIP3    H215385   3.863   5.542   1.709
 5170TIP3   OH215386   2.682   5.948   2.826
 5170TIP3    H115387   2.734   5.870   2.850
 5170TIP3    H215388   2.718   6.014   2.886
 5171TIP3   OH215389   2.972   5.602   1.506
 5171TIP3    H115390   2.994   5.515   1.473
 5171TIP3    H215391   2.957   5.587   1.601
 5172TIP3   OH215392   2.925   5.593   1.776
 5172TIP3    H115393   2.986   5.568   1.848
 5172TIP3    H215394   2.926   5.691   1.783
 5173TIP3   OH215395   2.644   5.281   1.957
 5173TIP3    H115396   2.621   5.308   2.048
 5173TIP3    H215397   2.671   5.365   1.918
 5174TIP3   OH215398   3.805   4.925   2.870
 5174TIP3    H115399   3.882   4.963   2.915
 5174TIP3    H215400   3.787   4.845   2.924
 5175TIP3   OH215401   3.685   4.678   2.034
 5175TIP3    H115402   3.669   4.703   1.941
 5175TIP3    H215403   3.722   4.760   2.072
 5176TIP3   OH215404   3.186   5.794   1.725
 5176TIP3    H115405   3.100   5.821   1.762
 5176TIP3    H215406   3.202   5.866   1.663
 5177TIP3   OH215407   3.375   4.856   2.139
 5177TIP3    H115408   3.439   4.928   2.122
 5177TIP3    H215409   3.377   4.850   2.237
 5178TIP3   OH215410   3.643   5.177   2.948
 5178TIP3    H115411   3.660   5.233   3.027
 5178TIP3    H215412   3.698   5.099   2.965
 5179TIP3   OH215413   3.520   4.587   2.245
 5179TIP3    H115414   3.507   4.665   2.303
 5179TIP3    H215415   3.580   4.625   2.176
 5180TIP3   OH215416   2.926   5.866   1.792
 5180TIP3    H115417   2.898   5.936   1.729
 5180TIP3    H215418   2.911   5.911   1.878
 5181TIP3   OH215419   3.032   4.580   2.029
 5181TIP3    H115420   3.033   4.670   2.068
 5181TIP3    H215421   3.127   4.558   2.041
 5182TIP3   OH215422   4.286   5.074   2.924
 5182TIP3    H115423   4.188   5.076   2.936
 5182TIP3    H215424   4.291   5.029   2.839
 5183TIP3   OH215425   3.936   5.270   2.315
 5183TIP3    H115426   3.857   5.214   2.327
 5183TIP3    H215427   4.004   5.220   2.365
 5184TIP3   OH215428   2.643   5.513   1.784
 5184TIP3    H115429   2.708   5.585   1.791
 5184TIP3    H215430   2.689   5.456   1.719
 5185TIP3   OH215431   2.605   4.778   1.906
 5185TIP3    H115432   2.591   4.875   1.912
 5185TIP3    H215433   2.516   4.746   1.888
 5186TIP3   OH215434   3.904   6.221   2.265
 5186TIP3    H115435   3.859   6.268   2.191
 5186TIP3    H215436   3.997   6.243   2.245
 5187TIP3   OH215437   2.979   4.495   2.795
 5187TIP3    H115438   2.947   4.463   2.707
 5187TIP3    H215439   2.968   4.416   2.851
 5188TIP3   OH215440   2.525   5.724   2.179
 5188TIP3    H115441   2.443   5.746   2.226
 5188TIP3    H215442   2.503   5.755   2.089
 5189TIP3   OH215443   2.673   6.252   3.246
 5189TIP3    H115444   2.759   6.252   3.292
 5189TIP3    H215445   2.653   6.157   3.242
 5190TIP3   OH215446   3.155   6.222   3.290
 5190TIP3    H115447   3.249   6.205   3.300
 5190TIP3    H215448   3.134   6.164   3.214
 5191TIP3   OH215449   3.141   5.800   1.419
 5191TIP3    H115450   3.083   5.730   1.457
 5191TIP3    H215451   3.213   5.746   1.381
 5192TIP3   OH215452   3.799   6.124   3.022
 5192TIP3    H115453   3.789   6.055   3.092
 5192TIP3    H215454   3.877   6.173   3.053
 5193TIP3   OH215455   3.574   5.837   1.328
 5193TIP3    H115456   3.624   5.775   1.384
 5193TIP3    H215457   3.627   5.840   1.246
 5194TIP3   OH215458   2.783   5.313   1.638
 5194TIP3    H115459   2.832   5.290   1.719
 5194TIP3    H215460   2.852   5.307   1.571
 5195TIP3   OH215461   3.409   5.742   3.221
 5195TIP3    H115462   3.371   5.759   3.133
 5195TIP3    H215463   3.443   5.650   3.213
 5196TIP3   OH215464   3.280   5.505   1.446
 5196TIP3    H115465   3.290   5.525   1.542
 5196TIP3    H215466   3.292   5.407   1.447
 5197TIP3   OH215467   3.906   5.749   2.820
 5197TIP3    H115468   3.979   5.804   2.784
 5197TIP3    H215469   3.832   5.812   2.814
 5198TIP3   OH215470   2.945   5.405   3.446
 5198TIP3    H115471   3.001   5.339   3.403
 5198TIP3    H215472   2.884   5.352   3.500
 5199TIP3   OH215473   2.989   5.211   1.860
 5199TIP3    H115474   2.947   5.207   1.947
 5199TIP3    H215475   3.016   5.119   1.847
 5200TIP3   OH215476   3.259   5.278   3.090
 5200TIP3    H115477   3.182   5.338   3.094
 5200TIP3    H215478   3.306   5.311   3.010
 5201TIP3   OH215479   3.773   5.679   3.222
 5201TIP3    H115480   3.859   5.667   3.181
 5201TIP3    H215481   3.775   5.614   3.295
 5202TIP3   OH215482   3.916   5.340   1.363
 5202TIP3    H115483   3.893   5.293   1.280
 5202TIP3    H215484   3.884   5.430   1.339
 5203TIP3   OH215485   3.381   5.066   3.219
 5203TIP3    H115486   3.382   4.987   3.162
 5203TIP3    H215487   3.339   5.132   3.159
 5204TIP3   OH215488   3.385   4.852   3.023
 5204TIP3    H115489   3.411   4.895   2.938
 5204TIP3    H215490   3.291   4.830   3.004
 5205TIP3   OH215491   3.415   5.392   2.899
 5205TIP3    H115492   3.494   5.396   2.843
 5205TIP3    H215493   3.357   5.457   2.855
 5206TIP3   OH215494   3.994   5.358   3.278
 5206TIP3    H115495   4.047   5.277   3.288
 5206TIP3    H215496   4.061   5.422   3.250
 5207TIP3   OH215497   4.036   5.605   3.008
 5207TIP3    H115498   3.977   5.660   2.950
 5207TIP3    H215499   4.123   5.627   2.967
 5208TIP3   OH215500   3.257   5.182   3.447
 5208TIP3    H115501   3.191   5.110   3.457
 5208TIP3    H215502   3.294   5.161   3.359
 5209TIP3   OH215503   3.517   4.618   3.088
 5209TIP3    H115504   3.469   4.701   3.065
 5209TIP3    H215505   3.447   4.551   3.076
 5210TIP3   OH215506   3.644   5.123   3.305
 5210TIP3    H115507   3.634   5.112   3.401
 5210TIP3    H215508   3.553   5.098   3.276
 5211TIP3   OH215509   3.883   5.068   3.158
 5211TIP3    H115510   3.807   5.072   3.219
 5211TIP3    H215511   3.955   5.039   3.217
 5212TIP3   OH215512   4.113   5.011   3.312
 5212TIP3    H115513   4.124   4.916   3.332
 5212TIP3    H215514   4.107   5.052   3.401
 5213TIP3   OH215515   3.100   4.961   3.497
 5213TIP3    H115516   3.107   4.871   3.459
 5213TIP3    H215517   3.137   4.945   3.587
 5214TIP3   OH215518   3.612   4.627   3.345
 5214TIP3    H115519   3.680   4.557   3.340
 5214TIP3    H215520   3.572   4.620   3.256
 5215TIP3   OH215521   3.677   4.841   3.506
 5215TIP3    H115522   3.654   4.771   3.441
 5215TIP3    H215523   3.600   4.902   3.498
 5216TIP3   OH215524   2.897   6.069   1.605
 5216TIP3    H115525   2.992   6.070   1.586
 5216TIP3    H215526   2.864   6.117   1.527
 5217TIP3   OH215527   2.377   5.453   1.821
 5217TIP3    H115528   2.472   5.476   1.810
 5217TIP3    H215529   2.375   5.363   1.782
 5218TIP3   OH215530   2.288   6.065   2.235
 5218TIP3    H115531   2.223   6.001   2.201
 5218TIP3    H215532   2.335   6.010   2.302
 5219TIP3   OH215533   2.424   5.922   2.424
 5219TIP3    H115534   2.418   5.843   2.479
 5219TIP3    H215535   2.478   5.980   2.481
 5220TIP3   OH215536   4.157   6.310   2.221
 5220TIP3    H115537   4.179   6.347   2.309
 5220TIP3    H215538   4.210   6.366   2.162
 5221TIP3   OH215539   4.186   6.337   2.501
 5221TIP3    H115540   4.144   6.249   2.501
 5221TIP3    H215541   4.257   6.321   2.565
 5222TIP3   OH215542   4.230   6.010   3.076
 5222TIP3    H115543   4.156   6.022   3.139
 5222TIP3    H215544   4.270   6.100   3.076
 5223TIP3   OH215545   4.047   5.527   1.698
 5223TIP3    H115546   4.114   5.592   1.668
 5223TIP3    H215547   4.091   5.488   1.776
 5224TIP3   OH215548   4.178   5.397   1.905
 5224TIP3    H115549   4.106   5.347   1.951
 5224TIP3    H215550   4.220   5.443   1.979
 5225TIP3   OH215551   4.239   5.768   2.309
 5225TIP3    H115552   4.218   5.759   2.215
 5225TIP3    H215553   4.212   5.860   2.322
 5226TIP3   OH215554   4.060   6.084   2.529
 5226TIP3    H115555   3.995   6.133   2.584
 5226TIP3    H215556   4.001   6.042   2.462
 5227TIP3   OH215557   4.113   5.302   1.549
 5227TIP3    H115558   4.042   5.303   1.480
 5227TIP3    H215559   4.084   5.380   1.601
 5228TIP3   OH215560   3.986   4.975   1.503
 5228TIP3    H115561   3.944   5.017   1.428
 5228TIP3    H215562   3.958   4.881   1.491
 5229TIP3   OH215563   3.994   5.249   2.047
 5229TIP3    H115564   3.997   5.152   2.041
 5229TIP3    H215565   3.976   5.263   2.143
 5230TIP3   OH215566   2.615   5.321   2.791
 5230TIP3    H115567   2.616   5.294   2.697
 5230TIP3    H215568   2.712   5.326   2.809
 5231TIP3   OH215569   4.276   5.673   2.899
 5231TIP3    H115570   4.351   5.610   2.895
 5231TIP3    H215571   4.310   5.749   2.849
 5232TIP3   OH215572   4.464   5.482   2.919
 5232TIP3    H115573   4.390   5.433   2.962
 5232TIP3    H215574   4.537   5.419   2.935
 5233TIP3   OH215575   3.928   4.709   1.491
 5233TIP3    H115576   4.003   4.678   1.546
 5233TIP3    H215577   3.854   4.651   1.515
 5234TIP3   OH215578   3.986   4.968   1.945
 5234TIP3    H115579   4.025   4.879   1.960
 5234TIP3    H215580   4.044   4.999   1.872
 5235TIP3   OH215581   4.148   5.141   2.438
 5235TIP3    H115582   4.232   5.172   2.399
 5235TIP3    H215583   4.158   5.176   2.528
 5236TIP3   OH215584   4.212   5.284   2.671
 5236TIP3    H115585   4.134   5.313   2.723
 5236TIP3    H215586   4.246   5.369   2.638
 5237TIP3   OH215587   2.835   5.015   3.474
 5237TIP3    H115588   2.932   5.002   3.470
 5237TIP3    H215589   2.808   4.929   3.512
 5238TIP3   OH215590   4.669   4.875   3.227
 5238TIP3    H115591   4.725   4.808   3.182
 5238TIP3    H215592   4.640   4.931   3.152
 5239TIP3   OH215593   4.094   4.716   1.980
 5239TIP3    H115594   4.141   4.700   2.064
 5239TIP3    H215595   4.033   4.640   1.979
 5240TIP3   OH215596   2.794   4.703   2.806
 5240TIP3    H115597   2.858   4.630   2.811
 5240TIP3    H215598   2.854   4.779   2.794
 5241TIP3   OH215599   2.598   4.978   2.875
 5241TIP3    H115600   2.646   4.967   2.790
 5241TIP3    H215601   2.628   5.067   2.900
 5242TIP3   OH215602   4.541   5.016   3.034
 5242TIP3    H115603   4.454   5.056   3.059
 5242TIP3    H215604   4.510   4.946   2.974
 5243TIP3   OH215605   4.178   4.652   1.614
 5243TIP3    H115606   4.217   4.580   1.560
 5243TIP3    H215607   4.243   4.723   1.603
 5244TIP3   OH215608   2.579   4.480   2.370
 5244TIP3    H115609   2.486   4.480   2.398
 5244TIP3    H215610   2.578   4.540   2.293
 5245TIP3   OH215611   3.741   6.181   1.881
 5245TIP3    H115612   3.790   6.167   1.797
 5245TIP3    H215613   3.791   6.252   1.922
 5246TIP3   OH215614   2.801   4.562   3.190
 5246TIP3    H115615   2.749   4.556   3.272
 5246TIP3    H215616   2.734   4.599   3.129
 5247TIP3   OH215617   2.845   5.978   3.261
 5247TIP3    H115618   2.751   5.954   3.252
 5247TIP3    H215619   2.857   5.990   3.355
 5248TIP3   OH215620   3.017   6.019   2.813
 5248TIP3    H115621   2.970   6.095   2.774
 5248TIP3    H215622   3.103   6.031   2.769
 5249TIP3   OH215623   3.465   6.265   2.950
 5249TIP3    H115624   3.506   6.265   3.039
 5249TIP3    H215625   3.532   6.316   2.899
 5250TIP3   OH215626   3.645   6.415   2.808
 5250TIP3    H115627   3.718   6.363   2.771
 5250TIP3    H215628   3.694   6.473   2.870
 5251TIP3   OH215629   4.437   4.779   2.909
 5251TIP3    H115630   4.345   4.773   2.878
 5251TIP3    H215631   4.466   4.685   2.897
 5252TIP3   OH215632   2.696   6.277   2.836
 5252TIP3    H115633   2.607   6.311   2.811
 5252TIP3    H215634   2.703   6.311   2.925
 5253TIP3   OH215635   2.932   6.255   2.693
 5253TIP3    H115636   2.846   6.268   2.738
 5253TIP3    H215637   2.911   6.288   2.603
 5254TIP3   OH215638   3.358   6.285   2.490
 5254TIP3    H115639   3.288   6.306   2.425
 5254TIP3    H215640   3.371   6.372   2.534
 5255TIP3   OH215641   3.625   6.223   2.538
 5255TIP3    H115642   3.530   6.240   2.522
 5255TIP3    H215643   3.666   6.303   2.502
 5256TIP3   OH215644   3.835   6.417   2.458
 5256TIP3    H115645   3.820   6.503   2.412
 5256TIP3    H215646   3.858   6.358   2.384
 5257TIP3   OH215647   2.606   6.071   2.582
 5257TIP3    H115648   2.633   6.046   2.673
 5257TIP3    H215649   2.678   6.027   2.531
 5258TIP3   OH215650   2.799   5.942   2.438
 5258TIP3    H115651   2.816   5.857   2.484
 5258TIP3    H215652   2.890   5.979   2.432
 5259TIP3   OH215653   3.066   6.038   2.438
 5259TIP3    H115654   3.096   5.946   2.425
 5259TIP3    H215655   3.108   6.057   2.524
 5260TIP3   OH215656   3.646   4.695   2.531
 5260TIP3    H115657   3.598   4.627   2.582
 5260TIP3    H215658   3.712   4.642   2.483
 5261TIP3   OH215659   4.168   4.572   2.432
 5261TIP3    H115660   4.203   4.626   2.358
 5261TIP3    H215661   4.072   4.590   2.427
 5262TIP3   OH215662   4.262   4.676   2.196
 5262TIP3    H115663   4.335   4.625   2.156
 5262TIP3    H215664   4.294   4.768   2.182
 5263TIP3   OH215665   2.892   4.402   2.546
 5263TIP3    H115666   2.799   4.370   2.545
 5263TIP3    H215667   2.941   4.317   2.543
 5264TIP3   OH215668   2.677   4.271   2.193
 5264TIP3    H115669   2.705   4.330   2.121
 5264TIP3    H215670   2.646   4.335   2.260
 5265TIP3   OH215671   3.334   4.435   2.423
 5265TIP3    H115672   3.393   4.488   2.368
 5265TIP3    H215673   3.348   4.473   2.511
 5266TIP3   OH215674   3.888   4.580   2.409
 5266TIP3    H115675   3.875   4.545   2.320
 5266TIP3    H215676   3.871   4.500   2.464
 5267TIP3   OH215677   3.911   4.502   1.971
 5267TIP3    H115678   3.825   4.546   1.981
 5267TIP3    H215679   3.895   4.418   2.019
 5268TIP3   OH215680   2.394   5.840   1.973
 5268TIP3    H115681   2.310   5.807   1.937
 5268TIP3    H215682   2.382   5.935   1.957
 5269TIP3   OH215683   2.794   4.436   1.953
 5269TIP3    H115684   2.841   4.368   1.902
 5269TIP3    H215685   2.868   4.485   1.995
 5270TIP3   OH215686   3.309   4.604   2.054
 5270TIP3    H115687   3.368   4.559   2.117
 5270TIP3    H215688   3.327   4.697   2.079
 5271TIP3   OH215689   3.167   6.034   1.556
 5271TIP3    H115690   3.255   6.057   1.518
 5271TIP3    H215691   3.144   5.959   1.496
 5272TIP3   OH215692   3.885   6.149   1.647
 5272TIP3    H115693   3.877   6.051   1.633
 5272TIP3    H215694   3.840   6.183   1.567
 5273TIP3   OH215695   3.098   4.684   3.437
 5273TIP3    H115696   3.066   4.612   3.494
 5273TIP3    H215697   3.193   4.685   3.462
 5274TIP3   OH215698   3.347   4.681   3.556
 5274TIP3    H115699   3.432   4.656   3.515
 5274TIP3    H215700   3.335   4.610   3.622
 5275TIP3   OH215701   2.470   5.868   1.613
 5275TIP3    H115702   2.471   5.896   1.705
 5275TIP3    H215703   2.559   5.826   1.602
 5276TIP3   OH215704   4.171   4.740   3.343
 5276TIP3    H115705   4.191   4.709   3.434
 5276TIP3    H215706   4.259   4.736   3.301
 5277TIP3   OH215707   4.118   6.297   2.823
 5277TIP3    H115708   4.033   6.263   2.788
 5277TIP3    H215709   4.095   6.391   2.837
 5278TIP3   OH215710   5.377   5.664   1.603
 5278TIP3    H115711   5.352   5.756   1.585
 5278TIP3    H215712   5.299   5.618   1.569
 5279TIP3   OH215713   5.374   5.665   1.981
 5279TIP3    H115714   5.406   5.637   2.068
 5279TIP3    H215715   5.334   5.584   1.946
 5280TIP3   OH215716   4.676   5.571   2.347
 5280TIP3    H115717   4.697   5.506   2.418
 5280TIP3    H215718   4.766   5.602   2.327
 5281TIP3   OH215719   5.617   5.967   1.664
 5281TIP3    H115720   5.609   5.899   1.732
 5281TIP3    H215721   5.648   6.043   1.715
 5282TIP3   OH215722   4.651   5.957   2.078
 5282TIP3    H115723   4.665   5.875   2.030
 5282TIP3    H215724   4.743   5.990   2.081
 5283TIP3   OH215725   4.352   5.180   1.863
 5283TIP3    H115726   4.297   5.260   1.868
 5283TIP3    H215727   4.288   5.117   1.826
 5284TIP3   OH215728   4.449   5.495   2.055
 5284TIP3    H115729   4.477   5.403   2.082
 5284TIP3    H215730   4.463   5.489   1.959
 5285TIP3   OH215731   5.265   6.428   1.678
 5285TIP3    H115732   5.314   6.357   1.631
 5285TIP3    H215733   5.266   6.396   1.769
 5286TIP3   OH215734   5.175   5.891   2.031
 5286TIP3    H115735   5.214   5.815   1.983
 5286TIP3    H215736   5.259   5.936   2.055
 5287TIP3   OH215737   6.187   5.211   2.027
 5287TIP3    H115738   6.214   5.293   2.074
 5287TIP3    H215739   6.208   5.235   1.935
 5288TIP3   OH215740   5.586   5.393   2.065
 5288TIP3    H115741   5.630   5.308   2.085
 5288TIP3    H215742   5.557   5.379   1.973
 5289TIP3   OH215743   4.922   5.052   2.031
 5289TIP3    H115744   4.904   5.125   1.967
 5289TIP3    H215745   4.876   4.979   1.985
 5290TIP3   OH215746   5.618   5.142   1.653
 5290TIP3    H115747   5.692   5.127   1.717
 5290TIP3    H215748   5.668   5.179   1.578
 5291TIP3   OH215749   4.559   5.257   2.136
 5291TIP3    H115750   4.642   5.233   2.180
 5291TIP3    H215751   4.567   5.201   2.056
 5292TIP3   OH215752   4.997   5.453   1.932
 5292TIP3    H115753   5.091   5.429   1.943
 5292TIP3    H215754   4.959   5.370   1.896
 5293TIP3   OH215755   6.258   5.415   2.202
 5293TIP3    H115756   6.178   5.467   2.181
 5293TIP3    H215757   6.282   5.452   2.288
 5294TIP3   OH215758   4.922   5.035   2.461
 5294TIP3    H115759   4.861   5.073   2.395
 5294TIP3    H215760   4.871   5.052   2.544
 5295TIP3   OH215761   5.270   5.885   1.472
 5295TIP3    H115762   5.228   5.866   1.388
 5295TIP3    H215763   5.229   5.971   1.495
 5296TIP3   OH215764   5.028   5.811   2.260
 5296TIP3    H115765   4.966   5.878   2.297
 5296TIP3    H215766   5.074   5.863   2.190
 5297TIP3   OH215767   5.832   5.143   1.822
 5297TIP3    H115768   5.821   5.098   1.907
 5297TIP3    H215769   5.886   5.221   1.847
 5298TIP3   OH215770   4.790   5.152   2.247
 5298TIP3    H115771   4.854   5.224   2.270
 5298TIP3    H215772   4.840   5.110   2.173
 5299TIP3   OH215773   4.853   6.003   2.351
 5299TIP3    H115774   4.831   6.092   2.317
 5299TIP3    H215775   4.777   5.991   2.413
 5300TIP3   OH215776   4.252   5.694   1.594
 5300TIP3    H115777   4.211   5.716   1.508
 5300TIP3    H215778   4.279   5.782   1.627
 5301TIP3   OH215779   5.689   6.207   1.831
 5301TIP3    H115780   5.598   6.201   1.869
 5301TIP3    H215781   5.684   6.294   1.787
 5302TIP3   OH215782   5.981   5.108   2.192
 5302TIP3    H115783   5.894   5.144   2.166
 5302TIP3    H215784   6.040   5.143   2.122
 5303TIP3   OH215785   5.281   4.756   2.176
 5303TIP3    H115786   5.268   4.661   2.193
 5303TIP3    H215787   5.203   4.793   2.222
 5304TIP3   OH215788   5.393   6.257   1.506
 5304TIP3    H115789   5.445   6.176   1.484
 5304TIP3    H215790   5.453   6.324   1.465
 5305TIP3   OH215791   5.535   6.042   1.410
 5305TIP3    H115792   5.498   5.962   1.371
 5305TIP3    H215793   5.570   6.008   1.496
 5306TIP3   OH215794   5.915   6.125   2.176
 5306TIP3    H115795   5.909   6.048   2.115
 5306TIP3    H215796   5.902   6.200   2.115
 5307TIP3   OH215797   5.207   5.516   1.431
 5307TIP3    H115798   5.127   5.568   1.409
 5307TIP3    H215799   5.255   5.516   1.346
 5308TIP3   OH215800   5.167   5.301   1.151
 5308TIP3    H115801   5.235   5.351   1.200
 5308TIP3    H215802   5.224   5.237   1.103
 5309TIP3   OH215803   6.110   5.753   2.016
 5309TIP3    H115804   6.031   5.811   2.023
 5309TIP3    H215805   6.144   5.782   1.928
 5310TIP3   OH215806   5.554   5.598   1.405
 5310TIP3    H115807   5.501   5.625   1.484
 5310TIP3    H215808   5.638   5.573   1.449
 5311TIP3   OH215809   5.791   5.640   2.315
 5311TIP3    H115810   5.791   5.723   2.365
 5311TIP3    H215811   5.706   5.648   2.268
 5312TIP3   OH215812   4.788   5.602   1.813
 5312TIP3    H115813   4.746   5.539   1.750
 5312TIP3    H215814   4.861   5.549   1.850
 5313TIP3   OH215815   4.911   5.999   1.973
 5313TIP3    H115816   4.900   5.964   1.883
 5313TIP3    H215817   5.003   5.974   1.993
 5314TIP3   OH215818   4.919   5.572   2.180
 5314TIP3    H115819   4.948   5.550   2.089
 5314TIP3    H215820   4.968   5.655   2.198
 5315TIP3   OH215821   5.447   6.207   1.951
 5315TIP3    H115822   5.435   6.287   2.004
 5315TIP3    H215823   5.435   6.135   2.016
 5316TIP3   OH215824   5.061   6.125   2.499
 5316TIP3    H115825   5.003   6.188   2.546
 5316TIP3    H215826   4.994   6.072   2.451
 5317TIP3   OH215827   5.398   5.456   1.231
 5317TIP3    H115828   5.456   5.516   1.284
 5317TIP3    H215829   5.424   5.482   1.139
 5318TIP3   OH215830   4.815   5.685   2.598
 5318TIP3    H115831   4.822   5.771   2.644
 5318TIP3    H215832   4.720   5.667   2.612
 5319TIP3   OH215833   5.136   6.140   1.508
 5319TIP3    H115834   5.216   6.193   1.526
 5319TIP3    H215835   5.078   6.205   1.467
 5320TIP3   OH215836   4.856   6.294   2.585
 5320TIP3    H115837   4.819   6.293   2.495
 5320TIP3    H215838   4.778   6.273   2.640
 5321TIP3   OH215839   5.912   4.699   1.277
 5321TIP3    H115840   5.831   4.719   1.329
 5321TIP3    H215841   5.925   4.784   1.229
 5322TIP3   OH215842   4.651   5.437   1.627
 5322TIP3    H115843   4.589   5.485   1.568
 5322TIP3    H215844   4.609   5.351   1.632
 5323TIP3   OH215845   5.709   6.066   0.824
 5323TIP3    H115846   5.718   6.164   0.815
 5323TIP3    H215847   5.803   6.038   0.814
 5324TIP3   OH215848   4.437   5.818   2.524
 5324TIP3    H115849   4.359   5.788   2.476
 5324TIP3    H215850   4.471   5.735   2.566
 5325TIP3   OH215851   4.301   6.016   2.168
 5325TIP3    H115852   4.395   6.038   2.161
 5325TIP3    H215853   4.268   6.093   2.216
 5326TIP3   OH215854   6.153   6.468   2.219
 5326TIP3    H115855   6.155   6.372   2.232
 5326TIP3    H215856   6.071   6.493   2.267
 5327TIP3   OH215857   5.260   6.256   2.354
 5327TIP3    H115858   5.261   6.349   2.387
 5327TIP3    H215859   5.190   6.217   2.411
 5328TIP3   OH215860   5.018   6.383   1.308
 5328TIP3    H115861   4.975   6.365   1.222
 5328TIP3    H215862   4.988   6.474   1.329
 5329TIP3   OH215863   4.458   6.234   1.688
 5329TIP3    H115864   4.506   6.225   1.773
 5329TIP3    H215865   4.392   6.163   1.697
 5330TIP3   OH215866   5.222   6.283   0.949
 5330TIP3    H115867   5.282   6.215   0.912
 5330TIP3    H215868   5.257   6.293   1.040
 5331TIP3   OH215869   5.271   6.332   1.219
 5331TIP3    H115870   5.183   6.341   1.263
 5331TIP3    H215871   5.324   6.294   1.290
 5332TIP3   OH215872   6.044   5.597   2.498
 5332TIP3    H115873   5.966   5.615   2.443
 5332TIP3    H215874   6.057   5.502   2.485
 5333TIP3   OH215875   4.642   6.006   2.521
 5333TIP3    H115876   4.691   5.995   2.605
 5333TIP3    H215877   4.570   5.941   2.531
 5334TIP3   OH215878   5.040   4.831   2.303
 5334TIP3    H115879   4.949   4.801   2.279
 5334TIP3    H215880   5.017   4.914   2.348
 5335TIP3   OH215881   5.573   4.946   2.498
 5335TIP3    H115882   5.640   4.921   2.565
 5335TIP3    H215883   5.488   4.926   2.544
 5336TIP3   OH215884   5.813   5.374   2.415
 5336TIP3    H115885   5.766   5.372   2.502
 5336TIP3    H215886   5.791   5.463   2.382
 5337TIP3   OH215887   5.471   5.504   0.974
 5337TIP3    H115888   5.441   5.479   0.884
 5337TIP3    H215889   5.550   5.557   0.951
 5338TIP3   OH215890   5.187   4.880   1.276
 5338TIP3    H115891   5.154   4.880   1.368
 5338TIP3    H215892   5.147   4.797   1.243
 5339TIP3   OH215893   4.969   5.346   2.322
 5339TIP3    H115894   4.925   5.371   2.406
 5339TIP3    H215895   4.956   5.427   2.269
 5340TIP3   OH215896   4.856   5.231   1.838
 5340TIP3    H115897   4.762   5.206   1.853
 5340TIP3    H215898   4.870   5.192   1.749
 5341TIP3   OH215899   5.345   5.317   1.563
 5341TIP3    H115900   5.291   5.390   1.524
 5341TIP3    H215901   5.400   5.291   1.487
 5342TIP3   OH215902   5.520   5.598   2.651
 5342TIP3    H115903   5.499   5.525   2.714
 5342TIP3    H215904   5.613   5.614   2.673
 5343TIP3   OH215905   5.503   5.347   1.806
 5343TIP3    H115906   5.446   5.381   1.734
 5343TIP3    H215907   5.535   5.265   1.762
 5344TIP3   OH215908   4.780   5.379   2.532
 5344TIP3    H115909   4.818   5.441   2.596
 5344TIP3    H215910   4.776   5.296   2.583
 5345TIP3   OH215911   4.841   4.852   1.242
 5345TIP3    H115912   4.833   4.850   1.340
 5345TIP3    H215913   4.762   4.903   1.218
 5346TIP3   OH215914   4.384   4.902   2.112
 5346TIP3    H115915   4.462   4.929   2.164
 5346TIP3    H215916   4.422   4.863   2.031
 5347TIP3   OH215917   4.361   4.880   1.633
 5347TIP3    H115918   4.404   4.919   1.554
 5347TIP3    H215919   4.298   4.952   1.654
 5348TIP3   OH215920   5.509   5.594   2.227
 5348TIP3    H115921   5.544   5.522   2.170
 5348TIP3    H215922   5.485   5.543   2.307
 5349TIP3   OH215923   5.180   5.054   1.900
 5349TIP3    H115924   5.098   5.053   1.953
 5349TIP3    H215925   5.249   5.058   1.968
 5350TIP3   OH215926   4.616   5.109   1.911
 5350TIP3    H115927   4.522   5.115   1.882
 5350TIP3    H215928   4.642   5.019   1.885
 5351TIP3   OH215929   4.889   5.107   1.595
 5351TIP3    H115930   4.983   5.123   1.574
 5351TIP3    H215931   4.842   5.131   1.511
 5352TIP3   OH215932   5.674   5.130   2.099
 5352TIP3    H115933   5.640   5.142   2.191
 5352TIP3    H215934   5.608   5.069   2.063
 5353TIP3   OH215935   4.726   5.140   1.375
 5353TIP3    H115936   4.654   5.096   1.326
 5353TIP3    H215937   4.778   5.176   1.300
 5354TIP3   OH215938   5.838   6.818   2.318
 5354TIP3    H115939   5.841   6.841   2.223
 5354TIP3    H215940   5.921   6.861   2.349
 5355TIP3   OH215941   4.803   5.928   2.741
 5355TIP3    H115942   4.882   5.960   2.789
 5355TIP3    H215943   4.737   5.930   2.814
 5356TIP3   OH215944   5.266   5.380   1.995
 5356TIP3    H115945   5.340   5.344   1.944
 5356TIP3    H215946   5.281   5.342   2.083
 5357TIP3   OH215947   4.790   4.872   1.873
 5357TIP3    H115948   4.758   4.791   1.917
 5357TIP3    H215949   4.843   4.836   1.800
 5358TIP3   OH215950   5.243   5.275   2.291
 5358TIP3    H115951   5.155   5.315   2.301
 5358TIP3    H215952   5.302   5.337   2.339
 5359TIP3   OH215953   4.980   5.670   1.381
 5359TIP3    H115954   4.907   5.606   1.370
 5359TIP3    H215955   4.963   5.705   1.472
 5360TIP3   OH215956   5.882   5.906   2.011
 5360TIP3    H115957   5.908   5.955   1.930
 5360TIP3    H215958   5.796   5.868   1.986
 5361TIP3   OH215959   5.438   4.985   1.238
 5361TIP3    H115960   5.342   4.969   1.248
 5361TIP3    H215961   5.450   5.078   1.264
 5362TIP3   OH215962   5.372   5.984   2.381
 5362TIP3    H115963   5.404   5.968   2.471
 5362TIP3    H215964   5.342   6.076   2.384
 5363TIP3   OH215965   5.509   5.228   1.344
 5363TIP3    H115966   5.605   5.236   1.361
 5363TIP3    H215967   5.490   5.309   1.292
 5364TIP3   OH215968   5.124   5.820   1.200
 5364TIP3    H115969   5.078   5.907   1.208
 5364TIP3    H215970   5.070   5.765   1.261
 5365TIP3   OH215971   4.551   5.616   2.673
 5365TIP3    H115972   4.579   5.607   2.766
 5365TIP3    H215973   4.482   5.548   2.667
 5366TIP3   OH215974   5.277   5.724   2.691
 5366TIP3    H115975   5.222   5.668   2.635
 5366TIP3    H215976   5.367   5.695   2.665
 5367TIP3   OH215977   5.539   6.241   2.277
 5367TIP3    H115978   5.442   6.248   2.287
 5367TIP3    H215979   5.569   6.297   2.352
 5368TIP3   OH215980   5.950   5.318   1.183
 5368TIP3    H115981   5.887   5.273   1.121
 5368TIP3    H215982   5.947   5.407   1.142
 5369TIP3   OH215983   6.167   6.172   2.267
 5369TIP3    H115984   6.069   6.171   2.255
 5369TIP3    H215985   6.195   6.148   2.176
 5370TIP3   OH215986   5.644   6.139   1.088
 5370TIP3    H115987   5.627   6.068   1.152
 5370TIP3    H215988   5.662   6.091   1.005
 5371TIP3   OH215989   5.645   5.768   1.932
 5371TIP3    H115990   5.551   5.742   1.943
 5371TIP3    H215991   5.680   5.690   1.886
 5372TIP3   OH215992   4.769   5.996   1.686
 5372TIP3    H115993   4.780   6.077   1.633
 5372TIP3    H215994   4.674   5.983   1.681
 5373TIP3   OH215995   4.336   5.300   1.385
 5373TIP3    H115996   4.381   5.385   1.403
 5373TIP3    H215997   4.258   5.308   1.444
 5374TIP3   OH215998   4.914   5.765   1.626
 5374TIP3    H115999   4.878   5.853   1.646
 5374TIP3    H216000   4.876   5.712   1.699
 5375TIP3   OH216001   5.041   6.339   2.151
 5375TIP3    H116002   5.081   6.413   2.101
 5375TIP3    H216003   5.118   6.307   2.201
 5376TIP3   OH216004   4.694   6.233   1.537
 5376TIP3    H116005   4.607   6.243   1.579
 5376TIP3    H216006   4.726   6.326   1.538
 5377TIP3   OH216007   5.430   5.973   2.110
 5377TIP3    H116008   5.423   5.971   2.208
 5377TIP3    H216009   5.514   5.926   2.096
 5378TIP3   OH216010   5.403   5.861   0.992
 5378TIP3    H116011   5.456   5.839   1.072
 5378TIP3    H216012   5.314   5.840   1.024
 5379TIP3   OH216013   5.677   6.509   2.161
 5379TIP3    H116014   5.598   6.454   2.149
 5379TIP3    H216015   5.665   6.575   2.089
 5380TIP3   OH216016   5.743   6.339   0.818
 5380TIP3    H116017   5.769   6.403   0.749
 5380TIP3    H216018   5.665   6.387   0.852
 5381TIP3   OH216019   4.765   5.119   2.678
 5381TIP3    H116020   4.670   5.126   2.697
 5381TIP3    H216021   4.795   5.059   2.749
 5382TIP3   OH216022   5.563   5.799   1.210
 5382TIP3    H116023   5.554   5.733   1.281
 5382TIP3    H216024   5.660   5.799   1.197
 5383TIP3   OH216025   4.485   6.201   2.311
 5383TIP3    H116026   4.539   6.132   2.354
 5383TIP3    H216027   4.502   6.276   2.369
 5384TIP3   OH216028   4.772   5.847   0.992
 5384TIP3    H116029   4.785   5.756   0.961
 5384TIP3    H216030   4.753   5.834   1.087
 5385TIP3   OH216031   4.718   5.851   1.265
 5385TIP3    H116032   4.789   5.827   1.325
 5385TIP3    H216033   4.721   5.949   1.270
 5386TIP3   OH216034   4.453   5.547   1.467
 5386TIP3    H116035   4.387   5.593   1.523
 5386TIP3    H216036   4.468   5.615   1.399
 5387TIP3   OH216037   5.599   5.182   2.357
 5387TIP3    H116038   5.678   5.223   2.398
 5387TIP3    H216039   5.586   5.102   2.413
 5388TIP3   OH216040   5.481   4.935   1.521
 5388TIP3    H116041   5.466   4.961   1.428
 5388TIP3    H216042   5.520   5.017   1.559
 5389TIP3   OH216043   4.981   6.050   1.213
 5389TIP3    H116044   4.895   6.079   1.248
 5389TIP3    H216045   5.000   6.122   1.151
 5390TIP3   OH216046   5.171   5.111   1.626
 5390TIP3    H116047   5.236   5.183   1.607
 5390TIP3    H216048   5.176   5.106   1.723
 5391TIP3   OH216049   5.438   5.432   2.437
 5391TIP3    H116050   5.458   5.488   2.514
 5391TIP3    H216051   5.496   5.356   2.451
 5392TIP3   OH216052   5.317   4.843   1.730
 5392TIP3    H116053   5.309   4.919   1.790
 5392TIP3    H216054   5.376   4.880   1.661
 5393TIP3   OH216055   4.722   6.124   1.280
 5393TIP3    H116056   4.694   6.193   1.215
 5393TIP3    H216057   4.708   6.170   1.365
 5394TIP3   OH216058   4.826   4.837   1.519
 5394TIP3    H116059   4.823   4.929   1.554
 5394TIP3    H216060   4.922   4.819   1.527
 5395TIP3   OH216061   6.080   5.330   2.418
 5395TIP3    H116062   5.982   5.327   2.421
 5395TIP3    H216063   6.096   5.304   2.326
 5396TIP3   OH216064   5.731   5.527   1.804
 5396TIP3    H116065   5.656   5.466   1.817
 5396TIP3    H216066   5.804   5.481   1.851
 5397TIP3   OH216067   4.442   5.758   1.275
 5397TIP3    H116068   4.504   5.832   1.281
 5397TIP3    H216069   4.489   5.705   1.206
 5398TIP3   OH216070   4.388   5.030   1.407
 5398TIP3    H116071   4.387   5.128   1.401
 5398TIP3    H216072   4.305   5.007   1.364
 5399TIP3   OH216073   5.699   6.480   1.753
 5399TIP3    H116074   5.657   6.527   1.678
 5399TIP3    H216075   5.793   6.500   1.734
 5400TIP3   OH216076   4.773   4.753   2.282
 5400TIP3    H116077   4.743   4.718   2.195
 5400TIP3    H216078   4.765   4.673   2.339
 5401TIP3   OH216079   4.314   5.966   1.667
 5401TIP3    H116080   4.237   6.002   1.711
 5401TIP3    H216081   4.303   6.005   1.578
 5402TIP3   OH216082   4.470   6.509   2.730
 5402TIP3    H116083   4.554   6.510   2.780
 5402TIP3    H216084   4.446   6.415   2.734
 5403TIP3   OH216085   4.955   6.478   2.776
 5403TIP3    H116086   5.050   6.458   2.785
 5403TIP3    H216087   4.931   6.420   2.701
 5404TIP3   OH216088   4.934   6.052   0.906
 5404TIP3    H116089   4.877   5.982   0.944
 5404TIP3    H216090   5.009   5.999   0.874
 5405TIP3   OH216091   5.591   6.382   2.509
 5405TIP3    H116092   5.584   6.312   2.578
 5405TIP3    H216093   5.670   6.432   2.538
 5406TIP3   OH216094   5.369   6.092   0.816
 5406TIP3    H116095   5.419   6.033   0.874
 5406TIP3    H216096   5.429   6.100   0.739
 5407TIP3   OH216097   4.604   5.918   2.932
 5407TIP3    H116098   4.618   5.822   2.942
 5407TIP3    H216099   4.514   5.921   2.894
 5408TIP3   OH216100   4.578   5.569   1.125
 5408TIP3    H116101   4.633   5.536   1.197
 5408TIP3    H216102   4.645   5.574   1.053
 5409TIP3   OH216103   5.210   6.000   2.706
 5409TIP3    H116104   5.170   6.016   2.618
 5409TIP3    H216105   5.242   5.908   2.698
 5410TIP3   OH216106   5.085   5.766   0.931
 5410TIP3    H116107   5.088   5.780   1.028
 5410TIP3    H216108   5.083   5.668   0.927
 5411TIP3   OH216109   5.700   6.008   2.310
 5411TIP3    H116110   5.777   6.051   2.267
 5411TIP3    H216111   5.632   6.077   2.299
 5412TIP3   OH216112   4.720   5.645   2.912
 5412TIP3    H116113   4.796   5.588   2.898
 5412TIP3    H216114   4.741   5.682   3.000
 5413TIP3   OH216115   4.788   5.470   1.349
 5413TIP3    H116116   4.762   5.427   1.432
 5413TIP3    H216117   4.823   5.395   1.297
 5414TIP3   OH216118   5.049   5.530   2.570
 5414TIP3    H116119   4.979   5.597   2.579
 5414TIP3    H216120   5.102   5.566   2.495
 5415TIP3   OH216121   4.886   5.262   1.190
 5415TIP3    H116122   4.859   5.265   1.096
 5415TIP3    H216123   4.983   5.272   1.181
 5416TIP3   OH216124   5.569   5.935   2.709
 5416TIP3    H116125   5.653   5.921   2.664
 5416TIP3    H216126   5.573   5.870   2.781
 5417TIP3   OH216127   5.710   5.596   0.849
 5417TIP3    H116128   5.686   5.550   0.766
 5417TIP3    H216129   5.679   5.687   0.825
 5418TIP3   OH216130   5.178   5.323   2.704
 5418TIP3    H116131   5.179   5.242   2.648
 5418TIP3    H216132   5.135   5.388   2.644
 5419TIP3   OH216133   5.181   5.108   2.509
 5419TIP3    H116134   5.209   5.151   2.426
 5419TIP3    H216135   5.087   5.086   2.490
 5420TIP3   OH216136   5.209   5.644   2.382
 5420TIP3    H116137   5.293   5.652   2.334
 5420TIP3    H216138   5.156   5.715   2.340
 5421TIP3   OH216139   5.792   5.614   2.765
 5421TIP3    H116140   5.844   5.532   2.772
 5421TIP3    H216141   5.859   5.676   2.731
 5422TIP3   OH216142   5.832   5.864   2.497
 5422TIP3    H116143   5.774   5.918   2.439
 5422TIP3    H216144   5.920   5.886   2.458
 5423TIP3   OH216145   5.054   5.439   2.930
 5423TIP3    H116146   4.986   5.371   2.945
 5423TIP3    H216147   5.091   5.411   2.844
 5424TIP3   OH216148   5.313   4.874   2.575
 5424TIP3    H116149   5.265   4.957   2.553
 5424TIP3    H216150   5.243   4.807   2.563
 5425TIP3   OH216151   5.440   5.379   2.792
 5425TIP3    H116152   5.430   5.370   2.889
 5425TIP3    H216153   5.349   5.354   2.764
 5426TIP3   OH216154   5.679   5.325   2.646
 5426TIP3    H116155   5.603   5.330   2.707
 5426TIP3    H216156   5.752   5.297   2.704
 5427TIP3   OH216157   5.907   5.267   2.800
 5427TIP3    H116158   5.919   5.172   2.820
 5427TIP3    H216159   5.903   5.308   2.889
 5428TIP3   OH216160   4.895   5.218   2.983
 5428TIP3    H116161   4.904   5.127   2.949
 5428TIP3    H216162   4.930   5.206   3.074
 5429TIP3   OH216163   5.408   4.883   2.832
 5429TIP3    H116164   5.476   4.813   2.826
 5429TIP3    H216165   5.368   4.877   2.743
 5430TIP3   OH216166   5.472   5.097   2.993
 5430TIP3    H116167   5.450   5.028   2.928
 5430TIP3    H216168   5.396   5.158   2.986
 5431TIP3   OH216169   4.693   6.325   1.092
 5431TIP3    H116170   4.788   6.326   1.073
 5431TIP3    H216171   4.661   6.374   1.014
 5432TIP3   OH216172   4.175   5.706   1.315
 5432TIP3    H116173   4.269   5.730   1.298
 5432TIP3    H216174   4.169   5.619   1.269
 5433TIP3   OH216175   4.087   6.322   1.720
 5433TIP3    H116176   4.019   6.260   1.685
 5433TIP3    H216177   4.131   6.265   1.787
 5434TIP3   OH216178   4.226   6.177   1.906
 5434TIP3    H116179   4.209   6.104   1.967
 5434TIP3    H216180   4.275   6.238   1.963
 5435TIP3   OH216181   5.947   6.579   1.707
 5435TIP3    H116182   5.978   6.609   1.795
 5435TIP3    H216183   6.015   6.617   1.649
 5436TIP3   OH216184   5.980   6.595   1.990
 5436TIP3    H116185   5.942   6.505   1.987
 5436TIP3    H216186   6.059   6.577   2.044
 5437TIP3   OH216187   6.028   6.270   2.564
 5437TIP3    H116188   5.954   6.281   2.627
 5437TIP3    H216189   6.070   6.359   2.567
 5438TIP3   OH216190   5.843   5.784   1.183
 5438TIP3    H116191   5.912   5.848   1.156
 5438TIP3    H216192   5.885   5.744   1.262
 5439TIP3   OH216193   5.969   5.650   1.384
 5439TIP3    H116194   5.907   5.610   1.448
 5439TIP3    H216195   6.039   5.688   1.442
 5440TIP3   OH216196   6.020   6.039   1.816
 5440TIP3    H116197   6.078   5.980   1.764
 5440TIP3    H216198   6.015   6.118   1.759
 5441TIP3   OH216199   5.857   6.341   2.016
 5441TIP3    H116200   5.788   6.386   2.068
 5441TIP3    H216201   5.806   6.294   1.947
 5442TIP3   OH216202   5.909   5.557   1.035
 5442TIP3    H116203   5.837   5.563   0.968
 5442TIP3    H216204   5.885   5.634   1.091
 5443TIP3   OH216205   5.781   5.230   0.990
 5443TIP3    H116206   5.739   5.275   0.916
 5443TIP3    H216207   5.753   5.137   0.975
 5444TIP3   OH216208   5.784   5.506   1.535
 5444TIP3    H116209   5.795   5.410   1.533
 5444TIP3    H216210   5.772   5.524   1.631
 5445TIP3   OH216211   6.073   5.931   2.390
 5445TIP3    H116212   6.148   5.867   2.382
 5445TIP3    H216213   6.102   6.004   2.332
 5446TIP3   OH216214   6.257   5.738   2.412
 5446TIP3    H116215   6.185   5.686   2.453
 5446TIP3    H216216   6.332   5.676   2.424
 5447TIP3   OH216217   5.726   4.962   0.972
 5447TIP3    H116218   5.800   4.937   1.030
 5447TIP3    H216219   5.652   4.908   1.004
 5448TIP3   OH216220   5.780   5.221   1.431
 5448TIP3    H116221   5.822   5.134   1.445
 5448TIP3    H216222   5.839   5.258   1.362
 5449TIP3   OH216223   5.944   5.398   1.924
 5449TIP3    H116224   6.030   5.425   1.884
 5449TIP3    H216225   5.957   5.436   2.013
 5450TIP3   OH216226   6.010   5.540   2.159
 5450TIP3    H116227   5.932   5.577   2.206
 5450TIP3    H216228   6.043   5.620   2.111
 5451TIP3   OH216229   4.628   5.267   2.952
 5451TIP3    H116230   4.726   5.262   2.956
 5451TIP3    H216231   4.604   5.184   2.998
 5452TIP3   OH216232   6.465   5.131   2.715
 5452TIP3    H116233   6.522   5.065   2.669
 5452TIP3    H216234   6.435   5.187   2.641
 5453TIP3   OH216235   5.892   4.972   1.467
 5453TIP3    H116236   5.939   4.957   1.551
 5453TIP3    H216237   5.830   4.895   1.466
 5454TIP3   OH216238   4.590   4.962   2.290
 5454TIP3    H116239   4.650   4.885   2.299
 5454TIP3    H216240   4.655   5.034   2.280
 5455TIP3   OH216241   4.388   5.255   2.358
 5455TIP3    H116242   4.434   5.227   2.276
 5455TIP3    H216243   4.461   5.297   2.406
 5456TIP3   OH216244   6.335   5.272   2.524
 5456TIP3    H116245   6.249   5.312   2.544
 5456TIP3    H216246   6.307   5.203   2.461
 5457TIP3   OH216247   5.972   4.910   1.099
 5457TIP3    H116248   6.016   4.838   1.049
 5457TIP3    H216249   6.039   4.982   1.094
 5458TIP3   OH216250   4.376   4.740   1.864
 5458TIP3    H116251   4.281   4.736   1.886
 5458TIP3    H216252   4.375   4.796   1.783
 5459TIP3   OH216253   5.534   6.439   1.366
 5459TIP3    H116254   5.586   6.424   1.285
 5459TIP3    H216255   5.588   6.505   1.412
 5460TIP3   OH216256   4.596   4.818   2.676
 5460TIP3    H116257   4.547   4.811   2.759
 5460TIP3    H216258   4.528   4.854   2.617
 5461TIP3   OH216259   4.637   6.237   2.753
 5461TIP3    H116260   4.543   6.216   2.737
 5461TIP3    H216261   4.644   6.227   2.849
 5462TIP3   OH216262   4.814   6.271   2.297
 5462TIP3    H116263   4.766   6.348   2.261
 5462TIP3    H216264   4.901   6.288   2.254
 5463TIP3   OH216265   5.262   6.521   2.437
 5463TIP3    H116266   5.303   6.523   2.526
 5463TIP3    H216267   5.328   6.572   2.385
 5464TIP3   OH216268   5.441   6.671   2.294
 5464TIP3    H116269   5.514   6.621   2.255
 5464TIP3    H216270   5.491   6.729   2.356
 5465TIP3   OH216271   6.233   5.036   2.396
 5465TIP3    H116272   6.142   5.036   2.362
 5465TIP3    H216273   6.260   4.943   2.382
 5466TIP3   OH216274   4.490   6.529   2.324
 5466TIP3    H116275   4.402   6.566   2.300
 5466TIP3    H216276   4.501   6.567   2.412
 5467TIP3   OH216277   4.727   6.509   2.180
 5467TIP3    H116278   4.641   6.524   2.226
 5467TIP3    H216279   4.707   6.545   2.091
 5468TIP3   OH216280   5.153   6.542   1.978
 5468TIP3    H116281   5.086   6.565   1.912
 5468TIP3    H216282   5.168   6.628   2.022
 5469TIP3   OH216283   5.422   6.479   2.028
 5469TIP3    H116284   5.328   6.498   2.009
 5469TIP3    H216285   5.466   6.557   1.989
 5470TIP3   OH216286   5.628   6.673   1.945
 5470TIP3    H116287   5.615   6.758   1.899
 5470TIP3    H216288   5.656   6.614   1.872
 5471TIP3   OH216289   4.403   6.328   2.067
 5471TIP3    H116290   4.430   6.306   2.159
 5471TIP3    H216291   4.477   6.286   2.017
 5472TIP3   OH216292   4.596   6.199   1.923
 5472TIP3    H116293   4.617   6.116   1.969
 5472TIP3    H216294   4.685   6.242   1.917
 5473TIP3   OH216295   4.858   6.296   1.927
 5473TIP3    H116296   4.897   6.208   1.910
 5473TIP3    H216297   4.903   6.318   2.011
 5474TIP3   OH216298   5.437   4.950   2.013
 5474TIP3    H116299   5.394   4.882   2.067
 5474TIP3    H216300   5.510   4.901   1.970
 5475TIP3   OH216301   5.963   4.826   1.920
 5475TIP3    H116302   6.000   4.881   1.847
 5475TIP3    H216303   5.868   4.849   1.916
 5476TIP3   OH216304   6.058   4.929   1.684
 5476TIP3    H116305   6.131   4.880   1.643
 5476TIP3    H216306   6.090   5.022   1.670
 5477TIP3   OH216307   4.688   4.659   2.033
 5477TIP3    H116308   4.596   4.625   2.032
 5477TIP3    H216309   4.738   4.575   2.030
 5478TIP3   OH216310   4.474   4.526   1.679
 5478TIP3    H116311   4.503   4.584   1.606
 5478TIP3    H216312   4.443   4.591   1.745
 5479TIP3   OH216313   5.129   4.692   1.911
 5479TIP3    H116314   5.188   4.744   1.854
 5479TIP3    H216315   5.149   4.728   1.999
 5480TIP3   OH216316   5.680   4.837   1.898
 5480TIP3    H116317   5.674   4.804   1.807
 5480TIP3    H216318   5.664   4.755   1.950
 5481TIP3   OH216319   5.707   4.758   1.457
 5481TIP3    H116320   5.621   4.803   1.468
 5481TIP3    H216321   5.691   4.674   1.505
 5482TIP3   OH216322   4.190   6.098   1.464
 5482TIP3    H116323   4.106   6.065   1.427
 5482TIP3    H216324   4.180   6.192   1.444
 5483TIP3   OH216325   4.589   4.687   1.445
 5483TIP3    H116326   4.638   4.626   1.387
 5483TIP3    H216327   4.661   4.742   1.481
 5484TIP3   OH216328   5.103   4.861   1.542
 5484TIP3    H116329   5.164   4.816   1.603
 5484TIP3    H216330   5.124   4.954   1.566
 5485TIP3   OH216331   4.962   6.290   1.042
 5485TIP3    H116332   5.051   6.312   1.006
 5485TIP3    H216333   4.940   6.215   0.983
 5486TIP3   OH216334   5.679   6.405   1.134
 5486TIP3    H116335   5.670   6.308   1.119
 5486TIP3    H216336   5.637   6.440   1.053
 5487TIP3   OH216337   4.895   4.940   2.922
 5487TIP3    H116338   4.861   4.870   2.980
 5487TIP3    H216339   4.990   4.941   2.948
 5488TIP3   OH216340   5.143   4.937   3.042
 5488TIP3    H116341   5.228   4.912   3.002
 5488TIP3    H216342   5.131   4.866   3.108
 5489TIP3   OH216343   4.266   6.123   1.100
 5489TIP3    H116344   4.266   6.157   1.190
 5489TIP3    H216345   4.356   6.084   1.091
 5490TIP3   OH216346   5.967   4.996   2.830
 5490TIP3    H116347   5.988   4.966   2.921
 5490TIP3    H216348   6.055   4.993   2.787
 5491TIP3   OH216349   5.907   6.551   2.323
 5491TIP3    H116350   5.828   6.521   2.275
 5491TIP3    H216351   5.892   6.647   2.325
 5492TIP3   OH216352   7.175   5.921   1.089
 5492TIP3    H116353   7.152   6.015   1.071
 5492TIP3    H216354   7.091   5.879   1.064
 5493TIP3   OH216355   7.207   5.896   1.455
 5493TIP3    H116356   7.197   5.895   1.551
 5493TIP3    H216357   7.119   5.872   1.423
 5494TIP3   OH216358   6.476   5.826   1.836
 5494TIP3    H116359   6.515   5.761   1.896
 5494TIP3    H216360   6.550   5.889   1.826
 5495TIP3   OH216361   7.419   6.220   1.149
 5495TIP3    H116362   7.397   6.158   1.219
 5495TIP3    H216363   7.437   6.301   1.200
 5496TIP3   OH216364   6.457   6.220   1.558
 5496TIP3    H116365   6.438   6.125   1.558
 5496TIP3    H216366   6.544   6.219   1.603
 5497TIP3   OH216367   6.150   5.427   1.346
 5497TIP3    H116368   6.109   5.514   1.362
 5497TIP3    H216369   6.075   5.379   1.307
 5498TIP3   OH216370   6.208   5.715   1.507
 5498TIP3    H116371   6.260   5.644   1.551
 5498TIP3    H216372   6.278   5.765   1.462
 5499TIP3   OH216373   7.065   6.688   1.164
 5499TIP3    H116374   7.117   6.614   1.124
 5499TIP3    H216375   7.067   6.663   1.257
 5500TIP3   OH216376   7.985   5.469   1.515
 5500TIP3    H116377   8.011   5.550   1.562
 5500TIP3    H216378   8.000   5.495   1.423
 5501TIP3   OH216379   7.385   5.649   1.556
 5501TIP3    H116380   7.426   5.561   1.568
 5501TIP3    H216381   7.352   5.642   1.465
 5502TIP3   OH216382   6.720   5.307   1.517
 5502TIP3    H116383   6.701   5.382   1.456
 5502TIP3    H216384   6.670   5.236   1.472
 5503TIP3   OH216385   7.414   5.395   1.140
 5503TIP3    H116386   7.487   5.382   1.205
 5503TIP3    H216387   7.464   5.436   1.067
 5504TIP3   OH216388   6.353   5.510   1.624
 5504TIP3    H116389   6.438   5.494   1.670
 5504TIP3    H216390   6.368   5.457   1.543
 5505TIP3   OH216391   6.798   5.708   1.404
 5505TIP3    H116392   6.889   5.679   1.427
 5505TIP3    H216393   6.757   5.623   1.379
 5506TIP3   OH216394   8.055   5.674   1.686
 5506TIP3    H116395   7.973   5.725   1.667
 5506TIP3    H216396   8.073   5.703   1.777
 5507TIP3   OH216397   6.717   5.291   1.950
 5507TIP3    H116398   6.660   5.331   1.882
 5507TIP3    H216399   6.666   5.312   2.031
 5508TIP3   OH216400   7.072   6.144   0.958
 5508TIP3    H116401   7.026   6.128   0.874
 5508TIP3    H216402   7.028   6.226   0.988
 5509TIP3   OH216403   7.631   5.398   1.309
 5509TIP3    H116404   7.611   5.357   1.394
 5509TIP3    H216405   7.679   5.479   1.336
 5510TIP3   OH216406   6.588   5.407   1.735
 5510TIP3    H116407   6.648   5.482   1.757
 5510TIP3    H216408   6.639   5.368   1.660
 5511TIP3   OH216409   6.049   5.951   1.080
 5511TIP3    H116410   6.008   5.980   0.996
 5511TIP3    H216411   6.079   6.036   1.118
 5512TIP3   OH216412   7.490   6.462   1.316
 5512TIP3    H116413   7.401   6.454   1.358
 5512TIP3    H216414   7.481   6.550   1.274
 5513TIP3   OH216415   7.777   5.366   1.680
 5513TIP3    H116416   7.690   5.399   1.654
 5513TIP3    H216417   7.835   5.400   1.608
 5514TIP3   OH216418   7.078   5.014   1.663
 5514TIP3    H116419   7.063   4.919   1.680
 5514TIP3    H216420   7.000   5.052   1.709
 5515TIP3   OH216421   7.213   6.511   1.023
 5515TIP3    H116422   7.251   6.430   0.983
 5515TIP3    H216423   7.232   6.574   0.951
 5516TIP3   OH216424   7.342   6.303   0.896
 5516TIP3    H116425   7.294   6.229   0.856
 5516TIP3    H216426   7.371   6.265   0.981
 5517TIP3   OH216427   7.717   6.381   1.662
 5517TIP3    H116428   7.701   6.304   1.604
 5517TIP3    H216429   7.693   6.455   1.603
 5518TIP3   OH216430   7.001   5.768   0.916
 5518TIP3    H116431   6.919   5.821   0.903
 5518TIP3    H216432   7.043   5.777   0.829
 5519TIP3   OH216433   6.966   5.554   0.664
 5519TIP3    H116434   7.044   5.597   0.702
 5519TIP3    H216435   7.008   5.499   0.595
 5520TIP3   OH216436   7.909   6.015   1.504
 5520TIP3    H116437   7.826   6.067   1.512
 5520TIP3    H216438   7.937   6.041   1.414
 5521TIP3   OH216439   7.351   5.850   0.896
 5521TIP3    H116440   7.296   5.879   0.972
 5521TIP3    H216441   7.436   5.831   0.941
 5522TIP3   OH216442   7.589   5.897   1.801
 5522TIP3    H116443   7.585   5.983   1.848
 5522TIP3    H216444   7.501   5.898   1.758
 5523TIP3   OH216445   6.584   5.853   1.306
 5523TIP3    H116446   6.547   5.794   1.236
 5523TIP3    H216447   6.663   5.804   1.335
 5524TIP3   OH216448   6.727   5.818   1.657
 5524TIP3    H116449   6.757   5.810   1.564
 5524TIP3    H216450   6.741   5.915   1.673
 5525TIP3   OH216451   7.249   6.467   1.434
 5525TIP3    H116452   7.227   6.547   1.485
 5525TIP3    H216453   7.239   6.394   1.499
 5526TIP3   OH216454   6.854   6.376   1.986
 5526TIP3    H116455   6.788   6.438   2.026
 5526TIP3    H216456   6.797   6.326   1.925
 5527TIP3   OH216457   7.208   5.715   0.712
 5527TIP3    H116458   7.256   5.768   0.780
 5527TIP3    H216459   7.225   5.769   0.633
 5528TIP3   OH216460   6.614   5.929   2.095
 5528TIP3    H116461   6.621   6.021   2.129
 5528TIP3    H216462   6.517   5.921   2.090
 5529TIP3   OH216463   6.931   6.391   1.015
 5529TIP3    H116464   7.013   6.441   1.026
 5529TIP3    H216465   6.888   6.441   0.944
 5530TIP3   OH216466   6.654   6.551   2.074
 5530TIP3    H116467   6.621   6.549   1.981
 5530TIP3    H216468   6.573   6.528   2.124
 5531TIP3   OH216469   7.698   4.946   0.770
 5531TIP3    H116470   7.621   4.966   0.827
 5531TIP3    H216471   7.710   5.032   0.725
 5532TIP3   OH216472   6.455   5.690   1.103
 5532TIP3    H116473   6.389   5.742   1.052
 5532TIP3    H216474   6.403   5.613   1.129
 5533TIP3   OH216475   6.230   6.079   2.020
 5533TIP3    H116476   6.171   6.055   1.947
 5533TIP3    H216477   6.269   5.993   2.047
 5534TIP3   OH216478   6.087   6.273   1.656
 5534TIP3    H116479   6.182   6.264   1.645
 5534TIP3    H216480   6.082   6.352   1.712
 5535TIP3   OH216481   7.951   6.725   1.710
 5535TIP3    H116482   7.947   6.628   1.719
 5535TIP3    H216483   7.867   6.749   1.754
 5536TIP3   OH216484   7.059   6.507   1.845
 5536TIP3    H116485   7.058   6.601   1.874
 5536TIP3    H216486   6.985   6.470   1.897
 5537TIP3   OH216487   6.806   6.663   0.781
 5537TIP3    H116488   6.745   6.638   0.711
 5537TIP3    H216489   6.776   6.751   0.807
 5538TIP3   OH216490   6.254   6.491   1.179
 5538TIP3    H116491   6.304   6.480   1.262
 5538TIP3    H216492   6.192   6.416   1.186
 5539TIP3   OH216493   7.050   6.534   0.782
 5539TIP3    H116494   6.970   6.590   0.779
 5539TIP3    H216495   7.118   6.587   0.737
 5540TIP3   OH216496   7.843   5.857   1.981
 5540TIP3    H116497   7.761   5.874   1.932
 5540TIP3    H216498   7.853   5.761   1.970
 5541TIP3   OH216499   6.424   6.281   2.017
 5541TIP3    H116500   6.495   6.252   2.076
 5541TIP3    H216501   6.366   6.202   2.014
 5542TIP3   OH216502   6.837   5.087   1.791
 5542TIP3    H116503   6.746   5.058   1.767
 5542TIP3    H216504   6.815   5.172   1.833
 5543TIP3   OH216505   7.369   5.201   1.985
 5543TIP3    H116506   7.436   5.178   2.052
 5543TIP3    H216507   7.284   5.184   2.031
 5544TIP3   OH216508   7.611   5.633   1.904
 5544TIP3    H116509   7.562   5.629   1.989
 5544TIP3    H216510   7.585   5.720   1.868
 5545TIP3   OH216511   6.984   5.134   0.762
 5545TIP3    H116512   6.952   5.137   0.854
 5545TIP3    H216513   6.940   5.053   0.732
 5546TIP3   OH216514   6.768   5.601   1.810
 5546TIP3    H116515   6.719   5.626   1.890
 5546TIP3    H216516   6.757   5.682   1.755
 5547TIP3   OH216517   6.653   5.484   1.324
 5547TIP3    H116518   6.559   5.464   1.341
 5547TIP3    H216519   6.664   5.445   1.234
 5548TIP3   OH216520   7.140   5.572   1.050
 5548TIP3    H116521   7.086   5.646   1.012
 5548TIP3    H216522   7.195   5.548   0.973
 5549TIP3   OH216523   7.317   5.853   2.136
 5549TIP3    H116524   7.294   5.782   2.200
 5549TIP3    H216525   7.410   5.870   2.160
 5550TIP3   OH216526   7.301   5.604   1.296
 5550TIP3    H116527   7.243   5.643   1.228
 5550TIP3    H216528   7.327   5.522   1.249
 5551TIP3   OH216529   6.588   5.634   2.020
 5551TIP3    H116530   6.610   5.704   2.083
 5551TIP3    H216531   6.578   5.555   2.076
 5552TIP3   OH216532   6.633   5.105   0.731
 5552TIP3    H116533   6.627   5.107   0.829
 5552TIP3    H216534   6.558   5.163   0.708
 5553TIP3   OH216535   6.180   5.153   1.600
 5553TIP3    H116536   6.253   5.188   1.655
 5553TIP3    H216537   6.224   5.127   1.518
 5554TIP3   OH216538   6.155   5.136   1.118
 5554TIP3    H116539   6.200   5.176   1.041
 5554TIP3    H216540   6.095   5.209   1.143
 5555TIP3   OH216541   7.319   5.853   1.723
 5555TIP3    H116542   7.344   5.782   1.658
 5555TIP3    H216543   7.283   5.799   1.796
 5556TIP3   OH216544   6.975   5.301   1.386
 5556TIP3    H116545   6.893   5.307   1.437
 5556TIP3    H216546   7.041   5.324   1.454
 5557TIP3   OH216547   6.413   5.367   1.396
 5557TIP3    H116548   6.318   5.375   1.369
 5557TIP3    H216549   6.436   5.276   1.370
 5558TIP3   OH216550   6.687   5.359   1.081
 5558TIP3    H116551   6.779   5.383   1.060
 5558TIP3    H216552   6.637   5.387   1.000
 5559TIP3   OH216553   7.472   5.383   1.583
 5559TIP3    H116554   7.440   5.398   1.675
 5559TIP3    H216555   7.401   5.325   1.549
 5560TIP3   OH216556   6.519   5.388   0.865
 5560TIP3    H116557   6.448   5.351   0.809
 5560TIP3    H216558   6.574   5.432   0.797
 5561TIP3   OH216559   7.637   7.074   1.800
 5561TIP3    H116560   7.615   7.092   1.708
 5561TIP3    H216561   7.722   7.121   1.812
 5562TIP3   OH216562   6.599   6.180   2.227
 5562TIP3    H116563   6.677   6.217   2.272
 5562TIP3    H216564   6.532   6.191   2.297
 5563TIP3   OH216565   7.054   5.619   1.480
 5563TIP3    H116566   7.139   5.609   1.434
 5563TIP3    H216567   7.077   5.596   1.572
 5564TIP3   OH216568   6.585   5.128   1.359
 5564TIP3    H116569   6.555   5.046   1.404
 5564TIP3    H216570   6.639   5.094   1.287
 5565TIP3   OH216571   7.039   5.530   1.782
 5565TIP3    H116572   6.950   5.571   1.787
 5565TIP3    H216573   7.096   5.595   1.827
 5566TIP3   OH216574   6.771   5.918   0.873
 5566TIP3    H116575   6.695   5.858   0.863
 5566TIP3    H216576   6.754   5.956   0.964
 5567TIP3   OH216577   7.679   6.161   1.499
 5567TIP3    H116578   7.699   6.212   1.418
 5567TIP3    H216579   7.590   6.123   1.478
 5568TIP3   OH216580   7.234   5.239   0.727
 5568TIP3    H116581   7.137   5.226   0.737
 5568TIP3    H216582   7.245   5.334   0.749
 5569TIP3   OH216583   7.182   6.243   1.867
 5569TIP3    H116584   7.187   6.229   1.962
 5569TIP3    H216585   7.134   6.328   1.861
 5570TIP3   OH216586   7.306   5.484   0.828
 5570TIP3    H116587   7.400   5.495   0.853
 5570TIP3    H216588   7.287   5.566   0.777
 5571TIP3   OH216589   6.445   5.924   1.541
 5571TIP3    H116590   6.500   5.920   1.461
 5571TIP3    H216591   6.508   5.893   1.609
 5572TIP3   OH216592   6.921   6.081   0.721
 5572TIP3    H116593   6.874   6.168   0.720
 5572TIP3    H216594   6.861   6.026   0.775
 5573TIP3   OH216595   6.344   5.869   2.158
 5573TIP3    H116596   6.371   5.859   2.251
 5573TIP3    H216597   6.277   5.800   2.148
 5574TIP3   OH216598   7.071   5.979   2.181
 5574TIP3    H116599   7.012   5.928   2.124
 5574TIP3    H216600   7.159   5.950   2.148
 5575TIP3   OH216601   7.342   6.510   1.760
 5575TIP3    H116602   7.246   6.502   1.767
 5575TIP3    H216603   7.362   6.562   1.841
 5576TIP3   OH216604   7.707   5.593   0.712
 5576TIP3    H116605   7.738   5.525   0.651
 5576TIP3    H216606   7.713   5.674   0.658
 5577TIP3   OH216607   7.966   6.433   1.751
 5577TIP3    H116608   7.868   6.428   1.743
 5577TIP3    H216609   7.991   6.403   1.660
 5578TIP3   OH216610   7.448   6.022   1.418
 5578TIP3    H116611   7.356   5.993   1.432
 5578TIP3    H216612   7.482   5.946   1.369
 5579TIP3   OH216613   6.562   6.247   1.148
 5579TIP3    H116614   6.569   6.335   1.109
 5579TIP3    H216615   6.473   6.246   1.184
 5580TIP3   OH216616   6.131   5.557   0.870
 5580TIP3    H116617   6.179   5.640   0.890
 5580TIP3    H216618   6.055   5.564   0.931
 5581TIP3   OH216619   6.709   6.017   1.114
 5581TIP3    H116620   6.677   6.109   1.130
 5581TIP3    H216621   6.676   5.973   1.194
 5582TIP3   OH216622   6.832   6.596   1.632
 5582TIP3    H116623   6.860   6.689   1.629
 5582TIP3    H216624   6.906   6.554   1.678
 5583TIP3   OH216625   6.485   6.496   1.018
 5583TIP3    H116626   6.400   6.500   1.067
 5583TIP3    H216627   6.517   6.587   1.028
 5584TIP3   OH216628   7.257   6.244   1.601
 5584TIP3    H116629   7.226   6.233   1.693
 5584TIP3    H216630   7.311   6.165   1.587
 5585TIP3   OH216631   7.136   6.200   0.539
 5585TIP3    H116632   7.184   6.159   0.613
 5585TIP3    H216633   7.068   6.131   0.520
 5586TIP3   OH216634   7.485   6.761   1.644
 5586TIP3    H116635   7.403   6.709   1.646
 5586TIP3    H216636   7.465   6.826   1.573
 5587TIP3   OH216637   6.562   5.373   2.168
 5587TIP3    H116638   6.466   5.381   2.183
 5587TIP3    H216639   6.589   5.313   2.240
 5588TIP3   OH216640   7.338   6.061   0.711
 5588TIP3    H116641   7.341   5.995   0.782
 5588TIP3    H216642   7.434   6.068   0.691
 5589TIP3   OH216643   6.278   6.458   1.801
 5589TIP3    H116644   6.337   6.385   1.827
 5589TIP3    H216645   6.313   6.527   1.858
 5590TIP3   OH216646   6.524   6.071   0.482
 5590TIP3    H116647   6.571   5.987   0.472
 5590TIP3    H216648   6.532   6.085   0.579
 5591TIP3   OH216649   6.517   6.108   0.752
 5591TIP3    H116650   6.579   6.080   0.821
 5591TIP3    H216651   6.520   6.206   0.762
 5592TIP3   OH216652   6.247   5.802   0.954
 5592TIP3    H116653   6.183   5.847   1.013
 5592TIP3    H216654   6.265   5.874   0.890
 5593TIP3   OH216655   7.400   5.436   1.841
 5593TIP3    H116656   7.474   5.479   1.886
 5593TIP3    H216657   7.382   5.358   1.898
 5594TIP3   OH216658   7.281   5.189   1.007
 5594TIP3    H116659   7.262   5.219   0.916
 5594TIP3    H216660   7.317   5.271   1.048
 5595TIP3   OH216661   6.774   6.304   0.694
 5595TIP3    H116662   6.690   6.336   0.732
 5595TIP3    H216663   6.774   6.349   0.608
 5596TIP3   OH216664   6.970   5.366   1.112
 5596TIP3    H116665   7.032   5.440   1.094
 5596TIP3    H216666   6.972   5.362   1.210
 5597TIP3   OH216667   7.231   5.689   1.924
 5597TIP3    H116668   7.250   5.748   1.999
 5597TIP3    H216669   7.290   5.615   1.940
 5598TIP3   OH216670   7.113   5.099   1.217
 5598TIP3    H116671   7.100   5.175   1.277
 5598TIP3    H216672   7.172   5.139   1.150
 5599TIP3   OH216673   6.518   6.377   0.771
 5599TIP3    H116674   6.493   6.449   0.708
 5599TIP3    H216675   6.503   6.421   0.858
 5600TIP3   OH216676   6.623   5.093   1.007
 5600TIP3    H116677   6.618   5.185   1.040
 5600TIP3    H216678   6.719   5.078   1.016
 5601TIP3   OH216679   7.877   5.587   1.902
 5601TIP3    H116680   7.779   5.586   1.909
 5601TIP3    H216681   7.887   5.555   1.811
 5602TIP3   OH216682   7.530   5.780   1.286
 5602TIP3    H116683   7.449   5.729   1.306
 5602TIP3    H216684   7.598   5.734   1.339
 5603TIP3   OH216685   6.233   6.027   0.766
 5603TIP3    H116686   6.301   6.096   0.778
 5603TIP3    H216687   6.281   5.967   0.706
 5604TIP3   OH216688   6.184   5.286   0.892
 5604TIP3    H116689   6.187   5.384   0.888
 5604TIP3    H216690   6.096   5.269   0.855
 5605TIP3   OH216691   7.497   6.728   1.236
 5605TIP3    H116692   7.450   6.775   1.164
 5605TIP3    H216693   7.589   6.756   1.218
 5606TIP3   OH216694   6.572   5.007   1.768
 5606TIP3    H116695   6.539   4.976   1.681
 5606TIP3    H216696   6.560   4.929   1.825
 5607TIP3   OH216697   6.110   6.222   1.151
 5607TIP3    H116698   6.036   6.259   1.202
 5607TIP3    H216699   6.093   6.264   1.063
 5608TIP3   OH216700   6.269   6.768   2.219
 5608TIP3    H116701   6.353   6.768   2.271
 5608TIP3    H216702   6.249   6.673   2.219
 5609TIP3   OH216703   6.751   6.736   2.260
 5609TIP3    H116704   6.845   6.714   2.266
 5609TIP3    H216705   6.724   6.677   2.186
 5610TIP3   OH216706   7.389   6.637   2.001
 5610TIP3    H116707   7.380   6.566   2.068
 5610TIP3    H216708   7.465   6.689   2.032
 5611TIP3   OH216709   6.397   6.171   2.420
 5611TIP3    H116710   6.415   6.076   2.417
 5611TIP3    H216711   6.310   6.177   2.376
 5612TIP3   OH216712   6.368   5.828   0.644
 5612TIP3    H116713   6.423   5.794   0.718
 5612TIP3    H216714   6.435   5.824   0.573
 5613TIP3   OH216715   7.006   6.258   2.190
 5613TIP3    H116716   6.959   6.276   2.106
 5613TIP3    H216717   7.034   6.165   2.181
 5614TIP3   OH216718   6.960   6.000   0.461
 5614TIP3    H116719   6.915   6.034   0.543
 5614TIP3    H216720   6.883   5.973   0.406
 5615TIP3   OH216721   7.502   6.262   1.803
 5615TIP3    H116722   7.568   6.316   1.756
 5615TIP3    H216723   7.421   6.314   1.785
 5616TIP3   OH216724   6.512   5.899   2.404
 5616TIP3    H116725   6.594   5.858   2.376
 5616TIP3    H216726   6.538   5.938   2.490
 5617TIP3   OH216727   6.572   5.727   0.835
 5617TIP3    H116728   6.553   5.690   0.923
 5617TIP3    H216729   6.616   5.652   0.790
 5618TIP3   OH216730   6.855   5.793   2.059
 5618TIP3    H116731   6.776   5.850   2.068
 5618TIP3    H216732   6.896   5.831   1.977
 5619TIP3   OH216733   6.690   5.516   0.699
 5619TIP3    H116734   6.663   5.509   0.604
 5619TIP3    H216735   6.787   5.528   0.689
 5620TIP3   OH216736   7.365   6.192   2.200
 5620TIP3    H116737   7.443   6.175   2.147
 5620TIP3    H216738   7.370   6.124   2.269
 5621TIP3   OH216739   6.974   5.580   2.189
 5621TIP3    H116740   6.974   5.501   2.132
 5621TIP3    H216741   6.933   5.648   2.131
 5622TIP3   OH216742   6.977   5.362   1.996
 5622TIP3    H116743   7.004   5.409   1.914
 5622TIP3    H216744   6.882   5.343   1.977
 5623TIP3   OH216745   6.994   5.919   1.859
 5623TIP3    H116746   7.078   5.924   1.812
 5623TIP3    H216747   6.944   5.992   1.817
 5624TIP3   OH216748   7.589   5.870   2.253
 5624TIP3    H116749   7.641   5.789   2.258
 5624TIP3    H216750   7.654   5.933   2.217
 5625TIP3   OH216751   7.630   6.120   1.989
 5625TIP3    H116752   7.571   6.173   1.931
 5625TIP3    H216753   7.716   6.141   1.947
 5626TIP3   OH216754   6.854   5.693   2.421
 5626TIP3    H116755   6.782   5.628   2.431
 5626TIP3    H216756   6.887   5.672   2.331
 5627TIP3   OH216757   7.109   5.130   2.062
 5627TIP3    H116758   7.062   5.214   2.039
 5627TIP3    H216759   7.038   5.064   2.050
 5628TIP3   OH216760   7.237   5.635   2.279
 5628TIP3    H116761   7.224   5.628   2.375
 5628TIP3    H216762   7.146   5.612   2.248
 5629TIP3   OH216763   7.474   5.580   2.132
 5629TIP3    H116764   7.398   5.587   2.192
 5629TIP3    H216765   7.547   5.552   2.192
 5630TIP3   OH216766   7.705   5.524   2.287
 5630TIP3    H116767   7.716   5.429   2.307
 5630TIP3    H216768   7.700   5.565   2.376
 5631TIP3   OH216769   6.689   5.475   2.471
 5631TIP3    H116770   6.701   5.386   2.433
 5631TIP3    H216771   6.725   5.463   2.561
 5632TIP3   OH216772   7.204   5.138   2.320
 5632TIP3    H116773   7.272   5.070   2.313
 5632TIP3    H216774   7.164   5.134   2.230
 5633TIP3   OH216775   7.268   5.353   2.481
 5633TIP3    H116776   7.245   5.285   2.415
 5633TIP3    H216777   7.192   5.416   2.473
 5634TIP3   OH216778   6.484   6.576   0.585
 5634TIP3    H116779   6.549   6.632   0.539
 5634TIP3    H216780   6.404   6.595   0.534
 5635TIP3   OH216781   5.967   5.966   0.797
 5635TIP3    H116782   6.062   5.992   0.785
 5635TIP3    H216783   5.966   5.877   0.756
 5636TIP3   OH216784   5.883   6.579   1.210
 5636TIP3    H116785   5.816   6.516   1.175
 5636TIP3    H216786   5.928   6.522   1.276
 5637TIP3   OH216787   6.021   6.432   1.395
 5637TIP3    H116788   6.012   6.357   1.456
 5637TIP3    H216789   6.073   6.493   1.451
 5638TIP3   OH216790   7.744   6.831   1.192
 5638TIP3    H116791   7.764   6.855   1.286
 5638TIP3    H216792   7.808   6.885   1.144
 5639TIP3   OH216793   7.807   6.831   1.461
 5639TIP3    H116794   7.743   6.758   1.469
 5639TIP3    H216795   7.857   6.819   1.543
 5640TIP3   OH216796   7.826   6.526   2.051
 5640TIP3    H116797   7.750   6.533   2.112
 5640TIP3    H216798   7.864   6.616   2.055
 5641TIP3   OH216799   7.616   6.047   0.676
 5641TIP3    H116800   7.684   6.108   0.644
 5641TIP3    H216801   7.667   5.995   0.742
 5642TIP3   OH216802   7.769   5.908   0.868
 5642TIP3    H116803   7.701   5.868   0.926
 5642TIP3    H216804   7.830   5.949   0.932
 5643TIP3   OH216805   7.824   6.300   1.311
 5643TIP3    H116806   7.874   6.239   1.253
 5643TIP3    H216807   7.803   6.373   1.250
 5644TIP3   OH216808   7.653   6.596   1.503
 5644TIP3    H116809   7.584   6.645   1.552
 5644TIP3    H216810   7.600   6.551   1.434
 5645TIP3   OH216811   7.587   5.765   1.020
 5645TIP3    H116812   7.590   5.668   1.020
 5645TIP3    H216813   7.570   5.783   1.116
 5646TIP3   OH216814   6.211   5.835   1.768
 5646TIP3    H116815   6.211   5.812   1.673
 5646TIP3    H216816   6.308   5.841   1.784
 5647TIP3   OH216817   7.870   6.187   1.879
 5647TIP3    H116818   7.945   6.124   1.868
 5647TIP3    H216819   7.892   6.258   1.816
 5648TIP3   OH216820   8.058   5.996   1.895
 5648TIP3    H116821   7.983   5.947   1.936
 5648TIP3    H216822   8.130   5.930   1.909
 5649TIP3   OH216823   7.510   5.219   0.479
 5649TIP3    H116824   7.589   5.195   0.532
 5649TIP3    H216825   7.440   5.169   0.524
 5650TIP3   OH216826   7.572   5.480   0.924
 5650TIP3    H116827   7.621   5.395   0.932
 5650TIP3    H216828   7.623   5.525   0.854
 5651TIP3   OH216829   7.742   5.652   1.412
 5651TIP3    H116830   7.827   5.681   1.373
 5651TIP3    H216831   7.751   5.692   1.501
 5652TIP3   OH216832   7.806   5.798   1.644
 5652TIP3    H116833   7.728   5.832   1.693
 5652TIP3    H216834   7.837   5.879   1.599
 5653TIP3   OH216835   6.421   5.521   2.436
 5653TIP3    H116836   6.519   5.519   2.440
 5653TIP3    H216837   6.400   5.439   2.484
 5654TIP3   OH216838   8.260   5.387   2.201
 5654TIP3    H116839   8.317   5.321   2.156
 5654TIP3    H216840   8.232   5.444   2.126
 5655TIP3   OH216841   7.693   5.228   0.948
 5655TIP3    H116842   7.736   5.216   1.036
 5655TIP3    H216843   7.627   5.156   0.951
 5656TIP3   OH216844   6.387   5.215   1.774
 5656TIP3    H116845   6.452   5.143   1.785
 5656TIP3    H216846   6.446   5.293   1.768
 5657TIP3   OH216847   6.191   5.490   1.848
 5657TIP3    H116848   6.240   5.485   1.764
 5657TIP3    H216849   6.215   5.578   1.878
 5658TIP3   OH216850   8.133   5.530   2.009
 5658TIP3    H116851   8.046   5.569   2.031
 5658TIP3    H216852   8.104   5.459   1.948
 5659TIP3   OH216853   7.744   5.159   0.608
 5659TIP3    H116854   7.822   5.122   0.562
 5659TIP3    H216855   7.769   5.253   0.611
 5660TIP3   OH216856   6.172   4.988   1.344
 5660TIP3    H116857   6.079   4.993   1.373
 5660TIP3    H216858   6.172   5.051   1.268
 5661TIP3   OH216859   7.317   6.701   0.843
 5661TIP3    H116860   7.390   6.650   0.807
 5661TIP3    H216861   7.361   6.759   0.908
 5662TIP3   OH216862   6.391   5.069   2.161
 5662TIP3    H116863   6.342   5.070   2.245
 5662TIP3    H216864   6.326   5.112   2.102
 5663TIP3   OH216865   6.435   6.502   2.245
 5663TIP3    H116866   6.347   6.468   2.219
 5663TIP3    H216867   6.435   6.489   2.340
 5664TIP3   OH216868   6.605   6.543   1.802
 5664TIP3    H116869   6.570   6.618   1.750
 5664TIP3    H216870   6.685   6.524   1.750
 5665TIP3   OH216871   7.053   6.772   1.930
 5665TIP3    H116872   7.096   6.779   2.017
 5665TIP3    H216873   7.121   6.816   1.874
 5666TIP3   OH216874   7.259   6.893   1.807
 5666TIP3    H116875   7.308   6.882   1.725
 5666TIP3    H216876   7.285   6.981   1.836
 5667TIP3   OH216877   8.030   5.293   1.883
 5667TIP3    H116878   7.939   5.291   1.850
 5667TIP3    H216879   8.057   5.199   1.869
 5668TIP3   OH216880   6.286   6.791   1.805
 5668TIP3    H116881   6.196   6.828   1.789
 5668TIP3    H216882   6.300   6.818   1.897
 5669TIP3   OH216883   6.519   6.764   1.661
 5669TIP3    H116884   6.434   6.777   1.708
 5669TIP3    H216885   6.499   6.799   1.572
 5670TIP3   OH216886   7.206   6.751   1.509
 5670TIP3    H116887   7.121   6.794   1.524
 5670TIP3    H216888   7.252   6.830   1.475
 5671TIP3   OH216889   7.435   6.930   1.442
 5671TIP3    H116890   7.421   7.021   1.413
 5671TIP3    H216891   7.450   6.882   1.359
 5672TIP3   OH216892   6.199   6.582   1.556
 5672TIP3    H116893   6.227   6.560   1.647
 5672TIP3    H216894   6.272   6.538   1.506
 5673TIP3   OH216895   6.393   6.450   1.411
 5673TIP3    H116896   6.413   6.367   1.460
 5673TIP3    H216897   6.481   6.492   1.411
 5674TIP3   OH216898   6.653   6.550   1.417
 5674TIP3    H116899   6.705   6.474   1.386
 5674TIP3    H216900   6.700   6.570   1.500
 5675TIP3   OH216901   7.239   5.208   1.503
 5675TIP3    H116902   7.191   5.141   1.554
 5675TIP3    H216903   7.308   5.156   1.458
 5676TIP3   OH216904   7.760   5.081   1.404
 5676TIP3    H116905   7.795   5.138   1.333
 5676TIP3    H216906   7.665   5.105   1.403
 5677TIP3   OH216907   7.853   5.190   1.170
 5677TIP3    H116908   7.928   5.138   1.132
 5677TIP3    H216909   7.886   5.281   1.157
 5678TIP3   OH216910   6.484   4.915   1.519
 5678TIP3    H116911   6.392   4.882   1.519
 5678TIP3    H216912   6.534   4.830   1.515
 5679TIP3   OH216913   6.268   4.784   1.163
 5679TIP3    H116914   6.299   4.844   1.093
 5679TIP3    H216915   6.238   4.847   1.232
 5680TIP3   OH216916   6.927   4.946   1.398
 5680TIP3    H116917   6.984   5.001   1.342
 5680TIP3    H216918   6.941   4.987   1.485
 5681TIP3   OH216919   7.478   5.092   1.384
 5681TIP3    H116920   7.468   5.060   1.294
 5681TIP3    H216921   7.461   5.011   1.437
 5682TIP3   OH216922   7.500   5.017   0.946
 5682TIP3    H116923   7.416   5.064   0.961
 5682TIP3    H216924   7.484   4.934   0.996
 5683TIP3   OH216925   5.987   6.355   0.948
 5683TIP3    H116926   5.902   6.324   0.912
 5683TIP3    H216927   5.979   6.450   0.929
 5684TIP3   OH216928   6.385   4.944   0.931
 5684TIP3    H116929   6.438   4.886   0.874
 5684TIP3    H216930   6.454   5.002   0.969
 5685TIP3   OH216931   6.901   5.116   1.029
 5685TIP3    H116932   6.962   5.075   1.092
 5685TIP3    H216933   6.917   5.210   1.052
 5686TIP3   OH216934   6.691   5.192   2.407
 5686TIP3    H116935   6.658   5.125   2.468
 5686TIP3    H216936   6.785   5.197   2.433
 5687TIP3   OH216937   6.938   5.193   2.528
 5687TIP3    H116938   7.024   5.172   2.488
 5687TIP3    H216939   6.929   5.121   2.594
 5688TIP3   OH216940   6.059   6.375   0.585
 5688TIP3    H116941   6.047   6.415   0.672
 5688TIP3    H216942   6.151   6.342   0.589
 5689TIP3   OH216943   7.763   5.253   2.317
 5689TIP3    H116944   7.785   5.223   2.408
 5689TIP3    H216945   7.851   5.250   2.274
 5690TIP3   OH216946   7.705   6.805   1.810
 5690TIP3    H116947   7.628   6.771   1.760
 5690TIP3    H216948   7.683   6.901   1.809
 5691TIP3   OH216949   8.939   6.166   0.963
 5691TIP3    H116950   8.996   6.169   1.043
 5691TIP3    H216951   8.914   6.071   0.962
 5692TIP3   OH216952   8.271   6.074   1.318
 5692TIP3    H116953   8.301   6.009   1.384
 5692TIP3    H216954   8.346   6.135   1.316
 5693TIP3   OH216955   8.237   6.478   1.053
 5693TIP3    H116956   8.227   6.380   1.052
 5693TIP3    H216957   8.332   6.486   1.070
 5694TIP3   OH216958   7.937   5.682   0.834
 5694TIP3    H116959   7.908   5.775   0.848
 5694TIP3    H216960   7.851   5.642   0.815
 5695TIP3   OH216961   8.013   5.976   0.994
 5695TIP3    H116962   8.058   5.900   1.038
 5695TIP3    H216963   8.081   6.006   0.933
 5696TIP3   OH216964   8.761   6.402   1.001
 5696TIP3    H116965   8.798   6.315   0.976
 5696TIP3    H216966   8.846   6.446   1.026
 5697TIP3   OH216967   9.197   5.934   1.037
 5697TIP3    H116968   9.198   5.838   1.058
 5697TIP3    H216969   9.153   5.933   0.952
 5698TIP3   OH216970   8.504   5.555   1.016
 5698TIP3    H116971   8.487   5.635   0.960
 5698TIP3    H216972   8.459   5.487   0.962
 5699TIP3   OH216973   8.150   5.766   1.105
 5699TIP3    H116974   8.233   5.749   1.154
 5699TIP3    H216975   8.164   5.711   1.026
 5700TIP3   OH216976   8.610   5.974   0.913
 5700TIP3    H116977   8.703   5.945   0.922
 5700TIP3    H216978   8.566   5.892   0.884
 5701TIP3   OH216979   8.515   5.549   1.437
 5701TIP3    H116980   8.454   5.588   1.371
 5701TIP3    H216981   8.464   5.566   1.519
 5702TIP3   OH216982   8.621   6.324   1.236
 5702TIP3    H116983   8.556   6.387   1.275
 5702TIP3    H216984   8.666   6.381   1.170
 5703TIP3   OH216985   8.380   5.668   1.227
 5703TIP3    H116986   8.443   5.740   1.247
 5703TIP3    H216987   8.429   5.623   1.154
 5704TIP3   OH216988   8.445   6.515   1.325
 5704TIP3    H116989   8.421   6.605   1.293
 5704TIP3    H216990   8.369   6.500   1.385
 5705TIP3   OH216991   8.869   5.273   1.150
 5705TIP3    H116992   8.861   5.176   1.162
 5705TIP3    H216993   8.788   5.305   1.195
 5706TIP3   OH216994   8.348   6.052   0.826
 5706TIP3    H116995   8.336   6.116   0.751
 5706TIP3    H216996   8.445   6.042   0.830
 5707TIP3   OH216997   8.523   6.529   0.929
 5707TIP3    H116998   8.477   6.450   0.898
 5707TIP3    H216999   8.608   6.492   0.961
 5708TIP3   OH217000   8.521   6.081   1.154
 5708TIP3    H117001   8.552   6.061   1.063
 5708TIP3    H217002   8.561   6.168   1.172
 5709TIP3   OH217003   8.652   6.637   1.474
 5709TIP3    H117004   8.594   6.701   1.520
 5709TIP3    H217005   8.585   6.585   1.425
 5710TIP3   OH217006   8.407   6.196   1.570
 5710TIP3    H117007   8.412   6.282   1.617
 5710TIP3    H217008   8.312   6.177   1.581
 5711TIP3   OH217009   8.449   6.808   1.559
 5711TIP3    H117010   8.413   6.806   1.468
 5711TIP3    H217011   8.370   6.787   1.613
 5712TIP3   OH217012   8.030   6.338   1.505
 5712TIP3    H117013   7.960   6.318   1.439
 5712TIP3    H217014   8.063   6.249   1.529
 5713TIP3   OH217015   7.882   6.532   1.137
 5713TIP3    H117016   7.978   6.533   1.132
 5713TIP3    H217017   7.864   6.607   1.196
 5714TIP3   OH217018   8.850   6.767   1.329
 5714TIP3    H117019   8.853   6.860   1.362
 5714TIP3    H217020   8.780   6.729   1.386
 5715TIP3   OH217021   8.236   6.519   1.496
 5715TIP3    H117022   8.283   6.503   1.580
 5715TIP3    H217023   8.160   6.457   1.503
 5716TIP3   OH217024   8.631   5.344   1.278
 5716TIP3    H117025   8.541   5.314   1.254
 5716TIP3    H217026   8.608   5.428   1.322
 5717TIP3   OH217027   9.157   5.461   1.477
 5717TIP3    H117028   9.206   5.438   1.557
 5717TIP3    H217029   9.065   5.441   1.506
 5718TIP3   OH217030   8.566   5.858   1.299
 5718TIP3    H117031   8.515   5.879   1.379
 5718TIP3    H217032   8.549   5.939   1.245
 5719TIP3   OH217033   8.436   5.750   0.853
 5719TIP3    H117034   8.346   5.708   0.837
 5719TIP3    H217035   8.464   5.778   0.764
 5720TIP3   OH217036   9.115   6.111   1.625
 5720TIP3    H117037   9.089   6.040   1.687
 5720TIP3    H217038   9.208   6.124   1.648
 5721TIP3   OH217039   8.385   5.889   1.506
 5721TIP3    H117040   8.404   5.954   1.575
 5721TIP3    H217041   8.371   5.808   1.559
 5722TIP3   OH217042   7.979   5.413   1.079
 5722TIP3    H117043   8.048   5.445   1.141
 5722TIP3    H217044   8.030   5.370   1.010
 5723TIP3   OH217045   8.098   5.463   0.580
 5723TIP3    H117046   8.123   5.557   0.567
 5723TIP3    H217047   8.004   5.470   0.602
 5724TIP3   OH217048   9.079   6.115   1.200
 5724TIP3    H117049   9.137   6.057   1.146
 5724TIP3    H217050   9.068   6.060   1.280
 5725TIP3   OH217051   8.761   5.499   0.927
 5725TIP3    H117052   8.677   5.535   0.960
 5725TIP3    H217053   8.823   5.569   0.948
 5726TIP3   OH217054   8.195   5.609   0.860
 5726TIP3    H117055   8.097   5.616   0.859
 5726TIP3    H217056   8.213   5.514   0.856
 5727TIP3   OH217057   9.174   5.666   1.072
 5727TIP3    H117058   9.178   5.669   1.170
 5727TIP3    H217059   9.142   5.574   1.055
 5728TIP3   OH217060   8.395   6.441   1.716
 5728TIP3    H117061   8.474   6.473   1.764
 5728TIP3    H217062   8.329   6.441   1.788
 5729TIP3   OH217063   8.877   5.891   0.971
 5729TIP3    H117064   8.911   5.818   0.917
 5729TIP3    H217065   8.879   5.854   1.061
 5730TIP3   OH217066   8.383   5.378   0.840
 5730TIP3    H117067   8.352   5.299   0.890
 5730TIP3    H217068   8.467   5.347   0.803
 5731TIP3   OH217069   8.837   5.793   1.258
 5731TIP3    H117070   8.746   5.827   1.273
 5731TIP3    H217071   8.892   5.854   1.312
 5732TIP3   OH217072   8.969   6.502   1.353
 5732TIP3    H117073   8.983   6.482   1.446
 5732TIP3    H217074   8.935   6.593   1.355
 5733TIP3   OH217075   8.266   6.202   1.039
 5733TIP3    H117076   8.289   6.156   0.956
 5733TIP3    H217077   8.298   6.139   1.105
 5734TIP3   OH217078   8.145   6.123   1.642
 5734TIP3    H117079   8.164   6.112   1.738
 5734TIP3    H217080   8.072   6.060   1.629
 5735TIP3   OH217081   8.868   6.238   1.664
 5735TIP3    H117082   8.808   6.180   1.614
 5735TIP3    H217083   8.955   6.207   1.634
 5736TIP3   OH217084   9.136   6.765   1.243
 5736TIP3    H117085   9.039   6.760   1.247
 5736TIP3    H217086   9.157   6.814   1.325
 5737TIP3   OH217087   8.632   6.848   1.130
 5737TIP3    H117088   8.664   6.935   1.101
 5737TIP3    H217089   8.710   6.814   1.177
 5738TIP3   OH217090   9.010   6.472   1.080
 5738TIP3    H117091   9.008   6.488   1.177
 5738TIP3    H217092   9.104   6.453   1.066
 5739TIP3   OH217093   8.358   5.630   1.654
 5739TIP3    H117094   8.262   5.637   1.670
 5739TIP3    H217095   8.385   5.571   1.725
 5740TIP3   OH217096   8.078   6.718   1.281
 5740TIP3    H117097   8.125   6.640   1.316
 5740TIP3    H217098   8.089   6.781   1.353
 5741TIP3   OH217099   9.216   5.696   1.350
 5741TIP3    H117100   9.252   5.741   1.429
 5741TIP3    H217101   9.181   5.615   1.392
 5742TIP3   OH217102   9.032   5.943   1.411
 5742TIP3    H117103   9.044   6.005   1.486
 5742TIP3    H217104   9.094   5.872   1.434
 5743TIP3   OH217105   8.367   5.263   1.255
 5743TIP3    H117106   8.335   5.230   1.169
 5743TIP3    H217107   8.358   5.185   1.313
 5744TIP3   OH217108   8.060   7.024   1.712
 5744TIP3    H117109   8.148   7.018   1.754
 5744TIP3    H217110   8.036   6.930   1.704
 5745TIP3   OH217111   8.546   6.990   1.751
 5745TIP3    H117112   8.641   6.971   1.758
 5745TIP3    H217113   8.521   6.934   1.676
 5746TIP3   OH217114   9.192   6.889   1.484
 5746TIP3    H117115   9.166   6.818   1.548
 5746TIP3    H217116   9.262   6.933   1.532
 5747TIP3   OH217117   8.194   6.431   1.906
 5747TIP3    H117118   8.210   6.335   1.911
 5747TIP3    H217119   8.106   6.434   1.864
 5748TIP3   OH217120   8.804   6.514   1.678
 5748TIP3    H117121   8.759   6.530   1.593
 5748TIP3    H217122   8.832   6.421   1.672
 5749TIP3   OH217123   8.313   6.162   1.887
 5749TIP3    H117124   8.387   6.103   1.871
 5749TIP3    H217125   8.335   6.196   1.976
 5750TIP3   OH217126   8.649   6.050   1.550
 5750TIP3    H117127   8.571   6.108   1.555
 5750TIP3    H217128   8.694   6.083   1.469
 5751TIP3   OH217129   9.158   6.451   1.689
 5751TIP3    H117130   9.236   6.429   1.637
 5751TIP3    H217131   9.157   6.382   1.758
 5752TIP3   OH217132   8.773   5.837   1.676
 5752TIP3    H117133   8.769   5.756   1.621
 5752TIP3    H217134   8.728   5.903   1.619
 5753TIP3   OH217135   8.773   5.622   1.480
 5753TIP3    H117136   8.797   5.665   1.396
 5753TIP3    H217137   8.679   5.600   1.465
 5754TIP3   OH217138   8.807   6.159   1.353
 5754TIP3    H117139   8.888   6.167   1.300
 5754TIP3    H217140   8.750   6.227   1.312
 5755TIP3   OH217141   9.394   6.130   1.732
 5755TIP3    H117142   9.425   6.045   1.768
 5755TIP3    H217143   9.477   6.180   1.728
 5756TIP3   OH217144   8.648   5.952   1.904
 5756TIP3    H117145   8.579   5.884   1.919
 5756TIP3    H217146   8.684   5.924   1.817
 5757TIP3   OH217147   8.904   5.388   1.543
 5757TIP3    H117148   8.852   5.470   1.525
 5757TIP3    H217149   8.835   5.319   1.535
 5758TIP3   OH217150   9.034   5.893   1.763
 5758TIP3    H117151   9.025   5.881   1.860
 5758TIP3    H217152   8.943   5.869   1.736
 5759TIP3   OH217153   9.263   5.813   1.609
 5759TIP3    H117154   9.187   5.835   1.667
 5759TIP3    H217155   9.333   5.800   1.675
 5760TIP3   OH217156   9.477   5.762   1.790
 5760TIP3    H117157   9.525   5.692   1.835
 5760TIP3    H217158   9.475   5.830   1.862
 5761TIP3   OH217159   8.488   5.731   1.957
 5761TIP3    H117160   8.496   5.640   1.922
 5761TIP3    H217161   8.523   5.719   2.048
 5762TIP3   OH217162   9.002   5.401   1.801
 5762TIP3    H117163   9.069   5.330   1.799
 5762TIP3    H217164   8.959   5.389   1.714
 5763TIP3   OH217165   9.068   5.615   1.962
 5763TIP3    H117166   9.042   5.543   1.900
 5763TIP3    H217167   8.989   5.673   1.959
 5764TIP3   OH217168   7.811   6.692   0.903
 5764TIP3    H117169   7.798   6.617   0.963
 5764TIP3    H217170   7.853   6.756   0.964
 5765TIP3   OH217171   8.006   6.089   1.253
 5765TIP3    H117172   8.005   6.065   1.158
 5765TIP3    H217173   8.103   6.093   1.270
 5766TIP3   OH217174   8.221   5.780   1.925
 5766TIP3    H117175   8.319   5.774   1.929
 5766TIP3    H217176   8.196   5.697   1.971
 5767TIP3   OH217177   8.182   5.471   1.253
 5767TIP3    H117178   8.246   5.399   1.270
 5767TIP3    H217179   8.241   5.548   1.256
 5768TIP3   OH217180   7.988   5.745   1.335
 5768TIP3    H117181   8.037   5.743   1.250
 5768TIP3    H217182   8.009   5.834   1.366
 5769TIP3   OH217183   7.961   5.245   0.820
 5769TIP3    H117184   7.874   5.247   0.863
 5769TIP3    H217185   7.959   5.323   0.763
 5770TIP3   OH217186   8.188   5.328   1.648
 5770TIP3    H117187   8.139   5.325   1.732
 5770TIP3    H217188   8.121   5.369   1.590
 5771TIP3   OH217189   8.229   6.755   1.727
 5771TIP3    H117190   8.137   6.730   1.709
 5771TIP3    H217191   8.236   6.737   1.822
 5772TIP3   OH217192   8.406   6.784   1.275
 5772TIP3    H117193   8.351   6.855   1.235
 5772TIP3    H217194   8.490   6.803   1.229
 5773TIP3   OH217195   8.851   7.031   1.413
 5773TIP3    H117196   8.894   7.040   1.501
 5773TIP3    H217197   8.915   7.079   1.356
 5774TIP3   OH217198   9.024   7.171   1.257
 5774TIP3    H117199   9.108   7.149   1.216
 5774TIP3    H217200   9.056   7.228   1.331
 5775TIP3   OH217201   8.091   7.047   1.299
 5775TIP3    H117202   8.007   7.078   1.263
 5775TIP3    H217203   8.081   7.072   1.392
 5776TIP3   OH217204   8.319   7.030   1.147
 5776TIP3    H117205   8.240   7.042   1.204
 5776TIP3    H217206   8.282   7.048   1.060
 5777TIP3   OH217207   7.992   6.859   1.055
 5777TIP3    H117208   8.015   6.825   1.143
 5777TIP3    H217209   8.058   6.809   1.002
 5778TIP3   OH217210   8.179   6.719   0.921
 5778TIP3    H117211   8.196   6.631   0.963
 5778TIP3    H217212   8.270   6.755   0.917
 5779TIP3   OH217213   8.440   6.797   0.917
 5779TIP3    H117214   8.473   6.706   0.921
 5779TIP3    H217215   8.493   6.840   0.985
 5780TIP3   OH217216   9.056   5.424   0.983
 5780TIP3    H117217   8.983   5.391   1.039
 5780TIP3    H217218   9.063   5.350   0.921
 5781TIP3   OH217219   8.281   5.171   1.004
 5781TIP3    H117220   8.190   5.135   1.006
 5781TIP3    H217221   8.332   5.088   1.002
 5782TIP3   OH217222   8.091   5.036   0.685
 5782TIP3    H117223   8.055   5.066   0.599
 5782TIP3    H217224   8.052   5.102   0.746
 5783TIP3   OH217225   8.717   5.208   0.888
 5783TIP3    H117226   8.754   5.280   0.835
 5783TIP3    H217227   8.737   5.243   0.976
 5784TIP3   OH217228   8.488   5.453   1.895
 5784TIP3    H117229   8.454   5.383   1.954
 5784TIP3    H217230   8.582   5.454   1.922
 5785TIP3   OH217231   8.736   5.449   2.015
 5785TIP3    H117232   8.822   5.423   1.979
 5785TIP3    H217233   8.722   5.379   2.083
 5786TIP3   OH217234  -0.055   6.997   2.817
 5786TIP3    H117235  -0.017   6.946   2.891
 5786TIP3    H217236  -0.060   7.086   2.854
 5787TIP3   OH217237   0.435   6.263   3.203
 5787TIP3    H117238   0.464   6.342   3.252
 5787TIP3    H217239   0.441   6.298   3.112
 5788TIP3   OH217240  -0.093   6.410   3.271
 5788TIP3    H117241  -0.133   6.321   3.273
 5788TIP3    H217242  -0.068   6.423   3.177
 5789TIP3   OH217243  -0.138   6.181   2.827
 5789TIP3    H117244  -0.068   6.167   2.895
 5789TIP3    H217245  -0.085   6.229   2.761
 5790TIP3   OH217246   0.521   6.458   3.379
 5790TIP3    H117247   0.441   6.510   3.354
 5790TIP3    H217248   0.527   6.484   3.473
 5791TIP3   OH217249   0.077   6.179   2.991
 5791TIP3    H117250   0.091   6.135   3.075
 5791TIP3    H217251   0.106   6.271   3.008
 5792TIP3   OH217252   0.232   6.153   3.367
 5792TIP3    H117253   0.155   6.212   3.365
 5792TIP3    H217254   0.289   6.190   3.297
 5793TIP3   OH217255   0.179   7.176   3.358
 5793TIP3    H117256   0.149   7.092   3.318
 5793TIP3    H217257   0.156   7.240   3.289
 5794TIP3   OH217258   0.383   6.795   3.189
 5794TIP3    H117259   0.297   6.839   3.206
 5794TIP3    H217260   0.397   6.822   3.096
 5795TIP3   OH217261  -0.175   6.633   2.552
 5795TIP3    H117262  -0.241   6.668   2.615
 5795TIP3    H217263  -0.106   6.600   2.614
 5796TIP3   OH217264   0.060   6.710   3.464
 5796TIP3    H117265   0.039   6.771   3.536
 5796TIP3    H217266  -0.028   6.675   3.442
 5797TIP3   OH217267   0.160   5.744   2.452
 5797TIP3    H117268   0.079   5.761   2.506
 5797TIP3    H217269   0.171   5.831   2.408
 5798TIP3   OH217270   0.415   7.505   3.390
 5798TIP3    H117271   0.415   7.409   3.411
 5798TIP3    H217272   0.323   7.528   3.414
 5799TIP3   OH217273   0.293   6.648   3.669
 5799TIP3    H117274   0.221   6.658   3.604
 5799TIP3    H217275   0.307   6.551   3.665
 5800TIP3   OH217276  -0.170   5.976   3.675
 5800TIP3    H117277  -0.101   5.953   3.740
 5800TIP3    H217278  -0.248   5.994   3.728
 5801TIP3   OH217279   0.088   6.420   3.576
 5801TIP3    H117280   0.046   6.416   3.664
 5801TIP3    H217281   0.019   6.466   3.526
 5802TIP3   OH217282  -0.276   6.376   3.005
 5802TIP3    H117283  -0.306   6.425   2.928
 5802TIP3    H217284  -0.221   6.308   2.962
 5803TIP3   OH217285   0.158   6.941   3.193
 5803TIP3    H117286   0.172   6.991   3.110
 5803TIP3    H217287   0.061   6.934   3.196
 5804TIP3   OH217288  -0.353   6.031   2.419
 5804TIP3    H117289  -0.434   6.085   2.414
 5804TIP3    H217290  -0.287   6.105   2.424
 5805TIP3   OH217291  -0.213   6.259   2.476
 5805TIP3    H117292  -0.132   6.267   2.530
 5805TIP3    H217293  -0.254   6.346   2.491
 5806TIP3   OH217294   0.203   6.357   2.362
 5806TIP3    H117295   0.136   6.311   2.306
 5806TIP3    H217296   0.203   6.443   2.316
 5807TIP3   OH217297   0.427   7.225   3.441
 5807TIP3    H117298   0.328   7.217   3.435
 5807TIP3    H217299   0.450   7.192   3.351
 5808TIP3   OH217300  -0.104   6.804   3.075
 5808TIP3    H117301  -0.165   6.759   3.133
 5808TIP3    H217302  -0.044   6.729   3.053
 5809TIP3   OH217303  -0.258   5.966   2.687
 5809TIP3    H117304  -0.290   6.007   2.606
 5809TIP3    H217305  -0.235   6.044   2.742
 5810TIP3   OH217306   0.347   6.369   3.591
 5810TIP3    H117307   0.248   6.377   3.595
 5810TIP3    H217308   0.357   6.351   3.497
 5811TIP3   OH217309   0.012   7.462   2.924
 5811TIP3    H117310  -0.068   7.512   2.901
 5811TIP3    H217311   0.082   7.522   2.890
 5812TIP3   OH217312   0.054   6.676   3.943
 5812TIP3    H117313   0.073   6.583   3.927
 5812TIP3    H217314   0.138   6.719   3.925
 5813TIP3   OH217315   0.083   6.913   3.663
 5813TIP3    H117316   0.029   6.961   3.601
 5813TIP3    H217317   0.173   6.926   3.625
 5814TIP3   OH217318  -0.032   6.423   3.818
 5814TIP3    H117319  -0.101   6.358   3.795
 5814TIP3    H217320   0.030   6.371   3.873
 5815TIP3   OH217321   0.152   6.306   3.982
 5815TIP3    H117322   0.174   6.212   4.004
 5815TIP3    H217323   0.147   6.350   4.069
 5816TIP3   OH217324   0.209   7.642   2.876
 5816TIP3    H117325   0.235   7.666   2.967
 5816TIP3    H217326   0.284   7.675   2.824
 5817TIP3   OH217327   0.236   7.642   3.155
 5817TIP3    H117328   0.197   7.553   3.155
 5817TIP3    H217329   0.301   7.632   3.226
 5818TIP3   OH217330   0.268   7.325   3.726
 5818TIP3    H117331   0.222   7.313   3.809
 5818TIP3    H217332   0.317   7.409   3.740
 5819TIP3   OH217333   0.196   6.730   2.558
 5819TIP3    H117334   0.151   6.661   2.613
 5819TIP3    H217335   0.278   6.744   2.611
 5820TIP3   OH217336   0.257   7.085   2.981
 5820TIP3    H117337   0.324   7.022   2.947
 5820TIP3    H217338   0.273   7.165   2.927
 5821TIP3   OH217339   0.090   7.376   3.182
 5821TIP3    H117340   0.030   7.435   3.229
 5821TIP3    H217341   0.062   7.388   3.088
 5822TIP3   OH217342   0.153   6.604   2.209
 5822TIP3    H117343   0.069   6.607   2.161
 5822TIP3    H217344   0.143   6.674   2.274
 5823TIP3   OH217345   0.023   6.274   2.179
 5823TIP3    H117346  -0.059   6.314   2.144
 5823TIP3    H217347   0.001   6.179   2.166
 5824TIP3   OH217348   0.051   6.545   2.693
 5824TIP3    H117349   0.048   6.447   2.694
 5824TIP3    H217350   0.053   6.559   2.792
 5825TIP3   OH217351   0.326   6.978   3.567
 5825TIP3    H117352   0.395   6.908   3.559
 5825TIP3    H217353   0.354   7.042   3.499
 5826TIP3   OH217354   0.511   6.785   3.589
 5826TIP3    H117355   0.434   6.733   3.623
 5826TIP3    H217356   0.582   6.719   3.603
 5827TIP3   OH217357  -0.015   5.999   2.140
 5827TIP3    H117358   0.052   5.979   2.209
 5827TIP3    H217359  -0.096   5.955   2.175
 5828TIP3   OH217360   0.032   6.266   2.609
 5828TIP3    H117361   0.069   6.177   2.628
 5828TIP3    H217362   0.095   6.296   2.541
 5829TIP3   OH217363   0.284   6.588   3.355
 5829TIP3    H117364   0.194   6.615   3.383
 5829TIP3    H217365   0.298   6.648   3.280
 5830TIP3   OH217366   0.714   6.175   3.892
 5830TIP3    H117367   0.770   6.109   3.846
 5830TIP3    H217368   0.685   6.232   3.817
 5831TIP3   OH217369   0.142   6.016   2.640
 5831TIP3    H117370   0.187   6.003   2.727
 5831TIP3    H217371   0.079   5.941   2.641
 5832TIP3   OH217372   0.591   6.318   3.699
 5832TIP3    H117373   0.502   6.357   3.715
 5832TIP3    H217374   0.564   6.247   3.637
 5833TIP3   OH217375   0.223   5.957   2.274
 5833TIP3    H117376   0.264   5.881   2.229
 5833TIP3    H217377   0.293   6.024   2.271
 5834TIP3   OH217378   0.485   6.080   3.573
 5834TIP3    H117379   0.393   6.081   3.540
 5834TIP3    H217380   0.509   5.985   3.558
 5835TIP3   OH217381  -0.288   5.890   3.180
 5835TIP3    H117382  -0.279   5.952   3.258
 5835TIP3    H217383  -0.264   5.953   3.111
 5836TIP3   OH217384   0.233   5.873   3.098
 5836TIP3    H117385   0.261   5.929   3.022
 5836TIP3    H217386   0.135   5.877   3.090
 5837TIP3   OH217387   0.309   5.979   2.855
 5837TIP3    H117388   0.384   5.930   2.817
 5837TIP3    H217389   0.339   6.072   2.844
 5838TIP3   OH217390  -0.031   5.857   3.058
 5838TIP3    H117391  -0.088   5.856   2.981
 5838TIP3    H217392  -0.085   5.805   3.122
 5839TIP3   OH217393  -0.042   5.803   2.631
 5839TIP3    H117394  -0.125   5.852   2.649
 5839TIP3    H217395  -0.057   5.721   2.682
 5840TIP3   OH217396   0.219   6.041   4.010
 5840TIP3    H117397   0.240   6.008   4.100
 5840TIP3    H217398   0.306   6.035   3.966
 5841TIP3   OH217399   0.161   7.592   3.435
 5841TIP3    H117400   0.088   7.541   3.471
 5841TIP3    H217401   0.162   7.664   3.499
 5842TIP3   OH217402   1.420   6.964   2.259
 5842TIP3    H117403   1.401   7.058   2.241
 5842TIP3    H217404   1.332   6.932   2.279
 5843TIP3   OH217405   1.419   6.963   2.643
 5843TIP3    H117406   1.452   6.941   2.732
 5843TIP3    H217407   1.377   6.879   2.617
 5844TIP3   OH217408   0.720   6.865   3.008
 5844TIP3    H117409   0.746   6.795   3.070
 5844TIP3    H217410   0.796   6.924   3.013
 5845TIP3   OH217411   1.661   7.265   2.328
 5845TIP3    H117412   1.655   7.199   2.398
 5845TIP3    H217413   1.690   7.344   2.377
 5846TIP3   OH217414   0.691   7.268   2.738
 5846TIP3    H117415   0.683   7.171   2.742
 5846TIP3    H217416   0.788   7.278   2.732
 5847TIP3   OH217417   0.404   6.482   2.517
 5847TIP3    H117418   0.358   6.561   2.548
 5847TIP3    H217419   0.330   6.420   2.502
 5848TIP3   OH217420   0.450   6.756   2.673
 5848TIP3    H117421   0.496   6.685   2.724
 5848TIP3    H217422   0.526   6.796   2.627
 5849TIP3   OH217423   1.312   7.732   2.343
 5849TIP3    H117424   1.360   7.661   2.295
 5849TIP3    H217425   1.308   7.696   2.432
 5850TIP3   OH217426   1.221   7.191   2.692
 5850TIP3    H117427   1.261   7.115   2.647
 5850TIP3    H217428   1.304   7.237   2.718
 5851TIP3   OH217429   2.231   6.513   2.690
 5851TIP3    H117430   2.260   6.595   2.735
 5851TIP3    H217431   2.255   6.533   2.598
 5852TIP3   OH217432   1.632   6.696   2.728
 5852TIP3    H117433   1.675   6.611   2.749
 5852TIP3    H217434   1.603   6.679   2.637
 5853TIP3   OH217435   0.968   6.354   2.692
 5853TIP3    H117436   0.946   6.427   2.631
 5853TIP3    H217437   0.916   6.281   2.651
 5854TIP3   OH217438   1.662   6.443   2.314
 5854TIP3    H117439   1.734   6.427   2.380
 5854TIP3    H217440   1.716   6.479   2.241
 5855TIP3   OH217441   0.603   6.565   2.790
 5855TIP3    H117442   0.677   6.543   2.850
 5855TIP3    H217443   0.621   6.500   2.718
 5856TIP3   OH217444   1.047   6.755   2.584
 5856TIP3    H117445   1.139   6.727   2.605
 5856TIP3    H217446   1.006   6.670   2.558
 5857TIP3   OH217447   2.305   6.719   2.862
 5857TIP3    H117448   2.222   6.768   2.843
 5857TIP3    H217449   2.322   6.746   2.953
 5858TIP3   OH217450   0.966   6.337   3.126
 5858TIP3    H117451   0.904   6.375   3.060
 5858TIP3    H217452   0.916   6.354   3.208
 5859TIP3   OH217453   1.305   7.183   2.134
 5859TIP3    H117454   1.274   7.179   2.042
 5859TIP3    H217455   1.271   7.271   2.161
 5860TIP3   OH217456   1.072   7.111   2.923
 5860TIP3    H117457   1.008   7.175   2.962
 5860TIP3    H217458   1.114   7.165   2.854
 5861TIP3   OH217459   1.873   6.446   2.485
 5861TIP3    H117460   1.869   6.396   2.568
 5861TIP3    H217461   1.930   6.521   2.510
 5862TIP3   OH217462   0.836   6.455   2.912
 5862TIP3    H117463   0.898   6.527   2.935
 5862TIP3    H217464   0.885   6.412   2.839
 5863TIP3   OH217465   0.899   7.304   3.019
 5863TIP3    H117466   0.874   7.390   2.980
 5863TIP3    H217467   0.821   7.289   3.077
 5864TIP3   OH217468   1.735   7.509   2.495
 5864TIP3    H117469   1.646   7.502   2.534
 5864TIP3    H217470   1.729   7.596   2.450
 5865TIP3   OH217471   2.026   6.412   2.857
 5865TIP3    H117472   1.939   6.445   2.829
 5865TIP3    H217473   2.085   6.445   2.786
 5866TIP3   OH217474   1.324   6.057   2.838
 5866TIP3    H117475   1.314   5.963   2.858
 5866TIP3    H217476   1.247   6.095   2.885
 5867TIP3   OH217477   1.441   7.559   2.173
 5867TIP3    H117478   1.490   7.478   2.148
 5867TIP3    H217479   1.500   7.626   2.130
 5868TIP3   OH217480   1.578   7.342   2.075
 5868TIP3    H117481   1.550   7.261   2.030
 5868TIP3    H217482   1.613   7.307   2.159
 5869TIP3   OH217483   1.962   7.426   2.839
 5869TIP3    H117484   1.952   7.348   2.780
 5869TIP3    H217485   1.945   7.501   2.777
 5870TIP3   OH217486   1.232   6.800   2.065
 5870TIP3    H117487   1.194   6.887   2.086
 5870TIP3    H217488   1.314   6.823   2.018
 5871TIP3   OH217489   1.220   6.603   1.830
 5871TIP3    H117490   1.296   6.651   1.869
 5871TIP3    H217491   1.270   6.540   1.775
 5872TIP3   OH217492   2.157   7.059   2.682
 5872TIP3    H117493   2.075   7.113   2.688
 5872TIP3    H217494   2.187   7.084   2.592
 5873TIP3   OH217495   1.601   6.896   2.068
 5873TIP3    H117496   1.548   6.924   2.146
 5873TIP3    H217497   1.685   6.871   2.111
 5874TIP3   OH217498   1.836   6.942   2.977
 5874TIP3    H117499   1.834   7.025   3.028
 5874TIP3    H217500   1.749   6.947   2.932
 5875TIP3   OH217501   0.833   6.897   2.482
 5875TIP3    H117502   0.797   6.837   2.413
 5875TIP3    H217503   0.911   6.847   2.513
 5876TIP3   OH217504   0.959   7.306   2.636
 5876TIP3    H117505   0.941   7.270   2.547
 5876TIP3    H217506   1.051   7.276   2.652
 5877TIP3   OH217507   0.971   6.871   2.835
 5877TIP3    H117508   1.007   6.855   2.746
 5877TIP3    H217509   1.013   6.956   2.860
 5878TIP3   OH217510   1.494   7.507   2.615
 5878TIP3    H117511   1.480   7.588   2.668
 5878TIP3    H217512   1.480   7.435   2.680
 5879TIP3   OH217513   1.106   7.427   3.161
 5879TIP3    H117514   1.048   7.490   3.209
 5879TIP3    H217515   1.039   7.374   3.114
 5880TIP3   OH217516   1.445   6.762   1.892
 5880TIP3    H117517   1.508   6.817   1.944
 5880TIP3    H217518   1.470   6.786   1.800
 5881TIP3   OH217519   0.858   6.987   3.258
 5881TIP3    H117520   0.864   7.071   3.307
 5881TIP3    H217521   0.764   6.965   3.273
 5882TIP3   OH217522   1.186   7.438   2.176
 5882TIP3    H117523   1.260   7.500   2.191
 5882TIP3    H217524   1.121   7.494   2.131
 5883TIP3   OH217525   0.902   7.597   3.248
 5883TIP3    H117526   0.866   7.593   3.157
 5883TIP3    H217527   0.824   7.576   3.303
 5884TIP3   OH217528   1.957   6.002   1.940
 5884TIP3    H117529   1.877   6.022   1.992
 5884TIP3    H217530   1.970   6.085   1.890
 5885TIP3   OH217531   0.705   6.737   2.273
 5885TIP3    H117532   0.632   6.784   2.227
 5885TIP3    H217533   0.660   6.658   2.306
 5886TIP3   OH217534   1.754   7.368   1.490
 5886TIP3    H117535   1.762   7.464   1.474
 5886TIP3    H217536   1.847   7.339   1.476
 5887TIP3   OH217537   0.482   7.123   3.195
 5887TIP3    H117538   0.417   7.094   3.130
 5887TIP3    H217539   0.520   7.038   3.227
 5888TIP3   OH217540   0.336   7.314   2.834
 5888TIP3    H117541   0.431   7.310   2.817
 5888TIP3    H217542   0.330   7.397   2.885
 5889TIP3   OH217543   2.199   7.768   2.883
 5889TIP3    H117544   2.198   7.672   2.897
 5889TIP3    H217545   2.116   7.794   2.929
 5890TIP3   OH217546   1.305   7.557   3.018
 5890TIP3    H117547   1.305   7.649   3.051
 5890TIP3    H217548   1.235   7.517   3.073
 5891TIP3   OH217549   1.072   7.690   1.988
 5891TIP3    H117550   1.036   7.667   1.900
 5891TIP3    H217551   1.034   7.779   2.003
 5892TIP3   OH217552   0.504   7.509   2.362
 5892TIP3    H117553   0.571   7.528   2.431
 5892TIP3    H217554   0.453   7.444   2.413
 5893TIP3   OH217555   1.313   7.611   1.610
 5893TIP3    H117556   1.356   7.537   1.561
 5893TIP3    H217557   1.341   7.596   1.701
 5894TIP3   OH217558   1.323   7.635   1.890
 5894TIP3    H117559   1.233   7.644   1.927
 5894TIP3    H217560   1.369   7.592   1.963
 5895TIP3   OH217561   2.090   6.902   3.158
 5895TIP3    H117562   2.009   6.915   3.107
 5895TIP3    H217563   2.104   6.805   3.148
 5896TIP3   OH217564   0.685   7.309   3.187
 5896TIP3    H117565   0.736   7.292   3.269
 5896TIP3    H217566   0.613   7.244   3.194
 5897TIP3   OH217567   1.086   6.134   2.966
 5897TIP3    H117568   0.996   6.102   2.944
 5897TIP3    H217569   1.061   6.216   3.013
 5898TIP3   OH217570   1.617   6.247   3.162
 5898TIP3    H117571   1.685   6.221   3.228
 5898TIP3    H217572   1.533   6.228   3.208
 5899TIP3   OH217573   1.859   6.677   3.080
 5899TIP3    H117574   1.811   6.672   3.166
 5899TIP3    H217575   1.834   6.765   3.047
 5900TIP3   OH217576   1.515   6.808   1.637
 5900TIP3    H117577   1.486   6.779   1.548
 5900TIP3    H217578   1.597   6.857   1.614
 5901TIP3   OH217579   1.214   6.195   1.936
 5901TIP3    H117580   1.198   6.190   2.032
 5901TIP3    H217581   1.244   6.106   1.916
 5902TIP3   OH217582   1.017   6.649   2.986
 5902TIP3    H117583   0.966   6.668   3.068
 5902TIP3    H217584   0.999   6.730   2.934
 5903TIP3   OH217585   0.899   6.534   2.498
 5903TIP3    H117586   0.807   6.506   2.519
 5903TIP3    H217587   0.912   6.488   2.413
 5904TIP3   OH217588   1.388   6.618   2.223
 5904TIP3    H117589   1.332   6.683   2.177
 5904TIP3    H217590   1.449   6.591   2.152
 5905TIP3   OH217591   1.565   6.900   3.315
 5905TIP3    H117592   1.542   6.827   3.377
 5905TIP3    H217593   1.658   6.914   3.338
 5906TIP3   OH217594   1.549   6.648   2.469
 5906TIP3    H117595   1.492   6.679   2.396
 5906TIP3    H217596   1.582   6.565   2.427
 5907TIP3   OH217597   0.837   6.678   3.194
 5907TIP3    H117598   0.858   6.739   3.266
 5907TIP3    H217599   0.817   6.595   3.243
 5908TIP3   OH217600   0.880   6.101   1.912
 5908TIP3    H117601   0.881   6.134   2.005
 5908TIP3    H217602   0.816   6.164   1.874
 5909TIP3   OH217603   0.430   6.205   2.762
 5909TIP3    H117604   0.501   6.232   2.825
 5909TIP3    H217605   0.479   6.156   2.695
 5910TIP3   OH217606   0.408   6.179   2.294
 5910TIP3    H117607   0.451   6.221   2.217
 5910TIP3    H217608   0.347   6.251   2.321
 5911TIP3   OH217609   1.556   6.897   2.890
 5911TIP3    H117610   1.590   6.824   2.834
 5911TIP3    H217611   1.530   6.846   2.970
 5912TIP3   OH217612   1.222   6.358   2.561
 5912TIP3    H117613   1.142   6.355   2.617
 5912TIP3    H217614   1.292   6.356   2.628
 5913TIP3   OH217615   0.665   6.410   2.566
 5913TIP3    H117616   0.569   6.418   2.544
 5913TIP3    H217617   0.684   6.316   2.550
 5914TIP3   OH217618   0.933   6.401   2.258
 5914TIP3    H117619   1.027   6.422   2.245
 5914TIP3    H217620   0.889   6.434   2.177
 5915TIP3   OH217621   1.720   6.433   2.763
 5915TIP3    H117622   1.686   6.443   2.855
 5915TIP3    H217623   1.655   6.370   2.726
 5916TIP3   OH217624   0.773   6.450   2.033
 5916TIP3    H117625   0.696   6.399   2.002
 5916TIP3    H217626   0.821   6.462   1.950
 5917TIP3   OH217627   1.887   8.120   2.982
 5917TIP3    H117628   1.886   8.143   2.887
 5917TIP3    H217629   1.966   8.169   3.013
 5918TIP3   OH217630   0.846   7.232   3.405
 5918TIP3    H117631   0.926   7.261   3.453
 5918TIP3    H217632   0.783   7.228   3.479
 5919TIP3   OH217633   1.311   6.683   2.659
 5919TIP3    H117634   1.386   6.643   2.612
 5919TIP3    H217635   1.320   6.645   2.748
 5920TIP3   OH217636   0.832   6.170   2.535
 5920TIP3    H117637   0.798   6.093   2.585
 5920TIP3    H217638   0.902   6.130   2.482
 5921TIP3   OH217639   1.288   6.580   2.949
 5921TIP3    H117640   1.198   6.616   2.965
 5921TIP3    H217641   1.345   6.639   3.001
 5922TIP3   OH217642   1.015   6.970   2.048
 5922TIP3    H117643   0.919   6.955   2.043
 5922TIP3    H217644   1.017   7.017   2.135
 5923TIP3   OH217645   1.926   7.208   2.675
 5923TIP3    H117646   1.951   7.256   2.594
 5923TIP3    H217647   1.840   7.168   2.651
 5924TIP3   OH217648   1.480   6.285   1.908
 5924TIP3    H117649   1.382   6.287   1.908
 5924TIP3    H217650   1.503   6.379   1.926
 5925TIP3   OH217651   1.423   7.289   3.042
 5925TIP3    H117652   1.445   7.266   3.134
 5925TIP3    H217653   1.386   7.378   3.050
 5926TIP3   OH217654   1.555   6.530   2.005
 5926TIP3    H117655   1.651   6.534   2.025
 5926TIP3    H217656   1.543   6.610   1.950
 5927TIP3   OH217657   0.709   6.986   2.720
 5927TIP3    H117658   0.756   6.961   2.639
 5927TIP3    H217659   0.752   6.930   2.787
 5928TIP3   OH217660   1.167   7.119   1.875
 5928TIP3    H117661   1.132   7.211   1.877
 5928TIP3    H217662   1.104   7.077   1.937
 5929TIP3   OH217663   0.596   6.916   3.335
 5929TIP3    H117664   0.613   6.896   3.430
 5929TIP3    H217665   0.530   6.848   3.312
 5930TIP3   OH217666   1.321   7.027   3.354
 5930TIP3    H117667   1.262   6.967   3.305
 5930TIP3    H217668   1.409   6.994   3.326
 5931TIP3   OH217669   1.585   7.547   2.937
 5931TIP3    H117670   1.488   7.548   2.949
 5931TIP3    H217671   1.613   7.600   3.015
 5932TIP3   OH217672   1.994   6.620   1.848
 5932TIP3    H117673   1.931   6.575   1.787
 5932TIP3    H217674   1.993   6.708   1.804
 5933TIP3   OH217675   2.212   7.477   2.928
 5933TIP3    H117676   2.114   7.473   2.920
 5933TIP3    H217677   2.238   7.448   2.838
 5934TIP3   OH217678   1.695   7.440   1.753
 5934TIP3    H117679   1.671   7.369   1.814
 5934TIP3    H217680   1.708   7.394   1.668
 5935TIP3   OH217681   1.690   7.070   2.594
 5935TIP3    H117682   1.597   7.043   2.608
 5935TIP3    H217683   1.726   6.990   2.550
 5936TIP3   OH217684   0.822   7.291   2.349
 5936TIP3    H117685   0.831   7.376   2.300
 5936TIP3    H217686   0.726   7.280   2.344
 5937TIP3   OH217687   0.394   6.601   2.074
 5937TIP3    H117688   0.434   6.690   2.085
 5937TIP3    H217689   0.312   6.610   2.128
 5938TIP3   OH217690   0.965   7.064   2.294
 5938TIP3    H117691   0.929   7.154   2.305
 5938TIP3    H217692   0.923   7.018   2.369
 5939TIP3   OH217693   1.085   7.640   2.815
 5939TIP3    H117694   1.125   7.714   2.764
 5939TIP3    H217695   1.162   7.608   2.865
 5940TIP3   OH217696   0.761   7.532   2.231
 5940TIP3    H117697   0.665   7.539   2.239
 5940TIP3    H217698   0.786   7.624   2.207
 5941TIP3   OH217699   1.476   7.274   2.773
 5941TIP3    H117700   1.467   7.273   2.871
 5941TIP3    H217701   1.559   7.225   2.761
 5942TIP3   OH217702   1.453   7.162   1.653
 5942TIP3    H117703   1.497   7.139   1.738
 5942TIP3    H217704   1.360   7.138   1.672
 5943TIP3   OH217705   1.724   7.811   2.825
 5943TIP3    H117706   1.645   7.754   2.816
 5943TIP3    H217707   1.709   7.875   2.752
 5944TIP3   OH217708   1.788   7.644   1.473
 5944TIP3    H117709   1.829   7.717   1.424
 5944TIP3    H217710   1.709   7.691   1.508
 5945TIP3   OH217711   0.808   6.419   3.342
 5945TIP3    H117712   0.711   6.426   3.354
 5945TIP3    H217713   0.833   6.359   3.415
 5946TIP3   OH217714   1.607   7.101   1.879
 5946TIP3    H117715   1.602   7.032   1.948
 5946TIP3    H217716   1.703   7.102   1.861
 5947TIP3   OH217717   0.523   7.504   2.976
 5947TIP3    H117718   0.576   7.428   3.005
 5947TIP3    H217719   0.554   7.572   3.038
 5948TIP3   OH217720   0.505   6.857   2.127
 5948TIP3    H117721   0.450   6.923   2.170
 5948TIP3    H217722   0.534   6.904   2.047
 5949TIP3   OH217723   1.645   6.482   3.021
 5949TIP3    H117724   1.722   6.522   3.063
 5949TIP3    H217725   1.630   6.403   3.076
 5950TIP3   OH217726   1.519   6.240   2.186
 5950TIP3    H117727   1.513   6.264   2.091
 5950TIP3    H217728   1.564   6.318   2.224
 5951TIP3   OH217729   1.033   7.349   1.905
 5951TIP3    H117730   0.936   7.340   1.912
 5951TIP3    H217731   1.042   7.413   1.834
 5952TIP3   OH217732   1.211   6.413   2.288
 5952TIP3    H117733   1.280   6.481   2.271
 5952TIP3    H217734   1.218   6.403   2.385
 5953TIP3   OH217735   1.485   6.734   3.099
 5953TIP3    H117736   1.501   6.790   3.178
 5953TIP3    H217737   1.540   6.657   3.116
 5954TIP3   OH217738   1.360   6.144   2.392
 5954TIP3    H117739   1.364   6.213   2.461
 5954TIP3    H217740   1.421   6.183   2.325
 5955TIP3   OH217741   0.878   6.132   2.186
 5955TIP3    H117742   0.861   6.218   2.228
 5955TIP3    H217743   0.975   6.127   2.202
 5956TIP3   OH217744   2.126   6.633   3.078
 5956TIP3    H117745   2.028   6.631   3.085
 5956TIP3    H217746   2.137   6.597   2.990
 5957TIP3   OH217747   1.775   6.828   2.467
 5957TIP3    H117748   1.701   6.767   2.482
 5957TIP3    H217749   1.849   6.783   2.514
 5958TIP3   OH217750   0.444   6.332   2.069
 5958TIP3    H117751   0.439   6.430   2.073
 5958TIP3    H217752   0.360   6.309   2.028
 5959TIP3   OH217753   1.744   7.781   2.418
 5959TIP3    H117754   1.701   7.829   2.343
 5959TIP3    H217755   1.838   7.801   2.397
 5960TIP3   OH217756   0.825   6.050   2.944
 5960TIP3    H117757   0.787   6.018   2.859
 5960TIP3    H217758   0.812   5.973   3.003
 5961TIP3   OH217759   0.319   7.261   2.315
 5961TIP3    H117760   0.290   7.333   2.374
 5961TIP3    H217761   0.383   7.304   2.258
 5962TIP3   OH217762   0.513   7.807   3.398
 5962TIP3    H117763   0.600   7.810   3.443
 5962TIP3    H217764   0.499   7.711   3.393
 5963TIP3   OH217765   0.997   7.781   3.439
 5963TIP3    H117766   1.091   7.761   3.450
 5963TIP3    H217767   0.975   7.721   3.364
 5964TIP3   OH217768   0.999   7.355   1.617
 5964TIP3    H117769   0.923   7.298   1.637
 5964TIP3    H217770   1.033   7.310   1.537
 5965TIP3   OH217771   1.637   7.682   3.172
 5965TIP3    H117772   1.628   7.613   3.241
 5965TIP3    H217773   1.714   7.733   3.204
 5966TIP3   OH217774   1.429   7.395   1.483
 5966TIP3    H117775   1.474   7.331   1.540
 5966TIP3    H217776   1.485   7.397   1.403
 5967TIP3   OH217777   0.649   7.217   3.599
 5967TIP3    H117778   0.667   7.121   3.602
 5967TIP3    H217779   0.563   7.219   3.552
 5968TIP3   OH217780   0.646   6.863   1.816
 5968TIP3    H117781   0.715   6.825   1.872
 5968TIP3    H217782   0.699   6.886   1.737
 5969TIP3   OH217783   1.255   7.302   3.369
 5969TIP3    H117784   1.213   7.316   3.282
 5969TIP3    H217785   1.286   7.209   3.363
 5970TIP3   OH217786   1.159   7.065   1.598
 5970TIP3    H117787   1.137   7.090   1.689
 5970TIP3    H217788   1.122   6.975   1.593
 5971TIP3   OH217789   1.746   7.308   2.973
 5971TIP3    H117790   1.820   7.355   2.930
 5971TIP3    H217791   1.675   7.374   2.964
 5972TIP3   OH217792   0.766   6.953   3.577
 5972TIP3    H117793   0.835   6.888   3.562
 5972TIP3    H217794   0.790   6.984   3.667
 5973TIP3   OH217795   0.836   6.748   2.018
 5973TIP3    H117796   0.801   6.744   2.110
 5973TIP3    H217797   0.820   6.656   1.989
 5974TIP3   OH217798   1.102   6.839   3.240
 5974TIP3    H117799   1.023   6.897   3.244
 5974TIP3    H217800   1.147   6.871   3.159
 5975TIP3   OH217801   0.940   6.557   1.839
 5975TIP3    H117802   0.900   6.557   1.749
 5975TIP3    H217803   1.031   6.527   1.820
 5976TIP3   OH217804   1.615   7.238   3.373
 5976TIP3    H117805   1.699   7.219   3.328
 5976TIP3    H217806   1.615   7.172   3.444
 5977TIP3   OH217807   1.752   6.897   1.515
 5977TIP3    H117808   1.736   6.850   1.431
 5977TIP3    H217809   1.722   6.988   1.488
 5978TIP3   OH217810   1.224   6.624   3.367
 5978TIP3    H117811   1.222   6.544   3.312
 5978TIP3    H217812   1.180   6.690   3.309
 5979TIP3   OH217813   1.225   6.409   3.171
 5979TIP3    H117814   1.251   6.451   3.087
 5979TIP3    H217815   1.131   6.388   3.154
 5980TIP3   OH217816   1.255   6.946   3.042
 5980TIP3    H117817   1.339   6.956   2.994
 5980TIP3    H217818   1.200   7.016   3.001
 5981TIP3   OH217819   1.836   6.915   3.428
 5981TIP3    H117820   1.885   6.832   3.440
 5981TIP3    H217821   1.906   6.974   3.395
 5982TIP3   OH217822   1.877   7.166   3.162
 5982TIP3    H117823   1.819   7.219   3.103
 5982TIP3    H217824   1.965   7.186   3.122
 5983TIP3   OH217825   1.100   6.740   3.594
 5983TIP3    H117826   1.031   6.672   3.609
 5983TIP3    H217827   1.136   6.713   3.507
 5984TIP3   OH217828   1.358   6.175   3.237
 5984TIP3    H117829   1.309   6.258   3.216
 5984TIP3    H217830   1.287   6.108   3.227
 5985TIP3   OH217831   1.484   6.682   3.456
 5985TIP3    H117832   1.474   6.670   3.552
 5985TIP3    H217833   1.394   6.656   3.427
 5986TIP3   OH217834   1.723   6.627   3.309
 5986TIP3    H117835   1.647   6.630   3.371
 5986TIP3    H217836   1.796   6.597   3.368
 5987TIP3   OH217837   1.954   6.569   3.462
 5987TIP3    H117838   1.964   6.473   3.483
 5987TIP3    H217839   1.948   6.610   3.551
 5988TIP3   OH217840   0.942   6.519   3.646
 5988TIP3    H117841   0.948   6.428   3.611
 5988TIP3    H217842   0.976   6.506   3.737
 5989TIP3   OH217843   1.454   6.186   3.494
 5989TIP3    H117844   1.521   6.115   3.490
 5989TIP3    H217845   1.413   6.178   3.406
 5990TIP3   OH217846   1.518   6.400   3.655
 5990TIP3    H117847   1.495   6.330   3.591
 5990TIP3    H217848   1.441   6.460   3.649
 5991TIP3   OH217849   0.296   7.459   2.559
 5991TIP3    H117850   0.257   7.401   2.626
 5991TIP3    H217851   0.318   7.536   2.614
 5992TIP3   OH217852   1.995   7.875   2.371
 5992TIP3    H117853   2.023   7.910   2.458
 5992TIP3    H217854   2.055   7.921   2.311
 5993TIP3   OH217855   2.026   7.896   2.654
 5993TIP3    H117856   1.983   7.808   2.649
 5993TIP3    H217857   2.102   7.874   2.711
 5994TIP3   OH217858   2.072   7.572   3.226
 5994TIP3    H117859   1.998   7.579   3.291
 5994TIP3    H217860   2.112   7.660   3.231
 5995TIP3   OH217861   1.886   7.086   1.848
 5995TIP3    H117862   1.955   7.149   1.819
 5995TIP3    H217863   1.930   7.046   1.926
 5996TIP3   OH217864   2.015   6.954   2.050
 5996TIP3    H117865   1.951   6.911   2.111
 5996TIP3    H217866   2.081   6.991   2.111
 5997TIP3   OH217867   2.067   7.342   2.483
 5997TIP3    H117868   2.123   7.280   2.431
 5997TIP3    H217869   2.060   7.419   2.422
 5998TIP3   OH217870   1.902   7.644   2.679
 5998TIP3    H117871   1.831   7.687   2.731
 5998TIP3    H217872   1.852   7.596   2.610
 5999TIP3   OH217873   1.953   6.859   1.699
 5999TIP3    H117874   1.882   6.863   1.632
 5999TIP3    H217875   1.928   6.937   1.754
 6000TIP3   OH217876   1.818   6.537   1.658
 6000TIP3    H117877   1.792   6.574   1.574
 6000TIP3    H217878   1.794   6.442   1.646
 6001TIP3   OH217879   1.829   6.807   2.198
 6001TIP3    H117880   1.842   6.711   2.195
 6001TIP3    H217881   1.817   6.824   2.294
 6002TIP3   OH217882   0.456   6.897   2.935
 6002TIP3    H117883   0.458   6.861   2.844
 6002TIP3    H217884   0.552   6.890   2.958
 6003TIP3   OH217885   2.119   7.232   3.054
 6003TIP3    H117886   2.192   7.168   3.045
 6003TIP3    H217887   2.147   7.303   2.993
 6004TIP3   OH217888   2.305   7.041   3.075
 6004TIP3    H117889   2.231   6.990   3.113
 6004TIP3    H217890   2.378   6.976   3.087
 6005TIP3   OH217891   1.767   6.271   1.648
 6005TIP3    H117892   1.850   6.240   1.691
 6005TIP3    H217893   1.704   6.201   1.668
 6006TIP3   OH217894   1.823   6.522   2.092
 6006TIP3    H117895   1.866   6.435   2.108
 6006TIP3    H217896   1.883   6.557   2.024
 6007TIP3   OH217897   1.989   6.701   2.587
 6007TIP3    H117898   2.075   6.727   2.548
 6007TIP3    H217899   2.002   6.737   2.677
 6008TIP3   OH217900   2.055   6.842   2.821
 6008TIP3    H117901   1.977   6.877   2.870
 6008TIP3    H217902   2.088   6.923   2.776
 6009TIP3   OH217903   0.675   6.572   3.623
 6009TIP3    H117904   0.773   6.563   3.622
 6009TIP3    H217905   0.650   6.487   3.664
 6010TIP3   OH217906   2.509   6.432   3.377
 6010TIP3    H117907   2.566   6.367   3.331
 6010TIP3    H217908   2.480   6.489   3.303
 6011TIP3   OH217909   1.933   6.274   2.132
 6011TIP3    H117910   1.984   6.259   2.215
 6011TIP3    H217911   1.876   6.195   2.131
 6012TIP3   OH217912   0.637   6.254   2.931
 6012TIP3    H117913   0.702   6.186   2.957
 6012TIP3    H217914   0.686   6.336   2.949
 6013TIP3   OH217915   0.484   6.517   3.045
 6013TIP3    H117916   0.488   6.524   2.948
 6013TIP3    H217917   0.455   6.605   3.071
 6014TIP3   OH217918   2.381   6.574   3.185
 6014TIP3    H117919   2.293   6.613   3.207
 6014TIP3    H217920   2.353   6.504   3.124
 6015TIP3   OH217921   2.017   6.211   1.760
 6015TIP3    H117922   2.058   6.137   1.711
 6015TIP3    H217923   2.085   6.281   1.754
 6016TIP3   OH217924   0.420   6.030   2.520
 6016TIP3    H117925   0.329   6.033   2.555
 6016TIP3    H217926   0.417   6.094   2.446
 6017TIP3   OH217927   1.584   7.739   2.032
 6017TIP3    H117928   1.633   7.724   1.948
 6017TIP3    H217929   1.636   7.809   2.074
 6018TIP3   OH217930   0.639   6.116   3.336
 6018TIP3    H117931   0.591   6.112   3.420
 6018TIP3    H217932   0.574   6.160   3.278
 6019TIP3   OH217933   0.686   7.547   3.417
 6019TIP3    H117934   0.595   7.515   3.399
 6019TIP3    H217935   0.696   7.525   3.511
 6020TIP3   OH217936   0.857   7.574   2.962
 6020TIP3    H117937   0.811   7.651   2.924
 6020TIP3    H217938   0.944   7.588   2.919
 6021TIP3   OH217939   1.306   7.823   3.101
 6021TIP3    H117940   1.347   7.823   3.190
 6021TIP3    H217941   1.372   7.873   3.049
 6022TIP3   OH217942   1.485   7.973   2.958
 6022TIP3    H117943   1.556   7.922   2.917
 6022TIP3    H217944   1.535   8.030   3.019
 6023TIP3   OH217945   2.277   6.337   3.060
 6023TIP3    H117946   2.186   6.333   3.027
 6023TIP3    H217947   2.307   6.244   3.047
 6024TIP3   OH217948   0.537   7.834   2.986
 6024TIP3    H117949   0.450   7.872   2.965
 6024TIP3    H217950   0.549   7.866   3.076
 6025TIP3   OH217951   0.773   7.812   2.844
 6025TIP3    H117952   0.687   7.826   2.889
 6025TIP3    H217953   0.754   7.846   2.754
 6026TIP3   OH217954   1.198   7.843   2.643
 6026TIP3    H117955   1.133   7.865   2.573
 6026TIP3    H217956   1.212   7.931   2.684
 6027TIP3   OH217957   1.466   7.782   2.692
 6027TIP3    H117958   1.372   7.798   2.673
 6027TIP3    H217959   1.508   7.859   2.650
 6028TIP3   OH217960   1.676   7.976   2.609
 6028TIP3    H117961   1.661   8.060   2.561
 6028TIP3    H217962   1.701   7.915   2.536
 6029TIP3   OH217963   0.453   7.634   2.736
 6029TIP3    H117964   0.479   7.605   2.826
 6029TIP3    H217965   0.522   7.586   2.684
 6030TIP3   OH217966   0.645   7.502   2.595
 6030TIP3    H117967   0.661   7.417   2.642
 6030TIP3    H217968   0.735   7.539   2.590
 6031TIP3   OH217969   0.906   7.599   2.592
 6031TIP3    H117970   0.939   7.510   2.572
 6031TIP3    H217971   0.952   7.616   2.676
 6032TIP3   OH217972   1.476   6.247   2.666
 6032TIP3    H117973   1.438   6.181   2.728
 6032TIP3    H217974   1.556   6.201   2.633
 6033TIP3   OH217975   2.007   6.131   2.585
 6033TIP3    H117976   2.045   6.182   2.510
 6033TIP3    H217977   1.912   6.152   2.578
 6034TIP3   OH217978   2.101   6.233   2.348
 6034TIP3    H117979   2.174   6.180   2.308
 6034TIP3    H217980   2.136   6.324   2.333
 6035TIP3   OH217981   0.733   5.960   2.691
 6035TIP3    H117982   0.642   5.925   2.696
 6035TIP3    H217983   0.784   5.876   2.693
 6036TIP3   OH217984   0.509   5.832   2.343
 6036TIP3    H117985   0.534   5.897   2.277
 6036TIP3    H217986   0.481   5.889   2.417
 6037TIP3   OH217987   1.169   5.998   2.572
 6037TIP3    H117988   1.236   6.046   2.520
 6037TIP3    H217989   1.190   6.028   2.662
 6038TIP3   OH217990   1.721   6.138   2.561
 6038TIP3    H117991   1.726   6.101   2.472
 6038TIP3    H217992   1.708   6.057   2.615
 6039TIP3   OH217993   1.752   6.059   2.120
 6039TIP3    H117994   1.664   6.099   2.132
 6039TIP3    H217995   1.740   5.975   2.169
 6040TIP3   OH217996   0.627   5.996   2.105
 6040TIP3    H117997   0.663   5.906   2.106
 6040TIP3    H217998   0.697   6.048   2.149
 6041TIP3   OH217999   1.154   6.158   2.207
 6041TIP3    H118000   1.217   6.121   2.272
 6041TIP3    H218001   1.167   6.253   2.230
 6042TIP3   OH218002   1.068   7.593   1.719
 6042TIP3    H118003   1.152   7.620   1.675
 6042TIP3    H218004   1.051   7.510   1.669
 6043TIP3   OH218005   1.726   7.707   1.798
 6043TIP3    H118006   1.717   7.610   1.783
 6043TIP3    H218007   1.681   7.742   1.718
 6044TIP3   OH218008   0.940   6.241   3.586
 6044TIP3    H118009   0.906   6.171   3.644
 6044TIP3    H218010   1.035   6.242   3.613
 6045TIP3   OH218011   1.188   6.238   3.706
 6045TIP3    H118012   1.274   6.211   3.668
 6045TIP3    H218013   1.175   6.168   3.773
 6046TIP3   OH218014   2.012   6.297   3.493
 6046TIP3    H118015   2.032   6.268   3.585
 6046TIP3    H218016   2.100   6.293   3.451
 6047TIP3   OH218017   1.954   7.852   2.985
 6047TIP3    H118018   1.875   7.819   2.938
 6047TIP3    H218019   1.934   7.948   2.988
 6048TIP3   OH218020   3.218   7.223   1.754
 6048TIP3    H118021   3.191   7.315   1.733
 6048TIP3    H218022   3.142   7.174   1.718
 6049TIP3   OH218023   3.217   7.224   2.131
 6049TIP3    H118024   3.246   7.191   2.218
 6049TIP3    H218025   3.176   7.145   2.093
 6050TIP3   OH218026   2.517   7.120   2.498
 6050TIP3    H118027   2.550   7.054   2.562
 6050TIP3    H218028   2.596   7.177   2.489
 6051TIP3   OH218029   3.460   7.524   1.813
 6051TIP3    H118030   3.447   7.454   1.879
 6051TIP3    H218031   3.488   7.599   1.868
 6052TIP3   OH218032   2.488   7.528   2.225
 6052TIP3    H118033   2.479   7.430   2.228
 6052TIP3    H218034   2.584   7.536   2.218
 6053TIP3   OH218035   2.194   6.732   2.011
 6053TIP3    H118036   2.146   6.817   2.022
 6053TIP3    H218037   2.124   6.678   1.972
 6054TIP3   OH218038   2.254   7.019   2.176
 6054TIP3    H118039   2.304   6.943   2.216
 6054TIP3    H218040   2.315   7.047   2.107
 6055TIP3   OH218041   3.108   7.988   1.829
 6055TIP3    H118042   3.156   7.917   1.781
 6055TIP3    H218043   3.103   7.951   1.918
 6056TIP3   OH218044   3.016   7.448   2.181
 6056TIP3    H118045   3.053   7.373   2.132
 6056TIP3    H218046   3.101   7.493   2.204
 6057TIP3   OH218047   4.028   6.770   2.178
 6057TIP3    H118048   4.056   6.852   2.222
 6057TIP3    H218049   4.049   6.791   2.085
 6058TIP3   OH218050   3.428   6.952   2.215
 6058TIP3    H118051   3.471   6.866   2.234
 6058TIP3    H218052   3.398   6.937   2.123
 6059TIP3   OH218053   2.764   6.610   2.180
 6059TIP3    H118054   2.745   6.683   2.117
 6059TIP3    H218055   2.717   6.536   2.135
 6060TIP3   OH218056   3.459   6.701   1.804
 6060TIP3    H118057   3.533   6.685   1.866
 6060TIP3    H218058   3.508   6.737   1.728
 6061TIP3   OH218059   2.400   6.813   2.286
 6061TIP3    H118060   2.483   6.792   2.333
 6061TIP3    H218061   2.411   6.757   2.206
 6062TIP3   OH218062   2.841   7.011   2.078
 6062TIP3    H118063   2.935   6.985   2.091
 6062TIP3    H218064   2.802   6.927   2.046
 6063TIP3   OH218065   4.101   6.976   2.349
 6063TIP3    H118066   4.019   7.025   2.330
 6063TIP3    H218067   4.116   7.000   2.441
 6064TIP3   OH218068   2.763   6.593   2.613
 6064TIP3    H118069   2.703   6.630   2.545
 6064TIP3    H218070   2.711   6.612   2.694
 6065TIP3   OH218071   3.111   7.444   1.624
 6065TIP3    H118072   3.071   7.421   1.538
 6065TIP3    H218073   3.067   7.529   1.644
 6066TIP3   OH218074   2.869   7.368   2.411
 6066TIP3    H118075   2.805   7.433   2.448
 6066TIP3    H218076   2.911   7.420   2.339
 6067TIP3   OH218077   3.673   6.701   1.972
 6067TIP3    H118078   3.663   6.653   2.055
 6067TIP3    H218079   3.727   6.778   1.998
 6068TIP3   OH218080   2.633   6.709   2.398
 6068TIP3    H118081   2.695   6.781   2.420
 6068TIP3    H218082   2.681   6.667   2.323
 6069TIP3   OH218083   2.696   7.561   2.506
 6069TIP3    H118084   2.670   7.646   2.466
 6069TIP3    H218085   2.617   7.546   2.563
 6070TIP3   OH218086   2.092   7.252   1.743
 6070TIP3    H118087   2.053   7.278   1.658
 6070TIP3    H218088   2.122   7.338   1.779
 6071TIP3   OH218089   3.533   7.767   1.984
 6071TIP3    H118090   3.442   7.759   2.022
 6071TIP3    H218091   3.525   7.852   1.937
 6072TIP3   OH218092   3.821   6.669   2.344
 6072TIP3    H118093   3.734   6.700   2.316
 6072TIP3    H218094   3.880   6.702   2.272
 6073TIP3   OH218095   3.122   6.314   2.326
 6073TIP3    H118096   3.109   6.219   2.343
 6073TIP3    H218097   3.043   6.351   2.373
 6074TIP3   OH218098   3.236   7.816   1.659
 6074TIP3    H118099   3.285   7.733   1.636
 6074TIP3    H218100   3.295   7.881   1.615
 6075TIP3   OH218101   3.375   7.601   1.561
 6075TIP3    H118102   3.342   7.521   1.517
 6075TIP3    H218103   3.410   7.564   1.645
 6076TIP3   OH218104   3.758   7.683   2.325
 6076TIP3    H118105   3.748   7.605   2.267
 6076TIP3    H218106   3.742   7.757   2.263
 6077TIP3   OH218107   3.050   7.076   1.582
 6077TIP3    H118108   2.969   7.126   1.558
 6077TIP3    H218109   3.096   7.071   1.496
 6078TIP3   OH218110   3.009   6.855   1.306
 6078TIP3    H118111   3.079   6.908   1.349
 6078TIP3    H218112   3.064   6.792   1.255
 6079TIP3   OH218113   3.953   7.317   2.169
 6079TIP3    H118114   3.871   7.370   2.175
 6079TIP3    H218115   3.982   7.341   2.079
 6080TIP3   OH218116   3.396   7.158   1.555
 6080TIP3    H118117   3.341   7.183   1.634
 6080TIP3    H218118   3.479   7.131   1.599
 6081TIP3   OH218119   3.632   7.198   2.464
 6081TIP3    H118120   3.629   7.282   2.514
 6081TIP3    H218121   3.546   7.202   2.418
 6082TIP3   OH218122   2.628   7.156   1.972
 6082TIP3    H118123   2.586   7.099   1.904
 6082TIP3    H218124   2.706   7.103   1.999
 6083TIP3   OH218125   2.757   7.566   2.121
 6083TIP3    H118126   2.737   7.523   2.036
 6083TIP3    H218127   2.848   7.534   2.138
 6084TIP3   OH218128   2.766   7.127   2.325
 6084TIP3    H118129   2.799   7.107   2.235
 6084TIP3    H218130   2.809   7.213   2.346
 6085TIP3   OH218131   3.290   7.765   2.102
 6085TIP3    H118132   3.276   7.844   2.157
 6085TIP3    H218133   3.277   7.691   2.165
 6086TIP3   OH218134   2.902   7.684   2.649
 6086TIP3    H118135   2.843   7.747   2.695
 6086TIP3    H218136   2.836   7.630   2.600
 6087TIP3   OH218137   3.238   7.014   1.381
 6087TIP3    H118138   3.297   7.074   1.433
 6087TIP3    H218139   3.263   7.039   1.289
 6088TIP3   OH218140   2.657   7.241   2.749
 6088TIP3    H118141   2.661   7.327   2.795
 6088TIP3    H218142   2.561   7.222   2.756
 6089TIP3   OH218143   2.978   7.698   1.658
 6089TIP3    H118144   3.057   7.752   1.677
 6089TIP3    H218145   2.918   7.760   1.616
 6090TIP3   OH218146   2.697   7.854   2.735
 6090TIP3    H118147   2.663   7.850   2.644
 6090TIP3    H218148   2.618   7.832   2.789
 6091TIP3   OH218149   3.754   6.257   1.429
 6091TIP3    H118150   3.672   6.277   1.479
 6091TIP3    H218151   3.766   6.340   1.378
 6092TIP3   OH218152   2.493   6.999   1.780
 6092TIP3    H118153   2.431   7.044   1.719
 6092TIP3    H218154   2.453   6.911   1.786
 6093TIP3   OH218155   3.551   7.626   0.977
 6093TIP3    H118156   3.560   7.722   0.962
 6093TIP3    H218157   3.644   7.596   0.964
 6094TIP3   OH218158   2.276   7.382   2.683
 6094TIP3    H118159   2.213   7.359   2.613
 6094TIP3    H218160   2.313   7.295   2.709
 6095TIP3   OH218161   2.130   7.573   2.319
 6095TIP3    H118162   2.226   7.569   2.306
 6095TIP3    H218163   2.121   7.655   2.370
 6096TIP3   OH218164   3.995   8.025   2.370
 6096TIP3    H118165   3.994   7.928   2.382
 6096TIP3    H218166   3.912   8.049   2.416
 6097TIP3   OH218167   3.102   7.813   2.506
 6097TIP3    H118168   3.101   7.906   2.538
 6097TIP3    H218169   3.030   7.774   2.560
 6098TIP3   OH218170   2.859   7.941   1.458
 6098TIP3    H118171   2.815   7.922   1.373
 6098TIP3    H218172   2.829   8.032   1.477
 6099TIP3   OH218173   2.298   7.792   1.840
 6099TIP3    H118174   2.347   7.782   1.925
 6099TIP3    H218175   2.238   7.716   1.845
 6100TIP3   OH218176   3.063   7.843   1.099
 6100TIP3    H118177   3.122   7.773   1.061
 6100TIP3    H218178   3.098   7.850   1.190
 6101TIP3   OH218179   3.112   7.892   1.370
 6101TIP3    H118180   3.024   7.899   1.412
 6101TIP3    H218181   3.163   7.847   1.440
 6102TIP3   OH218182   3.886   7.159   2.644
 6102TIP3    H118183   3.805   7.171   2.592
 6102TIP3    H218184   3.900   7.063   2.635
 6103TIP3   OH218185   2.482   7.565   2.674
 6103TIP3    H118186   2.532   7.548   2.756
 6103TIP3    H218187   2.408   7.501   2.681
 6104TIP3   OH218188   2.881   6.389   2.453
 6104TIP3    H118189   2.791   6.358   2.429
 6104TIP3    H218190   2.857   6.472   2.498
 6105TIP3   OH218191   3.414   6.504   2.649
 6105TIP3    H118192   3.482   6.478   2.714
 6105TIP3    H218193   3.330   6.484   2.695
 6106TIP3   OH218194   3.655   6.933   2.567
 6106TIP3    H118195   3.607   6.929   2.653
 6106TIP3    H218196   3.630   7.021   2.533
 6107TIP3   OH218197   3.317   7.066   1.128
 6107TIP3    H118198   3.279   7.038   1.042
 6107TIP3    H218199   3.396   7.115   1.098
 6108TIP3   OH218200   3.028   6.437   1.426
 6108TIP3    H118201   2.994   6.436   1.517
 6108TIP3    H218202   2.988   6.355   1.392
 6109TIP3   OH218203   2.812   6.904   2.473
 6109TIP3    H118204   2.762   6.925   2.555
 6109TIP3    H218205   2.796   6.984   2.419
 6110TIP3   OH218206   2.697   6.790   1.988
 6110TIP3    H118207   2.604   6.764   2.004
 6110TIP3    H218208   2.711   6.750   1.899
 6111TIP3   OH218209   3.187   6.877   1.714
 6111TIP3    H118210   3.133   6.948   1.673
 6111TIP3    H218211   3.241   6.848   1.638
 6112TIP3   OH218212   3.361   7.157   2.803
 6112TIP3    H118213   3.339   7.083   2.864
 6112TIP3    H218214   3.456   7.170   2.824
 6113TIP3   OH218215   3.345   6.906   1.955
 6113TIP3    H118216   3.286   6.937   1.883
 6113TIP3    H218217   3.377   6.824   1.913
 6114TIP3   OH218218   2.631   6.934   2.683
 6114TIP3    H118219   2.659   6.997   2.751
 6114TIP3    H218220   2.620   6.852   2.735
 6115TIP3   OH218221   2.683   6.411   1.393
 6115TIP3    H118222   2.673   6.408   1.490
 6115TIP3    H218223   2.603   6.461   1.367
 6116TIP3   OH218224   2.224   6.457   2.264
 6116TIP3    H118225   2.300   6.488   2.316
 6116TIP3    H218226   2.264   6.423   2.182
 6117TIP3   OH218227   2.200   6.437   1.784
 6117TIP3    H118228   2.244   6.475   1.706
 6117TIP3    H218229   2.139   6.510   1.806
 6118TIP3   OH218230   3.356   7.153   2.379
 6118TIP3    H118231   3.388   7.080   2.321
 6118TIP3    H218232   3.327   7.101   2.457
 6119TIP3   OH218233   3.022   6.613   2.050
 6119TIP3    H118234   2.939   6.610   2.102
 6119TIP3    H218235   3.089   6.614   2.121
 6120TIP3   OH218236   2.458   6.667   2.059
 6120TIP3    H118237   2.363   6.673   2.032
 6120TIP3    H218238   2.482   6.576   2.034
 6121TIP3   OH218239   2.730   6.666   1.745
 6121TIP3    H118240   2.824   6.681   1.723
 6121TIP3    H218241   2.683   6.689   1.661
 6122TIP3   OH218242   3.515   6.688   2.251
 6122TIP3    H118243   3.480   6.700   2.342
 6122TIP3    H218244   3.450   6.626   2.214
 6123TIP3   OH218245   2.566   6.698   1.525
 6123TIP3    H118246   2.496   6.652   1.474
 6123TIP3    H218247   2.619   6.735   1.451
 6124TIP3   OH218248   3.683   8.378   2.469
 6124TIP3    H118249   3.682   8.398   2.374
 6124TIP3    H218250   3.763   8.426   2.499
 6125TIP3   OH218251   2.642   7.487   2.892
 6125TIP3    H118252   2.722   7.518   2.940
 6125TIP3    H218253   2.578   7.487   2.966
 6126TIP3   OH218254   3.107   6.939   2.146
 6126TIP3    H118255   3.180   6.901   2.094
 6126TIP3    H218256   3.120   6.898   2.234
 6127TIP3   OH218257   2.632   6.429   2.023
 6127TIP3    H118258   2.600   6.348   2.067
 6127TIP3    H218259   2.683   6.394   1.949
 6128TIP3   OH218260   3.084   6.834   2.439
 6128TIP3    H118261   2.995   6.872   2.451
 6128TIP3    H218262   3.142   6.895   2.489
 6129TIP3   OH218263   2.819   7.229   1.531
 6129TIP3    H118264   2.747   7.163   1.521
 6129TIP3    H218265   2.802   7.262   1.623
 6130TIP3   OH218266   3.722   7.464   2.163
 6130TIP3    H118267   3.746   7.513   2.080
 6130TIP3    H218268   3.636   7.423   2.138
 6131TIP3   OH218269   3.280   6.540   1.395
 6131TIP3    H118270   3.183   6.525   1.399
 6131TIP3    H218271   3.289   6.635   1.413
 6132TIP3   OH218272   3.221   7.546   2.529
 6132TIP3    H118273   3.240   7.523   2.620
 6132TIP3    H218274   3.181   7.634   2.536
 6133TIP3   OH218275   3.349   6.788   1.497
 6133TIP3    H118276   3.446   6.795   1.510
 6133TIP3    H218277   3.329   6.866   1.441
 6134TIP3   OH218278   2.511   7.248   2.209
 6134TIP3    H118279   2.549   7.222   2.123
 6134TIP3    H218280   2.552   7.185   2.269
 6135TIP3   OH218281   2.968   7.379   1.356
 6135TIP3    H118282   2.920   7.465   1.362
 6135TIP3    H218283   2.912   7.322   1.413
 6136TIP3   OH218284   2.391   7.172   2.821
 6136TIP3    H118285   2.414   7.158   2.915
 6136TIP3    H218286   2.323   7.103   2.807
 6137TIP3   OH218287   3.117   7.283   2.841
 6137TIP3    H118288   3.059   7.225   2.788
 6137TIP3    H218289   3.206   7.251   2.814
 6138TIP3   OH218290   3.382   7.807   2.423
 6138TIP3    H118291   3.285   7.804   2.435
 6138TIP3    H218292   3.408   7.858   2.503
 6139TIP3   OH218293   3.792   6.876   1.333
 6139TIP3    H118294   3.730   6.831   1.271
 6139TIP3    H218295   3.788   6.965   1.291
 6140TIP3   OH218296   4.009   7.735   2.414
 6140TIP3    H118297   3.911   7.729   2.406
 6140TIP3    H218298   4.034   7.704   2.324
 6141TIP3   OH218299   3.492   7.696   1.241
 6141TIP3    H118300   3.465   7.624   1.300
 6141TIP3    H218301   3.502   7.652   1.155
 6142TIP3   OH218302   3.486   7.326   2.083
 6142TIP3    H118303   3.393   7.300   2.095
 6142TIP3    H218304   3.521   7.247   2.037
 6143TIP3   OH218305   2.612   7.553   1.834
 6143TIP3    H118306   2.617   7.634   1.780
 6143TIP3    H218307   2.517   7.538   1.838
 6144TIP3   OH218308   2.176   6.859   1.534
 6144TIP3    H118309   2.224   6.942   1.554
 6144TIP3    H218310   2.100   6.865   1.595
 6145TIP3   OH218311   2.754   7.320   1.779
 6145TIP3    H118312   2.719   7.410   1.796
 6145TIP3    H218313   2.716   7.271   1.854
 6146TIP3   OH218314   2.881   7.898   2.303
 6146TIP3    H118315   2.921   7.970   2.251
 6146TIP3    H218316   2.959   7.864   2.351
 6147TIP3   OH218317   2.534   7.792   1.686
 6147TIP3    H118318   2.447   7.800   1.731
 6147TIP3    H218319   2.565   7.885   1.688
 6148TIP3   OH218320   3.273   7.533   2.260
 6148TIP3    H118321   3.265   7.530   2.357
 6148TIP3    H218322   3.352   7.478   2.245
 6149TIP3   OH218323   3.244   7.425   1.142
 6149TIP3    H118324   3.295   7.400   1.222
 6149TIP3    H218325   3.155   7.396   1.169
 6150TIP3   OH218326   3.520   8.068   2.313
 6150TIP3    H118327   3.442   8.010   2.304
 6150TIP3    H218328   3.504   8.132   2.239
 6151TIP3   OH218329   3.585   7.900   0.963
 6151TIP3    H118330   3.623   7.971   0.908
 6151TIP3    H218331   3.505   7.947   0.995
 6152TIP3   OH218332   2.606   6.677   2.831
 6152TIP3    H118333   2.510   6.681   2.845
 6152TIP3    H218334   2.634   6.615   2.900
 6153TIP3   OH218335   3.403   7.362   1.363
 6153TIP3    H118336   3.394   7.292   1.431
 6153TIP3    H218337   3.500   7.358   1.347
 6154TIP3   OH218338   2.321   7.762   2.462
 6154TIP3    H118339   2.372   7.685   2.490
 6154TIP3    H218340   2.352   7.829   2.525
 6155TIP3   OH218341   2.609   7.407   1.143
 6155TIP3    H118342   2.627   7.318   1.108
 6155TIP3    H218343   2.592   7.389   1.237
 6156TIP3   OH218344   2.556   7.409   1.418
 6156TIP3    H118345   2.630   7.382   1.473
 6156TIP3    H218346   2.562   7.507   1.422
 6157TIP3   OH218347   2.294   7.104   1.617
 6157TIP3    H118348   2.229   7.150   1.674
 6157TIP3    H218349   2.311   7.173   1.550
 6158TIP3   OH218350   3.440   6.741   2.509
 6158TIP3    H118351   3.520   6.779   2.549
 6158TIP3    H218352   3.425   6.660   2.563
 6159TIP3   OH218353   3.320   6.493   1.673
 6159TIP3    H118354   3.305   6.516   1.579
 6159TIP3    H218355   3.359   6.576   1.708
 6160TIP3   OH218356   2.822   7.608   1.366
 6160TIP3    H118357   2.735   7.638   1.399
 6160TIP3    H218358   2.839   7.671   1.296
 6161TIP3   OH218359   3.013   6.669   1.776
 6161TIP3    H118360   3.077   6.741   1.757
 6161TIP3    H218361   3.017   6.665   1.874
 6162TIP3   OH218362   3.280   6.991   2.586
 6162TIP3    H118363   3.298   7.045   2.665
 6162TIP3    H218364   3.336   6.913   2.600
 6163TIP3   OH218365   3.158   6.401   1.881
 6163TIP3    H118366   3.148   6.479   1.939
 6163TIP3    H218367   3.217   6.438   1.811
 6164TIP3   OH218368   2.564   7.683   1.429
 6164TIP3    H118369   2.535   7.752   1.366
 6164TIP3    H218370   2.549   7.727   1.516
 6165TIP3   OH218371   2.666   6.395   1.670
 6165TIP3    H118372   2.664   6.487   1.704
 6165TIP3    H218373   2.762   6.377   1.677
 6166TIP3   OH218374   3.922   6.890   2.564
 6166TIP3    H118375   3.824   6.889   2.572
 6166TIP3    H218376   3.932   6.852   2.476
 6167TIP3   OH218377   3.572   7.085   1.954
 6167TIP3    H118378   3.496   7.025   1.965
 6167TIP3    H218379   3.643   7.037   2.002
 6168TIP3   OH218380   2.282   7.317   1.423
 6168TIP3    H118381   2.349   7.387   1.433
 6168TIP3    H218382   2.328   7.261   1.356
 6169TIP3   OH218383   2.228   6.589   1.561
 6169TIP3    H118384   2.228   6.686   1.552
 6169TIP3    H218385   2.152   6.564   1.508
 6170TIP3   OH218386   3.539   8.040   1.905
 6170TIP3    H118387   3.497   8.087   1.830
 6170TIP3    H218388   3.633   8.058   1.883
 6171TIP3   OH218389   2.615   6.309   2.432
 6171TIP3    H118390   2.585   6.276   2.345
 6171TIP3    H218391   2.605   6.230   2.489
 6172TIP3   OH218392   2.158   7.529   1.815
 6172TIP3    H118393   2.080   7.560   1.864
 6172TIP3    H218394   2.139   7.566   1.726
 6173TIP3   OH218395   2.310   8.066   2.883
 6173TIP3    H118396   2.396   8.065   2.929
 6173TIP3    H218397   2.289   7.971   2.881
 6174TIP3   OH218398   2.796   8.036   2.926
 6174TIP3    H118399   2.890   8.014   2.934
 6174TIP3    H218400   2.770   7.978   2.852
 6175TIP3   OH218401   2.778   7.610   1.060
 6175TIP3    H118402   2.721   7.537   1.094
 6175TIP3    H218403   2.851   7.558   1.021
 6176TIP3   OH218404   3.432   7.940   2.660
 6176TIP3    H118405   3.423   7.869   2.728
 6176TIP3    H218406   3.510   7.989   2.691
 6177TIP3   OH218407   3.213   7.654   0.967
 6177TIP3    H118408   3.257   7.587   1.023
 6177TIP3    H218409   3.268   7.653   0.886
 6178TIP3   OH218410   2.442   7.475   3.083
 6178TIP3    H118411   2.459   7.379   3.087
 6178TIP3    H218412   2.354   7.477   3.040
 6179TIP3   OH218413   2.416   7.127   1.275
 6179TIP3    H118414   2.473   7.092   1.346
 6179TIP3    H218415   2.483   7.131   1.203
 6180TIP3   OH218416   3.051   7.559   2.856
 6180TIP3    H118417   3.008   7.573   2.769
 6180TIP3    H218418   3.082   7.466   2.850
 6181TIP3   OH218419   2.925   7.327   1.085
 6181TIP3    H118420   2.931   7.335   1.182
 6181TIP3    H218421   2.926   7.229   1.076
 6182TIP3   OH218422   3.544   7.565   2.462
 6182TIP3    H118423   3.616   7.612   2.417
 6182TIP3    H218424   3.471   7.629   2.450
 6183TIP3   OH218425   2.560   7.206   3.064
 6183TIP3    H118426   2.635   7.149   3.045
 6183TIP3    H218427   2.584   7.240   3.153
 6184TIP3   OH218428   2.629   7.028   1.500
 6184TIP3    H118429   2.604   6.982   1.581
 6184TIP3    H218430   2.664   6.955   1.445
 6185TIP3   OH218431   2.895   7.093   2.726
 6185TIP3    H118432   2.819   7.154   2.730
 6185TIP3    H218433   2.943   7.126   2.647
 6186TIP3   OH218434   2.727   6.821   1.340
 6186TIP3    H118435   2.700   6.823   1.246
 6186TIP3    H218436   2.824   6.829   1.332
 6187TIP3   OH218437   3.412   7.495   2.861
 6187TIP3    H118438   3.493   7.474   2.812
 6187TIP3    H218439   3.412   7.427   2.930
 6188TIP3   OH218440   3.553   7.155   1.000
 6188TIP3    H118441   3.529   7.107   0.918
 6188TIP3    H218442   3.521   7.245   0.975
 6189TIP3   OH218443   3.018   6.880   2.854
 6189TIP3    H118444   3.019   6.800   2.798
 6189TIP3    H218445   2.976   6.946   2.795
 6190TIP3   OH218446   3.022   6.667   2.660
 6190TIP3    H118447   3.049   6.708   2.576
 6190TIP3    H218448   2.928   6.644   2.641
 6191TIP3   OH218449   3.052   7.205   2.533
 6191TIP3    H118450   3.133   7.210   2.481
 6191TIP3    H218451   2.995   7.272   2.489
 6192TIP3   OH218452   3.633   7.172   2.915
 6192TIP3    H118453   3.680   7.088   2.927
 6192TIP3    H218454   3.703   7.229   2.881
 6193TIP3   OH218455   3.674   7.424   2.651
 6193TIP3    H118456   3.616   7.476   2.591
 6193TIP3    H218457   3.761   7.443   2.610
 6194TIP3   OH218458   2.895   6.997   3.081
 6194TIP3    H118459   2.827   6.928   3.095
 6194TIP3    H218460   2.932   6.970   2.995
 6195TIP3   OH218461   3.155   6.432   2.725
 6195TIP3    H118462   3.106   6.515   2.703
 6195TIP3    H218463   3.084   6.365   2.713
 6196TIP3   OH218464   3.280   6.938   2.942
 6196TIP3    H118465   3.272   6.927   3.039
 6196TIP3    H218466   3.190   6.912   2.915
 6197TIP3   OH218467   3.520   6.885   2.797
 6197TIP3    H118468   3.444   6.887   2.858
 6197TIP3    H218469   3.593   6.854   2.855
 6198TIP3   OH218470   3.747   6.824   2.949
 6198TIP3    H118471   3.761   6.729   2.970
 6198TIP3    H218472   3.745   6.865   3.039
 6199TIP3   OH218473   2.736   6.776   3.134
 6199TIP3    H118474   2.745   6.686   3.098
 6199TIP3    H218475   2.771   6.763   3.224
 6200TIP3   OH218476   3.248   6.441   2.983
 6200TIP3    H118477   3.317   6.372   2.978
 6200TIP3    H218478   3.209   6.434   2.893
 6201TIP3   OH218479   3.313   6.656   3.143
 6201TIP3    H118480   3.291   6.585   3.078
 6201TIP3    H218481   3.237   6.716   3.135
 6202TIP3   OH218482   2.534   7.887   1.244
 6202TIP3    H118483   2.630   7.882   1.225
 6202TIP3    H218484   2.504   7.933   1.164
 6203TIP3   OH218485   2.015   7.266   1.462
 6203TIP3    H118486   2.110   7.289   1.447
 6203TIP3    H218487   2.011   7.177   1.419
 6204TIP3   OH218488   1.928   7.881   1.871
 6204TIP3    H118489   1.860   7.818   1.837
 6204TIP3    H218490   1.972   7.824   1.938
 6205TIP3   OH218491   2.064   7.735   2.058
 6205TIP3    H118492   2.053   7.659   2.117
 6205TIP3    H218493   2.115   7.795   2.116
 6206TIP3   OH218494   3.791   8.133   1.858
 6206TIP3    H118495   3.820   8.166   1.944
 6206TIP3    H218496   3.852   8.176   1.797
 6207TIP3   OH218497   3.823   8.153   2.142
 6207TIP3    H118498   3.779   8.066   2.135
 6207TIP3    H218499   3.898   8.129   2.198
 6208TIP3   OH218500   3.868   7.829   2.713
 6208TIP3    H118501   3.795   7.836   2.777
 6208TIP3    H218502   3.909   7.918   2.719
 6209TIP3   OH218503   3.684   7.342   1.335
 6209TIP3    H118504   3.753   7.405   1.306
 6209TIP3    H218505   3.726   7.301   1.413
 6210TIP3   OH218506   3.812   7.209   1.537
 6210TIP3    H118507   3.746   7.166   1.596
 6210TIP3    H218508   3.876   7.248   1.600
 6211TIP3   OH218509   3.865   7.599   1.971
 6211TIP3    H118510   3.918   7.536   1.919
 6211TIP3    H218511   3.856   7.675   1.909
 6212TIP3   OH218512   3.699   7.902   2.166
 6212TIP3    H118513   3.627   7.942   2.218
 6212TIP3    H218514   3.649   7.852   2.097
 6213TIP3   OH218515   3.750   7.116   1.186
 6213TIP3    H118516   3.679   7.119   1.118
 6213TIP3    H218517   3.723   7.193   1.240
 6214TIP3   OH218518   3.623   6.789   1.140
 6214TIP3    H118519   3.580   6.832   1.065
 6214TIP3    H218520   3.595   6.696   1.128
 6215TIP3   OH218521   3.627   7.064   1.685
 6215TIP3    H118522   3.634   6.967   1.680
 6215TIP3    H218523   3.614   7.079   1.781
 6216TIP3   OH218524   2.253   7.138   2.430
 6216TIP3    H118525   2.252   7.110   2.337
 6216TIP3    H218526   2.350   7.140   2.447
 6217TIP3   OH218527   3.915   7.489   2.541
 6217TIP3    H118528   3.988   7.424   2.533
 6217TIP3    H218529   3.942   7.559   2.479
 6218TIP3   OH218530   4.102   7.298   2.562
 6218TIP3    H118531   4.027   7.247   2.600
 6218TIP3    H218532   4.174   7.233   2.575
 6219TIP3   OH218533   3.565   6.524   1.128
 6219TIP3    H118534   3.639   6.492   1.184
 6219TIP3    H218535   3.491   6.466   1.151
 6220TIP3   OH218536   3.623   6.781   1.582
 6220TIP3    H118537   3.664   6.693   1.596
 6220TIP3    H218538   3.680   6.814   1.510
 6221TIP3   OH218539   3.785   6.956   2.075
 6221TIP3    H118540   3.871   6.983   2.035
 6221TIP3    H218541   3.798   6.993   2.164
 6222TIP3   OH218542   3.852   7.099   2.308
 6222TIP3    H118543   3.774   7.133   2.356
 6222TIP3    H218544   3.884   7.180   2.262
 6223TIP3   OH218545   2.468   6.826   3.104
 6223TIP3    H118546   2.566   6.820   3.106
 6223TIP3    H218547   2.445   6.742   3.148
 6224TIP3   OH218548   4.308   6.691   2.864
 6224TIP3    H118549   4.363   6.623   2.820
 6224TIP3    H218550   4.279   6.747   2.789
 6225TIP3   OH218551   3.732   6.530   1.618
 6225TIP3    H118552   3.779   6.514   1.702
 6225TIP3    H218553   3.671   6.454   1.616
 6226TIP3   OH218554   2.431   6.517   2.439
 6226TIP3    H118555   2.493   6.443   2.448
 6226TIP3    H218556   2.493   6.592   2.432
 6227TIP3   OH218557   2.235   6.792   2.510
 6227TIP3    H118558   2.284   6.783   2.426
 6227TIP3    H218559   2.265   6.879   2.540
 6228TIP3   OH218560   4.178   6.832   2.670
 6228TIP3    H118561   4.090   6.869   2.693
 6228TIP3    H218562   4.149   6.759   2.611
 6229TIP3   OH218563   3.815   6.466   1.252
 6229TIP3    H118564   3.854   6.394   1.197
 6229TIP3    H218565   3.880   6.538   1.240
 6230TIP3   OH218566   2.217   6.297   2.013
 6230TIP3    H118567   2.123   6.295   2.036
 6230TIP3    H218568   2.218   6.354   1.933
 6231TIP3   OH218569   3.377   7.997   1.518
 6231TIP3    H118570   3.426   7.979   1.434
 6231TIP3    H218571   3.433   8.065   1.559
 6232TIP3   OH218572   2.437   6.376   2.827
 6232TIP3    H118573   2.386   6.370   2.909
 6232TIP3    H218574   2.370   6.413   2.766
 6233TIP3   OH218575   2.478   7.801   2.904
 6233TIP3    H118576   2.386   7.772   2.885
 6233TIP3    H218577   2.486   7.783   2.998
 6234TIP3   OH218578   2.654   7.832   2.451
 6234TIP3    H118579   2.606   7.907   2.412
 6234TIP3    H218580   2.740   7.846   2.406
 6235TIP3   OH218581   3.102   8.079   2.588
 6235TIP3    H118582   3.144   8.080   2.677
 6235TIP3    H218583   3.168   8.129   2.536
 6236TIP3   OH218584   3.280   8.230   2.445
 6236TIP3    H118585   3.351   8.178   2.403
 6236TIP3    H218586   3.332   8.286   2.506
 6237TIP3   OH218587   4.075   6.594   2.546
 6237TIP3    H118588   3.983   6.591   2.515
 6237TIP3    H218589   4.103   6.501   2.534
 6238TIP3   OH218590   2.333   8.091   2.472
 6238TIP3    H118591   2.245   8.126   2.448
 6238TIP3    H218592   2.339   8.122   2.563
 6239TIP3   OH218593   2.569   8.069   2.330
 6239TIP3    H118594   2.483   8.083   2.376
 6239TIP3    H218595   2.549   8.103   2.241
 6240TIP3   OH218596   2.995   8.100   2.129
 6240TIP3    H118597   2.927   8.120   2.062
 6240TIP3    H218598   3.007   8.187   2.170
 6241TIP3   OH218599   3.263   8.040   2.180
 6241TIP3    H118600   3.168   8.055   2.160
 6241TIP3    H218601   3.304   8.116   2.136
 6242TIP3   OH218602   3.474   8.233   2.096
 6242TIP3    H118603   3.458   8.317   2.047
 6242TIP3    H218604   3.497   8.172   2.023
 6243TIP3   OH218605   2.243   7.885   2.219
 6243TIP3    H118606   2.270   7.860   2.310
 6243TIP3    H218607   2.316   7.842   2.168
 6244TIP3   OH218608   2.436   7.756   2.074
 6244TIP3    H118609   2.453   7.672   2.122
 6244TIP3    H218610   2.526   7.794   2.069
 6245TIP3   OH218611   2.702   7.853   2.076
 6245TIP3    H118612   2.734   7.762   2.062
 6245TIP3    H218613   2.744   7.873   2.161
 6246TIP3   OH218614   3.280   6.509   2.166
 6246TIP3    H118615   3.235   6.440   2.218
 6246TIP3    H218616   3.349   6.459   2.119
 6247TIP3   OH218617   3.805   6.387   2.073
 6247TIP3    H118618   3.841   6.440   1.998
 6247TIP3    H218619   3.710   6.405   2.066
 6248TIP3   OH218620   3.899   6.488   1.836
 6248TIP3    H118621   3.971   6.438   1.793
 6248TIP3    H218622   3.930   6.580   1.821
 6249TIP3   OH218623   2.528   6.217   2.184
 6249TIP3    H118624   2.436   6.183   2.183
 6249TIP3    H218625   2.578   6.132   2.181
 6250TIP3   OH218626   2.312   6.085   1.828
 6250TIP3    H118627   2.345   6.142   1.756
 6250TIP3    H218628   2.285   6.151   1.895
 6251TIP3   OH218629   2.970   6.250   2.062
 6251TIP3    H118630   3.030   6.301   2.004
 6251TIP3    H218631   2.991   6.286   2.149
 6252TIP3   OH218632   3.524   6.395   2.047
 6252TIP3    H118633   3.513   6.362   1.957
 6252TIP3    H218634   3.506   6.313   2.100
 6253TIP3   OH218635   3.549   6.317   1.608
 6253TIP3    H118636   3.462   6.360   1.616
 6253TIP3    H218637   3.532   6.232   1.655
 6254TIP3   OH218638   2.030   7.654   1.612
 6254TIP3    H118639   1.946   7.621   1.576
 6254TIP3    H218640   2.020   7.748   1.593
 6255TIP3   OH218641   2.430   6.244   1.596
 6255TIP3    H118642   2.478   6.183   1.538
 6255TIP3    H218643   2.503   6.299   1.631
 6256TIP3   OH218644   2.943   6.419   1.693
 6256TIP3    H118645   3.004   6.373   1.753
 6256TIP3    H218646   2.965   6.512   1.717
 6257TIP3   OH218647   2.802   7.849   1.190
 6257TIP3    H118648   2.892   7.870   1.155
 6257TIP3    H218649   2.782   7.772   1.133
 6258TIP3   OH218650   3.521   7.963   1.284
 6258TIP3    H118651   3.514   7.865   1.271
 6258TIP3    H218652   3.478   7.996   1.203
 6259TIP3   OH218653   2.736   6.498   3.072
 6259TIP3    H118654   2.703   6.428   3.131
 6259TIP3    H218655   2.831   6.499   3.098
 6260TIP3   OH218656   2.984   6.493   3.193
 6260TIP3    H118657   3.069   6.473   3.151
 6260TIP3    H218658   2.976   6.420   3.257
 6261TIP3   OH218659   2.110   7.684   1.251
 6261TIP3    H118660   2.109   7.709   1.344
 6261TIP3    H218661   2.198   7.642   1.239
 6262TIP3   OH218662   3.808   6.554   2.983
 6262TIP3    H118663   3.829   6.522   3.073
 6262TIP3    H218664   3.897   6.549   2.941
 6263TIP3   OH218665   3.750   8.109   2.473
 6263TIP3    H118666   3.671   8.075   2.425
 6263TIP3    H218667   3.729   8.204   2.475
 6264TIP3   OH218668   5.015   7.481   1.239
 6264TIP3    H118669   4.987   7.572   1.219
 6264TIP3    H218670   4.938   7.431   1.206
 6265TIP3   OH218671   5.013   7.480   1.618
 6265TIP3    H118672   5.043   7.449   1.705
 6265TIP3    H218673   4.972   7.401   1.581
 6266TIP3   OH218674   4.314   7.377   1.985
 6266TIP3    H118675   4.346   7.310   2.048
 6266TIP3    H218676   4.392   7.433   1.975
 6267TIP3   OH218677   5.256   7.782   1.299
 6267TIP3    H118678   5.243   7.712   1.364
 6267TIP3    H218679   5.284   7.856   1.355
 6268TIP3   OH218680   4.284   7.785   1.713
 6268TIP3    H118681   4.275   7.687   1.715
 6268TIP3    H218682   4.381   7.793   1.705
 6269TIP3   OH218683   3.991   6.990   1.498
 6269TIP3    H118684   3.941   7.073   1.509
 6269TIP3    H218685   3.921   6.934   1.459
 6270TIP3   OH218686   4.052   7.277   1.665
 6270TIP3    H118687   4.101   7.200   1.703
 6270TIP3    H218688   4.109   7.302   1.591
 6271TIP3   OH218689   4.906   8.244   1.316
 6271TIP3    H118690   4.953   8.173   1.268
 6271TIP3    H218691   4.898   8.207   1.405
 6272TIP3   OH218692   4.813   7.705   1.668
 6272TIP3    H118693   4.849   7.629   1.619
 6272TIP3    H218694   4.897   7.749   1.691
 6273TIP3   OH218695   5.821   7.027   1.664
 6273TIP3    H118696   5.852   7.108   1.710
 6273TIP3    H218697   5.846   7.047   1.572
 6274TIP3   OH218698   5.224   7.209   1.702
 6274TIP3    H118699   5.267   7.124   1.722
 6274TIP3    H218700   5.194   7.194   1.610
 6275TIP3   OH218701   4.561   6.867   1.667
 6275TIP3    H118702   4.541   6.940   1.604
 6275TIP3    H218703   4.513   6.793   1.622
 6276TIP3   OH218704   5.255   6.957   1.290
 6276TIP3    H118705   5.328   6.941   1.354
 6276TIP3    H218706   5.305   6.993   1.215
 6277TIP3   OH218707   4.196   7.069   1.773
 6277TIP3    H118708   4.279   7.049   1.820
 6277TIP3    H218709   4.207   7.014   1.693
 6278TIP3   OH218710   4.637   7.267   1.564
 6278TIP3    H118711   4.731   7.241   1.578
 6278TIP3    H218712   4.598   7.183   1.532
 6279TIP3   OH218713   5.897   7.232   1.834
 6279TIP3    H118714   5.813   7.281   1.819
 6279TIP3    H218715   5.912   7.252   1.928
 6280TIP3   OH218716   4.559   6.850   2.100
 6280TIP3    H118717   4.499   6.887   2.032
 6280TIP3    H218718   4.507   6.869   2.181
 6281TIP3   OH218719   4.912   7.704   1.106
 6281TIP3    H118720   4.864   7.678   1.027
 6281TIP3    H218721   4.865   7.787   1.130
 6282TIP3   OH218722   4.666   7.625   1.897
 6282TIP3    H118723   4.601   7.689   1.935
 6282TIP3    H218724   4.707   7.677   1.826
 6283TIP3   OH218725   5.468   6.959   1.459
 6283TIP3    H118726   5.462   6.909   1.541
 6283TIP3    H218727   5.524   7.034   1.485
 6284TIP3   OH218728   4.429   6.965   1.885
 6284TIP3    H118729   4.491   7.038   1.907
 6284TIP3    H218730   4.478   6.924   1.810
 6285TIP3   OH218731   4.492   7.817   1.993
 6285TIP3    H118732   4.466   7.902   1.952
 6285TIP3    H218733   4.413   7.803   2.051
 6286TIP3   OH218734   3.890   7.508   1.229
 6286TIP3    H118735   3.848   7.532   1.145
 6286TIP3    H218736   3.918   7.594   1.265
 6287TIP3   OH218737   5.329   8.024   1.470
 6287TIP3    H118738   5.238   8.015   1.509
 6287TIP3    H218739   5.321   8.109   1.424
 6288TIP3   OH218740   5.618   6.926   1.831
 6288TIP3    H118741   5.531   6.958   1.802
 6288TIP3    H218742   5.677   6.957   1.760
 6289TIP3   OH218743   4.918   6.573   1.812
 6289TIP3    H118744   4.906   6.477   1.829
 6289TIP3    H218745   4.839   6.609   1.859
 6290TIP3   OH218746   5.033   8.072   1.144
 6290TIP3    H118747   5.083   7.990   1.123
 6290TIP3    H218748   5.092   8.138   1.102
 6291TIP3   OH218749   5.176   7.857   1.044
 6291TIP3    H118750   5.128   7.779   1.011
 6291TIP3    H218751   5.210   7.823   1.130
 6292TIP3   OH218752   5.554   7.940   1.812
 6292TIP3    H118753   5.544   7.861   1.754
 6292TIP3    H218754   5.538   8.013   1.749
 6293TIP3   OH218755   4.845   7.333   1.069
 6293TIP3    H118756   4.764   7.382   1.046
 6293TIP3    H218757   4.891   7.328   0.984
 6294TIP3   OH218758   4.804   7.116   0.788
 6294TIP3    H118759   4.874   7.164   0.837
 6294TIP3    H218760   4.859   7.051   0.740
 6295TIP3   OH218761   5.750   7.574   1.656
 6295TIP3    H118762   5.667   7.627   1.662
 6295TIP3    H218763   5.778   7.597   1.565
 6296TIP3   OH218764   5.193   7.415   1.042
 6296TIP3    H118765   5.138   7.440   1.120
 6296TIP3    H218766   5.275   7.387   1.087
 6297TIP3   OH218767   5.428   7.455   1.951
 6297TIP3    H118768   5.426   7.538   2.002
 6297TIP3    H218769   5.342   7.459   1.906
 6298TIP3   OH218770   4.424   7.413   1.458
 6298TIP3    H118771   4.382   7.355   1.390
 6298TIP3    H218772   4.502   7.359   1.485
 6299TIP3   OH218773   4.554   7.823   1.607
 6299TIP3    H118774   4.533   7.780   1.523
 6299TIP3    H218775   4.644   7.790   1.625
 6300TIP3   OH218776   4.563   7.383   1.812
 6300TIP3    H118777   4.595   7.364   1.722
 6300TIP3    H218778   4.605   7.469   1.832
 6301TIP3   OH218779   5.087   8.022   1.589
 6301TIP3    H118780   5.073   8.100   1.645
 6301TIP3    H218781   5.073   7.947   1.651
 6302TIP3   OH218782   4.698   7.941   2.135
 6302TIP3    H118783   4.639   8.004   2.182
 6302TIP3    H218784   4.632   7.887   2.087
 6303TIP3   OH218785   5.034   7.271   0.871
 6303TIP3    H118786   5.093   7.331   0.922
 6303TIP3    H218787   5.056   7.296   0.778
 6304TIP3   OH218788   4.453   7.498   2.235
 6304TIP3    H118789   4.456   7.584   2.282
 6304TIP3    H218790   4.357   7.479   2.242
 6305TIP3   OH218791   4.776   7.952   1.148
 6305TIP3    H118792   4.851   8.011   1.165
 6305TIP3    H218793   4.714   8.009   1.099
 6306TIP3   OH218794   4.493   8.112   2.222
 6306TIP3    H118795   4.459   8.107   2.131
 6306TIP3    H218796   4.414   8.089   2.276
 6307TIP3   OH218797   5.549   6.514   0.915
 6307TIP3    H118798   5.468   6.535   0.966
 6307TIP3    H218799   5.562   6.596   0.864
 6308TIP3   OH218800   4.290   7.255   1.265
 6308TIP3    H118801   4.227   7.301   1.206
 6308TIP3    H218802   4.247   7.169   1.274
 6309TIP3   OH218803   4.073   7.639   2.169
 6309TIP3    H118804   4.008   7.616   2.099
 6309TIP3    H218805   4.109   7.552   2.195
 6310TIP3   OH218806   3.926   7.830   1.805
 6310TIP3    H118807   4.022   7.825   1.792
 6310TIP3    H218808   3.918   7.912   1.857
 6311TIP3   OH218809   5.791   8.282   1.856
 6311TIP3    H118810   5.791   8.185   1.869
 6311TIP3    H218811   5.708   8.306   1.902
 6312TIP3   OH218812   4.898   8.070   1.993
 6312TIP3    H118813   4.897   8.163   2.025
 6312TIP3    H218814   4.826   8.030   2.047
 6313TIP3   OH218815   4.657   8.198   0.942
 6313TIP3    H118816   4.613   8.176   0.858
 6313TIP3    H218817   4.624   8.288   0.960
 6314TIP3   OH218818   4.095   8.049   1.327
 6314TIP3    H118819   4.142   8.038   1.412
 6314TIP3    H218820   4.036   7.971   1.329
 6315TIP3   OH218821   4.856   8.099   0.602
 6315TIP3    H118822   4.908   8.030   0.560
 6315TIP3    H218823   4.893   8.102   0.692
 6316TIP3   OH218824   4.912   8.146   0.866
 6316TIP3    H118825   4.820   8.154   0.900
 6316TIP3    H218826   4.955   8.101   0.940
 6317TIP3   OH218827   5.682   7.416   2.131
 6317TIP3    H118828   5.602   7.427   2.078
 6317TIP3    H218829   5.698   7.320   2.122
 6318TIP3   OH218830   4.278   7.823   2.161
 6318TIP3    H118831   4.328   7.804   2.243
 6318TIP3    H218832   4.204   7.758   2.167
 6319TIP3   OH218833   4.677   6.645   1.941
 6319TIP3    H118834   4.587   6.615   1.917
 6319TIP3    H218835   4.654   6.729   1.985
 6320TIP3   OH218836   5.211   6.761   2.136
 6320TIP3    H118837   5.279   6.735   2.201
 6320TIP3    H218838   5.127   6.741   2.182
 6321TIP3   OH218839   5.448   7.188   2.052
 6321TIP3    H118840   5.402   7.185   2.139
 6321TIP3    H218841   5.425   7.277   2.019
 6322TIP3   OH218842   5.097   7.321   0.615
 6322TIP3    H118843   5.072   7.286   0.527
 6322TIP3    H218844   5.184   7.363   0.594
 6323TIP3   OH218845   4.823   6.695   0.912
 6323TIP3    H118846   4.791   6.694   1.004
 6323TIP3    H218847   4.784   6.612   0.880
 6324TIP3   OH218848   4.608   7.160   1.961
 6324TIP3    H118849   4.558   7.182   2.042
 6324TIP3    H218850   4.593   7.241   1.907
 6325TIP3   OH218851   4.493   7.046   1.475
 6325TIP3    H118852   4.400   7.021   1.491
 6325TIP3    H218853   4.507   7.007   1.386
 6326TIP3   OH218854   4.983   7.133   1.201
 6326TIP3    H118855   4.929   7.205   1.160
 6326TIP3    H218856   5.037   7.104   1.126
 6327TIP3   OH218857   5.158   7.414   2.290
 6327TIP3    H118858   5.136   7.340   2.351
 6327TIP3    H218859   5.252   7.426   2.311
 6328TIP3   OH218860   5.141   7.163   1.442
 6328TIP3    H118861   5.082   7.192   1.370
 6328TIP3    H218862   5.173   7.080   1.400
 6329TIP3   OH218863   4.427   7.191   2.170
 6329TIP3    H118864   4.455   7.254   2.238
 6329TIP3    H218865   4.416   7.108   2.221
 6330TIP3   OH218866   4.478   6.667   0.880
 6330TIP3    H118867   4.469   6.664   0.977
 6330TIP3    H218868   4.399   6.718   0.855
 6331TIP3   OH218869   4.020   6.713   1.751
 6331TIP3    H118870   4.097   6.744   1.803
 6331TIP3    H218871   4.058   6.681   1.668
 6332TIP3   OH218872   3.998   6.695   1.271
 6332TIP3    H118873   4.041   6.734   1.192
 6332TIP3    H218874   3.935   6.767   1.292
 6333TIP3   OH218875   5.151   7.410   1.866
 6333TIP3    H118876   5.183   7.337   1.808
 6333TIP3    H218877   5.123   7.358   1.944
 6334TIP3   OH218878   4.817   6.870   1.537
 6334TIP3    H118879   4.735   6.868   1.589
 6334TIP3    H218880   4.885   6.870   1.606
 6335TIP3   OH218881   4.254   6.924   1.546
 6335TIP3    H118882   4.159   6.932   1.519
 6335TIP3    H218883   4.277   6.833   1.520
 6336TIP3   OH218884   4.526   6.922   1.232
 6336TIP3    H118885   4.620   6.938   1.210
 6336TIP3    H218886   4.479   6.946   1.149
 6337TIP3   OH218887   5.311   6.946   1.737
 6337TIP3    H118888   5.276   6.956   1.829
 6337TIP3    H218889   5.246   6.883   1.700
 6338TIP3   OH218890   4.363   6.953   1.013
 6338TIP3    H118891   4.291   6.910   0.964
 6338TIP3    H218892   4.415   6.990   0.938
 6339TIP3   OH218893   5.479   8.635   1.956
 6339TIP3    H118894   5.479   8.655   1.860
 6339TIP3    H218895   5.560   8.681   1.986
 6340TIP3   OH218896   4.438   7.744   2.379
 6340TIP3    H118897   4.518   7.774   2.427
 6340TIP3    H218898   4.374   7.743   2.453
 6341TIP3   OH218899   4.904   7.196   1.633
 6341TIP3    H118900   4.976   7.157   1.582
 6341TIP3    H218901   4.916   7.155   1.721
 6342TIP3   OH218902   4.429   6.686   1.510
 6342TIP3    H118903   4.396   6.605   1.553
 6342TIP3    H218904   4.479   6.651   1.434
 6343TIP3   OH218905   4.880   7.090   1.926
 6343TIP3    H118906   4.791   7.129   1.938
 6343TIP3    H218907   4.938   7.151   1.976
 6344TIP3   OH218908   4.617   7.486   1.019
 6344TIP3    H118909   4.545   7.420   1.007
 6344TIP3    H218910   4.599   7.519   1.110
 6345TIP3   OH218911   5.518   7.722   1.649
 6345TIP3    H118912   5.542   7.769   1.567
 6345TIP3    H218913   5.432   7.680   1.625
 6346TIP3   OH218914   5.075   6.796   0.881
 6346TIP3    H118915   4.978   6.783   0.886
 6346TIP3    H218916   5.086   6.892   0.901
 6347TIP3   OH218917   5.018   7.803   2.015
 6347TIP3    H118918   5.037   7.778   2.107
 6347TIP3    H218919   4.977   7.891   2.024
 6348TIP3   OH218920   5.145   7.043   0.984
 6348TIP3    H118921   5.242   7.049   0.998
 6348TIP3    H218922   5.126   7.122   0.930
 6349TIP3   OH218923   4.309   7.507   1.696
 6349TIP3    H118924   4.346   7.479   1.610
 6349TIP3    H218925   4.347   7.441   1.756
 6350TIP3   OH218926   4.763   7.636   0.840
 6350TIP3    H118927   4.719   7.723   0.849
 6350TIP3    H218928   4.707   7.581   0.898
 6351TIP3   OH218929   4.187   7.428   2.308
 6351TIP3    H118930   4.209   7.414   2.402
 6351TIP3    H218931   4.119   7.360   2.293
 6352TIP3   OH218932   4.913   7.540   2.328
 6352TIP3    H118933   4.856   7.482   2.276
 6352TIP3    H218934   5.002   7.508   2.301
 6353TIP3   OH218935   5.178   8.065   1.909
 6353TIP3    H118936   5.081   8.060   1.922
 6353TIP3    H218937   5.204   8.115   1.989
 6354TIP3   OH218938   5.587   7.129   0.821
 6354TIP3    H118939   5.526   7.086   0.757
 6354TIP3    H218940   5.583   7.219   0.781
 6355TIP3   OH218941   5.805   7.992   1.901
 6355TIP3    H118942   5.707   7.986   1.893
 6355TIP3    H218943   5.830   7.961   1.811
 6356TIP3   OH218944   5.296   7.947   0.722
 6356TIP3    H118945   5.259   7.895   0.795
 6356TIP3    H218946   5.289   7.886   0.648
 6357TIP3   OH218947   5.282   7.582   1.569
 6357TIP3    H118948   5.189   7.556   1.581
 6357TIP3    H218949   5.318   7.503   1.523
 6358TIP3   OH218950   4.408   7.810   1.321
 6358TIP3    H118951   4.412   7.890   1.266
 6358TIP3    H218952   4.313   7.793   1.324
 6359TIP3   OH218953   3.973   7.114   1.022
 6359TIP3    H118954   4.019   7.199   1.041
 6359TIP3    H218955   3.895   7.121   1.081
 6360TIP3   OH218956   4.552   7.578   1.266
 6360TIP3    H118957   4.516   7.667   1.283
 6360TIP3    H218958   4.513   7.527   1.340
 6361TIP3   OH218959   4.678   8.154   1.790
 6361TIP3    H118960   4.718   8.226   1.737
 6361TIP3    H218961   4.755   8.120   1.838
 6362TIP3   OH218962   4.331   8.048   1.174
 6362TIP3    H118963   4.244   8.056   1.217
 6362TIP3    H218964   4.361   8.141   1.175
 6363TIP3   OH218965   5.070   7.789   1.746
 6363TIP3    H118966   5.061   7.786   1.844
 6363TIP3    H218967   5.148   7.735   1.732
 6364TIP3   OH218968   5.019   7.681   0.647
 6364TIP3    H118969   5.073   7.653   0.724
 6364TIP3    H218970   4.930   7.653   0.676
 6365TIP3   OH218971   5.315   8.325   1.800
 6365TIP3    H118972   5.238   8.266   1.792
 6365TIP3    H218973   5.300   8.388   1.726
 6366TIP3   OH218974   4.402   6.933   2.317
 6366TIP3    H118975   4.306   6.939   2.332
 6366TIP3    H218976   4.430   6.873   2.388
 6367TIP3   OH218977   5.199   7.614   0.847
 6367TIP3    H118978   5.189   7.548   0.919
 6367TIP3    H218979   5.296   7.613   0.835
 6368TIP3   OH218980   4.117   8.019   1.949
 6368TIP3    H118981   4.167   7.940   1.975
 6368TIP3    H218982   4.150   8.083   2.014
 6369TIP3   OH218983   4.406   7.662   0.629
 6369TIP3    H118984   4.420   7.572   0.595
 6369TIP3    H218985   4.387   7.645   0.723
 6370TIP3   OH218986   4.354   7.666   0.904
 6370TIP3    H118987   4.426   7.641   0.963
 6370TIP3    H218988   4.358   7.764   0.907
 6371TIP3   OH218989   4.091   7.361   1.104
 6371TIP3    H118990   4.025   7.406   1.160
 6371TIP3    H218991   4.106   7.430   1.036
 6372TIP3   OH218992   5.235   6.998   1.996
 6372TIP3    H118993   5.316   7.036   2.034
 6372TIP3    H218994   5.222   6.917   2.050
 6373TIP3   OH218995   5.116   6.750   1.159
 6373TIP3    H118996   5.102   6.773   1.065
 6373TIP3    H218997   5.155   6.832   1.195
 6374TIP3   OH218998   4.624   7.868   0.860
 6374TIP3    H118999   4.536   7.900   0.887
 6374TIP3    H219000   4.626   7.893   0.766
 6375TIP3   OH219001   4.809   6.926   1.263
 6375TIP3    H119002   4.874   6.998   1.245
 6375TIP3    H219003   4.813   6.920   1.360
 6376TIP3   OH219004   5.076   7.247   2.073
 6376TIP3    H119005   5.095   7.301   2.152
 6376TIP3    H219006   5.133   7.169   2.086
 6377TIP3   OH219007   4.953   6.657   1.367
 6377TIP3    H119008   4.946   6.734   1.427
 6377TIP3    H219009   5.013   6.694   1.298
 6378TIP3   OH219010   4.361   7.940   0.915
 6378TIP3    H119011   4.331   8.009   0.851
 6378TIP3    H219012   4.345   7.984   1.001
 6379TIP3   OH219013   4.463   6.651   1.157
 6379TIP3    H119014   4.460   6.743   1.191
 6379TIP3    H219015   4.559   6.634   1.165
 6380TIP3   OH219016   5.715   7.150   2.050
 6380TIP3    H119017   5.617   7.146   2.056
 6380TIP3    H219018   5.729   7.106   1.965
 6381TIP3   OH219019   5.368   7.342   1.440
 6381TIP3    H119020   5.292   7.282   1.452
 6381TIP3    H219021   5.440   7.295   1.487
 6382TIP3   OH219022   4.079   7.572   0.911
 6382TIP3    H119023   4.144   7.644   0.918
 6382TIP3    H219024   4.125   7.518   0.843
 6383TIP3   OH219025   4.025   6.845   1.044
 6383TIP3    H119026   4.023   6.942   1.038
 6383TIP3    H219027   3.942   6.821   1.001
 6384TIP3   OH219028   5.335   8.297   1.392
 6384TIP3    H119029   5.293   8.343   1.316
 6384TIP3    H219030   5.429   8.315   1.371
 6385TIP3   OH219031   4.413   6.566   1.919
 6385TIP3    H119032   4.380   6.534   1.831
 6385TIP3    H219033   4.400   6.487   1.975
 6386TIP3   OH219034   3.955   7.788   1.302
 6386TIP3    H119035   3.876   7.817   1.350
 6386TIP3    H219036   3.935   7.824   1.213
 6387TIP3   OH219037   4.106   8.323   2.370
 6387TIP3    H119038   4.192   8.320   2.416
 6387TIP3    H219039   4.084   8.228   2.367
 6388TIP3   OH219040   4.593   8.294   2.412
 6388TIP3    H119041   4.686   8.269   2.421
 6388TIP3    H219042   4.566   8.235   2.338
 6389TIP3   OH219043   4.591   7.861   0.579
 6389TIP3    H119044   4.521   7.793   0.588
 6389TIP3    H219045   4.623   7.841   0.490
 6390TIP3   OH219046   5.228   8.197   2.147
 6390TIP3    H119047   5.219   8.126   2.215
 6390TIP3    H219048   5.307   8.245   2.178
 6391TIP3   OH219049   4.238   7.731   2.570
 6391TIP3    H119050   4.256   7.635   2.574
 6391TIP3    H219051   4.150   7.733   2.527
 6392TIP3   OH219052   4.215   7.385   0.759
 6392TIP3    H119053   4.271   7.349   0.830
 6392TIP3    H219054   4.282   7.392   0.688
 6393TIP3   OH219055   4.846   7.815   2.343
 6393TIP3    H119056   4.805   7.829   2.256
 6393TIP3    H219057   4.878   7.722   2.337
 6394TIP3   OH219058   4.728   7.569   0.570
 6394TIP3    H119059   4.719   7.591   0.664
 6394TIP3    H219060   4.720   7.471   0.571
 6395TIP3   OH219061   5.339   7.822   1.948
 6395TIP3    H119062   5.413   7.869   1.904
 6395TIP3    H219063   5.267   7.886   1.936
 6396TIP3   OH219064   4.357   7.464   2.550
 6396TIP3    H119065   4.430   7.405   2.532
 6396TIP3    H219066   4.381   7.497   2.640
 6397TIP3   OH219067   4.428   7.285   0.988
 6397TIP3    H119068   4.398   7.241   1.069
 6397TIP3    H219069   4.461   7.210   0.934
 6398TIP3   OH219070   4.692   7.350   2.213
 6398TIP3    H119071   4.615   7.411   2.217
 6398TIP3    H219072   4.740   7.383   2.134
 6399TIP3   OH219073   4.523   7.077   0.828
 6399TIP3    H119074   4.495   7.078   0.734
 6399TIP3    H219075   4.620   7.086   0.818
 6400TIP3   OH219076   5.209   7.752   2.347
 6400TIP3    H119077   5.290   7.731   2.300
 6400TIP3    H219078   5.208   7.684   2.417
 6401TIP3   OH219079   5.340   7.421   0.527
 6401TIP3    H119080   5.371   7.393   0.438
 6401TIP3    H219081   5.317   7.515   0.510
 6402TIP3   OH219082   4.814   7.137   2.341
 6402TIP3    H119083   4.815   7.057   2.286
 6402TIP3    H219084   4.772   7.203   2.282
 6403TIP3   OH219085   4.818   6.923   2.146
 6403TIP3    H119086   4.845   6.965   2.062
 6403TIP3    H219087   4.724   6.901   2.128
 6404TIP3   OH219088   4.848   7.461   2.020
 6404TIP3    H119089   4.929   7.466   1.968
 6404TIP3    H219090   4.792   7.529   1.976
 6405TIP3   OH219091   5.430   7.428   2.403
 6405TIP3    H119092   5.477   7.344   2.412
 6405TIP3    H219093   5.500   7.486   2.368
 6406TIP3   OH219094   5.469   7.680   2.138
 6406TIP3    H119095   5.412   7.733   2.077
 6406TIP3    H219096   5.557   7.698   2.097
 6407TIP3   OH219097   4.691   7.253   2.568
 6407TIP3    H119098   4.623   7.185   2.582
 6407TIP3    H219099   4.728   7.227   2.482
 6408TIP3   OH219100   4.950   6.689   2.212
 6408TIP3    H119101   4.903   6.772   2.190
 6408TIP3    H219102   4.880   6.622   2.200
 6409TIP3   OH219103   5.076   7.195   2.429
 6409TIP3    H119104   5.067   7.184   2.526
 6409TIP3    H219105   4.986   7.169   2.402
 6410TIP3   OH219106   5.316   7.143   2.284
 6410TIP3    H119107   5.240   7.143   2.346
 6410TIP3    H219108   5.389   7.112   2.341
 6411TIP3   OH219109   5.539   7.081   2.436
 6411TIP3    H119110   5.556   6.986   2.455
 6411TIP3    H219111   5.540   7.121   2.526
 6412TIP3   OH219112   4.533   7.032   2.621
 6412TIP3    H119113   4.541   6.942   2.584
 6412TIP3    H219114   4.568   7.019   2.711
 6413TIP3   OH219115   5.045   6.698   2.469
 6413TIP3    H119116   5.114   6.629   2.464
 6413TIP3    H219117   5.006   6.691   2.380
 6414TIP3   OH219118   5.109   6.912   2.630
 6414TIP3    H119119   5.087   6.842   2.565
 6414TIP3    H219120   5.033   6.973   2.622
 6415TIP3   OH219121   4.329   8.146   0.729
 6415TIP3    H119122   4.425   8.143   0.707
 6415TIP3    H219123   4.294   8.180   0.645
 6416TIP3   OH219124   3.812   7.523   0.949
 6416TIP3    H119125   3.906   7.545   0.934
 6416TIP3    H219126   3.805   7.434   0.906
 6417TIP3   OH219127   3.723   8.137   1.359
 6417TIP3    H119128   3.656   8.074   1.324
 6417TIP3    H219129   3.768   8.080   1.425
 6418TIP3   OH219130   3.860   7.992   1.546
 6418TIP3    H119131   3.850   7.915   1.603
 6418TIP3    H219132   3.911   8.051   1.604
 6419TIP3   OH219133   5.586   8.391   1.345
 6419TIP3    H119134   5.617   8.424   1.431
 6419TIP3    H219135   5.650   8.430   1.284
 6420TIP3   OH219136   5.619   8.410   1.629
 6420TIP3    H119137   5.575   8.323   1.622
 6420TIP3    H219138   5.694   8.386   1.685
 6421TIP3   OH219139   5.663   8.086   2.199
 6421TIP3    H119140   5.591   8.092   2.264
 6421TIP3    H219141   5.705   8.174   2.205
 6422TIP3   OH219142   5.482   7.602   0.827
 6422TIP3    H119143   5.560   7.655   0.807
 6422TIP3    H219144   5.513   7.556   0.908
 6423TIP3   OH219145   5.606   7.467   1.026
 6423TIP3    H119146   5.543   7.422   1.085
 6423TIP3    H219147   5.673   7.503   1.088
 6424TIP3   OH219148   5.660   7.856   1.457
 6424TIP3    H119149   5.715   7.793   1.406
 6424TIP3    H219150   5.653   7.931   1.395
 6425TIP3   OH219151   5.495   8.158   1.652
 6425TIP3    H119152   5.423   8.198   1.705
 6425TIP3    H219153   5.445   8.109   1.583
 6426TIP3   OH219154   5.548   7.370   0.689
 6426TIP3    H119155   5.469   7.369   0.631
 6426TIP3    H219156   5.526   7.448   0.743
 6427TIP3   OH219157   5.418   7.054   0.617
 6427TIP3    H119158   5.363   7.076   0.541
 6427TIP3    H219159   5.393   6.959   0.629
 6428TIP3   OH219160   5.424   7.320   1.171
 6428TIP3    H119161   5.431   7.223   1.167
 6428TIP3    H219162   5.410   7.335   1.267
 6429TIP3   OH219163   4.049   7.395   1.918
 6429TIP3    H119164   4.048   7.366   1.824
 6429TIP3    H219165   4.147   7.397   1.934
 6430TIP3   OH219166   5.711   7.746   2.027
 6430TIP3    H119167   5.783   7.680   2.020
 6430TIP3    H219168   5.740   7.815   1.966
 6431TIP3   OH219169   5.898   7.555   2.049
 6431TIP3    H119170   5.824   7.503   2.087
 6431TIP3    H219171   5.971   7.491   2.061
 6432TIP3   OH219172   5.348   6.796   0.641
 6432TIP3    H119173   5.432   6.750   0.663
 6432TIP3    H219174   5.282   6.725   0.647
 6433TIP3   OH219175   5.419   7.038   1.068
 6433TIP3    H119176   5.458   6.949   1.084
 6433TIP3    H219177   5.477   7.069   0.997
 6434TIP3   OH219178   5.581   7.215   1.561
 6434TIP3    H119179   5.667   7.240   1.521
 6434TIP3    H219180   5.594   7.249   1.651
 6435TIP3   OH219181   5.647   7.356   1.795
 6435TIP3    H119182   5.569   7.390   1.843
 6435TIP3    H219183   5.680   7.436   1.749
 6436TIP3   OH219184   4.266   7.083   2.592
 6436TIP3    H119185   4.363   7.076   2.594
 6436TIP3    H219186   4.241   6.999   2.635
 6437TIP3   OH219187   6.081   6.934   2.344
 6437TIP3    H119188   6.155   6.877   2.313
 6437TIP3    H219189   6.077   7.003   2.276
 6438TIP3   OH219190   5.526   6.788   1.105
 6438TIP3    H119191   5.576   6.771   1.188
 6438TIP3    H219192   5.467   6.710   1.103
 6439TIP3   OH219193   4.228   6.774   1.925
 6439TIP3    H119194   4.292   6.700   1.934
 6439TIP3    H219195   4.289   6.849   1.919
 6440TIP3   OH219196   4.032   7.048   1.998
 6440TIP3    H119197   4.080   7.040   1.913
 6440TIP3    H219198   4.060   7.136   2.027
 6441TIP3   OH219199   5.975   7.096   2.149
 6441TIP3    H119200   5.886   7.126   2.176
 6441TIP3    H219201   5.951   7.015   2.099
 6442TIP3   OH219202   5.615   6.721   0.737
 6442TIP3    H119203   5.658   6.650   0.686
 6442TIP3    H219204   5.677   6.795   0.725
 6443TIP3   OH219205   4.013   6.554   1.500
 6443TIP3    H119206   3.918   6.551   1.522
 6443TIP3    H219207   4.013   6.610   1.420
 6444TIP3   OH219208   5.178   8.253   1.005
 6444TIP3    H119209   5.227   8.238   0.922
 6444TIP3    H219210   5.230   8.322   1.048
 6445TIP3   OH219211   4.232   6.629   2.311
 6445TIP3    H119212   4.184   6.626   2.395
 6445TIP3    H219213   4.166   6.670   2.252
 6446TIP3   OH219214   4.273   8.060   2.391
 6446TIP3    H119215   4.183   8.029   2.372
 6446TIP3    H219216   4.282   8.037   2.485
 6447TIP3   OH219217   4.451   8.089   1.938
 6447TIP3    H119218   4.402   8.164   1.898
 6447TIP3    H219219   4.537   8.103   1.893
 6448TIP3   OH219220   4.898   8.336   2.076
 6448TIP3    H119221   4.941   8.336   2.164
 6448TIP3    H219222   4.965   8.386   2.023
 6449TIP3   OH219223   5.077   8.487   1.932
 6449TIP3    H119224   5.147   8.434   1.890
 6449TIP3    H219225   5.129   8.543   1.993
 6450TIP3   OH219226   5.870   6.850   2.034
 6450TIP3    H119227   5.779   6.843   2.001
 6450TIP3    H219228   5.902   6.757   2.022
 6451TIP3   OH219229   4.130   8.350   1.958
 6451TIP3    H119230   4.041   8.384   1.934
 6451TIP3    H219231   4.133   8.375   2.051
 6452TIP3   OH219232   4.366   8.327   1.817
 6452TIP3    H119233   4.280   8.340   1.862
 6452TIP3    H219234   4.346   8.359   1.727
 6453TIP3   OH219235   4.791   8.357   1.615
 6453TIP3    H119236   4.722   8.376   1.549
 6453TIP3    H219237   4.803   8.445   1.656
 6454TIP3   OH219238   5.059   8.297   1.667
 6454TIP3    H119239   4.964   8.311   1.646
 6454TIP3    H219240   5.100   8.373   1.622
 6455TIP3   OH219241   5.270   8.490   1.583
 6455TIP3    H119242   5.254   8.573   1.534
 6455TIP3    H219243   5.294   8.428   1.510
 6456TIP3   OH219244   4.040   8.142   1.707
 6456TIP3    H119245   4.067   8.116   1.797
 6456TIP3    H219246   4.111   8.099   1.655
 6457TIP3   OH219247   4.232   8.013   1.562
 6457TIP3    H119248   4.249   7.929   1.609
 6457TIP3    H219249   4.322   8.050   1.556
 6458TIP3   OH219250   4.498   8.110   1.563
 6458TIP3    H119251   4.530   8.019   1.548
 6458TIP3    H219252   4.541   8.129   1.648
 6459TIP3   OH219253   5.075   6.765   1.650
 6459TIP3    H119254   5.032   6.696   1.703
 6459TIP3    H219255   5.147   6.717   1.606
 6460TIP3   OH219256   5.600   6.643   1.557
 6460TIP3    H119257   5.637   6.696   1.484
 6460TIP3    H219258   5.505   6.664   1.551
 6461TIP3   OH219259   5.694   6.747   1.322
 6461TIP3    H119260   5.767   6.695   1.281
 6461TIP3    H219261   5.728   6.839   1.306
 6462TIP3   OH219262   4.325   6.474   1.671
 6462TIP3    H119263   4.232   6.442   1.668
 6462TIP3    H219264   4.374   6.389   1.665
 6463TIP3   OH219265   4.115   6.341   1.317
 6463TIP3    H119266   4.142   6.399   1.243
 6463TIP3    H219267   4.080   6.406   1.381
 6464TIP3   OH219268   4.767   6.505   1.549
 6464TIP3    H119269   4.825   6.556   1.490
 6464TIP3    H219270   4.787   6.545   1.635
 6465TIP3   OH219271   5.315   6.652   1.534
 6465TIP3    H119272   5.313   6.617   1.444
 6465TIP3    H219273   5.301   6.570   1.587
 6466TIP3   OH219274   5.344   6.573   1.095
 6466TIP3    H119275   5.257   6.616   1.104
 6466TIP3    H219276   5.329   6.489   1.142
 6467TIP3   OH219277   3.827   7.912   1.099
 6467TIP3    H119278   3.743   7.877   1.063
 6467TIP3    H219279   3.815   8.006   1.080
 6468TIP3   OH219280   4.226   6.501   1.083
 6468TIP3    H119281   4.275   6.440   1.024
 6468TIP3    H219282   4.298   6.556   1.118
 6469TIP3   OH219283   4.740   6.676   1.180
 6469TIP3    H119284   4.802   6.631   1.240
 6469TIP3    H219285   4.761   6.769   1.203
 6470TIP3   OH219286   4.594   8.119   0.671
 6470TIP3    H119287   4.686   8.135   0.638
 6470TIP3    H219288   4.580   8.033   0.625
 6471TIP3   OH219289   5.322   8.217   0.769
 6471TIP3    H119290   5.309   8.120   0.755
 6471TIP3    H219291   5.275   8.254   0.692
 6472TIP3   OH219292   4.532   6.753   2.558
 6472TIP3    H119293   4.499   6.683   2.618
 6472TIP3    H219294   4.626   6.755   2.585
 6473TIP3   OH219295   4.780   6.752   2.679
 6473TIP3    H119296   4.865   6.727   2.640
 6473TIP3    H219297   4.767   6.681   2.746
 6474TIP3   OH219298   3.905   7.937   0.738
 6474TIP3    H119299   3.905   7.966   0.830
 6474TIP3    H219300   3.994   7.897   0.727
 6475TIP3   OH219301   5.604   6.812   2.467
 6475TIP3    H119302   5.626   6.780   2.558
 6475TIP3    H219303   5.692   6.809   2.423
 6476TIP3   OH219304   5.546   8.366   1.960
 6476TIP3    H119305   5.467   8.332   1.912
 6476TIP3    H219306   5.525   8.461   1.962
 6477TIP3   OH219307   6.802   7.734   1.106
 6477TIP3    H119308   6.841   7.706   1.191
 6477TIP3    H219309   6.763   7.651   1.075
 6478TIP3   OH219310   6.110   7.632   1.472
 6478TIP3    H119311   6.141   7.565   1.536
 6478TIP3    H219312   6.187   7.690   1.466
 6479TIP3   OH219313   6.080   8.041   1.203
 6479TIP3    H119314   6.071   7.943   1.203
 6479TIP3    H219315   6.177   8.049   1.190
 6480TIP3   OH219316   5.788   7.249   0.982
 6480TIP3    H119317   5.736   7.331   0.995
 6480TIP3    H219318   5.719   7.189   0.950
 6481TIP3   OH219319   5.847   7.532   1.150
 6481TIP3    H119320   5.895   7.456   1.190
 6481TIP3    H219321   5.910   7.560   1.082
 6482TIP3   OH219322   6.610   7.961   1.152
 6482TIP3    H119323   6.646   7.880   1.112
 6482TIP3    H219324   6.694   8.005   1.175
 6483TIP3   OH219325   7.020   7.470   1.198
 6483TIP3    H119326   7.051   7.379   1.219
 6483TIP3    H219327   6.993   7.458   1.105
 6484TIP3   OH219328   6.354   7.124   1.155
 6484TIP3    H119329   6.336   7.195   1.090
 6484TIP3    H219330   6.309   7.049   1.111
 6485TIP3   OH219331   7.010   7.198   0.833
 6485TIP3    H119332   7.078   7.166   0.896
 6485TIP3    H219333   7.069   7.240   0.769
 6486TIP3   OH219334   5.993   7.327   1.258
 6486TIP3    H119335   6.075   7.305   1.307
 6486TIP3    H219336   6.004   7.270   1.180
 6487TIP3   OH219337   6.434   7.523   1.050
 6487TIP3    H119338   6.527   7.496   1.068
 6487TIP3    H219339   6.395   7.439   1.020
 6488TIP3   OH219340   6.356   7.107   1.586
 6488TIP3    H119341   6.293   7.143   1.521
 6488TIP3    H219342   6.306   7.122   1.669
 6489TIP3   OH219343   6.464   7.882   1.384
 6489TIP3    H119344   6.397   7.943   1.423
 6489TIP3    H219345   6.499   7.935   1.310
 6490TIP3   OH219346   7.269   7.224   0.952
 6490TIP3    H119347   7.254   7.178   1.037
 6490TIP3    H219348   7.312   7.305   0.986
 6491TIP3   OH219349   6.224   7.223   1.372
 6491TIP3    H119350   6.288   7.294   1.395
 6491TIP3    H219351   6.273   7.180   1.298
 6492TIP3   OH219352   6.290   8.073   1.481
 6492TIP3    H119353   6.262   8.157   1.438
 6492TIP3    H219354   6.211   8.058   1.538
 6493TIP3   OH219355   5.688   7.765   0.719
 6493TIP3    H119356   5.607   7.787   0.669
 6493TIP3    H219357   5.694   7.838   0.784
 6494TIP3   OH219358   7.136   8.297   0.969
 6494TIP3    H119359   7.047   8.269   1.001
 6494TIP3    H219360   7.113   8.329   0.880
 6495TIP3   OH219361   6.689   6.828   1.273
 6495TIP3    H119362   6.716   6.745   1.316
 6495TIP3    H219363   6.625   6.863   1.339
 6496TIP3   OH219364   7.345   8.192   1.302
 6496TIP3    H119365   7.342   8.120   1.236
 6496TIP3    H219366   7.333   8.271   1.245
 6497TIP3   OH219367   7.545   7.839   1.148
 6497TIP3    H119368   7.462   7.890   1.150
 6497TIP3    H219369   7.547   7.809   1.056
 6498TIP3   OH219370   7.222   7.751   1.430
 6498TIP3    H119371   7.202   7.840   1.398
 6498TIP3    H219372   7.139   7.706   1.402
 6499TIP3   OH219373   6.222   7.670   0.945
 6499TIP3    H119374   6.179   7.611   0.879
 6499TIP3    H219375   6.300   7.616   0.973
 6500TIP3   OH219376   6.348   8.079   1.097
 6500TIP3    H119377   6.321   8.045   1.010
 6500TIP3    H219378   6.438   8.041   1.108
 6501TIP3   OH219379   6.359   7.640   1.298
 6501TIP3    H119380   6.391   7.620   1.208
 6501TIP3    H219381   6.401   7.726   1.318
 6502TIP3   OH219382   6.885   8.271   1.069
 6502TIP3    H119383   6.867   8.353   1.118
 6502TIP3    H219384   6.870   8.201   1.135
 6503TIP3   OH219385   6.494   8.195   1.626
 6503TIP3    H119386   6.434   8.259   1.669
 6503TIP3    H219387   6.429   8.142   1.575
 6504TIP3   OH219388   6.248   7.757   1.719
 6504TIP3    H119389   6.251   7.841   1.769
 6504TIP3    H219390   6.154   7.735   1.729
 6505TIP3   OH219391   6.291   8.367   1.709
 6505TIP3    H119392   6.256   8.363   1.618
 6505TIP3    H219393   6.211   8.345   1.763
 6506TIP3   OH219394   6.084   7.508   0.765
 6506TIP3    H119395   6.025   7.551   0.700
 6506TIP3    H219396   6.032   7.431   0.790
 6507TIP3   OH219397   5.869   7.895   1.656
 6507TIP3    H119398   5.805   7.871   1.587
 6507TIP3    H219399   5.906   7.808   1.683
 6508TIP3   OH219400   5.723   8.086   1.292
 6508TIP3    H119401   5.819   8.081   1.278
 6508TIP3    H219402   5.715   8.167   1.343
 6509TIP3   OH219403   7.579   8.539   1.338
 6509TIP3    H119404   7.586   8.443   1.354
 6509TIP3    H219405   7.498   8.560   1.389
 6510TIP3   OH219406   6.695   8.323   1.481
 6510TIP3    H119407   6.695   8.417   1.511
 6510TIP3    H219408   6.622   8.286   1.535
 6511TIP3   OH219409   5.883   8.299   0.813
 6511TIP3    H119410   5.949   8.297   0.886
 6511TIP3    H219411   5.828   8.223   0.841
 6512TIP3   OH219412   7.466   7.677   1.615
 6512TIP3    H119413   7.388   7.685   1.557
 6512TIP3    H219414   7.463   7.580   1.622
 6513TIP3   OH219415   6.074   8.079   1.648
 6513TIP3    H119416   6.124   8.060   1.730
 6513TIP3    H219417   6.001   8.015   1.654
 6514TIP3   OH219418   6.469   6.906   1.429
 6514TIP3    H119419   6.380   6.873   1.404
 6514TIP3    H219420   6.444   6.986   1.479
 6515TIP3   OH219421   7.285   7.485   1.573
 6515TIP3    H119422   7.225   7.438   1.634
 6515TIP3    H219423   7.230   7.498   1.495
 6516TIP3   OH219424   6.405   7.417   1.448
 6516TIP3    H119425   6.353   7.437   1.530
 6516TIP3    H219426   6.387   7.497   1.395
 6517TIP3   OH219427   6.288   7.301   0.958
 6517TIP3    H119428   6.196   7.276   0.979
 6517TIP3    H219429   6.298   7.259   0.871
 6518TIP3   OH219430   6.953   7.676   1.783
 6518TIP3    H119431   6.926   7.601   1.840
 6518TIP3    H219432   7.050   7.672   1.792
 6519TIP3   OH219433   6.932   7.440   0.936
 6519TIP3    H119434   6.900   7.483   0.855
 6519TIP3    H219435   6.947   7.348   0.906
 6520TIP3   OH219436   6.224   7.447   1.658
 6520TIP3    H119437   6.250   7.507   1.730
 6520TIP3    H219438   6.212   7.363   1.706
 6521TIP3   OH219439   5.816   6.973   1.236
 6521TIP3    H119440   5.894   7.000   1.289
 6521TIP3    H219441   5.854   6.933   1.156
 6522TIP3   OH219442   5.794   6.954   0.757
 6522TIP3    H119443   5.841   6.991   0.680
 6522TIP3    H219444   5.732   7.025   0.778
 6523TIP3   OH219445   6.951   7.670   1.358
 6523TIP3    H119446   6.981   7.599   1.296
 6523TIP3    H219447   6.922   7.615   1.433
 6524TIP3   OH219448   6.611   7.135   1.032
 6524TIP3    H119449   6.534   7.124   1.090
 6524TIP3    H219450   6.685   7.113   1.093
 6525TIP3   OH219451   6.051   7.181   1.029
 6525TIP3    H119452   5.956   7.186   1.005
 6525TIP3    H219453   6.073   7.088   1.010
 6526TIP3   OH219454   6.320   7.179   0.706
 6526TIP3    H119455   6.416   7.192   0.720
 6526TIP3    H219456   6.302   7.240   0.633
 6527TIP3   OH219457   7.083   7.208   1.222
 6527TIP3    H119458   7.097   7.176   1.315
 6527TIP3    H219459   7.032   7.131   1.193
 6528TIP3   OH219460   7.272   8.888   1.442
 6528TIP3    H119461   7.276   8.912   1.347
 6528TIP3    H219462   7.346   8.940   1.478
 6529TIP3   OH219463   6.235   8.002   1.866
 6529TIP3    H119464   6.314   8.031   1.915
 6529TIP3    H219465   6.170   7.998   1.939
 6530TIP3   OH219466   6.699   7.458   1.124
 6530TIP3    H119467   6.773   7.415   1.079
 6530TIP3    H219468   6.701   7.414   1.212
 6531TIP3   OH219469   6.224   6.941   0.995
 6531TIP3    H119470   6.189   6.864   1.044
 6531TIP3    H219471   6.288   6.899   0.936
 6532TIP3   OH219472   6.677   7.362   1.393
 6532TIP3    H119473   6.586   7.383   1.423
 6532TIP3    H219474   6.734   7.404   1.460
 6533TIP3   OH219475   7.310   7.982   1.124
 6533TIP3    H119476   7.298   8.024   1.037
 6533TIP3    H219477   7.229   7.926   1.126
 6534TIP3   OH219478   6.832   8.068   1.507
 6534TIP3    H119479   6.797   8.021   1.583
 6534TIP3    H219480   6.779   8.150   1.506
 6535TIP3   OH219481   6.103   7.761   1.183
 6535TIP3    H119482   6.142   7.735   1.097
 6535TIP3    H219483   6.143   7.697   1.243
 6536TIP3   OH219484   5.984   7.685   1.794
 6536TIP3    H119485   6.007   7.670   1.888
 6536TIP3    H219486   5.917   7.616   1.780
 6537TIP3   OH219487   6.707   7.799   1.811
 6537TIP3    H119488   6.647   7.736   1.767
 6537TIP3    H219489   6.794   7.761   1.788
 6538TIP3   OH219490   6.978   8.321   1.398
 6538TIP3    H119491   6.881   8.314   1.408
 6538TIP3    H219492   7.001   8.372   1.478
 6539TIP3   OH219493   7.596   8.243   1.395
 6539TIP3    H119494   7.499   8.243   1.382
 6539TIP3    H219495   7.625   8.215   1.305
 6540TIP3   OH219496   7.082   7.835   1.085
 6540TIP3    H119497   6.988   7.814   1.075
 6540TIP3    H219498   7.120   7.763   1.030
 6541TIP3   OH219499   6.218   8.076   0.826
 6541TIP3    H119500   6.229   8.166   0.787
 6541TIP3    H219501   6.142   8.044   0.774
 6542TIP3   OH219502   5.755   7.370   0.509
 6542TIP3    H119503   5.798   7.453   0.538
 6542TIP3    H219504   5.676   7.369   0.567
 6543TIP3   OH219505   6.366   7.844   0.774
 6543TIP3    H119506   6.319   7.929   0.782
 6543TIP3    H219507   6.314   7.788   0.834
 6544TIP3   OH219508   6.473   8.411   1.276
 6544TIP3    H119509   6.511   8.484   1.224
 6544TIP3    H219510   6.552   8.379   1.324
 6545TIP3   OH219511   6.867   8.045   1.234
 6545TIP3    H119512   6.864   8.042   1.332
 6545TIP3    H219513   6.939   7.983   1.214
 6546TIP3   OH219514   7.111   8.582   1.284
 6546TIP3    H119515   7.033   8.524   1.273
 6546TIP3    H219516   7.098   8.647   1.213
 6547TIP3   OH219517   6.199   7.191   1.803
 6547TIP3    H119518   6.103   7.193   1.820
 6547TIP3    H219519   6.230   7.131   1.873
 6548TIP3   OH219520   5.912   8.276   1.436
 6548TIP3    H119521   5.963   8.197   1.462
 6548TIP3    H219522   5.946   8.340   1.500
 6549TIP3   OH219523   5.877   7.596   0.602
 6549TIP3    H119524   5.819   7.654   0.654
 6549TIP3    H219525   5.917   7.661   0.539
 6550TIP3   OH219526   6.582   7.195   0.768
 6550TIP3    H119527   6.663   7.238   0.736
 6550TIP3    H219528   6.600   7.185   0.865
 6551TIP3   OH219529   6.882   7.501   1.561
 6551TIP3    H119530   6.889   7.556   1.641
 6551TIP3    H219531   6.932   7.423   1.587
 6552TIP3   OH219532   6.763   6.938   0.848
 6552TIP3    H119533   6.754   6.978   0.937
 6552TIP3    H219534   6.851   6.973   0.826
 6553TIP3   OH219535   6.252   6.904   0.652
 6553TIP3    H119536   6.245   6.993   0.689
 6553TIP3    H219537   6.341   6.878   0.685
 6554TIP3   OH219538   7.165   7.612   0.949
 6554TIP3    H119539   7.093   7.548   0.944
 6554TIP3    H219540   7.241   7.557   0.978
 6555TIP3   OH219541   5.826   7.106   0.520
 6555TIP3    H119542   5.795   7.199   0.514
 6555TIP3    H219543   5.754   7.058   0.478
 6556TIP3   OH219544   6.205   6.822   1.407
 6556TIP3    H119545   6.176   6.787   1.320
 6556TIP3    H219546   6.198   6.743   1.464
 6557TIP3   OH219547   5.734   8.055   0.829
 6557TIP3    H119548   5.653   8.105   0.842
 6557TIP3    H219549   5.747   8.055   0.732
 6558TIP3   OH219550   5.902   8.579   1.857
 6558TIP3    H119551   5.988   8.577   1.903
 6558TIP3    H219552   5.880   8.485   1.854
 6559TIP3   OH219553   6.387   8.550   1.900
 6559TIP3    H119554   6.481   8.531   1.908
 6559TIP3    H219555   6.362   8.491   1.825
 6560TIP3   OH219556   7.025   8.451   1.638
 6560TIP3    H119557   7.022   8.379   1.705
 6560TIP3    H219558   7.102   8.503   1.666
 6561TIP3   OH219559   6.035   7.988   2.056
 6561TIP3    H119560   6.052   7.892   2.062
 6561TIP3    H219561   5.946   7.989   2.013
 6562TIP3   OH219562   6.655   8.073   1.824
 6562TIP3    H119563   6.598   8.087   1.745
 6562TIP3    H219564   6.672   7.976   1.822
 6563TIP3   OH219565   7.149   8.077   1.455
 6563TIP3    H119566   7.206   8.129   1.394
 6563TIP3    H219567   7.064   8.123   1.442
 6564TIP3   OH219568   6.155   7.721   2.035
 6564TIP3    H119569   6.225   7.657   2.021
 6564TIP3    H219570   6.177   7.753   2.125
 6565TIP3   OH219571   6.490   7.611   1.702
 6565TIP3    H119572   6.410   7.668   1.705
 6565TIP3    H219573   6.534   7.643   1.620
 6566TIP3   OH219574   6.609   7.393   1.829
 6566TIP3    H119575   6.612   7.312   1.774
 6566TIP3    H219576   6.565   7.456   1.769
 6567TIP3   OH219577   6.613   7.192   1.632
 6567TIP3    H119578   6.645   7.208   1.542
 6567TIP3    H219579   6.522   7.159   1.616
 6568TIP3   OH219580   6.650   7.725   1.509
 6568TIP3    H119581   6.723   7.715   1.446
 6568TIP3    H219582   6.590   7.787   1.461
 6569TIP3   OH219583   7.241   7.693   1.882
 6569TIP3    H119584   7.238   7.595   1.884
 6569TIP3    H219585   7.333   7.707   1.857
 6570TIP3   OH219586   6.484   7.513   2.052
 6570TIP3    H119587   6.418   7.443   2.069
 6570TIP3    H219588   6.523   7.481   1.968
 6571TIP3   OH219589   6.735   6.937   1.712
 6571TIP3    H119590   6.712   7.022   1.672
 6571TIP3    H219591   6.661   6.879   1.688
 6572TIP3   OH219592   6.863   7.460   1.917
 6572TIP3    H119593   6.855   7.441   2.012
 6572TIP3    H219594   6.775   7.428   1.888
 6573TIP3   OH219595   7.117   7.418   1.782
 6573TIP3    H119596   7.036   7.392   1.830
 6573TIP3    H219597   7.183   7.358   1.820
 6574TIP3   OH219598   7.367   7.350   1.923
 6574TIP3    H119599   7.369   7.253   1.937
 6574TIP3    H219600   7.343   7.383   2.012
 6575TIP3   OH219601   6.331   7.290   2.106
 6575TIP3    H119602   6.337   7.199   2.072
 6575TIP3    H219603   6.368   7.277   2.196
 6576TIP3   OH219604   6.845   6.958   1.960
 6576TIP3    H119605   6.912   6.887   1.951
 6576TIP3    H219606   6.806   6.953   1.869
 6577TIP3   OH219607   6.911   7.174   2.111
 6577TIP3    H119608   6.889   7.099   2.050
 6577TIP3    H219609   6.829   7.228   2.106
 6578TIP3   OH219610   5.514   8.398   0.846
 6578TIP3    H119611   5.450   8.332   0.811
 6578TIP3    H219612   5.560   8.345   0.915
 6579TIP3   OH219613   5.647   8.256   1.037
 6579TIP3    H119614   5.648   8.174   1.089
 6579TIP3    H219615   5.704   8.313   1.092
 6580TIP3   OH219616   7.425   8.667   1.121
 6580TIP3    H119617   7.381   8.581   1.109
 6580TIP3    H219618   7.500   8.638   1.175
 6581TIP3   OH219619   7.454   8.337   1.686
 6581TIP3    H119620   7.386   8.349   1.756
 6581TIP3    H219621   7.499   8.424   1.688
 6582TIP3   OH219622   7.295   8.416   1.150
 6582TIP3    H119623   7.225   8.460   1.201
 6582TIP3    H219624   7.243   8.372   1.079
 6583TIP3   OH219625   5.846   7.653   1.403
 6583TIP3    H119626   5.845   7.623   1.310
 6583TIP3    H219627   5.943   7.654   1.421
 6584TIP3   OH219628   7.483   8.001   1.525
 6584TIP3    H119629   7.554   7.931   1.520
 6584TIP3    H219630   7.517   8.067   1.462
 6585TIP3   OH219631   7.682   7.818   1.548
 6585TIP3    H119632   7.612   7.753   1.569
 6585TIP3    H219633   7.761   7.760   1.556
 6586TIP3   OH219634   7.385   7.464   1.040
 6586TIP3    H119635   7.467   7.502   1.006
 6586TIP3    H219636   7.392   7.490   1.135
 6587TIP3   OH219637   7.417   7.618   1.265
 6587TIP3    H119638   7.356   7.652   1.333
 6587TIP3    H219639   7.477   7.693   1.250
 6588TIP3   OH219640   6.065   7.345   2.080
 6588TIP3    H119641   6.163   7.334   2.081
 6588TIP3    H219642   6.038   7.259   2.119
 6589TIP3   OH219643   7.885   7.200   1.842
 6589TIP3    H119644   7.948   7.137   1.800
 6589TIP3    H219645   7.865   7.260   1.767
 6590TIP3   OH219646   6.023   7.031   1.410
 6590TIP3    H119647   6.084   6.955   1.422
 6590TIP3    H219648   6.086   7.105   1.406
 6591TIP3   OH219649   5.826   7.306   1.483
 6591TIP3    H119650   5.876   7.296   1.399
 6591TIP3    H219651   5.860   7.391   1.515
 6592TIP3   OH219652   7.758   7.347   1.651
 6592TIP3    H119653   7.665   7.372   1.649
 6592TIP3    H219654   7.761   7.313   1.558
 6593TIP3   OH219655   5.809   6.814   0.989
 6593TIP3    H119656   5.714   6.807   1.009
 6593TIP3    H219657   5.809   6.867   0.907
 6594TIP3   OH219658   6.028   6.891   1.800
 6594TIP3    H119659   5.980   6.884   1.884
 6594TIP3    H219660   5.960   6.926   1.741
 6595TIP3   OH219661   6.070   8.316   1.878
 6595TIP3    H119662   5.980   8.286   1.858
 6595TIP3    H219663   6.078   8.294   1.972
 6596TIP3   OH219664   6.247   8.346   1.425
 6596TIP3    H119665   6.198   8.420   1.386
 6596TIP3    H219666   6.332   8.360   1.379
 6597TIP3   OH219667   6.695   8.591   1.559
 6597TIP3    H119668   6.735   8.595   1.649
 6597TIP3    H219669   6.761   8.643   1.508
 6598TIP3   OH219670   6.876   8.741   1.418
 6598TIP3    H119671   6.950   8.688   1.384
 6598TIP3    H219672   6.923   8.801   1.480
 6599TIP3   OH219673   5.926   8.606   1.445
 6599TIP3    H119674   5.837   8.641   1.421
 6599TIP3    H219675   5.930   8.633   1.537
 6600TIP3   OH219676   6.163   8.582   1.304
 6600TIP3    H119677   6.076   8.596   1.348
 6600TIP3    H219678   6.144   8.615   1.214
 6601TIP3   OH219679   6.594   8.614   1.102
 6601TIP3    H119680   6.518   8.626   1.041
 6601TIP3    H219681   6.599   8.703   1.143
 6602TIP3   OH219682   6.857   8.551   1.148
 6602TIP3    H119683   6.760   8.559   1.132
 6602TIP3    H219684   6.887   8.638   1.121
 6603TIP3   OH219685   7.068   8.754   1.064
 6603TIP3    H119686   7.026   8.830   1.024
 6603TIP3    H219687   7.092   8.700   0.987
 6604TIP3   OH219688   5.834   8.398   1.194
 6604TIP3    H119689   5.864   8.372   1.284
 6604TIP3    H219690   5.906   8.356   1.141
 6605TIP3   OH219691   6.028   8.273   1.048
 6605TIP3    H119692   6.044   8.186   1.090
 6605TIP3    H219693   6.119   8.308   1.041
 6606TIP3   OH219694   6.294   8.367   1.048
 6606TIP3    H119695   6.323   8.275   1.032
 6606TIP3    H219696   6.335   8.383   1.134
 6607TIP3   OH219697   6.853   7.004   1.110
 6607TIP3    H119698   6.824   6.954   1.188
 6607TIP3    H219699   6.942   6.967   1.095
 6608TIP3   OH219700   7.392   6.886   1.037
 6608TIP3    H119701   7.426   6.942   0.966
 6608TIP3    H219702   7.300   6.916   1.047
 6609TIP3   OH219703   7.513   6.982   0.804
 6609TIP3    H119704   7.605   6.952   0.815
 6609TIP3    H219705   7.525   7.078   0.800
 6610TIP3   OH219706   6.122   6.731   1.155
 6610TIP3    H119707   6.030   6.697   1.155
 6610TIP3    H219708   6.172   6.647   1.153
 6611TIP3   OH219709   5.917   6.599   0.804
 6611TIP3    H119710   5.939   6.657   0.728
 6611TIP3    H219711   5.879   6.662   0.867
 6612TIP3   OH219712   6.556   6.771   1.039
 6612TIP3    H119713   6.630   6.811   0.993
 6612TIP3    H219714   6.583   6.789   1.132
 6613TIP3   OH219715   7.110   6.909   1.018
 6613TIP3    H119716   7.120   6.861   0.935
 6613TIP3    H219717   7.096   6.834   1.080
 6614TIP3   OH219718   6.018   6.759   0.582
 6614TIP3    H119719   6.058   6.699   0.516
 6614TIP3    H219720   6.096   6.813   0.608
 6615TIP3   OH219721   6.516   6.921   0.718
 6615TIP3    H119722   6.587   6.887   0.775
 6615TIP3    H219723   6.532   7.017   0.728
 6616TIP3   OH219724   6.328   7.012   2.047
 6616TIP3    H119725   6.296   6.940   2.104
 6616TIP3    H219726   6.423   7.012   2.072
 6617TIP3   OH219727   6.577   7.006   2.166
 6617TIP3    H119728   6.659   6.977   2.124
 6617TIP3    H219729   6.567   6.939   2.237
 6618TIP3   OH219730   7.406   7.085   1.961
 6618TIP3    H119731   7.418   7.040   2.047
 6618TIP3    H219732   7.486   7.057   1.912
 6619TIP3   OH219733   7.338   8.620   1.450
 6619TIP3    H119734   7.261   8.589   1.400
 6619TIP3    H219735   7.323   8.717   1.447
 6620TIP3   OH219736   8.145   7.372   1.080
 6620TIP3    H119737   8.067   7.369   1.021
 6620TIP3    H219738   8.099   7.395   1.164
 6621TIP3   OH219739   8.052   8.004   1.214
 6621TIP3    H119740   8.048   8.091   1.261
 6621TIP3    H219741   7.957   7.984   1.206
 6622TIP3   OH219742   7.654   8.147   1.148
 6622TIP3    H119743   7.632   8.117   1.059
 6622TIP3    H219744   7.697   8.067   1.187
 6623TIP3   OH219745   7.873   8.318   1.140
 6623TIP3    H119746   7.916   8.285   1.221
 6623TIP3    H219747   7.793   8.263   1.134
 6624TIP3   OH219748   8.804   7.274   1.097
 6624TIP3    H119749   8.870   7.249   1.165
 6624TIP3    H219750   8.719   7.250   1.138
 6625TIP3   OH219751   7.989   7.697   1.157
 6625TIP3    H119752   8.042   7.762   1.203
 6625TIP3    H219753   8.006   7.614   1.205
 6626TIP3   OH219754   8.023   8.240   1.355
 6626TIP3    H119755   8.097   8.299   1.374
 6626TIP3    H219756   7.967   8.250   1.435
 6627TIP3   OH219757   7.777   7.950   1.286
 6627TIP3    H119758   7.810   7.932   1.377
 6627TIP3    H219759   7.720   7.873   1.270
 6628TIP3   OH219760   7.992   7.442   1.304
 6628TIP3    H119761   7.896   7.424   1.303
 6628TIP3    H219762   8.020   7.378   1.371
 6629TIP3   OH219763   7.976   7.079   0.884
 6629TIP3    H119764   7.977   7.030   0.801
 6629TIP3    H219765   7.987   7.006   0.949
 6630TIP3   OH219766   7.676   8.818   1.382
 6630TIP3    H119767   7.773   8.808   1.378
 6630TIP3    H219768   7.651   8.728   1.356
 6631TIP3   OH219769   7.827   8.241   1.548
 6631TIP3    H119770   7.848   8.146   1.549
 6631TIP3    H219771   7.741   8.242   1.502
 6632TIP3   OH219772   7.943   7.974   1.526
 6632TIP3    H119773   8.018   7.919   1.501
 6632TIP3    H219774   7.972   8.006   1.614
 6633TIP3   OH219775   8.281   7.861   1.180
 6633TIP3    H119776   8.207   7.921   1.204
 6633TIP3    H219777   8.272   7.857   1.085
 6634TIP3   OH219778   8.399   7.648   1.316
 6634TIP3    H119779   8.402   7.569   1.259
 6634TIP3    H219780   8.362   7.716   1.255
 6635TIP3   OH219781   8.406   7.437   1.117
 6635TIP3    H119782   8.428   7.469   1.029
 6635TIP3    H219783   8.311   7.410   1.105
 6636TIP3   OH219784   8.284   7.767   1.541
 6636TIP3    H119785   8.216   7.697   1.554
 6636TIP3    H219786   8.320   7.741   1.454
 6637TIP3   OH219787   8.541   7.201   1.186
 6637TIP3    H119788   8.497   7.286   1.165
 6637TIP3    H219789   8.467   7.138   1.173
 6638TIP3   OH219790   8.643   7.741   1.425
 6638TIP3    H119791   8.628   7.703   1.513
 6638TIP3    H219792   8.563   7.711   1.379
 6639TIP3   OH219793   8.129   7.547   1.593
 6639TIP3    H119794   8.132   7.458   1.553
 6639TIP3    H219795   8.158   7.529   1.684
 6640TIP3   OH219796   8.635   7.208   1.444
 6640TIP3    H119797   8.705   7.141   1.437
 6640TIP3    H219798   8.599   7.205   1.353
 6641TIP3   OH219799   8.693   7.419   1.608
 6641TIP3    H119800   8.677   7.351   1.538
 6641TIP3    H219801   8.617   7.480   1.595
 6642TIP3   OH219802   7.862   7.614   1.593
 6642TIP3    H119803   7.956   7.595   1.574
 6642TIP3    H219804   7.827   7.523   1.597
 6643TIP3   OH219805   7.901   7.333   0.944
 6643TIP3    H119806   7.931   7.240   0.940
 6643TIP3    H219807   7.886   7.354   0.851
 6644TIP3   OH219808   7.647   7.582   0.945
 6644TIP3    H119809   7.696   7.499   0.963
 6644TIP3    H219810   7.692   7.641   1.006
 6645TIP3   OH219811   7.854   8.585   1.416
 6645TIP3    H119812   7.794   8.551   1.348
 6645TIP3    H219813   7.833   8.527   1.491
 6646TIP3   OH219814   8.124   7.269   1.536
 6646TIP3    H119815   8.090   7.197   1.591
 6646TIP3    H219816   8.219   7.268   1.562
 6647TIP3   OH219817   8.372   7.268   1.656
 6647TIP3    H119818   8.456   7.244   1.613
 6647TIP3    H219819   8.362   7.195   1.720
 6648TIP3   OH219820   9.141   7.301   1.463
 6648TIP3    H119821   9.194   7.304   1.545
 6648TIP3    H219822   9.203   7.337   1.398
 6649TIP3   OH219823   0.355   7.992   3.536
 6649TIP3    H119824   0.407   7.924   3.489
 6649TIP3    H219825   0.320   8.045   3.461
 6650TIP3   OH219826   0.221   8.128   3.334
 6650TIP3    H119827   0.131   8.158   3.356
 6650TIP3    H219828   0.202   8.051   3.278
 6651TIP3   OH219829   0.124   7.900   3.198
 6651TIP3    H119830   0.028   7.889   3.194
 6651TIP3    H219831   0.154   7.806   3.197
 6652TIP3   OH219832   1.869   8.326   2.327
 6652TIP3    H119833   1.899   8.408   2.371
 6652TIP3    H219834   1.889   8.347   2.234
 6653TIP3   OH219835   1.278   8.507   2.360
 6653TIP3    H119836   1.317   8.419   2.378
 6653TIP3    H219837   1.236   8.491   2.273
 6654TIP3   OH219838   1.298   8.250   1.954
 6654TIP3    H119839   1.368   8.237   2.023
 6654TIP3    H219840   1.356   8.285   1.883
 6655TIP3   OH219841   1.954   8.527   2.501
 6655TIP3    H119842   1.874   8.576   2.470
 6655TIP3    H219843   1.960   8.559   2.592
 6656TIP3   OH219844   0.606   8.146   2.769
 6656TIP3    H119845   0.554   8.184   2.696
 6656TIP3    H219846   0.550   8.168   2.846
 6657TIP3   OH219847   1.510   8.259   2.122
 6657TIP3    H119848   1.508   8.208   2.203
 6657TIP3    H219849   1.562   8.338   2.148
 6658TIP3   OH219850   0.489   8.251   2.549
 6658TIP3    H119851   0.531   8.338   2.565
 6658TIP3    H219852   0.499   8.245   2.453
 6659TIP3   OH219853   1.663   8.229   2.496
 6659TIP3    H119854   1.575   8.257   2.465
 6659TIP3    H219855   1.721   8.259   2.423
 6660TIP3   OH219856   0.960   7.872   2.474
 6660TIP3    H119857   0.951   7.777   2.491
 6660TIP3    H219858   0.883   7.908   2.523
 6661TIP3   OH219859   1.498   8.747   2.605
 6661TIP3    H119860   1.512   8.834   2.564
 6661TIP3    H219861   1.405   8.728   2.576
 6662TIP3   OH219862   1.599   7.817   1.580
 6662TIP3    H119863   1.513   7.831   1.623
 6662TIP3    H219864   1.608   7.898   1.525
 6663TIP3   OH219865   1.720   8.716   2.790
 6663TIP3    H119866   1.643   8.710   2.732
 6663TIP3    H219867   1.748   8.622   2.794
 6664TIP3   OH219868   0.721   7.948   2.605
 6664TIP3    H119869   0.632   7.918   2.580
 6664TIP3    H219870   0.697   8.029   2.655
 6665TIP3   OH219871   1.255   8.064   2.799
 6665TIP3    H119872   1.323   8.035   2.864
 6665TIP3    H219873   1.171   8.042   2.844
 6666TIP3   OH219874   1.498   8.478   2.722
 6666TIP3    H119875   1.449   8.475   2.807
 6666TIP3    H219876   1.470   8.563   2.684
 6667TIP3   OH219877   0.643   8.475   2.612
 6667TIP3    H119878   0.585   8.488   2.689
 6667TIP3    H219879   0.630   8.556   2.560
 6668TIP3   OH219880   1.208   8.690   2.942
 6668TIP3    H119881   1.204   8.616   3.006
 6668TIP3    H219882   1.290   8.734   2.970
 6669TIP3   OH219883   1.189   8.454   2.104
 6669TIP3    H119884   1.094   8.460   2.080
 6669TIP3    H219885   1.212   8.364   2.072
 6670TIP3   OH219886   0.492   8.486   2.849
 6670TIP3    H119887   0.439   8.559   2.888
 6670TIP3    H219888   0.461   8.408   2.897
 6671TIP3   OH219889   1.239   8.696   2.543
 6671TIP3    H119890   1.244   8.624   2.475
 6671TIP3    H219891   1.167   8.660   2.599
 6672TIP3   OH219892   0.903   8.180   2.203
 6672TIP3    H119893   0.808   8.159   2.204
 6672TIP3    H219894   0.931   8.172   2.295
 6673TIP3   OH219895   1.354   8.244   2.404
 6673TIP3    H119896   1.317   8.257   2.494
 6673TIP3    H219897   1.291   8.177   2.370
 6674TIP3   OH219898   0.962   8.502   2.280
 6674TIP3    H119899   1.004   8.416   2.265
 6674TIP3    H219900   0.949   8.501   2.376
 6675TIP3   OH219901   0.918   8.385   2.595
 6675TIP3    H119902   0.833   8.433   2.595
 6675TIP3    H219903   0.980   8.448   2.636
 6676TIP3   OH219904   0.939   8.727   3.020
 6676TIP3    H119905   0.882   8.675   2.958
 6676TIP3    H219906   1.027   8.693   2.998
 6677TIP3   OH219907   0.449   8.230   2.988
 6677TIP3    H119908   0.364   8.249   3.031
 6677TIP3    H219909   0.488   8.168   3.052
 6678TIP3   OH219910   1.276   8.304   2.664
 6678TIP3    H119911   1.362   8.334   2.697
 6678TIP3    H219912   1.263   8.220   2.713
 6679TIP3   OH219913   1.143   8.071   1.807
 6679TIP3    H119914   1.147   8.100   1.716
 6679TIP3    H219915   1.200   8.136   1.854
 6680TIP3   OH219916   1.107   8.539   2.733
 6680TIP3    H119917   1.144   8.595   2.805
 6680TIP3    H219918   1.167   8.462   2.733
 6681TIP3   OH219919   1.010   7.970   2.046
 6681TIP3    H119920   0.981   8.052   2.091
 6681TIP3    H219921   1.052   8.007   1.965
 6682TIP3   OH219922   1.767   8.450   2.716
 6682TIP3    H119923   1.669   8.443   2.725
 6682TIP3    H219924   1.778   8.411   2.628
 6683TIP3   OH219925   1.408   8.627   2.080
 6683TIP3    H119926   1.339   8.570   2.118
 6683TIP3    H219927   1.485   8.605   2.135
 6684TIP3   OH219928   0.457   7.861   2.581
 6684TIP3    H119929   0.434   7.810   2.502
 6684TIP3    H219930   0.455   7.790   2.649
 6685TIP3   OH219931   0.409   8.750   3.203
 6685TIP3    H119932   0.464   8.672   3.215
 6685TIP3    H219933   0.428   8.806   3.281
 6686TIP3   OH219934   0.737   8.607   2.870
 6686TIP3    H119935   0.649   8.564   2.877
 6686TIP3    H219936   0.729   8.647   2.782
 6687TIP3   OH219937   0.869   8.418   3.016
 6687TIP3    H119938   0.873   8.337   2.961
 6687TIP3    H219939   0.824   8.479   2.954
 6688TIP3   OH219940   0.864   8.222   2.814
 6688TIP3    H119941   0.890   8.267   2.731
 6688TIP3    H219942   0.770   8.199   2.795
 6689TIP3   OH219943   1.485   8.740   3.062
 6689TIP3    H119944   1.503   8.647   3.082
 6689TIP3    H219945   1.572   8.770   3.035
 6690TIP3   OH219946   0.723   8.563   3.226
 6690TIP3    H119947   0.665   8.486   3.241
 6690TIP3    H219948   0.771   8.535   3.146
 6691TIP3   OH219949   0.997   7.989   2.876
 6691TIP3    H119950   0.948   8.072   2.853
 6691TIP3    H219951   0.927   7.922   2.864
 6692TIP3   OH219952   1.124   8.489   3.100
 6692TIP3    H119953   1.116   8.480   3.196
 6692TIP3    H219954   1.035   8.458   3.073
 6693TIP3   OH219955   1.365   8.439   2.954
 6693TIP3    H119956   1.288   8.432   3.012
 6693TIP3    H219957   1.438   8.406   3.011
 6694TIP3   OH219958   1.594   8.384   3.103
 6694TIP3    H119959   1.605   8.289   3.122
 6694TIP3    H219960   1.588   8.424   3.192
 6695TIP3   OH219961   0.583   8.333   3.285
 6695TIP3    H119962   0.590   8.242   3.250
 6695TIP3    H219963   0.617   8.320   3.376
 6696TIP3   OH219964   1.090   8.000   3.133
 6696TIP3    H119965   1.158   7.930   3.129
 6696TIP3    H219966   1.051   7.992   3.044
 6697TIP3   OH219967   1.156   8.214   3.292
 6697TIP3    H119968   1.133   8.143   3.228
 6697TIP3    H219969   1.078   8.273   3.286
 6698TIP3   OH219970   1.471   8.615   1.818
 6698TIP3    H119971   1.491   8.520   1.823
 6698TIP3    H219972   1.458   8.637   1.913
 6699TIP3   OH219973   1.929   8.877   2.726
 6699TIP3    H119974   1.857   8.815   2.749
 6699TIP3    H219975   2.006   8.816   2.723
 6700TIP3   OH219976   1.461   8.337   1.751
 6700TIP3    H119977   1.503   8.250   1.768
 6700TIP3    H219978   1.472   8.336   1.654
 6701TIP3   OH219979   1.625   8.511   2.214
 6701TIP3    H119980   1.711   8.540   2.175
 6701TIP3    H219981   1.640   8.546   2.304
 6702TIP3   OH219982   1.703   8.638   2.445
 6702TIP3    H119983   1.626   8.668   2.497
 6702TIP3    H219984   1.750   8.724   2.430
 6703TIP3   OH219985   0.317   8.385   3.253
 6703TIP3    H119986   0.414   8.376   3.262
 6703TIP3    H219987   0.286   8.302   3.293
 6704TIP3   OH219988   2.145   8.246   3.014
 6704TIP3    H119989   2.203   8.180   2.971
 6704TIP3    H219990   2.119   8.303   2.939
 6705TIP3   OH219991   1.571   8.087   1.776
 6705TIP3    H119992   1.620   8.070   1.859
 6705TIP3    H219993   1.513   8.009   1.771
 6706TIP3   OH219994   0.278   8.077   2.577
 6706TIP3    H119995   0.337   8.003   2.599
 6706TIP3    H219996   0.340   8.152   2.580
 6707TIP3   OH219997   2.019   8.391   2.820
 6707TIP3    H119998   1.929   8.426   2.837
 6707TIP3    H219999   1.996   8.317   2.760
 6708TIP3   OH220000   1.672   8.020   1.395
 6708TIP3    H120001   1.703   7.946   1.338
 6708TIP3    H220002   1.739   8.089   1.379
 6709TIP3   OH220003   0.285   7.939   2.976
 6709TIP3    H120004   0.230   7.928   3.056
 6709TIP3    H220005   0.219   7.970   2.912
 6710TIP3   OH220006   1.915   8.151   2.697
 6710TIP3    H120007   1.824   8.146   2.663
 6710TIP3    H220008   1.945   8.058   2.684
 6711TIP3   OH220009   1.142   8.064   2.339
 6711TIP3    H120010   1.082   7.996   2.375
 6711TIP3    H220011   1.184   8.018   2.265
 6712TIP3   OH220012   1.648   7.948   2.224
 6712TIP3    H120013   1.683   7.999   2.149
 6712TIP3    H220014   1.551   7.960   2.214
 6713TIP3   OH220015   1.743   8.050   1.988
 6713TIP3    H120016   1.815   7.998   1.946
 6713TIP3    H220017   1.774   8.142   1.971
 6714TIP3   OH220018   0.808   7.809   2.210
 6714TIP3    H120019   0.862   7.860   2.148
 6714TIP3    H220020   0.842   7.841   2.295
 6715TIP3   OH220021   1.372   7.949   2.191
 6715TIP3    H120022   1.352   7.913   2.104
 6715TIP3    H220023   1.349   7.873   2.250
 6716TIP3   OH220024   1.390   7.877   1.763
 6716TIP3    H120025   1.298   7.906   1.762
 6716TIP3    H220026   1.380   7.789   1.807
 6717TIP3   OH220027   0.577   8.055   3.221
 6717TIP3    H120028   0.543   7.987   3.281
 6717TIP3    H220029   0.672   8.056   3.247
 6718TIP3   OH220030   0.824   8.052   3.342
 6718TIP3    H120031   0.910   8.028   3.303
 6718TIP3    H220032   0.814   7.982   3.409
 6719TIP3   OH220033   1.649   8.113   3.131
 6719TIP3    H120034   1.669   8.081   3.222
 6719TIP3    H220035   1.737   8.108   3.088
 6720TIP3   OH220036   1.819   8.550   1.642
 6720TIP3    H120037   1.792   8.635   1.680
 6720TIP3    H220038   1.759   8.490   1.688
 6721TIP3   OH220039   3.665   8.583   1.814
 6721TIP3    H120040   3.696   8.666   1.855
 6721TIP3    H220041   3.686   8.600   1.721
 6722TIP3   OH220042   3.066   8.764   1.844
 6722TIP3    H120043   3.108   8.679   1.865
 6722TIP3    H220044   3.030   8.746   1.755
 6723TIP3   OH220045   2.402   8.423   1.817
 6723TIP3    H120046   2.384   8.497   1.755
 6723TIP3    H220047   2.354   8.351   1.771
 6724TIP3   OH220048   3.096   8.513   1.441
 6724TIP3    H120049   3.171   8.498   1.503
 6724TIP3    H220050   3.145   8.550   1.365
 6725TIP3   OH220051   2.028   8.608   1.930
 6725TIP3    H120052   2.115   8.602   1.972
 6725TIP3    H220053   2.047   8.573   1.842
 6726TIP3   OH220054   2.488   8.828   1.707
 6726TIP3    H120055   2.575   8.791   1.733
 6726TIP3    H220056   2.440   8.750   1.675
 6727TIP3   OH220057   3.752   8.786   1.986
 6727TIP3    H120058   3.672   8.834   1.955
 6727TIP3    H220059   3.748   8.807   2.081
 6728TIP3   OH220060   2.400   8.408   2.252
 6728TIP3    H120061   2.340   8.443   2.184
 6728TIP3    H220062   2.347   8.427   2.333
 6729TIP3   OH220063   3.309   8.517   1.608
 6729TIP3    H120064   3.307   8.465   1.689
 6729TIP3    H220065   3.362   8.595   1.635
 6730TIP3   OH220066   2.272   8.520   2.036
 6730TIP3    H120067   2.333   8.595   2.053
 6730TIP3    H220068   2.319   8.478   1.960
 6731TIP3   OH220069   3.459   8.488   1.984
 6731TIP3    H120070   3.370   8.513   1.951
 6731TIP3    H220071   3.517   8.516   1.910
 6732TIP3   OH220072   2.759   8.129   1.963
 6732TIP3    H120073   2.746   8.033   1.980
 6732TIP3    H220074   2.681   8.166   2.009
 6733TIP3   OH220075   2.643   8.672   0.998
 6733TIP3    H120076   2.730   8.714   0.996
 6733TIP3    H220077   2.639   8.630   0.910
 6734TIP3   OH220078   3.296   9.006   2.091
 6734TIP3    H120079   3.308   9.092   2.047
 6734TIP3    H220080   3.204   8.983   2.060
 6735TIP3   OH220081   3.391   8.072   1.066
 6735TIP3    H120082   3.309   8.091   1.116
 6735TIP3    H220083   3.402   8.156   1.015
 6736TIP3   OH220084   3.518   8.976   2.275
 6736TIP3    H120085   3.439   8.969   2.219
 6736TIP3    H220086   3.545   8.882   2.280
 6737TIP3   OH220087   2.519   8.203   2.091
 6737TIP3    H120088   2.429   8.172   2.067
 6737TIP3    H220089   2.495   8.287   2.135
 6738TIP3   OH220090   3.051   8.321   2.286
 6738TIP3    H120091   3.118   8.291   2.350
 6738TIP3    H220092   2.966   8.298   2.330
 6739TIP3   OH220093   3.297   8.737   2.211
 6739TIP3    H120094   3.246   8.731   2.295
 6739TIP3    H220095   3.263   8.819   2.171
 6740TIP3   OH220096   2.663   8.252   1.060
 6740TIP3    H120097   2.633   8.253   1.153
 6740TIP3    H220098   2.627   8.166   1.032
 6741TIP3   OH220099   2.442   8.727   2.104
 6741TIP3    H120100   2.382   8.737   2.181
 6741TIP3    H220101   2.429   8.810   2.055
 6742TIP3   OH220102   2.334   8.605   1.629
 6742TIP3    H120103   2.241   8.578   1.640
 6742TIP3    H220104   2.352   8.567   1.540
 6743TIP3   OH220105   2.834   8.694   1.353
 6743TIP3    H120106   2.753   8.742   1.325
 6743TIP3    H220107   2.877   8.674   1.267
 6744TIP3   OH220108   3.006   8.945   2.426
 6744TIP3    H120109   3.000   8.872   2.492
 6744TIP3    H220110   3.085   8.992   2.457
 6745TIP3   OH220111   2.973   8.711   1.592
 6745TIP3    H120112   2.915   8.729   1.515
 6745TIP3    H220113   3.016   8.630   1.555
 6746TIP3   OH220114   2.291   8.741   2.337
 6746TIP3    H120115   2.234   8.816   2.366
 6746TIP3    H220116   2.252   8.665   2.383
 6747TIP3   OH220117   2.308   8.227   1.021
 6747TIP3    H120118   2.313   8.222   1.118
 6747TIP3    H220119   2.212   8.213   1.006
 6748TIP3   OH220120   1.860   8.279   1.894
 6748TIP3    H120121   1.936   8.304   1.951
 6748TIP3    H220122   1.901   8.232   1.819
 6749TIP3   OH220123   1.829   8.263   1.412
 6749TIP3    H120124   1.883   8.296   1.339
 6749TIP3    H220125   1.784   8.344   1.441
 6750TIP3   OH220126   3.039   8.951   2.035
 6750TIP3    H120127   3.039   8.884   1.962
 6750TIP3    H220128   2.966   8.915   2.089
 6751TIP3   OH220129   2.659   8.421   1.687
 6751TIP3    H120130   2.576   8.424   1.738
 6751TIP3    H220131   2.725   8.437   1.756
 6752TIP3   OH220132   2.092   8.485   1.688
 6752TIP3    H120133   1.999   8.482   1.661
 6752TIP3    H220134   2.123   8.393   1.673
 6753TIP3   OH220135   2.378   8.474   1.394
 6753TIP3    H120136   2.471   8.496   1.372
 6753TIP3    H220137   2.329   8.512   1.318
 6754TIP3   OH220138   3.152   8.503   1.891
 6754TIP3    H120139   3.113   8.513   1.980
 6754TIP3    H220140   3.089   8.439   1.851
 6755TIP3   OH220141   2.221   8.518   1.180
 6755TIP3    H120142   2.204   8.432   1.141
 6755TIP3    H220143   2.267   8.564   1.106
 6756TIP3   OH220144   2.738   8.734   1.776
 6756TIP3    H120145   2.822   8.714   1.730
 6756TIP3    H220146   2.761   8.722   1.869
 6757TIP3   OH220147   2.265   8.245   1.660
 6757TIP3    H120148   2.236   8.163   1.705
 6757TIP3    H220149   2.325   8.211   1.592
 6758TIP3   OH220150   2.717   8.641   2.083
 6758TIP3    H120151   2.631   8.687   2.080
 6758TIP3    H220152   2.775   8.708   2.125
 6759TIP3   OH220153   2.914   8.362   1.033
 6759TIP3    H120154   2.817   8.345   1.037
 6759TIP3    H220155   2.920   8.459   1.047
 6760TIP3   OH220156   2.985   8.621   1.121
 6760TIP3    H120157   3.078   8.610   1.150
 6760TIP3    H220158   2.991   8.698   1.063
 6761TIP3   OH220159   2.736   8.981   2.510
 6761TIP3    H120160   2.678   8.932   2.446
 6761TIP3    H220161   2.824   8.949   2.483
 6762TIP3   OH220162   3.428   8.683   0.974
 6762TIP3    H120163   3.365   8.641   0.911
 6762TIP3    H220164   3.427   8.773   0.939
 6763TIP3   OH220165   2.239   8.487   2.470
 6763TIP3    H120166   2.142   8.488   2.482
 6763TIP3    H220167   2.267   8.425   2.539
 6764TIP3   OH220168   3.073   8.561   2.151
 6764TIP3    H120169   3.159   8.589   2.186
 6764TIP3    H220170   3.058   8.477   2.200
 6765TIP3   OH220171   2.956   8.308   1.309
 6765TIP3    H120172   2.941   8.332   1.216
 6765TIP3    H220173   2.996   8.389   1.346
 6766TIP3   OH220174   2.658   8.482   1.414
 6766TIP3    H120175   2.724   8.553   1.396
 6766TIP3    H220176   2.659   8.478   1.512
 6767TIP3   OH220177   2.904   8.796   2.219
 6767TIP3    H120178   2.941   8.849   2.293
 6767TIP3    H220179   2.961   8.718   2.219
 6768TIP3   OH220180   2.794   8.215   1.519
 6768TIP3    H120181   2.781   8.293   1.576
 6768TIP3    H220182   2.853   8.252   1.449
 6769TIP3   OH220183   2.304   8.215   1.301
 6769TIP3    H120184   2.311   8.304   1.343
 6769TIP3    H220185   2.398   8.188   1.310
 6770TIP3   OH220186   3.564   8.708   2.200
 6770TIP3    H120187   3.467   8.702   2.212
 6770TIP3    H220188   3.572   8.662   2.115
 6771TIP3   OH220189   3.200   8.884   1.574
 6771TIP3    H120190   3.130   8.824   1.603
 6771TIP3    H220191   3.275   8.856   1.630
 6772TIP3   OH220192   2.254   8.123   2.069
 6772TIP3    H120193   2.222   8.091   1.982
 6772TIP3    H220194   2.243   8.044   2.126
 6773TIP3   OH220195   2.226   9.008   2.683
 6773TIP3    H120196   2.275   8.929   2.706
 6773TIP3    H220197   2.227   9.062   2.765
 6774TIP3   OH220198   2.534   8.865   2.359
 6774TIP3    H120199   2.446   8.821   2.368
 6774TIP3    H220200   2.524   8.905   2.272
 6775TIP3   OH220201   2.366   8.612   0.971
 6775TIP3    H120202   2.364   8.627   0.875
 6775TIP3    H220203   2.457   8.639   0.992
 6776TIP3   OH220204   2.667   8.674   2.501
 6776TIP3    H120205   2.668   8.592   2.447
 6776TIP3    H220206   2.621   8.735   2.440
 6777TIP3   OH220207   2.659   8.478   2.300
 6777TIP3    H120208   2.685   8.523   2.217
 6777TIP3    H220209   2.565   8.457   2.281
 6778TIP3   OH220210   3.282   8.996   2.550
 6778TIP3    H120211   3.298   8.902   2.568
 6778TIP3    H220212   3.369   9.025   2.521
 6779TIP3   OH220213   2.523   8.816   2.716
 6779TIP3    H120214   2.461   8.741   2.728
 6779TIP3    H220215   2.568   8.790   2.633
 6780TIP3   OH220216   2.792   8.246   2.362
 6780TIP3    H120217   2.743   8.328   2.340
 6780TIP3    H220218   2.723   8.178   2.350
 6781TIP3   OH220219   2.922   8.745   2.586
 6781TIP3    H120220   2.909   8.736   2.683
 6781TIP3    H220221   2.833   8.715   2.557
 6782TIP3   OH220222   3.162   8.694   2.441
 6782TIP3    H120223   3.084   8.688   2.498
 6782TIP3    H220224   3.234   8.661   2.499
 6783TIP3   OH220225   3.394   8.642   2.590
 6783TIP3    H120226   3.403   8.546   2.608
 6783TIP3    H220227   3.386   8.680   2.680
 6784TIP3   OH220228   2.372   8.591   2.771
 6784TIP3    H120229   2.379   8.501   2.734
 6784TIP3    H220230   2.407   8.577   2.861
 6785TIP3   OH220231   2.887   8.257   2.620
 6785TIP3    H120232   2.954   8.186   2.615
 6785TIP3    H220233   2.847   8.249   2.531
 6786TIP3   OH220234   2.952   8.471   2.779
 6786TIP3    H120235   2.929   8.400   2.715
 6786TIP3    H220236   2.874   8.530   2.773
 6787TIP3   OH220237   3.262   8.608   0.772
 6787TIP3    H120238   3.219   8.630   0.689
 6787TIP3    H220239   3.236   8.513   0.778
 6788TIP3   OH220240   3.295   8.859   1.322
 6788TIP3    H120241   3.290   8.762   1.330
 6788TIP3    H220242   3.270   8.886   1.413
 6789TIP3   OH220243   3.730   9.131   2.207
 6789TIP3    H120244   3.655   9.075   2.233
 6789TIP3    H220245   3.803   9.065   2.211
 6790TIP3   OH220246   3.200   8.346   0.778
 6790TIP3    H120247   3.277   8.306   0.821
 6790TIP3    H220248   3.130   8.279   0.789
 6791TIP3   OH220249   3.252   8.587   1.217
 6791TIP3    H120250   3.295   8.499   1.232
 6791TIP3    H220251   3.313   8.624   1.151
 6792TIP3   OH220252   3.421   8.767   1.703
 6792TIP3    H120253   3.505   8.796   1.661
 6792TIP3    H220254   3.438   8.803   1.792
 6793TIP3   OH220255   3.501   8.897   1.932
 6793TIP3    H120256   3.424   8.927   1.983
 6793TIP3    H220257   3.547   8.982   1.913
 6794TIP3   OH220258   2.102   8.650   2.748
 6794TIP3    H120259   2.199   8.640   2.742
 6794TIP3    H220260   2.078   8.563   2.787
 6795TIP3   OH220261   3.941   8.504   2.500
 6795TIP3    H120262   3.999   8.437   2.458
 6795TIP3    H220263   3.916   8.560   2.424
 6796TIP3   OH220264   3.370   8.343   1.255
 6796TIP3    H120265   3.417   8.327   1.339
 6796TIP3    H220266   3.309   8.266   1.253
 6797TIP3   OH220267   2.066   8.327   2.075
 6797TIP3    H120268   2.133   8.256   2.085
 6797TIP3    H220269   2.124   8.406   2.068
 6798TIP3   OH220270   1.872   8.613   2.154
 6798TIP3    H120271   1.921   8.601   2.070
 6798TIP3    H220272   1.890   8.706   2.172
 6799TIP3   OH220273   3.816   8.649   2.305
 6799TIP3    H120274   3.725   8.682   2.322
 6799TIP3    H220275   3.794   8.574   2.246
 6800TIP3   OH220276   3.452   8.281   0.886
 6800TIP3    H120277   3.490   8.207   0.834
 6800TIP3    H220278   3.521   8.350   0.876
 6801TIP3   OH220279   1.850   8.119   1.647
 6801TIP3    H120280   1.757   8.108   1.671
 6801TIP3    H220281   1.844   8.170   1.564
 6802TIP3   OH220282   2.074   8.190   2.464
 6802TIP3    H120283   2.023   8.184   2.546
 6802TIP3    H220284   2.008   8.228   2.403
 6803TIP3   OH220285   3.711   8.407   2.184
 6803TIP3    H120286   3.620   8.400   2.151
 6803TIP3    H220287   3.742   8.315   2.172
 6804TIP3   OH220288   2.922   8.324   1.807
 6804TIP3    H120289   2.873   8.256   1.855
 6804TIP3    H220290   2.987   8.272   1.756
 6805TIP3   OH220291   3.442   8.206   1.712
 6805TIP3    H120292   3.478   8.255   1.635
 6805TIP3    H220293   3.346   8.219   1.701
 6806TIP3   OH220294   3.536   8.304   1.473
 6806TIP3    H120295   3.608   8.252   1.432
 6806TIP3    H220296   3.568   8.395   1.457
 6807TIP3   OH220297   2.165   8.031   1.820
 6807TIP3    H120298   2.074   7.997   1.820
 6807TIP3    H220299   2.216   7.947   1.817
 6808TIP3   OH220300   1.955   7.895   1.468
 6808TIP3    H120301   1.986   7.954   1.396
 6808TIP3    H220302   1.918   7.958   1.531
 6809TIP3   OH220303   2.605   8.066   1.699
 6809TIP3    H120304   2.666   8.115   1.641
 6809TIP3    H220305   2.628   8.102   1.786
 6810TIP3   OH220306   3.161   8.209   1.683
 6810TIP3    H120307   3.153   8.174   1.593
 6810TIP3    H220308   3.144   8.128   1.737
 6811TIP3   OH220309   3.186   8.131   1.246
 6811TIP3    H120310   3.098   8.172   1.254
 6811TIP3    H220311   3.171   8.046   1.292
 6812TIP3   OH220312   2.068   8.060   1.243
 6812TIP3    H120313   2.113   7.997   1.183
 6812TIP3    H220314   2.144   8.111   1.277
 6813TIP3   OH220315   2.581   8.233   1.329
 6813TIP3    H120316   2.642   8.188   1.389
 6813TIP3    H220317   2.602   8.326   1.353
 6814TIP3   OH220318   2.372   8.312   2.711
 6814TIP3    H120319   2.340   8.241   2.769
 6814TIP3    H220320   2.467   8.314   2.736
 6815TIP3   OH220321   2.622   8.310   2.829
 6815TIP3    H120322   2.706   8.283   2.789
 6815TIP3    H220323   2.609   8.239   2.896
 6816TIP3   OH220324   3.445   8.370   2.618
 6816TIP3    H120325   3.465   8.338   2.708
 6816TIP3    H220326   3.533   8.364   2.575
 6817TIP3   OH220327   3.628   8.817   1.133
 6817TIP3    H120328   3.582   8.891   1.174
 6817TIP3    H220329   3.556   8.755   1.114
 6818TIP3   OH220330   5.460   8.840   1.301
 6818TIP3    H120331   5.492   8.921   1.345
 6818TIP3    H220332   5.482   8.859   1.208
 6819TIP3   OH220333   4.860   9.026   1.336
 6819TIP3    H120334   4.902   8.940   1.356
 6819TIP3    H220335   4.825   9.008   1.246
 6820TIP3   OH220336   4.199   8.680   1.303
 6820TIP3    H120337   4.179   8.753   1.240
 6820TIP3    H220338   4.152   8.607   1.258
 6821TIP3   OH220339   4.892   8.769   0.926
 6821TIP3    H120340   4.966   8.753   0.988
 6821TIP3    H220341   4.942   8.809   0.852
 6822TIP3   OH220342   3.825   8.869   1.421
 6822TIP3    H120343   3.914   8.854   1.457
 6822TIP3    H220344   3.836   8.833   1.331
 6823TIP3   OH220345   4.285   9.084   1.195
 6823TIP3    H120346   4.372   9.046   1.220
 6823TIP3    H220347   4.236   9.006   1.162
 6824TIP3   OH220348   5.546   9.041   1.474
 6824TIP3    H120349   5.466   9.090   1.444
 6824TIP3    H220350   5.551   9.069   1.566
 6825TIP3   OH220351   4.197   8.666   1.739
 6825TIP3    H120352   4.136   8.698   1.669
 6825TIP3    H220353   4.142   8.682   1.819
 6826TIP3   OH220354   5.103   8.774   1.096
 6826TIP3    H120355   5.103   8.720   1.176
 6826TIP3    H220356   5.156   8.851   1.122
 6827TIP3   OH220357   4.068   8.774   1.522
 6827TIP3    H120358   4.129   8.849   1.538
 6827TIP3    H220359   4.114   8.732   1.445
 6828TIP3   OH220360   5.254   8.744   1.470
 6828TIP3    H120361   5.166   8.770   1.438
 6828TIP3    H220362   5.313   8.773   1.397
 6829TIP3   OH220363   4.556   8.385   1.451
 6829TIP3    H120364   4.543   8.290   1.466
 6829TIP3    H220365   4.477   8.422   1.496
 6830TIP3   OH220366   5.096   9.261   1.580
 6830TIP3    H120367   5.111   9.353   1.550
 6830TIP3    H220368   5.005   9.244   1.544
 6831TIP3   OH220369   5.184   8.339   0.562
 6831TIP3    H120370   5.100   8.338   0.612
 6831TIP3    H220371   5.186   8.431   0.532
 6832TIP3   OH220372   5.311   9.227   1.772
 6832TIP3    H120373   5.238   9.228   1.708
 6832TIP3    H220374   5.338   9.133   1.768
 6833TIP3   OH220375   4.315   8.460   1.577
 6833TIP3    H120376   4.225   8.428   1.553
 6833TIP3    H220377   4.291   8.544   1.620
 6834TIP3   OH220378   4.847   8.579   1.773
 6834TIP3    H120379   4.914   8.547   1.837
 6834TIP3    H220380   4.763   8.554   1.817
 6835TIP3   OH220381   5.091   8.992   1.696
 6835TIP3    H120382   5.042   8.988   1.781
 6835TIP3    H220383   5.062   9.076   1.658
 6836TIP3   OH220384   4.481   8.496   0.546
 6836TIP3    H120385   4.442   8.508   0.634
 6836TIP3    H220386   4.434   8.418   0.515
 6837TIP3   OH220387   4.237   8.980   1.586
 6837TIP3    H120388   4.178   8.995   1.663
 6837TIP3    H220389   4.229   9.064   1.537
 6838TIP3   OH220390   4.131   8.860   1.113
 6838TIP3    H120391   4.038   8.834   1.128
 6838TIP3    H220392   4.145   8.823   1.023
 6839TIP3   OH220393   4.628   8.953   0.836
 6839TIP3    H120394   4.544   9.000   0.818
 6839TIP3    H220395   4.667   8.946   0.748
 6840TIP3   OH220396   4.806   9.204   1.910
 6840TIP3    H120397   4.796   9.127   1.971
 6840TIP3    H220398   4.892   9.239   1.940
 6841TIP3   OH220399   4.771   8.967   1.079
 6841TIP3    H120400   4.712   8.985   1.002
 6841TIP3    H220401   4.814   8.886   1.042
 6842TIP3   OH220402   4.082   8.998   1.827
 6842TIP3    H120403   4.017   9.054   1.872
 6842TIP3    H220404   4.056   8.909   1.858
 6843TIP3   OH220405   4.108   8.481   0.518
 6843TIP3    H120406   4.120   8.478   0.615
 6843TIP3    H220407   4.017   8.513   0.514
 6844TIP3   OH220408   3.656   8.530   1.386
 6844TIP3    H120409   3.733   8.559   1.439
 6844TIP3    H220410   3.697   8.491   1.306
 6845TIP3   OH220411   3.636   8.506   0.903
 6845TIP3    H120412   3.686   8.546   0.829
 6845TIP3    H220413   3.576   8.579   0.928
 6846TIP3   OH220414   4.836   9.212   1.531
 6846TIP3    H120415   4.838   9.151   1.454
 6846TIP3    H220416   4.763   9.170   1.581
 6847TIP3   OH220417   4.456   8.680   1.173
 6847TIP3    H120418   4.372   8.681   1.223
 6847TIP3    H220419   4.521   8.692   1.244
 6848TIP3   OH220420   3.891   8.742   1.178
 6848TIP3    H120421   3.796   8.746   1.154
 6848TIP3    H220422   3.915   8.650   1.158
 6849TIP3   OH220423   4.163   8.736   0.869
 6849TIP3    H120424   4.257   8.754   0.848
 6849TIP3    H220425   4.115   8.765   0.789
 6850TIP3   OH220426   4.947   8.762   1.379
 6850TIP3    H120427   4.907   8.770   1.468
 6850TIP3    H220428   4.886   8.697   1.338
 6851TIP3   OH220429   4.000   8.756   0.641
 6851TIP3    H120430   3.914   8.724   0.610
 6851TIP3    H220431   4.036   8.796   0.562
 6852TIP3   OH220432   4.536   8.992   1.263
 6852TIP3    H120433   4.619   8.968   1.218
 6852TIP3    H220434   4.557   8.977   1.357
 6853TIP3   OH220435   4.065   8.500   1.147
 6853TIP3    H120436   4.033   8.419   1.191
 6853TIP3    H220437   4.116   8.465   1.073
 6854TIP3   OH220438   4.512   8.897   1.568
 6854TIP3    H120439   4.425   8.941   1.566
 6854TIP3    H220440   4.570   8.964   1.612
 6855TIP3   OH220441   4.530   9.229   2.009
 6855TIP3    H120442   4.463   9.179   1.960
 6855TIP3    H220443   4.613   9.197   1.966
 6856TIP3   OH220444   4.034   8.745   1.955
 6856TIP3    H120445   3.937   8.746   1.966
 6856TIP3    H220446   4.062   8.682   2.023
 6857TIP3   OH220447   4.866   8.820   1.641
 6857TIP3    H120448   4.955   8.846   1.670
 6857TIP3    H220449   4.853   8.734   1.688
 6858TIP3   OH220450   4.750   8.573   0.787
 6858TIP3    H120451   4.720   8.610   0.703
 6858TIP3    H220452   4.796   8.649   0.829
 6859TIP3   OH220453   4.450   8.741   0.901
 6859TIP3    H120454   4.519   8.808   0.886
 6859TIP3    H220455   4.450   8.734   0.999
 6860TIP3   OH220456   4.700   9.051   1.704
 6860TIP3    H120457   4.740   9.100   1.778
 6860TIP3    H220458   4.757   8.970   1.700
 6861TIP3   OH220459   4.593   8.474   1.004
 6861TIP3    H120460   4.579   8.551   1.061
 6861TIP3    H220461   4.650   8.512   0.934
 6862TIP3   OH220462   4.101   8.466   0.796
 6862TIP3    H120463   4.100   8.558   0.828
 6862TIP3    H220464   4.197   8.446   0.805
 6863TIP3   OH220465   5.359   8.964   1.688
 6863TIP3    H120466   5.261   8.957   1.697
 6863TIP3    H220467   5.370   8.920   1.603
 6864TIP3   OH220468   4.990   9.146   1.072
 6864TIP3    H120469   4.923   9.079   1.092
 6864TIP3    H220470   5.067   9.115   1.124
 6865TIP3   OH220471   3.667   8.670   0.674
 6865TIP3    H120472   3.655   8.765   0.682
 6865TIP3    H220473   3.579   8.636   0.652
 6866TIP3   OH220474   4.050   8.380   1.556
 6866TIP3    H120475   4.018   8.348   1.469
 6866TIP3    H220476   4.039   8.301   1.612
 6867TIP3   OH220477   4.032   9.269   2.159
 6867TIP3    H120478   4.064   9.183   2.188
 6867TIP3    H220479   4.017   9.318   2.242
 6868TIP3   OH220480   4.334   9.102   1.849
 6868TIP3    H120481   4.245   9.059   1.845
 6868TIP3    H220482   4.321   9.175   1.787
 6869TIP3   OH220483   4.468   8.923   1.993
 6869TIP3    H120484   4.470   8.840   1.940
 6869TIP3    H220485   4.421   8.981   1.930
 6870TIP3   OH220486   4.456   8.734   1.787
 6870TIP3    H120487   4.482   8.780   1.704
 6870TIP3    H220488   4.362   8.713   1.768
 6871TIP3   OH220489   5.082   9.252   2.037
 6871TIP3    H120490   5.098   9.157   2.054
 6871TIP3    H220491   5.166   9.277   1.997
 6872TIP3   OH220492   4.320   9.071   2.204
 6872TIP3    H120493   4.257   8.996   2.216
 6872TIP3    H220494   4.363   9.045   2.121
 6873TIP3   OH220495   4.589   8.502   1.849
 6873TIP3    H120496   4.540   8.584   1.826
 6873TIP3    H220497   4.519   8.434   1.837
 6874TIP3   OH220498   4.718   9.007   2.073
 6874TIP3    H120499   4.705   8.995   2.169
 6874TIP3    H220500   4.630   8.973   2.044
 6875TIP3   OH220501   4.961   8.954   1.930
 6875TIP3    H120502   4.883   8.940   1.986
 6875TIP3    H220503   5.033   8.917   1.985
 6876TIP3   OH220504   5.188   8.898   2.079
 6876TIP3    H120505   5.199   8.801   2.095
 6876TIP3    H220506   5.184   8.934   2.170
 6877TIP3   OH220507   4.169   8.847   2.258
 6877TIP3    H120508   4.174   8.757   2.221
 6877TIP3    H220509   4.205   8.832   2.347
 6878TIP3   OH220510   4.683   8.514   2.106
 6878TIP3    H120511   4.750   8.443   2.102
 6878TIP3    H220512   4.643   8.506   2.018
 6879TIP3   OH220513   4.750   8.729   2.264
 6879TIP3    H120514   4.727   8.657   2.201
 6879TIP3    H220515   4.671   8.786   2.259
 6880TIP3   OH220516   5.114   9.117   0.830
 6880TIP3    H120517   5.104   9.020   0.828
 6880TIP3    H220518   5.077   9.138   0.919
 6881TIP3   OH220519   5.515   9.388   1.690
 6881TIP3    H120520   5.447   9.327   1.723
 6881TIP3    H220521   5.595   9.332   1.696
 6882TIP3   OH220522   5.066   8.856   0.730
 6882TIP3    H120523   5.100   8.764   0.739
 6882TIP3    H220524   5.105   8.880   0.644
 6883TIP3   OH220525   5.216   9.026   1.189
 6883TIP3    H120526   5.300   9.054   1.146
 6883TIP3    H220527   5.235   9.060   1.279
 6884TIP3   OH220528   5.298   9.156   1.418
 6884TIP3    H120529   5.222   9.185   1.472
 6884TIP3    H220530   5.343   9.241   1.400
 6885TIP3   OH220531   3.901   8.910   2.240
 6885TIP3    H120532   3.997   8.896   2.232
 6885TIP3    H220533   3.874   8.823   2.274
 6886TIP3   OH220534   5.736   8.759   1.987
 6886TIP3    H120535   5.795   8.693   1.946
 6886TIP3    H220536   5.712   8.816   1.912
 6887TIP3   OH220537   5.147   8.599   0.749
 6887TIP3    H120538   5.207   8.585   0.824
 6887TIP3    H220539   5.093   8.518   0.752
 6888TIP3   OH220540   3.863   8.585   1.566
 6888TIP3    H120541   3.928   8.513   1.572
 6888TIP3    H220542   3.921   8.662   1.555
 6889TIP3   OH220543   3.668   8.871   1.643
 6889TIP3    H120544   3.716   8.856   1.558
 6889TIP3    H220545   3.686   8.964   1.657
 6890TIP3   OH220546   5.611   8.904   1.792
 6890TIP3    H120547   5.520   8.938   1.805
 6890TIP3    H220548   5.592   8.829   1.733
 6891TIP3   OH220549   3.650   8.371   1.138
 6891TIP3    H120550   3.556   8.364   1.160
 6891TIP3    H220551   3.649   8.424   1.056
 6892TIP3   OH220552   3.871   8.449   1.952
 6892TIP3    H120553   3.818   8.440   2.033
 6892TIP3    H220554   3.805   8.485   1.890
 6893TIP3   OH220555   5.507   8.663   1.671
 6893TIP3    H120556   5.416   8.655   1.638
 6893TIP3    H220557   5.539   8.571   1.659
 6894TIP3   OH220558   4.718   8.581   1.294
 6894TIP3    H120559   4.669   8.512   1.342
 6894TIP3    H220560   4.782   8.529   1.243
 6895TIP3   OH220561   5.237   8.462   1.197
 6895TIP3    H120562   5.272   8.513   1.121
 6895TIP3    H220563   5.141   8.475   1.188
 6896TIP3   OH220564   5.328   8.565   0.959
 6896TIP3    H120565   5.401   8.512   0.920
 6896TIP3    H220566   5.362   8.656   0.942
 6897TIP3   OH220567   3.961   8.288   1.308
 6897TIP3    H120568   3.869   8.254   1.307
 6897TIP3    H220569   4.011   8.204   1.304
 6898TIP3   OH220570   3.749   8.156   0.953
 6898TIP3    H120571   3.779   8.213   0.881
 6898TIP3    H220572   3.718   8.221   1.019
 6899TIP3   OH220573   4.403   8.321   1.186
 6899TIP3    H120574   4.463   8.371   1.128
 6899TIP3    H220575   4.424   8.358   1.272
 6900TIP3   OH220576   4.957   8.465   1.169
 6900TIP3    H120577   4.947   8.430   1.080
 6900TIP3    H220578   4.940   8.385   1.224
 6901TIP3   OH220579   4.976   8.384   0.738
 6901TIP3    H120580   4.887   8.423   0.738
 6901TIP3    H220581   4.960   8.298   0.784
 6902TIP3   OH220582   3.864   8.318   0.722
 6902TIP3    H120583   3.909   8.253   0.665
 6902TIP3    H220584   3.940   8.369   0.757
 6903TIP3   OH220585   4.376   8.491   0.815
 6903TIP3    H120586   4.437   8.442   0.873
 6903TIP3    H220587   4.399   8.583   0.841
 6904TIP3   OH220588   4.168   8.571   2.200
 6904TIP3    H120589   4.137   8.498   2.255
 6904TIP3    H220590   4.264   8.571   2.224
 6905TIP3   OH220591   4.419   8.567   2.317
 6905TIP3    H120592   4.502   8.539   2.275
 6905TIP3    H220593   4.405   8.496   2.383
 6906TIP3   OH220594   5.242   8.628   2.105
 6906TIP3    H120595   5.262   8.594   2.195
 6906TIP3    H220596   5.330   8.621   2.061
 6907TIP3   OH220597   5.621   9.127   0.889
 6907TIP3    H120598   5.705   9.117   0.937
 6907TIP3    H220599   5.635   9.066   0.815
 6908TIP3   OH220600   5.991   8.924   1.224
 6908TIP3    H120601   5.931   8.953   1.152
 6908TIP3    H220602   5.936   8.941   1.303
 6909TIP3   OH220603   5.866   9.028   0.997
 6909TIP3    H120604   5.926   9.101   1.023
 6909TIP3    H220605   5.900   9.014   0.906
 6910TIP3   OH220606   6.362   8.627   0.958
 6910TIP3    H120607   6.328   8.538   0.978
 6910TIP3    H220608   6.282   8.681   0.972
 6911TIP3   OH220609   6.107   8.713   1.066
 6911TIP3    H120610   6.015   8.685   1.046
 6911TIP3    H220611   6.089   8.800   1.106
 6912TIP3   OH220612   6.644   8.837   1.258
 6912TIP3    H120613   6.708   8.808   1.325
 6912TIP3    H220614   6.558   8.816   1.300
 6913TIP3   OH220615   6.900   9.269   1.185
 6913TIP3    H120616   6.852   9.249   1.269
 6913TIP3    H220617   6.839   9.330   1.143
 6914TIP3   OH220618   6.022   9.237   1.069
 6914TIP3    H120619   5.975   9.254   1.152
 6914TIP3    H220620   6.048   9.325   1.039
 6915TIP3   OH220621   6.605   9.460   1.395
 6915TIP3    H120622   6.593   9.385   1.458
 6915TIP3    H220623   6.686   9.500   1.430
 6916TIP3   OH220624   5.876   9.257   1.313
 6916TIP3    H120625   5.817   9.312   1.367
 6916TIP3    H220626   5.853   9.168   1.346
 6917TIP3   OH220627   5.462   8.786   0.871
 6917TIP3    H120628   5.530   8.815   0.935
 6917TIP3    H220629   5.513   8.741   0.803
 6918TIP3   OH220630   6.305   9.145   1.074
 6918TIP3    H120631   6.228   9.197   1.046
 6918TIP3    H220632   6.369   9.215   1.099
 6919TIP3   OH220633   6.328   9.486   1.494
 6919TIP3    H120634   6.265   9.438   1.437
 6919TIP3    H220635   6.413   9.454   1.458
 6920TIP3   OH220636   5.831   9.004   1.441
 6920TIP3    H120637   5.734   9.003   1.454
 6920TIP3    H220638   5.860   8.941   1.509
 6921TIP3   OH220639   6.662   9.090   1.136
 6921TIP3    H120640   6.753   9.100   1.164
 6921TIP3    H220641   6.642   8.999   1.166
 6922TIP3   OH220642   6.494   9.307   1.195
 6922TIP3    H120643   6.541   9.357   1.264
 6922TIP3    H220644   6.552   9.230   1.181
 6923TIP3   OH220645   7.168   9.201   1.155
 6923TIP3    H120646   7.077   9.226   1.181
 6923TIP3    H220647   7.166   9.217   1.060
 6924TIP3   OH220648   5.842   8.638   1.047
 6924TIP3    H120649   5.811   8.605   0.960
 6924TIP3    H220650   5.834   8.557   1.102
 6925TIP3   OH220651   5.827   9.507   1.635
 6925TIP3    H120652   5.882   9.455   1.694
 6925TIP3    H220653   5.775   9.565   1.696
 6926TIP3   OH220654   6.127   9.364   1.335
 6926TIP3    H120655   6.039   9.322   1.336
 6926TIP3    H220656   6.116   9.433   1.269
 6927TIP3   OH220657   6.263   9.182   1.479
 6927TIP3    H120658   6.265   9.099   1.425
 6927TIP3    H220659   6.217   9.241   1.415
 6928TIP3   OH220660   6.249   8.985   1.282
 6928TIP3    H120661   6.278   9.036   1.202
 6928TIP3    H220662   6.156   8.966   1.258
 6929TIP3   OH220663   6.881   9.511   1.531
 6929TIP3    H120664   6.893   9.415   1.544
 6929TIP3    H220665   6.963   9.532   1.486
 6930TIP3   OH220666   6.114   9.328   1.691
 6930TIP3    H120667   6.052   9.252   1.701
 6930TIP3    H220668   6.159   9.305   1.608
 6931TIP3   OH220669   6.387   8.757   1.336
 6931TIP3    H120670   6.338   8.840   1.314
 6931TIP3    H220671   6.318   8.690   1.322
 6932TIP3   OH220672   6.515   9.262   1.558
 6932TIP3    H120673   6.503   9.253   1.654
 6932TIP3    H220674   6.427   9.229   1.529
 6933TIP3   OH220675   6.761   9.208   1.411
 6933TIP3    H120676   6.680   9.197   1.465
 6933TIP3    H220677   6.831   9.175   1.471
 6934TIP3   OH220678   6.977   9.151   1.568
 6934TIP3    H120679   6.991   9.055   1.586
 6934TIP3    H220680   6.977   9.191   1.658
 6935TIP3   OH220681   5.963   9.104   1.746
 6935TIP3    H120682   5.970   9.014   1.708
 6935TIP3    H220683   6.000   9.089   1.835
 6936TIP3   OH220684   6.480   8.769   1.593
 6936TIP3    H120685   6.546   8.698   1.587
 6936TIP3    H220686   6.439   8.764   1.504
 6937TIP3   OH220687   6.545   8.985   1.752
 6937TIP3    H120688   6.522   8.914   1.688
 6937TIP3    H220689   6.467   9.044   1.747
 6938TIP3   OH220690   5.693   9.165   1.725
 6938TIP3    H120691   5.790   9.155   1.716
 6938TIP3    H220692   5.670   9.077   1.761
 6939TIP3   OH220693   7.518   9.026   1.460
 6939TIP3    H120694   7.568   8.942   1.444
 6939TIP3    H220695   7.484   9.046   1.371
 6940TIP3   OH220696   5.660   8.845   1.051
 6940TIP3    H120697   5.721   8.769   1.059
 6940TIP3    H220698   5.725   8.917   1.040
 6941TIP3   OH220699   5.466   9.125   1.124
 6941TIP3    H120700   5.512   9.114   1.038
 6941TIP3    H220701   5.487   9.217   1.145
 6942TIP3   OH220702   5.668   8.706   1.439
 6942TIP3    H120703   5.615   8.697   1.520
 6942TIP3    H220704   5.601   8.741   1.377
 6943TIP3   OH220705   7.319   8.918   1.168
 6943TIP3    H120706   7.228   8.918   1.136
 6943TIP3    H220707   7.349   8.828   1.142
 6944TIP3   OH220708   5.753   8.543   0.808
 6944TIP3    H120709   5.663   8.505   0.793
 6944TIP3    H220710   5.807   8.464   0.790
 6945TIP3   OH220711   5.964   8.827   1.686
 6945TIP3    H120712   5.933   8.754   1.742
 6945TIP3    H220713   6.059   8.828   1.710
 6946TIP3   OH220714   6.214   8.824   1.803
 6946TIP3    H120715   6.298   8.797   1.763
 6946TIP3    H220716   6.201   8.753   1.870
 6947TIP3   OH220717   7.037   8.881   1.592
 6947TIP3    H120718   7.059   8.851   1.683
 6947TIP3    H220719   7.125   8.877   1.548
 6948TIP3   OH220720   1.775   0.217   6.065
 6948TIP3    H120721   1.838   0.169   6.121
 6948TIP3    H220722   1.786   0.307   6.103
 6949TIP3   OH220723   1.399   0.649   6.083
 6949TIP3    H120724   1.442   0.577   6.032
 6949TIP3    H220725   1.430   0.631   6.173
 6950TIP3   OH220726   1.812   0.437   6.228
 6950TIP3    H120727   1.741   0.449   6.292
 6950TIP3    H220728   1.830   0.530   6.202
 6951TIP3   OH220729   1.533   0.488   5.904
 6951TIP3    H120730   1.581   0.405   5.884
 6951TIP3    H220731   1.597   0.555   5.870
 6952TIP3   OH220732   1.648   0.250   5.815
 6952TIP3    H120733   1.683   0.186   5.749
 6952TIP3    H220734   1.711   0.241   5.889
 6953TIP3   OH220735   2.277  -0.011   6.413
 6953TIP3    H120736   2.191   0.010   6.451
 6953TIP3    H220737   2.268   0.018   6.321
 6954TIP3   OH220738   1.856   0.300   5.232
 6954TIP3    H120739   1.864   0.396   5.216
 6954TIP3    H220740   1.949   0.270   5.221
 6955TIP3   OH220741   2.297   0.709   6.619
 6955TIP3    H120742   2.297   0.611   6.627
 6955TIP3    H220743   2.215   0.728   6.671
 6956TIP3   OH220744   1.165   0.622   5.706
 6956TIP3    H120745   1.121   0.607   5.621
 6956TIP3    H220746   1.135   0.712   5.731
 6957TIP3   OH220747   1.370   0.517   5.357
 6957TIP3    H120748   1.431   0.450   5.318
 6957TIP3    H220749   1.405   0.524   5.448
 6958TIP3   OH220750   1.421   0.570   5.628
 6958TIP3    H120751   1.332   0.576   5.670
 6958TIP3    H220752   1.480   0.563   5.705
 6959TIP3   OH220753   1.985   1.053   6.725
 6959TIP3    H120754   1.986   1.074   6.630
 6959TIP3    H220755   2.065   1.099   6.756
 6960TIP3   OH220756   2.008   0.110   6.389
 6960TIP3    H120757   2.062   0.172   6.337
 6960TIP3    H220758   1.931   0.164   6.413
 6961TIP3   OH220759   2.311   0.435   6.654
 6961TIP3    H120760   2.253   0.370   6.699
 6961TIP3    H220761   2.332   0.385   6.573
 6962TIP3   OH220762   1.796   0.367   5.495
 6962TIP3    H120763   1.770   0.287   5.544
 6962TIP3    H220764   1.805   0.333   5.404
 6963TIP3   OH220765   1.575   0.107   5.393
 6963TIP3    H120766   1.603   0.072   5.479
 6963TIP3    H220767   1.477   0.099   5.400
 6964TIP3   OH220768   1.825   0.747   6.573
 6964TIP3    H120769   1.746   0.692   6.560
 6964TIP3    H220770   1.815   0.811   6.499
 6965TIP3   OH220771   1.889   0.574   5.219
 6965TIP3    H120772   1.928   0.646   5.167
 6965TIP3    H220773   1.808   0.620   5.250
 6966TIP3   OH220774   1.717   0.037   5.644
 6966TIP3    H120775   1.709  -0.053   5.679
 6966TIP3    H220776   1.810   0.034   5.612
 6967TIP3   OH220777   1.840   0.707   6.155
 6967TIP3    H120778   1.803   0.758   6.080
 6967TIP3    H220779   1.935   0.727   6.142
 6968TIP3   OH220780   1.802   0.596   6.879
 6968TIP3    H120781   1.740   0.559   6.942
 6968TIP3    H220782   1.844   0.667   6.930
 6969TIP3   OH220783   1.530   0.338   5.229
 6969TIP3    H120784   1.568   0.263   5.280
 6969TIP3    H220785   1.580   0.332   5.145
 6970TIP3   OH220786   1.891  -0.165   5.237
 6970TIP3    H120787   1.856  -0.215   5.161
 6970TIP3    H220788   1.846  -0.079   5.221
 6971TIP3   OH220789   2.091   0.808   6.115
 6971TIP3    H120790   2.120   0.837   6.203
 6971TIP3    H220791   2.155   0.852   6.057
 6972TIP3   OH220792   2.131   0.832   6.394
 6972TIP3    H120793   2.082   0.746   6.389
 6972TIP3    H220794   2.201   0.806   6.456
 6973TIP3   OH220795   2.190   0.497   6.962
 6973TIP3    H120796   2.112   0.498   7.021
 6973TIP3    H220797   2.220   0.589   6.969
 6974TIP3   OH220798   1.987   0.018   5.594
 6974TIP3    H120799   2.058   0.078   5.563
 6974TIP3    H220800   2.031  -0.026   5.670
 6975TIP3   OH220801   2.112  -0.114   5.802
 6975TIP3    H120802   2.046  -0.106   5.873
 6975TIP3    H220803   2.193  -0.077   5.844
 6976TIP3   OH220804   2.160   0.273   6.224
 6976TIP3    H120805   2.221   0.209   6.180
 6976TIP3    H220806   2.165   0.350   6.164
 6977TIP3   OH220807   2.005   0.593   6.406
 6977TIP3    H120808   1.952   0.604   6.486
 6977TIP3    H220809   1.974   0.508   6.371
 6978TIP3   OH220810   2.057  -0.207   5.441
 6978TIP3    H120811   1.992  -0.195   5.368
 6978TIP3    H220812   2.029  -0.135   5.500
 6979TIP3   OH220813   2.402  -0.071   6.894
 6979TIP3    H120814   2.333  -0.016   6.849
 6979TIP3    H220815   2.467  -0.078   6.824
 6980TIP3   OH220816   1.679   0.668   5.771
 6980TIP3    H120817   1.732   0.657   5.689
 6980TIP3    H220818   1.728   0.737   5.818
 6981TIP3   OH220819   1.577   0.922   6.684
 6981TIP3    H120820   1.635   0.846   6.668
 6981TIP3    H220821   1.626   0.966   6.756
 6982TIP3   OH220822   1.333   0.786   6.370
 6982TIP3    H120823   1.242   0.787   6.337
 6982TIP3    H220824   1.335   0.870   6.421
 6983TIP3   OH220825   1.581   0.706   6.427
 6983TIP3    H120826   1.491   0.736   6.404
 6983TIP3    H220827   1.633   0.783   6.398
 6984TIP3   OH220828   1.772   0.903   6.349
 6984TIP3    H120829   1.760   0.989   6.303
 6984TIP3    H220830   1.802   0.845   6.276
 6985TIP3   OH220831   1.109   0.499   5.433
 6985TIP3    H120832   1.202   0.524   5.413
 6985TIP3    H220833   1.103   0.421   5.375
 6986TIP3   OH220834   1.824   0.636   5.540
 6986TIP3    H120835   1.816   0.539   5.524
 6986TIP3    H220836   1.782   0.671   5.458
 6987TIP3   OH220837   2.054   0.785   6.733
 6987TIP3    H120838   1.973   0.746   6.694
 6987TIP3    H220839   2.030   0.879   6.731
 6988TIP3   OH220840   3.319   0.154   5.495
 6988TIP3    H120841   3.291   0.245   5.475
 6988TIP3    H220842   3.241   0.105   5.464
 6989TIP3   OH220843   3.320   0.153   5.872
 6989TIP3    H120844   3.344   0.121   5.960
 6989TIP3    H220845   3.274   0.076   5.836
 6990TIP3   OH220846   2.613   0.079   6.220
 6990TIP3    H120847   2.603   0.175   6.221
 6990TIP3    H220848   2.706   0.069   6.247
 6991TIP3   OH220849   3.564   0.452   5.556
 6991TIP3    H120850   3.544   0.385   5.622
 6991TIP3    H220851   3.586   0.529   5.610
 6992TIP3   OH220852   2.587   0.457   5.965
 6992TIP3    H120853   2.579   0.359   5.965
 6992TIP3    H220854   2.684   0.466   5.963
 6993TIP3   OH220855   2.287  -0.346   5.758
 6993TIP3    H120856   2.253  -0.256   5.773
 6993TIP3    H220857   2.211  -0.387   5.717
 6994TIP3   OH220858   2.358  -0.056   5.907
 6994TIP3    H120859   2.407  -0.127   5.954
 6994TIP3    H220860   2.428  -0.020   5.851
 6995TIP3   OH220861   3.207   0.918   5.571
 6995TIP3    H120862   3.256   0.846   5.524
 6995TIP3    H220863   3.201   0.883   5.660
 6996TIP3   OH220864   3.119   0.385   5.914
 6996TIP3    H120865   3.153   0.306   5.868
 6996TIP3    H220866   3.204   0.426   5.939
 6997TIP3   OH220867   3.534  -0.109   5.957
 6997TIP3    H120868   3.557  -0.197   5.986
 6997TIP3    H220869   3.499  -0.125   5.867
 6998TIP3   OH220870   2.503  -0.254   6.027
 6998TIP3    H120871   2.578  -0.282   6.084
 6998TIP3    H220872   2.521  -0.312   5.950
 6999TIP3   OH220873   2.948  -0.058   5.810
 6999TIP3    H120874   3.036  -0.094   5.834
 6999TIP3    H220875   2.899  -0.140   5.786
 7000TIP3   OH220876   4.178  -0.117   6.109
 7000TIP3    H120877   4.113  -0.048   6.086
 7000TIP3    H220878   4.225  -0.080   6.184
 7001TIP3   OH220879   3.212   0.375   5.366
 7001TIP3    H120880   3.169   0.351   5.283
 7001TIP3    H220881   3.169   0.460   5.387
 7002TIP3   OH220882   2.980   0.304   6.146
 7002TIP3    H120883   2.914   0.366   6.183
 7002TIP3    H220884   3.018   0.356   6.072
 7003TIP3   OH220885   2.738  -0.361   6.129
 7003TIP3    H120886   2.799  -0.288   6.153
 7003TIP3    H220887   2.778  -0.396   6.049
 7004TIP3   OH220888   2.797   0.488   6.245
 7004TIP3    H120889   2.771   0.574   6.208
 7004TIP3    H220890   2.721   0.473   6.305
 7005TIP3   OH220891   2.191   0.182   5.487
 7005TIP3    H120892   2.152   0.208   5.401
 7005TIP3    H220893   2.223   0.268   5.522
 7006TIP3   OH220894   3.634   0.697   5.726
 7006TIP3    H120895   3.545   0.689   5.765
 7006TIP3    H220896   3.626   0.783   5.680
 7007TIP3   OH220897   3.337   0.746   5.402
 7007TIP3    H120898   3.386   0.664   5.378
 7007TIP3    H220899   3.396   0.812   5.358
 7008TIP3   OH220900   3.476   0.530   5.305
 7008TIP3    H120901   3.439   0.452   5.262
 7008TIP3    H220902   3.511   0.492   5.388
 7009TIP3   OH220903   3.877   0.607   6.070
 7009TIP3    H120904   3.854   0.534   6.008
 7009TIP3    H220905   3.855   0.685   6.015
 7010TIP3   OH220906   3.149   0.005   5.324
 7010TIP3    H120907   3.068   0.054   5.303
 7010TIP3    H220908   3.193   0.002   5.237
 7011TIP3   OH220909   3.102  -0.208   5.045
 7011TIP3    H120910   3.179  -0.166   5.088
 7011TIP3    H220911   3.147  -0.279   4.995
 7012TIP3   OH220912   4.049   0.247   5.927
 7012TIP3    H120913   3.967   0.297   5.929
 7012TIP3    H220914   4.070   0.256   5.829
 7013TIP3   OH220915   3.496   0.087   5.298
 7013TIP3    H120916   3.441   0.113   5.375
 7013TIP3    H220917   3.579   0.060   5.342
 7014TIP3   OH220918   3.731   0.135   6.199
 7014TIP3    H120919   3.724   0.217   6.251
 7014TIP3    H220920   3.644   0.137   6.153
 7015TIP3   OH220921   2.731   0.087   5.711
 7015TIP3    H120922   2.688   0.028   5.646
 7015TIP3    H220923   2.807   0.031   5.739
 7016TIP3   OH220924   2.859   0.499   5.860
 7016TIP3    H120925   2.836   0.451   5.779
 7016TIP3    H220926   2.951   0.467   5.877
 7017TIP3   OH220927   2.868   0.055   6.051
 7017TIP3    H120928   2.905   0.041   5.962
 7017TIP3    H220929   2.912   0.137   6.082
 7018TIP3   OH220930   3.393   0.695   5.845
 7018TIP3    H120931   3.376   0.774   5.898
 7018TIP3    H220932   3.377   0.622   5.908
 7019TIP3   OH220933   3.000   0.615   6.389
 7019TIP3    H120934   2.940   0.677   6.435
 7019TIP3    H220935   2.935   0.560   6.342
 7020TIP3   OH220936   3.343  -0.064   5.125
 7020TIP3    H120937   3.400  -0.004   5.178
 7020TIP3    H220938   3.366  -0.036   5.033
 7021TIP3   OH220939   2.744   0.190   6.514
 7021TIP3    H120940   2.737   0.273   6.565
 7021TIP3    H220941   2.654   0.151   6.527
 7022TIP3   OH220942   3.079   0.627   5.398
 7022TIP3    H120943   3.156   0.683   5.420
 7022TIP3    H220944   3.017   0.691   5.360
 7023TIP3   OH220945   2.797   0.784   6.479
 7023TIP3    H120946   2.761   0.779   6.388
 7023TIP3    H220947   2.718   0.762   6.533
 7024TIP3   OH220948   2.594  -0.065   5.517
 7024TIP3    H120949   2.525  -0.029   5.459
 7024TIP3    H220950   2.565  -0.156   5.532
 7025TIP3   OH220951   3.656   0.559   4.720
 7025TIP3    H120952   3.673   0.648   4.684
 7025TIP3    H220953   3.747   0.525   4.710
 7026TIP3   OH220954   2.385   0.305   6.420
 7026TIP3    H120955   2.308   0.281   6.366
 7026TIP3    H220956   2.413   0.219   6.456
 7027TIP3   OH220957   2.229   0.504   6.059
 7027TIP3    H120958   2.325   0.498   6.050
 7027TIP3    H220959   2.220   0.583   6.115
 7028TIP3   OH220960   4.095   0.957   6.109
 7028TIP3    H120961   4.098   0.861   6.123
 7028TIP3    H220962   4.011   0.979   6.156
 7029TIP3   OH220963   3.202   0.742   6.248
 7029TIP3    H120964   3.202   0.835   6.280
 7029TIP3    H220965   3.129   0.704   6.302
 7030TIP3   OH220966   2.958   0.871   5.201
 7030TIP3    H120967   2.915   0.853   5.115
 7030TIP3    H220968   2.928   0.962   5.221
 7031TIP3   OH220969   2.398   0.722   5.583
 7031TIP3    H120970   2.448   0.712   5.667
 7031TIP3    H220971   2.338   0.646   5.589
 7032TIP3   OH220972   3.162   0.771   4.841
 7032TIP3    H120973   3.222   0.703   4.804
 7032TIP3    H220974   3.199   0.782   4.932
 7033TIP3   OH220975   3.211   0.821   5.112
 7033TIP3    H120976   3.124   0.829   5.156
 7033TIP3    H220977   3.264   0.779   5.182
 7034TIP3   OH220978   3.987   0.084   6.399
 7034TIP3    H120979   3.911   0.117   6.348
 7034TIP3    H220980   4.000  -0.004   6.362
 7035TIP3   OH220981   2.583   0.495   6.412
 7035TIP3    H120982   2.630   0.483   6.497
 7035TIP3    H220983   2.510   0.431   6.422
 7036TIP3   OH220984   3.666  -0.050   6.400
 7036TIP3    H120985   3.701  -0.139   6.385
 7036TIP3    H220986   3.678  -0.005   6.314
 7037TIP3   OH220987   3.416  -0.013   4.866
 7037TIP3    H120988   3.380  -0.033   4.778
 7037TIP3    H220989   3.489   0.047   4.843
 7038TIP3   OH220990   2.914  -0.172   6.210
 7038TIP3    H120991   2.886  -0.121   6.289
 7038TIP3    H220992   2.905  -0.098   6.146
 7039TIP3   OH220993   2.783  -0.257   5.723
 7039TIP3    H120994   2.707  -0.309   5.756
 7039TIP3    H220995   2.807  -0.307   5.642
 7040TIP3   OH220996   3.292  -0.190   5.455
 7040TIP3    H120997   3.237  -0.118   5.417
 7040TIP3    H220998   3.338  -0.223   5.376
 7041TIP3   OH220999   3.472   0.133   6.506
 7041TIP3    H121000   3.468   0.072   6.584
 7041TIP3    H221001   3.567   0.129   6.490
 7042TIP3   OH221002   3.451  -0.162   5.695
 7042TIP3    H121003   3.390  -0.130   5.625
 7042TIP3    H221004   3.477  -0.247   5.657
 7043TIP3   OH221005   2.722  -0.286   6.557
 7043TIP3    H121006   2.712  -0.214   6.621
 7043TIP3    H221007   2.645  -0.272   6.499
 7044TIP3   OH221008   3.465   0.087   6.128
 7044TIP3    H121009   3.488   0.015   6.065
 7044TIP3    H221010   3.429   0.035   6.203
 7045TIP3   OH221011   2.555  -0.405   5.800
 7045TIP3    H121012   2.461  -0.388   5.775
 7045TIP3    H221013   2.566  -0.498   5.778
 7046TIP3   OH221014   2.841  -0.388   5.489
 7046TIP3    H121015   2.930  -0.405   5.453
 7046TIP3    H221016   2.784  -0.391   5.410
 7047TIP3   OH221017   2.657  -0.369   5.267
 7047TIP3    H121018   2.593  -0.417   5.211
 7047TIP3    H221019   2.717  -0.333   5.198
 7048TIP3   OH221020   3.784   1.306   6.211
 7048TIP3    H121021   3.780   1.329   6.117
 7048TIP3    H221022   3.859   1.359   6.242
 7049TIP3   OH221023   2.739   0.433   6.640
 7049TIP3    H121024   2.819   0.458   6.690
 7049TIP3    H221025   2.673   0.428   6.712
 7050TIP3   OH221026   3.214  -0.125   5.899
 7050TIP3    H121027   3.265  -0.185   5.844
 7050TIP3    H221028   3.207  -0.175   5.983
 7051TIP3   OH221029   3.189  -0.234   6.176
 7051TIP3    H121030   3.098  -0.206   6.193
 7051TIP3    H221031   3.241  -0.182   6.241
 7052TIP3   OH221032   2.921   0.158   5.274
 7052TIP3    H121033   2.847   0.094   5.264
 7052TIP3    H221034   2.904   0.192   5.365
 7053TIP3   OH221035   3.821   0.392   5.907
 7053TIP3    H121036   3.844   0.441   5.824
 7053TIP3    H221037   3.734   0.352   5.884
 7054TIP3   OH221038   3.332   0.481   6.271
 7054TIP3    H121039   3.330   0.445   6.360
 7054TIP3    H221040   3.282   0.564   6.280
 7055TIP3   OH221041   3.439  -0.308   5.229
 7055TIP3    H121042   3.536  -0.296   5.243
 7055TIP3    H221043   3.417  -0.228   5.178
 7056TIP3   OH221044   2.612   0.179   5.946
 7056TIP3    H121045   2.653   0.151   5.862
 7056TIP3    H221046   2.655   0.117   6.009
 7057TIP3   OH221047   3.065   0.308   5.094
 7057TIP3    H121048   3.019   0.394   5.101
 7057TIP3    H221049   3.011   0.252   5.154
 7058TIP3   OH221050   2.493   0.091   6.564
 7058TIP3    H121051   2.486   0.105   6.660
 7058TIP3    H221052   2.408   0.046   6.545
 7059TIP3   OH221053   3.233   0.250   6.567
 7059TIP3    H121054   3.181   0.179   6.529
 7059TIP3    H221055   3.322   0.220   6.541
 7060TIP3   OH221056   3.483   0.738   6.165
 7060TIP3    H121057   3.387   0.732   6.176
 7060TIP3    H221058   3.508   0.788   6.245
 7061TIP3   OH221059   3.894  -0.197   5.075
 7061TIP3    H121060   3.835  -0.245   5.014
 7061TIP3    H221061   3.891  -0.109   5.032
 7062TIP3   OH221062   4.118   0.676   6.184
 7062TIP3    H121063   4.023   0.669   6.158
 7062TIP3    H221064   4.152   0.596   6.139
 7063TIP3   OH221065   3.587   0.625   4.983
 7063TIP3    H121066   3.568   0.548   5.038
 7063TIP3    H221067   3.609   0.587   4.896
 7064TIP3   OH221068   3.587   0.254   5.828
 7064TIP3    H121069   3.494   0.229   5.838
 7064TIP3    H221070   3.621   0.176   5.779
 7065TIP3   OH221071   2.712   0.482   5.574
 7065TIP3    H121072   2.715   0.564   5.521
 7065TIP3    H221073   2.617   0.469   5.583
 7066TIP3   OH221074   2.274  -0.214   5.272
 7066TIP3    H121075   2.323  -0.132   5.293
 7066TIP3    H221076   2.200  -0.208   5.337
 7067TIP3   OH221077   2.856   0.251   5.520
 7067TIP3    H121078   2.818   0.339   5.539
 7067TIP3    H221079   2.819   0.199   5.594
 7068TIP3   OH221080   2.981   0.828   6.045
 7068TIP3    H121081   3.021   0.901   5.994
 7068TIP3    H221082   3.058   0.795   6.094
 7069TIP3   OH221083   2.633   0.722   5.428
 7069TIP3    H121084   2.547   0.730   5.473
 7069TIP3    H221085   2.664   0.815   5.431
 7070TIP3   OH221086   3.373   0.462   6.002
 7070TIP3    H121087   3.365   0.462   6.100
 7070TIP3    H221088   3.450   0.405   5.989
 7071TIP3   OH221089   3.342   0.348   4.885
 7071TIP3    H121090   3.396   0.327   4.966
 7071TIP3    H221091   3.253   0.328   4.918
 7072TIP3   OH221092   3.621   0.997   6.053
 7072TIP3    H121093   3.542   0.940   6.046
 7072TIP3    H221094   3.605   1.061   5.981
 7073TIP3   OH221095   3.503   0.289   5.104
 7073TIP3    H121096   3.494   0.221   5.174
 7073TIP3    H221097   3.600   0.287   5.089
 7074TIP3   OH221098   2.421   0.690   6.204
 7074TIP3    H121099   2.472   0.614   6.237
 7074TIP3    H221100   2.444   0.757   6.269
 7075TIP3   OH221101   2.711   0.338   4.885
 7075TIP3    H121102   2.725   0.246   4.855
 7075TIP3    H221103   2.694   0.324   4.980
 7076TIP3   OH221104   2.657   0.340   5.158
 7076TIP3    H121105   2.727   0.312   5.218
 7076TIP3    H221106   2.662   0.438   5.164
 7077TIP3   OH221107   2.390   0.032   5.358
 7077TIP3    H121108   2.326   0.078   5.416
 7077TIP3    H221109   2.409   0.103   5.293
 7078TIP3   OH221110   2.922   0.537   5.106
 7078TIP3    H121111   2.836   0.567   5.141
 7078TIP3    H221112   2.940   0.608   5.042
 7079TIP3   OH221113   3.135  -0.407   5.518
 7079TIP3    H121114   3.176  -0.319   5.500
 7079TIP3    H221115   3.094  -0.392   5.604
 7080TIP3   OH221116   3.376  -0.086   6.334
 7080TIP3    H121117   3.377  -0.018   6.403
 7080TIP3    H221118   3.462  -0.129   6.348
 7081TIP3   OH221119   2.663   0.613   5.172
 7081TIP3    H121120   2.634   0.683   5.109
 7081TIP3    H221121   2.648   0.657   5.258
 7082TIP3   OH221122   3.671   0.019   5.694
 7082TIP3    H121123   3.598  -0.044   5.708
 7082TIP3    H221124   3.745  -0.026   5.742
 7083TIP3   OH221125   2.382   0.248   5.166
 7083TIP3    H121126   2.447   0.320   5.176
 7083TIP3    H221127   2.430   0.193   5.100
 7084TIP3   OH221128   2.315  -0.498   5.292
 7084TIP3    H121129   2.353  -0.409   5.289
 7084TIP3    H221130   2.224  -0.477   5.317
 7085TIP3   OH221131   3.640   0.969   5.647
 7085TIP3    H121132   3.596   1.016   5.572
 7085TIP3    H221133   3.734   0.988   5.625
 7086TIP3   OH221134   2.257   0.456   5.557
 7086TIP3    H121135   2.182   0.490   5.607
 7086TIP3    H221136   2.238   0.495   5.469
 7087TIP3   OH221137   2.408   0.995   6.624
 7087TIP3    H121138   2.495   0.991   6.670
 7087TIP3    H221139   2.384   0.901   6.622
 7088TIP3   OH221140   2.897   0.965   6.669
 7088TIP3    H121141   2.991   0.943   6.675
 7088TIP3    H221142   2.868   0.908   6.595
 7089TIP3   OH221143   2.875   0.541   4.799
 7089TIP3    H121144   2.819   0.469   4.837
 7089TIP3    H221145   2.950   0.489   4.765
 7090TIP3   OH221146   3.534   0.869   6.401
 7090TIP3    H121147   3.524   0.800   6.470
 7090TIP3    H221148   3.610   0.921   6.435
 7091TIP3   OH221149   3.309   0.581   4.707
 7091TIP3    H121150   3.363   0.524   4.766
 7091TIP3    H221151   3.365   0.586   4.627
 7092TIP3   OH221152   2.540   0.407   6.822
 7092TIP3    H121153   2.548   0.310   6.832
 7092TIP3    H221154   2.450   0.413   6.782
 7093TIP3   OH221155   2.519   0.058   5.019
 7093TIP3    H121156   2.574   0.023   5.091
 7093TIP3    H221157   2.586   0.066   4.949
 7094TIP3   OH221158   3.150   0.510   6.598
 7094TIP3    H121159   3.104   0.522   6.513
 7094TIP3    H221160   3.186   0.418   6.590
 7095TIP3   OH221161   3.024   0.254   4.825
 7095TIP3    H121162   3.028   0.268   4.921
 7095TIP3    H221163   3.024   0.156   4.821
 7096TIP3   OH221164   3.648   0.494   6.205
 7096TIP3    H121165   3.713   0.549   6.159
 7096TIP3    H221166   3.568   0.549   6.198
 7097TIP3   OH221167   2.645   0.132   6.815
 7097TIP3    H121168   2.722   0.081   6.785
 7097TIP3    H221169   2.676   0.164   6.902
 7098TIP3   OH221170   2.727  -0.040   5.242
 7098TIP3    H121171   2.703  -0.080   5.327
 7098TIP3    H221172   2.761  -0.117   5.192
 7099TIP3   OH221173   2.900   0.059   6.347
 7099TIP3    H121174   2.855   0.123   6.405
 7099TIP3    H221175   2.990   0.097   6.337
 7100TIP3   OH221176   2.825  -0.250   5.081
 7100TIP3    H121177   2.801  -0.245   4.987
 7100TIP3    H221178   2.922  -0.238   5.076
 7101TIP3   OH221179   3.516   0.430   6.610
 7101TIP3    H121180   3.588   0.399   6.554
 7101TIP3    H221181   3.510   0.359   6.676
 7102TIP3   OH221182   3.652   0.083   4.741
 7102TIP3    H121183   3.627   0.041   4.657
 7102TIP3    H221184   3.625   0.176   4.721
 7103TIP3   OH221185   3.172  -0.025   6.589
 7103TIP3    H121186   3.187  -0.110   6.646
 7103TIP3    H221187   3.080  -0.024   6.582
 7104TIP3   OH221188   3.158   0.148   6.279
 7104TIP3    H121189   3.234   0.139   6.220
 7104TIP3    H221190   3.102   0.213   6.231
 7105TIP3   OH221191   3.742   0.116   6.671
 7105TIP3    H121192   3.768   0.025   6.654
 7105TIP3    H221193   3.808   0.167   6.623
 7106TIP3   OH221194   3.771   0.349   6.396
 7106TIP3    H121195   3.713   0.404   6.337
 7106TIP3    H221196   3.858   0.373   6.358
 7107TIP3   OH221197   2.971  -0.053   6.825
 7107TIP3    H121198   2.892  -0.110   6.832
 7107TIP3    H221199   3.033  -0.112   6.782
 7108TIP3   OH221200   3.448  -0.038   6.708
 7108TIP3    H121201   3.405  -0.040   6.794
 7108TIP3    H221202   3.382  -0.085   6.653
 7109TIP3   OH221203   2.634   0.815   4.985
 7109TIP3    H121204   2.729   0.813   4.966
 7109TIP3    H221205   2.603   0.863   4.905
 7110TIP3   OH221206   2.116   0.198   5.205
 7110TIP3    H121207   2.210   0.221   5.190
 7110TIP3    H221208   2.111   0.110   5.163
 7111TIP3   OH221209   2.028   0.809   5.615
 7111TIP3    H121210   1.960   0.746   5.580
 7111TIP3    H221211   2.072   0.753   5.682
 7112TIP3   OH221212   2.164   0.663   5.802
 7112TIP3    H121213   2.158   0.588   5.864
 7112TIP3    H221214   2.214   0.726   5.858
 7113TIP3   OH221215   3.893   1.058   5.601
 7113TIP3    H121216   3.918   1.095   5.687
 7113TIP3    H221217   3.949   1.107   5.539
 7114TIP3   OH221218   3.922   1.081   5.884
 7114TIP3    H121219   3.879   0.994   5.878
 7114TIP3    H221220   3.997   1.059   5.941
 7115TIP3   OH221221   3.969   0.756   6.463
 7115TIP3    H121222   3.893   0.767   6.524
 7115TIP3    H221223   4.007   0.846   6.462
 7116TIP3   OH221224   3.783   0.269   5.076
 7116TIP3    H121225   3.849   0.335   5.046
 7116TIP3    H221226   3.828   0.232   5.155
 7117TIP3   OH221227   3.914   0.136   5.279
 7117TIP3    H121228   3.846   0.095   5.336
 7117TIP3    H221229   3.972   0.181   5.345
 7118TIP3   OH221230   3.960   0.529   5.713
 7118TIP3    H121231   4.005   0.469   5.648
 7118TIP3    H221232   3.949   0.609   5.659
 7119TIP3   OH221233   3.799   0.825   5.915
 7119TIP3    H121234   3.728   0.872   5.963
 7119TIP3    H221235   3.748   0.779   5.844
 7120TIP3   OH221236   3.847   0.042   4.928
 7120TIP3    H121237   3.778   0.053   4.858
 7120TIP3    H221238   3.825   0.120   4.983
 7121TIP3   OH221239   3.730  -0.289   4.875
 7121TIP3    H121240   3.687  -0.214   4.831
 7121TIP3    H221241   3.684  -0.363   4.835
 7122TIP3   OH221242   3.730  -0.005   5.429
 7122TIP3    H121243   3.733  -0.101   5.430
 7122TIP3    H221244   3.713   0.015   5.524
 7123TIP3   OH221245   2.342   0.076   6.154
 7123TIP3    H121246   2.346   0.043   6.062
 7123TIP3    H221247   2.434   0.060   6.184
 7124TIP3   OH221248   4.011   0.410   6.285
 7124TIP3    H121249   4.088   0.354   6.267
 7124TIP3    H221250   3.993   0.453   6.199
 7125TIP3   OH221251   4.207   0.215   6.304
 7125TIP3    H121252   4.134   0.167   6.351
 7125TIP3    H221253   4.284   0.163   6.331
 7126TIP3   OH221254   3.708  -0.289   5.275
 7126TIP3    H121255   3.755  -0.326   5.354
 7126TIP3    H221256   3.782  -0.252   5.223
 7127TIP3   OH221257   3.889  -0.083   5.822
 7127TIP3    H121258   3.980  -0.076   5.784
 7127TIP3    H221259   3.907  -0.065   5.915
 7128TIP3   OH221260   3.950   0.034   6.071
 7128TIP3    H121261   3.867   0.076   6.101
 7128TIP3    H221262   3.987   0.106   6.014
 7129TIP3   OH221263   2.358  -0.292   6.264
 7129TIP3    H121264   2.399  -0.274   6.177
 7129TIP3    H221265   2.346  -0.205   6.303
 7130TIP3   OH221266   3.477   0.927   5.258
 7130TIP3    H121267   3.524   0.909   5.174
 7130TIP3    H221268   3.533   0.996   5.297
 7131TIP3   OH221269   2.577   0.732   6.646
 7131TIP3    H121270   2.486   0.703   6.625
 7131TIP3    H221271   2.584   0.709   6.739
 7132TIP3   OH221272   2.755   0.760   6.193
 7132TIP3    H121273   2.705   0.835   6.155
 7132TIP3    H221274   2.840   0.776   6.148
 7133TIP3   OH221275   3.203   1.008   6.330
 7133TIP3    H121276   3.243   1.011   6.419
 7133TIP3    H221277   3.268   1.059   6.278
 7134TIP3   OH221278   3.380   1.159   6.188
 7134TIP3    H121279   3.452   1.108   6.147
 7134TIP3    H221280   3.431   1.217   6.249
 7135TIP3   OH221281   2.433   1.022   6.214
 7135TIP3    H121282   2.344   1.057   6.191
 7135TIP3    H221283   2.440   1.051   6.305
 7136TIP3   OH221284   2.669   0.999   6.072
 7136TIP3    H121285   2.583   1.013   6.119
 7136TIP3    H221286   2.648   1.033   5.983
 7137TIP3   OH221287   3.095   1.030   5.870
 7137TIP3    H121288   3.026   1.051   5.805
 7137TIP3    H221289   3.107   1.117   5.913
 7138TIP3   OH221290   3.363   0.970   5.921
 7138TIP3    H121291   3.268   0.985   5.903
 7138TIP3    H221292   3.403   1.048   5.880
 7139TIP3   OH221293   3.574   1.163   5.839
 7139TIP3    H121294   3.558   1.247   5.791
 7139TIP3    H221295   3.596   1.102   5.765
 7140TIP3   OH221296   2.343   0.815   5.961
 7140TIP3    H121297   2.370   0.790   6.052
 7140TIP3    H221298   2.415   0.772   5.911
 7141TIP3   OH221299   2.536   0.686   5.816
 7141TIP3    H121300   2.552   0.602   5.865
 7141TIP3    H221301   2.626   0.724   5.812
 7142TIP3   OH221302   2.802   0.782   5.818
 7142TIP3    H121303   2.834   0.691   5.806
 7142TIP3    H221304   2.844   0.803   5.904
 7143TIP3   OH221305   2.131   0.585   5.355
 7143TIP3    H121306   2.047   0.553   5.318
 7143TIP3    H221307   2.120   0.680   5.338
 7144TIP3   OH221308   2.903   0.778   4.934
 7144TIP3    H121309   2.992   0.799   4.899
 7144TIP3    H221310   2.881   0.703   4.875
 7145TIP3   OH221311   3.623   0.891   5.025
 7145TIP3    H121312   3.612   0.794   5.010
 7145TIP3    H221313   3.583   0.926   4.942
 7146TIP3   OH221314   2.207   0.613   4.992
 7146TIP3    H121315   2.208   0.641   5.085
 7146TIP3    H221316   2.296   0.572   4.982
 7147TIP3   OH221317   3.849   1.037   6.216
 7147TIP3    H121318   3.770   1.005   6.168
 7147TIP3    H221319   3.830   1.133   6.217
 7148TIP3   OH221320   5.115   0.411   4.982
 7148TIP3    H121321   5.086   0.503   4.961
 7148TIP3    H221322   5.038   0.362   4.948
 7149TIP3   OH221323   5.116   0.410   5.359
 7149TIP3    H121324   5.140   0.374   5.446
 7149TIP3    H221325   5.071   0.335   5.319
 7150TIP3   OH221326   4.427   0.303   5.666
 7150TIP3    H121327   4.382   0.350   5.574
 7150TIP3    H221328   4.512   0.311   5.646
 7151TIP3   OH221329   5.359   0.710   5.041
 7151TIP3    H121330   5.340   0.641   5.106
 7151TIP3    H221331   5.382   0.786   5.097
 7152TIP3   OH221332   4.394   0.734   5.461
 7152TIP3    H121333   4.385   0.635   5.455
 7152TIP3    H221334   4.487   0.743   5.448
 7153TIP3   OH221335   4.085  -0.089   5.246
 7153TIP3    H121336   4.035  -0.005   5.257
 7153TIP3    H221337   4.023  -0.137   5.188
 7154TIP3   OH221338   4.168   0.209   5.405
 7154TIP3    H121339   4.208   0.128   5.438
 7154TIP3    H221340   4.204   0.215   5.315
 7155TIP3   OH221341   5.005   1.176   5.058
 7155TIP3    H121342   5.053   1.104   5.011
 7155TIP3    H221343   4.996   1.138   5.146
 7156TIP3   OH221344   4.911   0.636   5.410
 7156TIP3    H121345   4.945   0.560   5.359
 7156TIP3    H221346   4.998   0.679   5.433
 7157TIP3   OH221347   5.327   0.146   5.444
 7157TIP3    H121348   5.357   0.057   5.467
 7157TIP3    H221349   5.294   0.133   5.353
 7158TIP3   OH221350   4.295  -0.006   5.516
 7158TIP3    H121351   4.375  -0.029   5.567
 7158TIP3    H221352   4.310  -0.061   5.438
 7159TIP3   OH221353   4.738   0.197   5.315
 7159TIP3    H121354   4.831   0.163   5.326
 7159TIP3    H221355   4.693   0.113   5.282
 7160TIP3   OH221356   5.973   0.139   5.595
 7160TIP3    H121357   5.910   0.210   5.571
 7160TIP3    H221358   6.026   0.180   5.665
 7161TIP3   OH221359   5.012   0.634   4.850
 7161TIP3    H121360   4.963   0.606   4.770
 7161TIP3    H221361   4.965   0.717   4.872
 7162TIP3   OH221362   4.770   0.550   5.643
 7162TIP3    H121363   4.704   0.613   5.680
 7162TIP3    H221364   4.807   0.602   5.569
 7163TIP3   OH221365   4.538  -0.087   5.613
 7163TIP3    H121366   4.614  -0.029   5.615
 7163TIP3    H221367   4.562  -0.150   5.544
 7164TIP3   OH221368   4.593   0.746   5.735
 7164TIP3    H121369   4.566   0.832   5.694
 7164TIP3    H221370   4.513   0.733   5.792
 7165TIP3   OH221371   3.988   0.435   4.981
 7165TIP3    H121372   3.953   0.445   4.890
 7165TIP3    H221373   4.013   0.527   5.004
 7166TIP3   OH221374   5.430   0.954   5.214
 7166TIP3    H121375   5.340   0.945   5.253
 7166TIP3    H221376   5.421   1.039   5.166
 7167TIP3   OH221377   5.135   1.002   4.891
 7167TIP3    H121378   5.183   0.920   4.866
 7167TIP3    H221379   5.192   1.068   4.845
 7168TIP3   OH221380   5.274   0.787   4.789
 7168TIP3    H121381   5.228   0.710   4.752
 7168TIP3    H221382   5.309   0.751   4.873
 7169TIP3   OH221383   5.656   0.869   5.555
 7169TIP3    H121384   5.643   0.792   5.495
 7169TIP3    H221385   5.636   0.944   5.494
 7170TIP3   OH221386   4.947   0.262   4.812
 7170TIP3    H121387   4.864   0.311   4.792
 7170TIP3    H221388   4.988   0.257   4.724
 7171TIP3   OH221389   4.898   0.048   4.533
 7171TIP3    H121390   4.976   0.090   4.574
 7171TIP3    H221391   4.943  -0.022   4.482
 7172TIP3   OH221392   5.849   0.503   5.400
 7172TIP3    H121393   5.765   0.555   5.406
 7172TIP3    H221394   5.875   0.525   5.308
 7173TIP3   OH221395   5.292   0.346   4.785
 7173TIP3    H121396   5.237   0.371   4.862
 7173TIP3    H221397   5.374   0.317   4.829
 7174TIP3   OH221398   5.527   0.392   5.686
 7174TIP3    H121399   5.522   0.478   5.731
 7174TIP3    H221400   5.440   0.393   5.639
 7175TIP3   OH221401   4.540   0.336   5.176
 7175TIP3    H121402   4.491   0.274   5.112
 7175TIP3    H221403   4.608   0.281   5.210
 7176TIP3   OH221404   4.653   0.750   5.351
 7176TIP3    H121405   4.633   0.714   5.263
 7176TIP3    H221406   4.742   0.717   5.368
 7177TIP3   OH221407   4.672   0.302   5.563
 7177TIP3    H121408   4.692   0.284   5.480
 7177TIP3    H221409   4.711   0.390   5.583
 7178TIP3   OH221410   5.189   0.951   5.332
 7178TIP3    H121411   5.171   1.031   5.386
 7178TIP3    H221412   5.173   0.878   5.394
 7179TIP3   OH221413   4.796   0.872   5.876
 7179TIP3    H121414   4.735   0.934   5.922
 7179TIP3    H221415   4.732   0.817   5.828
 7180TIP3   OH221416   5.140   0.192   4.612
 7180TIP3    H121417   5.196   0.253   4.665
 7180TIP3    H221418   5.163   0.219   4.520
 7181TIP3   OH221419   4.611   0.459   6.013
 7181TIP3    H121420   4.576   0.543   6.038
 7181TIP3    H221421   4.537   0.394   6.016
 7182TIP3   OH221422   4.877   0.882   4.887
 7182TIP3    H121423   4.950   0.942   4.908
 7182TIP3    H221424   4.813   0.940   4.843
 7183TIP3   OH221425   4.593   1.042   5.965
 7183TIP3    H121426   4.559   1.038   5.874
 7183TIP3    H221427   4.513   1.019   6.018
 7184TIP3   OH221428   4.384   0.185   5.006
 7184TIP3    H121429   4.318   0.228   4.947
 7184TIP3    H221430   4.354   0.094   5.008
 7185TIP3   OH221431   5.446   0.812   4.205
 7185TIP3    H121432   5.454   0.909   4.192
 7185TIP3    H221433   5.539   0.783   4.193
 7186TIP3   OH221434   4.167   0.588   5.898
 7186TIP3    H121435   4.088   0.566   5.841
 7186TIP3    H221436   4.185   0.504   5.942
 7187TIP3   OH221437   4.028   0.760   5.551
 7187TIP3    H121438   4.124   0.768   5.539
 7187TIP3    H221439   4.008   0.841   5.598
 7188TIP3   OH221440   5.891   1.212   5.600
 7188TIP3    H121441   5.888   1.116   5.611
 7188TIP3    H221442   5.807   1.237   5.645
 7189TIP3   OH221443   4.998   0.999   5.735
 7189TIP3    H121444   4.998   1.092   5.767
 7189TIP3    H221445   4.925   0.961   5.788
 7190TIP3   OH221446   4.759   1.131   4.685
 7190TIP3    H121447   4.709   1.106   4.605
 7190TIP3    H221448   4.723   1.218   4.708
 7191TIP3   OH221449   4.196   0.979   5.068
 7191TIP3    H121450   4.244   0.969   5.153
 7191TIP3    H221451   4.126   0.912   5.080
 7192TIP3   OH221452   4.962   1.032   4.327
 7192TIP3    H121453   5.019   0.960   4.291
 7192TIP3    H221454   4.993   1.038   4.420
 7193TIP3   OH221455   5.010   1.077   4.598
 7193TIP3    H121456   4.920   1.088   4.637
 7193TIP3    H221457   5.055   1.031   4.669
 7194TIP3   OH221458   5.785   0.340   5.886
 7194TIP3    H121459   5.709   0.373   5.834
 7194TIP3    H221460   5.799   0.253   5.848
 7195TIP3   OH221461   4.372   0.764   5.903
 7195TIP3    H121462   4.421   0.747   5.986
 7195TIP3    H221463   4.303   0.698   5.904
 7196TIP3   OH221464   5.471   0.213   5.896
 7196TIP3    H121465   5.487   0.119   5.875
 7196TIP3    H221466   5.473   0.255   5.809
 7197TIP3   OH221467   5.214   0.245   4.355
 7197TIP3    H121468   5.176   0.223   4.268
 7197TIP3    H221469   5.286   0.305   4.329
 7198TIP3   OH221470   4.727   0.088   5.733
 7198TIP3    H121471   4.639   0.095   5.775
 7198TIP3    H221472   4.721   0.165   5.669
 7199TIP3   OH221473   4.581  -0.002   5.212
 7199TIP3    H121474   4.503  -0.053   5.241
 7199TIP3    H221475   4.603  -0.048   5.128
 7200TIP3   OH221476   5.089   0.068   4.943
 7200TIP3    H121477   5.034   0.139   4.903
 7200TIP3    H221478   5.134   0.033   4.863
 7201TIP3   OH221479   5.266   0.388   5.996
 7201TIP3    H121480   5.261   0.328   6.074
 7201TIP3    H221481   5.358   0.371   5.968
 7202TIP3   OH221482   5.247   0.096   5.181
 7202TIP3    H121483   5.187   0.126   5.111
 7202TIP3    H221484   5.273   0.010   5.145
 7203TIP3   OH221485   4.477   0.218   5.917
 7203TIP3    H121486   4.475   0.262   5.829
 7203TIP3    H221487   4.384   0.193   5.930
 7204TIP3   OH221488   5.262   0.342   5.615
 7204TIP3    H121489   5.285   0.270   5.553
 7204TIP3    H221490   5.219   0.292   5.687
 7205TIP3   OH221491   4.350  -0.148   5.287
 7205TIP3    H121492   4.255  -0.131   5.263
 7205TIP3    H221493   4.358  -0.242   5.265
 7206TIP3   OH221494   4.639  -0.126   4.974
 7206TIP3    H121495   4.724  -0.150   4.935
 7206TIP3    H221496   4.578  -0.132   4.898
 7207TIP3   OH221497   4.456  -0.114   4.756
 7207TIP3    H121498   4.391  -0.162   4.701
 7207TIP3    H221499   4.514  -0.078   4.686
 7208TIP3   OH221500   5.580   1.563   5.698
 7208TIP3    H121501   5.577   1.586   5.603
 7208TIP3    H221502   5.657   1.614   5.728
 7209TIP3   OH221503   4.529   0.700   6.129
 7209TIP3    H121504   4.617   0.721   6.174
 7209TIP3    H221505   4.471   0.698   6.205
 7210TIP3   OH221506   5.010   0.132   5.385
 7210TIP3    H121507   5.063   0.071   5.330
 7210TIP3    H221508   5.008   0.084   5.471
 7211TIP3   OH221509   4.999   0.026   5.653
 7211TIP3    H121510   4.908   0.047   5.682
 7211TIP3    H221511   5.053   0.071   5.721
 7212TIP3   OH221512   4.721   0.413   4.762
 7212TIP3    H121513   4.646   0.350   4.750
 7212TIP3    H221514   4.701   0.450   4.851
 7213TIP3   OH221515   5.618   0.649   5.393
 7213TIP3    H121516   5.641   0.699   5.311
 7213TIP3    H221517   5.532   0.608   5.368
 7214TIP3   OH221518   5.129   0.739   5.758
 7214TIP3    H121519   5.122   0.700   5.846
 7214TIP3    H221520   5.077   0.820   5.766
 7215TIP3   OH221521   5.235  -0.051   4.719
 7215TIP3    H121522   5.332  -0.039   4.731
 7215TIP3    H221523   5.212   0.027   4.665
 7216TIP3   OH221524   4.417   0.448   5.398
 7216TIP3    H121525   4.454   0.419   5.315
 7216TIP3    H221526   4.347   0.384   5.411
 7217TIP3   OH221527   4.862   0.566   4.583
 7217TIP3    H121528   4.815   0.652   4.590
 7217TIP3    H221529   4.807   0.510   4.641
 7218TIP3   OH221530   4.246   0.392   6.077
 7218TIP3    H121531   4.293   0.360   6.151
 7218TIP3    H221532   4.194   0.312   6.046
 7219TIP3   OH221533   5.026   0.517   6.049
 7219TIP3    H121534   4.968   0.459   5.993
 7219TIP3    H221535   5.112   0.473   6.027
 7220TIP3   OH221536   5.279   0.996   5.651
 7220TIP3    H121537   5.183   0.987   5.663
 7220TIP3    H221538   5.304   1.046   5.732
 7221TIP3   OH221539   5.691   0.060   4.561
 7221TIP3    H121540   5.631   0.011   4.500
 7221TIP3    H221541   5.687   0.148   4.519
 7222TIP3   OH221542   5.905   0.919   5.644
 7222TIP3    H121543   5.807   0.915   5.635
 7222TIP3    H221544   5.931   0.891   5.554
 7223TIP3   OH221545   5.390   0.883   4.471
 7223TIP3    H121546   5.360   0.814   4.532
 7223TIP3    H221547   5.398   0.836   4.386
 7224TIP3   OH221548   5.383   0.511   5.315
 7224TIP3    H121549   5.290   0.485   5.325
 7224TIP3    H221550   5.417   0.433   5.266
 7225TIP3   OH221551   4.507   0.740   5.067
 7225TIP3    H121552   4.512   0.822   5.012
 7225TIP3    H221553   4.411   0.724   5.064
 7226TIP3   OH221554   4.074   0.041   4.765
 7226TIP3    H121555   4.120   0.126   4.778
 7226TIP3    H221556   3.996   0.053   4.822
 7227TIP3   OH221557   4.656   0.515   5.004
 7227TIP3    H121558   4.614   0.600   5.028
 7227TIP3    H221559   4.623   0.456   5.071
 7228TIP3   OH221560   4.777   1.084   5.532
 7228TIP3    H121561   4.817   1.157   5.480
 7228TIP3    H221562   4.855   1.051   5.580
 7229TIP3   OH221563   4.433   0.977   4.918
 7229TIP3    H121564   4.344   0.985   4.959
 7229TIP3    H221565   4.461   1.071   4.917
 7230TIP3   OH221566   5.170   0.719   5.489
 7230TIP3    H121567   5.162   0.718   5.587
 7230TIP3    H221568   5.246   0.661   5.474
 7231TIP3   OH221569   5.139   0.609   4.370
 7231TIP3    H121570   5.189   0.585   4.451
 7231TIP3    H221571   5.049   0.584   4.397
 7232TIP3   OH221572   5.417   1.254   5.541
 7232TIP3    H121573   5.339   1.196   5.534
 7232TIP3    H221574   5.400   1.318   5.468
 7233TIP3   OH221575   5.481   1.087   4.192
 7233TIP3    H121576   5.517   1.159   4.137
 7233TIP3    H221577   5.401   1.132   4.226
 7234TIP3   OH221578   5.300   0.545   4.588
 7234TIP3    H121579   5.289   0.479   4.659
 7234TIP3    H221580   5.397   0.543   4.577
 7235TIP3   OH221581   4.219   0.948   5.691
 7235TIP3    H121582   4.266   0.870   5.723
 7235TIP3    H221583   4.246   1.014   5.756
 7236TIP3   OH221584   4.512   0.593   4.368
 7236TIP3    H121585   4.520   0.500   4.340
 7236TIP3    H221586   4.496   0.583   4.464
 7237TIP3   OH221587   4.468   0.596   4.635
 7237TIP3    H121588   4.519   0.569   4.712
 7237TIP3    H221589   4.461   0.693   4.648
 7238TIP3   OH221590   4.188   0.290   4.846
 7238TIP3    H121591   4.121   0.335   4.902
 7238TIP3    H221592   4.199   0.359   4.777
 7239TIP3   OH221593   4.723   0.799   4.595
 7239TIP3    H121594   4.634   0.821   4.629
 7239TIP3    H221595   4.732   0.864   4.525
 7240TIP3   OH221596   4.934  -0.151   5.005
 7240TIP3    H121597   4.973  -0.063   4.985
 7240TIP3    H221598   4.887  -0.134   5.088
 7241TIP3   OH221599   5.173   0.166   5.821
 7241TIP3    H121600   5.167   0.237   5.889
 7241TIP3    H221601   5.259   0.126   5.841
 7242TIP3   OH221602   4.463   0.869   4.659
 7242TIP3    H121603   4.430   0.936   4.595
 7242TIP3    H221604   4.443   0.913   4.744
 7243TIP3   OH221605   5.467   0.276   5.181
 7243TIP3    H121606   5.395   0.212   5.193
 7243TIP3    H221607   5.541   0.231   5.229
 7244TIP3   OH221608   4.182   0.500   4.665
 7244TIP3    H121609   4.204   0.593   4.650
 7244TIP3    H221610   4.230   0.457   4.592
 7245TIP3   OH221611   4.107  -0.245   4.779
 7245TIP3    H121612   4.143  -0.154   4.777
 7245TIP3    H221613   4.016  -0.227   4.805
 7246TIP3   OH221614   5.436   1.227   5.134
 7246TIP3    H121615   5.392   1.273   5.059
 7246TIP3    H221616   5.530   1.245   5.112
 7247TIP3   OH221617   4.048   0.718   5.038
 7247TIP3    H121618   3.965   0.755   5.069
 7247TIP3    H221619   4.054   0.751   4.948
 7248TIP3   OH221620   4.205   1.253   6.112
 7248TIP3    H121621   4.292   1.249   6.157
 7248TIP3    H221622   4.182   1.158   6.107
 7249TIP3   OH221623   4.694   1.222   6.157
 7249TIP3    H121624   4.788   1.198   6.160
 7249TIP3    H221625   4.664   1.165   6.082
 7250TIP3   OH221626   4.673   0.797   4.287
 7250TIP3    H121627   4.612   0.728   4.323
 7250TIP3    H221628   4.745   0.741   4.253
 7251TIP3   OH221629   5.328   1.128   5.889
 7251TIP3    H121630   5.319   1.057   5.957
 7251TIP3    H221631   5.406   1.178   5.921
 7252TIP3   OH221632   5.109   0.839   4.196
 7252TIP3    H121633   5.152   0.773   4.253
 7252TIP3    H221634   5.164   0.838   4.115
 7253TIP3   OH221635   4.347   0.664   6.329
 7253TIP3    H121636   4.357   0.569   6.322
 7253TIP3    H221637   4.257   0.678   6.290
 7254TIP3   OH221638   4.316   0.314   4.502
 7254TIP3    H121639   4.369   0.283   4.577
 7254TIP3    H221640   4.385   0.323   4.433
 7255TIP3   OH221641   4.945   0.769   6.086
 7255TIP3    H121642   4.897   0.781   6.001
 7255TIP3    H221643   4.981   0.679   6.076
 7256TIP3   OH221644   4.828   0.513   4.312
 7256TIP3    H121645   4.823   0.526   4.408
 7256TIP3    H221646   4.823   0.415   4.307
 7257TIP3   OH221647   5.443   0.750   5.695
 7257TIP3    H121648   5.510   0.801   5.647
 7257TIP3    H221649   5.364   0.807   5.685
 7258TIP3   OH221650   4.454   0.391   6.293
 7258TIP3    H121651   4.527   0.329   6.278
 7258TIP3    H221652   4.480   0.425   6.383
 7259TIP3   OH221653   4.529   0.216   4.732
 7259TIP3    H121654   4.497   0.173   4.813
 7259TIP3    H221655   4.559   0.140   4.679
 7260TIP3   OH221656   4.760   0.132   6.021
 7260TIP3    H121657   4.681   0.185   6.045
 7260TIP3    H221658   4.761   0.146   5.925
 7261TIP3   OH221659   4.620   0.007   4.568
 7261TIP3    H121660   4.595   0.012   4.473
 7261TIP3    H221661   4.717   0.020   4.561
 7262TIP3   OH221662   5.314   0.688   6.099
 7262TIP3    H121663   5.381   0.657   6.037
 7262TIP3    H221664   5.306   0.613   6.161
 7263TIP3   OH221665   5.451   0.341   4.227
 7263TIP3    H121666   5.425   0.296   4.144
 7263TIP3    H221667   5.419   0.432   4.205
 7264TIP3   OH221668   5.004   0.231   6.096
 7264TIP3    H121669   5.000   0.157   6.151
 7264TIP3    H221670   4.912   0.232   6.056
 7265TIP3   OH221671   4.964   0.401   5.771
 7265TIP3    H121672   5.024   0.402   5.697
 7265TIP3    H221673   4.890   0.453   5.738
 7266TIP3   OH221674   5.559   0.361   6.171
 7266TIP3    H121675   5.554   0.280   6.119
 7266TIP3    H221676   5.599   0.423   6.108
 7267TIP3   OH221677   5.572   0.608   5.883
 7267TIP3    H121678   5.512   0.661   5.825
 7267TIP3    H221679   5.658   0.631   5.841
 7268TIP3   OH221680   4.774   0.196   6.321
 7268TIP3    H121681   4.695   0.139   6.326
 7268TIP3    H221682   4.816   0.157   6.243
 7269TIP3   OH221683   5.258   0.210   6.195
 7269TIP3    H121684   5.211   0.216   6.280
 7269TIP3    H221685   5.188   0.174   6.139
 7270TIP3   OH221686   4.434   1.078   4.478
 7270TIP3    H121687   4.527   1.075   4.450
 7270TIP3    H221688   4.393   1.114   4.397
 7271TIP3   OH221689   3.913   0.426   4.719
 7271TIP3    H121690   3.982   0.484   4.680
 7271TIP3    H221691   3.909   0.355   4.652
 7272TIP3   OH221692   3.818   1.068   5.106
 7272TIP3    H121693   3.754   1.005   5.065
 7272TIP3    H221694   3.865   1.009   5.169
 7273TIP3   OH221695   3.964   0.921   5.285
 7273TIP3    H121696   3.948   0.845   5.344
 7273TIP3    H221697   4.011   0.981   5.344
 7274TIP3   OH221698   5.688   1.318   5.087
 7274TIP3    H121699   5.715   1.352   5.174
 7274TIP3    H221700   5.747   1.365   5.027
 7275TIP3   OH221701   5.719   1.340   5.370
 7275TIP3    H121702   5.674   1.252   5.364
 7275TIP3    H221703   5.794   1.316   5.426
 7276TIP3   OH221704   5.768   1.013   5.946
 7276TIP3    H121705   5.691   1.023   6.006
 7276TIP3    H221706   5.806   1.103   5.947
 7277TIP3   OH221707   5.582   0.527   4.562
 7277TIP3    H121708   5.650   0.592   4.536
 7277TIP3    H221709   5.622   0.487   4.643
 7278TIP3   OH221710   5.709   0.394   4.766
 7278TIP3    H121711   5.642   0.352   4.825
 7278TIP3    H221712   5.771   0.434   4.829
 7279TIP3   OH221713   5.763   0.788   5.203
 7279TIP3    H121714   5.811   0.724   5.148
 7279TIP3    H221715   5.750   0.863   5.141
 7280TIP3   OH221716   5.595   1.088   5.397
 7280TIP3    H121717   5.523   1.130   5.447
 7280TIP3    H221718   5.545   1.040   5.327
 7281TIP3   OH221719   5.645   0.300   4.414
 7281TIP3    H121720   5.575   0.309   4.346
 7281TIP3    H221721   5.621   0.376   4.471
 7282TIP3   OH221722   5.529  -0.031   4.359
 7282TIP3    H121723   5.482   0.041   4.315
 7282TIP3    H221724   5.480  -0.108   4.328
 7283TIP3   OH221725   5.525   0.251   4.916
 7283TIP3    H121726   5.529   0.155   4.917
 7283TIP3    H221727   5.509   0.271   5.011
 7284TIP3   OH221728   4.131   0.278   5.667
 7284TIP3    H121729   4.121   0.258   5.571
 7284TIP3    H221730   4.230   0.280   5.675
 7285TIP3   OH221731   5.815   0.672   5.773
 7285TIP3    H121732   5.889   0.609   5.760
 7285TIP3    H221733   5.835   0.742   5.709
 7286TIP3   OH221734   6.003   0.474   5.793
 7286TIP3    H121735   5.933   0.422   5.837
 7286TIP3    H221736   6.082   0.420   5.810
 7287TIP3   OH221737   5.506  -0.031   4.762
 7287TIP3    H121738   5.551  -0.069   4.841
 7287TIP3    H221739   5.580   0.005   4.710
 7288TIP3   OH221740   5.687   0.175   5.308
 7288TIP3    H121741   5.776   0.183   5.270
 7288TIP3    H221742   5.705   0.193   5.401
 7289TIP3   OH221743   5.749   0.295   5.556
 7289TIP3    H121744   5.665   0.336   5.586
 7289TIP3    H221745   5.783   0.366   5.496
 7290TIP3   OH221746   4.143  -0.021   5.746
 7290TIP3    H121747   4.188  -0.040   5.661
 7290TIP3    H221748   4.149   0.076   5.747
 7291TIP3   OH221749   5.275   1.183   4.747
 7291TIP3    H121750   5.323   1.166   4.664
 7291TIP3    H221751   5.328   1.252   4.788
 7292TIP3   OH221752   4.371   0.996   6.133
 7292TIP3    H121753   4.282   0.963   6.111
 7292TIP3    H221754   4.379   0.970   6.225
 7293TIP3   OH221755   4.552   1.019   5.682
 7293TIP3    H121756   4.500   1.092   5.642
 7293TIP3    H221757   4.637   1.035   5.635
 7294TIP3   OH221758   4.999   1.265   5.818
 7294TIP3    H121759   5.040   1.268   5.907
 7294TIP3    H221760   5.064   1.315   5.765
 7295TIP3   OH221761   5.176   1.416   5.675
 7295TIP3    H121762   5.246   1.365   5.632
 7295TIP3    H221763   5.228   1.473   5.735
 7296TIP3   OH221764   4.230   1.280   5.701
 7296TIP3    H121765   4.142   1.313   5.676
 7296TIP3    H221766   4.232   1.307   5.794
 7297TIP3   OH221767   4.466   1.257   5.560
 7297TIP3    H121768   4.380   1.270   5.606
 7297TIP3    H221769   4.444   1.289   5.470
 7298TIP3   OH221770   4.892   1.286   5.357
 7298TIP3    H121771   4.821   1.305   5.292
 7298TIP3    H221772   4.903   1.374   5.399
 7299TIP3   OH221773   5.159   1.228   5.410
 7299TIP3    H121774   5.064   1.241   5.390
 7299TIP3    H221775   5.199   1.304   5.365
 7300TIP3   OH221776   5.372   1.420   5.326
 7300TIP3    H121777   5.354   1.504   5.277
 7300TIP3    H221778   5.393   1.359   5.252
 7301TIP3   OH221779   4.139   1.073   5.449
 7301TIP3    H121780   4.167   1.047   5.539
 7301TIP3    H221781   4.211   1.031   5.397
 7302TIP3   OH221782   4.332   0.949   5.302
 7302TIP3    H121783   4.350   0.867   5.355
 7302TIP3    H221784   4.422   0.986   5.295
 7303TIP3   OH221785   4.599   1.041   5.304
 7303TIP3    H121786   4.630   0.951   5.289
 7303TIP3    H221787   4.640   1.059   5.391
 7304TIP3   OH221788   4.700   1.036   4.419
 7304TIP3    H121789   4.789   1.056   4.382
 7304TIP3    H221790   4.677   0.959   4.361
 7305TIP3   OH221791   5.419   1.150   4.513
 7305TIP3    H121792   5.411   1.053   4.500
 7305TIP3    H221793   5.373   1.183   4.433
 7306TIP3   OH221794   5.645   1.294   5.703
 7306TIP3    H121795   5.567   1.262   5.654
 7306TIP3    H221796   5.625   1.390   5.704
 7307TIP3   OH221797   6.887   0.650   4.456
 7307TIP3    H121798   6.895   0.747   4.445
 7307TIP3    H221799   6.794   0.647   4.483
 7308TIP3   OH221800   6.907   0.655   4.843
 7308TIP3    H121801   6.932   0.646   4.937
 7308TIP3    H221802   6.859   0.571   4.830
 7309TIP3   OH221803   6.208   0.584   5.197
 7309TIP3    H121804   6.228   0.556   5.287
 7309TIP3    H221805   6.292   0.626   5.173
 7310TIP3   OH221806   7.148   0.961   4.534
 7310TIP3    H121807   7.147   0.898   4.608
 7310TIP3    H221808   7.177   1.042   4.579
 7311TIP3   OH221809   6.180   0.974   4.941
 7311TIP3    H121810   6.171   0.876   4.939
 7311TIP3    H221811   6.277   0.982   4.937
 7312TIP3   OH221812   5.881   0.168   4.733
 7312TIP3    H121813   5.833   0.252   4.745
 7312TIP3    H221814   5.818   0.120   4.676
 7313TIP3   OH221815   5.949   0.462   4.893
 7313TIP3    H121816   5.999   0.385   4.931
 7313TIP3    H221817   6.006   0.488   4.820
 7314TIP3   OH221818   6.801   1.432   4.546
 7314TIP3    H121819   6.849   1.360   4.499
 7314TIP3    H221820   6.797   1.398   4.636
 7315TIP3   OH221821   6.712   0.892   4.897
 7315TIP3    H121822   6.750   0.815   4.851
 7315TIP3    H221823   6.795   0.936   4.924
 7316TIP3   OH221824   7.139   0.408   4.931
 7316TIP3    H121825   7.156   0.323   4.973
 7316TIP3    H221826   7.089   0.381   4.851
 7317TIP3   OH221827   6.092   0.253   5.002
 7317TIP3    H121828   6.171   0.225   5.054
 7317TIP3    H221829   6.106   0.199   4.922
 7318TIP3   OH221830   6.537   0.454   4.792
 7318TIP3    H121831   6.626   0.418   4.812
 7318TIP3    H221832   6.490   0.371   4.765
 7319TIP3   OH221833   7.757   0.403   5.096
 7319TIP3    H121834   7.702   0.473   5.058
 7319TIP3    H221835   7.831   0.453   5.133
 7320TIP3   OH221836   6.809   0.890   4.333
 7320TIP3    H121837   6.757   0.866   4.255
 7320TIP3    H221838   6.764   0.973   4.359
 7321TIP3   OH221839   6.558   0.810   5.128
 7321TIP3    H121840   6.496   0.876   5.166
 7321TIP3    H221841   6.608   0.864   5.065
 7322TIP3   OH221842   6.325   0.155   5.107
 7322TIP3    H121843   6.394   0.222   5.126
 7322TIP3    H221844   6.361   0.110   5.029
 7323TIP3   OH221845   6.386   1.004   5.222
 7323TIP3    H121846   6.362   1.090   5.183
 7323TIP3    H221847   6.308   0.990   5.280
 7324TIP3   OH221848   5.787   0.695   4.459
 7324TIP3    H121849   5.743   0.720   4.375
 7324TIP3    H221850   5.814   0.781   4.495
 7325TIP3   OH221851   7.221   1.208   4.695
 7325TIP3    H121852   7.132   1.200   4.737
 7325TIP3    H221853   7.214   1.297   4.654
 7326TIP3   OH221854   6.928   1.260   4.373
 7326TIP3    H121855   6.979   1.179   4.352
 7326TIP3    H221856   6.987   1.327   4.330
 7327TIP3   OH221857   7.072   1.044   4.278
 7327TIP3    H121858   7.025   0.968   4.241
 7327TIP3    H221859   7.104   1.008   4.364
 7328TIP3   OH221860   7.472   1.127   5.039
 7328TIP3    H121861   7.424   1.047   5.012
 7328TIP3    H221862   7.436   1.194   4.978
 7329TIP3   OH221863   6.712   0.295   4.039
 7329TIP3    H121864   6.785   0.333   3.988
 7329TIP3    H221865   6.711   0.206   3.999
 7330TIP3   OH221866   7.648   0.753   4.886
 7330TIP3    H121867   7.565   0.807   4.894
 7330TIP3    H221868   7.674   0.779   4.795
 7331TIP3   OH221869   7.081   0.572   4.279
 7331TIP3    H121870   7.038   0.625   4.350
 7331TIP3    H221871   7.173   0.563   4.313
 7332TIP3   OH221872   6.324   0.598   4.685
 7332TIP3    H121873   6.279   0.540   4.619
 7332TIP3    H221874   6.398   0.542   4.713
 7333TIP3   OH221875   6.452   1.013   4.835
 7333TIP3    H121876   6.431   0.963   4.755
 7333TIP3    H221877   6.541   0.980   4.856
 7334TIP3   OH221878   6.464   0.566   5.041
 7334TIP3    H121879   6.493   0.551   4.949
 7334TIP3    H221880   6.506   0.653   5.062
 7335TIP3   OH221881   6.982   1.205   4.820
 7335TIP3    H121882   6.975   1.284   4.877
 7335TIP3    H221883   6.971   1.132   4.884
 7336TIP3   OH221884   6.592   1.134   5.362
 7336TIP3    H121885   6.531   1.194   5.410
 7336TIP3    H221886   6.529   1.076   5.316
 7337TIP3   OH221887   6.325   0.707   5.457
 7337TIP3    H121888   6.341   0.789   5.508
 7337TIP3    H221889   6.234   0.685   5.484
 7338TIP3   OH221890   6.674   1.138   4.372
 7338TIP3    H121891   6.749   1.195   4.394
 7338TIP3    H221892   6.609   1.200   4.335
 7339TIP3   OH221893   6.387   1.300   5.452
 7339TIP3    H121894   6.354   1.294   5.360
 7339TIP3    H221895   6.308   1.276   5.504
 7340TIP3   OH221896   6.187   0.447   4.491
 7340TIP3    H121897   6.117   0.485   4.434
 7340TIP3    H221898   6.155   0.357   4.505
 7341TIP3   OH221899   7.242   1.065   3.693
 7341TIP3    H121900   7.250   1.162   3.678
 7341TIP3    H221901   7.335   1.036   3.680
 7342TIP3   OH221902   5.968   0.827   5.398
 7342TIP3    H121903   5.901   0.808   5.329
 7342TIP3    H221904   6.001   0.737   5.421
 7343TIP3   OH221905   5.822   1.017   5.034
 7343TIP3    H121906   5.918   1.013   5.022
 7343TIP3    H221907   5.812   1.099   5.085
 7344TIP3   OH221908   7.685   1.470   5.083
 7344TIP3    H121909   7.688   1.373   5.096
 7344TIP3    H221910   7.603   1.492   5.132
 7345TIP3   OH221911   6.792   1.260   5.217
 7345TIP3    H121912   6.791   1.351   5.254
 7345TIP3    H221913   6.723   1.216   5.273
 7346TIP3   OH221914   6.553   1.387   4.172
 7346TIP3    H121915   6.506   1.365   4.090
 7346TIP3    H221916   6.519   1.475   4.194
 7347TIP3   OH221917   5.991   1.236   4.556
 7347TIP3    H121918   6.038   1.225   4.642
 7347TIP3    H221919   5.932   1.159   4.559
 7348TIP3   OH221920   6.757   1.287   3.814
 7348TIP3    H121921   6.815   1.216   3.778
 7348TIP3    H221922   6.789   1.294   3.906
 7349TIP3   OH221923   6.805   1.334   4.085
 7349TIP3    H121924   6.716   1.344   4.126
 7349TIP3    H221925   6.854   1.291   4.157
 7350TIP3   OH221926   7.579   0.601   5.377
 7350TIP3    H121927   7.513   0.661   5.338
 7350TIP3    H221928   7.593   0.536   5.307
 7351TIP3   OH221929   6.172   1.012   5.391
 7351TIP3    H121930   6.223   0.995   5.473
 7351TIP3    H221931   6.101   0.946   5.397
 7352TIP3   OH221932   7.266   0.471   5.359
 7352TIP3    H121933   7.289   0.377   5.355
 7352TIP3    H221934   7.262   0.500   5.268
 7353TIP3   OH221935   7.057   0.489   3.816
 7353TIP3    H121936   6.996   0.478   3.741
 7353TIP3    H221937   7.051   0.585   3.831
 7354TIP3   OH221938   6.513   0.337   5.182
 7354TIP3    H121939   6.502   0.389   5.264
 7354TIP3    H221940   6.498   0.409   5.117
 7355TIP3   OH221941   6.375   0.255   4.698
 7355TIP3    H121942   6.298   0.204   4.729
 7355TIP3    H221943   6.398   0.207   4.616
 7356TIP3   OH221944   7.058   0.640   5.483
 7356TIP3    H121945   7.078   0.579   5.558
 7356TIP3    H221946   7.148   0.656   5.447
 7357TIP3   OH221947   7.033   0.338   4.684
 7357TIP3    H121948   7.015   0.404   4.616
 7357TIP3    H221949   7.086   0.271   4.638
 7358TIP3   OH221950   6.342   0.297   5.499
 7358TIP3    H121951   6.388   0.380   5.476
 7358TIP3    H221952   6.276   0.288   5.429
 7359TIP3   OH221953   7.001   0.590   5.094
 7359TIP3    H121954   7.061   0.530   5.047
 7359TIP3    H221955   7.061   0.636   5.157
 7360TIP3   OH221956   6.146   0.109   4.773
 7360TIP3    H121957   6.051   0.125   4.751
 7360TIP3    H221958   6.153   0.014   4.756
 7361TIP3   OH221959   6.435   0.131   4.459
 7361TIP3    H121960   6.516   0.104   4.414
 7361TIP3    H221961   6.369   0.125   4.387
 7362TIP3   OH221962   6.251   0.145   4.244
 7362TIP3    H121963   6.191   0.091   4.190
 7362TIP3    H221964   6.310   0.178   4.173
 7363TIP3   OH221965   7.375   1.822   5.186
 7363TIP3    H121966   7.376   1.842   5.090
 7363TIP3    H221967   7.456   1.868   5.216
 7364TIP3   OH221968   6.331   0.939   5.614
 7364TIP3    H121969   6.414   0.966   5.659
 7364TIP3    H221970   6.269   0.940   5.689
 7365TIP3   OH221971   6.804   0.387   4.867
 7365TIP3    H121972   6.864   0.327   4.820
 7365TIP3    H221973   6.801   0.346   4.956
 7366TIP3   OH221974   6.787   0.277   5.151
 7366TIP3    H121975   6.695   0.307   5.164
 7366TIP3    H221976   6.836   0.327   5.219
 7367TIP3   OH221977   6.512   0.679   4.247
 7367TIP3    H121978   6.447   0.606   4.238
 7367TIP3    H221979   6.498   0.706   4.340
 7368TIP3   OH221980   7.418   0.897   4.878
 7368TIP3    H121981   7.440   0.956   4.803
 7368TIP3    H221982   7.327   0.870   4.857
 7369TIP3   OH221983   6.882   0.977   5.248
 7369TIP3    H121984   6.954   0.952   5.309
 7369TIP3    H221985   6.874   1.073   5.260
 7370TIP3   OH221986   6.203   0.698   4.917
 7370TIP3    H121987   6.244   0.666   4.834
 7370TIP3    H221988   6.228   0.630   4.980
 7371TIP3   OH221989   6.662   0.823   4.070
 7371TIP3    H121990   6.612   0.908   4.077
 7371TIP3    H221991   6.607   0.765   4.129
 7372TIP3   OH221992   6.080   0.613   5.538
 7372TIP3    H121993   6.106   0.595   5.630
 7372TIP3    H221994   6.009   0.547   5.524
 7373TIP3   OH221995   6.825   0.758   5.551
 7373TIP3    H121996   6.774   0.684   5.517
 7373TIP3    H221997   6.915   0.733   5.518
 7374TIP3   OH221998   7.064   1.294   5.117
 7374TIP3    H121999   6.975   1.263   5.139
 7374TIP3    H222000   7.100   1.311   5.206
 7375TIP3   OH222001   7.478   0.312   4.053
 7375TIP3    H122002   7.486   0.247   3.982
 7375TIP3    H222003   7.483   0.394   4.001
 7376TIP3   OH222004   7.714   1.190   5.128
 7376TIP3    H122005   7.617   1.177   5.125
 7376TIP3    H222006   7.736   1.153   5.040
 7377TIP3   OH222007   7.179   1.141   3.955
 7377TIP3    H122008   7.162   1.070   4.018
 7377TIP3    H222009   7.195   1.093   3.871
 7378TIP3   OH222010   7.173   0.774   4.783
 7378TIP3    H122011   7.083   0.745   4.808
 7378TIP3    H222012   7.212   0.692   4.749
 7379TIP3   OH222013   6.304   0.993   4.545
 7379TIP3    H122014   6.305   1.077   4.494
 7379TIP3    H222015   6.209   0.979   4.556
 7380TIP3   OH222016   5.871   0.298   4.253
 7380TIP3    H122017   5.917   0.383   4.271
 7380TIP3    H222018   5.792   0.307   4.311
 7381TIP3   OH222019   6.455   0.764   4.500
 7381TIP3    H122020   6.414   0.852   4.513
 7381TIP3    H222021   6.411   0.712   4.570
 7382TIP3   OH222022   6.574   1.340   5.020
 7382TIP3    H122023   6.617   1.411   4.968
 7382TIP3    H222024   6.650   1.304   5.069
 7383TIP3   OH222025   6.226   1.235   4.402
 7383TIP3    H122026   6.139   1.242   4.447
 7383TIP3    H222027   6.255   1.329   4.404
 7384TIP3   OH222028   6.971   0.973   4.982
 7384TIP3    H122029   6.956   0.968   5.079
 7384TIP3    H222030   7.058   0.931   4.975
 7385TIP3   OH222031   6.932   0.857   3.861
 7385TIP3    H122032   6.983   0.842   3.944
 7385TIP3    H222033   6.841   0.843   3.892
 7386TIP3   OH222034   7.213   1.515   5.035
 7386TIP3    H122035   7.143   1.446   5.040
 7386TIP3    H222036   7.187   1.567   4.957
 7387TIP3   OH222037   7.276   1.342   3.679
 7387TIP3    H122038   7.317   1.414   3.627
 7387TIP3    H222039   7.197   1.389   3.711
 7388TIP3   OH222040   7.095   0.796   4.076
 7388TIP3    H122041   7.089   0.725   4.141
 7388TIP3    H222042   7.193   0.801   4.064
 7389TIP3   OH222043   6.013   1.206   5.178
 7389TIP3    H122044   6.064   1.128   5.204
 7389TIP3    H222045   6.046   1.271   5.242
 7390TIP3   OH222046   6.305   0.853   3.860
 7390TIP3    H122047   6.314   0.761   3.828
 7390TIP3    H222048   6.287   0.839   3.954
 7391TIP3   OH222049   6.249   0.853   4.131
 7391TIP3    H122050   6.319   0.823   4.191
 7391TIP3    H222051   6.255   0.951   4.139
 7392TIP3   OH222052   5.985   0.547   4.332
 7392TIP3    H122053   5.919   0.592   4.390
 7392TIP3    H222054   6.000   0.617   4.266
 7393TIP3   OH222055   6.516   1.052   4.080
 7393TIP3    H122056   6.429   1.079   4.115
 7393TIP3    H222057   6.530   1.120   4.013
 7394TIP3   OH222058   6.731   0.116   4.496
 7394TIP3    H122059   6.751   0.207   4.521
 7394TIP3    H222060   6.672   0.089   4.569
 7395TIP3   OH222061   6.956   0.402   5.344
 7395TIP3    H122062   6.968   0.494   5.372
 7395TIP3    H222063   7.044   0.383   5.308
 7396TIP3   OH222064   6.259   1.127   4.146
 7396TIP3    H122065   6.227   1.195   4.083
 7396TIP3    H222066   6.241   1.170   4.232
 7397TIP3   OH222067   7.262   0.522   4.668
 7397TIP3    H122068   7.200   0.466   4.717
 7397TIP3    H222069   7.346   0.492   4.710
 7398TIP3   OH222070   5.975   0.760   4.141
 7398TIP3    H122071   6.039   0.832   4.148
 7398TIP3    H222072   6.021   0.705   4.074
 7399TIP3   OH222073   5.900   0.011   4.258
 7399TIP3    H122074   5.936   0.102   4.261
 7399TIP3    H222075   5.812   0.027   4.296
 7400TIP3   OH222076   7.232   1.483   4.620
 7400TIP3    H122077   7.189   1.532   4.546
 7400TIP3    H222078   7.326   1.503   4.600
 7401TIP3   OH222079   5.851   0.975   4.531
 7401TIP3    H122080   5.773   1.003   4.581
 7401TIP3    H222081   5.828   1.011   4.442
 7402TIP3   OH222082   6.002   1.510   5.599
 7402TIP3    H122083   6.089   1.508   5.645
 7402TIP3    H222084   5.981   1.415   5.596
 7403TIP3   OH222085   6.488   1.480   5.642
 7403TIP3    H122086   6.582   1.456   5.650
 7403TIP3    H222087   6.462   1.422   5.568
 7404TIP3   OH222088   6.469   1.054   3.773
 7404TIP3    H122089   6.411   0.983   3.811
 7404TIP3    H222090   6.542   1.000   3.738
 7405TIP3   OH222091   7.122   1.384   5.378
 7405TIP3    H122092   7.113   1.311   5.444
 7405TIP3    H222093   7.202   1.430   5.408
 7406TIP3   OH222094   6.906   1.095   3.683
 7406TIP3    H122095   6.956   1.034   3.739
 7406TIP3    H222096   6.959   1.096   3.600
 7407TIP3   OH222097   6.132   0.917   5.804
 7407TIP3    H122098   6.151   0.821   5.802
 7407TIP3    H222099   6.045   0.920   5.758
 7408TIP3   OH222100   6.108   0.571   3.993
 7408TIP3    H122101   6.164   0.535   4.063
 7408TIP3    H222102   6.175   0.581   3.921
 7409TIP3   OH222103   6.738   1.019   5.573
 7409TIP3    H122104   6.707   1.033   5.482
 7409TIP3    H222105   6.780   0.930   5.566
 7410TIP3   OH222106   6.620   0.772   3.800
 7410TIP3    H122107   6.619   0.785   3.897
 7410TIP3    H222108   6.619   0.674   3.796
 7411TIP3   OH222109   6.251   0.646   5.781
 7411TIP3    H122110   6.326   0.590   5.757
 7411TIP3    H222111   6.280   0.680   5.868
 7412TIP3   OH222112   6.327   0.471   4.219
 7412TIP3    H122113   6.294   0.432   4.301
 7412TIP3    H222114   6.352   0.393   4.167
 7413TIP3   OH222115   6.505   0.517   5.383
 7413TIP3    H122116   6.448   0.593   5.412
 7413TIP3    H222117   6.575   0.566   5.335
 7414TIP3   OH222118   6.414   0.261   4.052
 7414TIP3    H122119   6.388   0.258   3.958
 7414TIP3    H222120   6.509   0.278   4.046
 7415TIP3   OH222121   7.110   0.945   5.578
 7415TIP3    H122122   7.150   0.910   5.496
 7415TIP3    H222123   7.115   0.870   5.638
 7416TIP3   OH222124   6.734   0.483   5.584
 7416TIP3    H122125   6.766   0.394   5.619
 7416TIP3    H222126   6.699   0.460   5.499
 7417TIP3   OH222127   6.737   0.632   5.252
 7417TIP3    H122128   6.822   0.631   5.204
 7417TIP3    H222129   6.695   0.713   5.215
 7418TIP3   OH222130   7.339   0.628   5.651
 7418TIP3    H122131   7.382   0.547   5.620
 7418TIP3    H222132   7.389   0.696   5.605
 7419TIP3   OH222133   6.553   0.457   5.809
 7419TIP3    H122134   6.488   0.390   5.782
 7419TIP3    H222135   6.620   0.451   5.738
 7420TIP3   OH222136   7.036   0.458   5.676
 7420TIP3    H122137   6.993   0.479   5.760
 7420TIP3    H222138   6.959   0.443   5.619
 7421TIP3   OH222139   6.227   1.331   3.960
 7421TIP3    H122140   6.322   1.328   3.938
 7421TIP3    H222141   6.193   1.375   3.880
 7422TIP3   OH222142   5.707   0.710   4.177
 7422TIP3    H122143   5.802   0.732   4.163
 7422TIP3    H222144   5.702   0.621   4.135
 7423TIP3   OH222145   5.621   1.324   4.587
 7423TIP3    H122146   5.553   1.262   4.553
 7423TIP3    H222147   5.665   1.267   4.654
 7424TIP3   OH222148   5.757   1.178   4.775
 7424TIP3    H122149   5.744   1.102   4.833
 7424TIP3    H222150   5.807   1.238   4.834
 7425TIP3   OH222151   7.480   1.586   4.572
 7425TIP3    H122152   7.512   1.607   4.661
 7425TIP3    H222153   7.556   1.610   4.516
 7426TIP3   OH222154   7.517   1.595   4.854
 7426TIP3    H122155   7.469   1.509   4.852
 7426TIP3    H222156   7.590   1.570   4.915
 7427TIP3   OH222157   7.564   1.273   5.431
 7427TIP3    H122158   7.487   1.280   5.491
 7427TIP3    H222159   7.603   1.363   5.437
 7428TIP3   OH222160   7.374   0.787   4.051
 7428TIP3    H122161   7.443   0.850   4.021
 7428TIP3    H222162   7.419   0.749   4.130
 7429TIP3   OH222163   7.502   0.653   4.251
 7429TIP3    H122164   7.442   0.611   4.315
 7429TIP3    H222165   7.572   0.690   4.309
 7430TIP3   OH222166   7.555   1.045   4.686
 7430TIP3    H122167   7.608   0.981   4.635
 7430TIP3    H222168   7.546   1.119   4.623
 7431TIP3   OH222169   7.387   1.347   4.878
 7431TIP3    H122170   7.317   1.381   4.937
 7431TIP3    H222171   7.336   1.295   4.812
 7432TIP3   OH222172   7.397   0.545   3.889
 7432TIP3    H122173   7.384   0.618   3.827
 7432TIP3    H222174   7.416   0.599   3.968
 7433TIP3   OH222175   7.318   0.507   4.402
 7433TIP3    H122176   7.343   0.414   4.402
 7433TIP3    H222177   7.305   0.524   4.499
 7434TIP3   OH222178   5.939   0.576   5.144
 7434TIP3    H122179   5.933   0.546   5.051
 7434TIP3    H222180   6.036   0.589   5.152
 7435TIP3   OH222181   7.623   0.927   5.272
 7435TIP3    H122182   7.690   0.866   5.237
 7435TIP3    H222183   7.599   0.983   5.196
 7436TIP3   OH222184   7.802   0.713   5.261
 7436TIP3    H122185   7.735   0.682   5.325
 7436TIP3    H222186   7.884   0.685   5.304
 7437TIP3   OH222187   7.277   0.229   4.251
 7437TIP3    H122188   7.326   0.186   4.325
 7437TIP3    H222189   7.350   0.258   4.193
 7438TIP3   OH222190   7.483   0.436   4.794
 7438TIP3    H122191   7.574   0.442   4.758
 7438TIP3    H222192   7.498   0.450   4.888
 7439TIP3   OH222193   7.526   0.565   5.047
 7439TIP3    H122194   7.444   0.616   5.060
 7439TIP3    H222195   7.576   0.627   4.989
 7440TIP3   OH222196   5.942   0.239   5.232
 7440TIP3    H122197   5.984   0.223   5.146
 7440TIP3    H222198   5.954   0.334   5.241
 7441TIP3   OH222199   7.068   1.443   4.232
 7441TIP3    H122200   7.119   1.424   4.151
 7441TIP3    H222201   7.127   1.505   4.278
 7442TIP3   OH222202   6.169   1.245   5.620
 7442TIP3    H122203   6.077   1.216   5.602
 7442TIP3    H222204   6.178   1.228   5.714
 7443TIP3   OH222205   6.346   1.276   5.167
 7443TIP3    H122206   6.299   1.352   5.127
 7443TIP3    H222207   6.433   1.289   5.124
 7444TIP3   OH222208   6.794   1.526   5.306
 7444TIP3    H122209   6.838   1.524   5.394
 7444TIP3    H222210   6.862   1.572   5.252
 7445TIP3   OH222211   6.973   1.673   5.158
 7445TIP3    H122212   7.042   1.617   5.121
 7445TIP3    H222213   7.025   1.729   5.220
 7446TIP3   OH222214   6.026   1.537   5.187
 7446TIP3    H122215   5.936   1.571   5.164
 7446TIP3    H222216   6.030   1.563   5.280
 7447TIP3   OH222217   6.262   1.514   5.046
 7447TIP3    H122218   6.175   1.527   5.092
 7447TIP3    H222219   6.240   1.546   4.956
 7448TIP3   OH222220   6.686   1.545   4.843
 7448TIP3    H122221   6.616   1.566   4.779
 7448TIP3    H222222   6.699   1.631   4.888
 7449TIP3   OH222223   6.954   1.486   4.887
 7449TIP3    H122224   6.859   1.500   4.871
 7449TIP3    H222225   6.994   1.567   4.852
 7450TIP3   OH222226   7.166   1.678   4.812
 7450TIP3    H122227   7.151   1.760   4.761
 7450TIP3    H222228   7.190   1.614   4.741
 7451TIP3   OH222229   5.937   1.330   4.935
 7451TIP3    H122230   5.963   1.304   5.026
 7451TIP3    H222231   6.008   1.285   4.884
 7452TIP3   OH222232   6.129   1.200   4.790
 7452TIP3    H122233   6.145   1.116   4.839
 7452TIP3    H222234   6.220   1.237   4.786
 7453TIP3   OH222235   6.396   1.296   4.792
 7453TIP3    H122236   6.426   1.205   4.780
 7453TIP3    H222237   6.439   1.316   4.878
 7454TIP3   OH222238   5.725   1.098   4.326
 7454TIP3    H122239   5.640   1.064   4.292
 7454TIP3    H222240   5.711   1.193   4.310
 7455TIP3   OH222241   6.495   1.292   3.906
 7455TIP3    H122242   6.584   1.313   3.870
 7455TIP3    H222243   6.473   1.216   3.848
 7456TIP3   OH222244   7.214   1.407   4.000
 7456TIP3    H122245   7.205   1.309   3.987
 7456TIP3    H222246   7.170   1.439   3.919
 7457TIP3   OH222247   5.801   1.130   3.966
 7457TIP3    H122248   5.797   1.153   4.060
 7457TIP3    H222249   5.889   1.087   3.958
 7458TIP3   OH222250   7.442   1.554   5.190
 7458TIP3    H122251   7.364   1.519   5.143
 7458TIP3    H222252   7.420   1.649   5.193
 7459TIP3   OH222253   8.708   0.918   3.952
 7459TIP3    H122254   8.690   1.013   3.942
 7459TIP3    H222255   8.624   0.879   3.924
 7460TIP3   OH222256   8.695   0.917   4.335
 7460TIP3    H122257   8.730   0.897   4.424
 7460TIP3    H222258   8.656   0.831   4.310
 7461TIP3   OH222259   8.002   0.841   4.684
 7461TIP3    H122260   8.022   0.816   4.775
 7461TIP3    H222261   8.087   0.882   4.658
 7462TIP3   OH222262   8.945   1.223   4.016
 7462TIP3    H122263   8.944   1.157   4.087
 7462TIP3    H222264   8.973   1.302   4.066
 7463TIP3   OH222265   7.974   1.230   4.428
 7463TIP3    H122266   7.967   1.132   4.426
 7463TIP3    H222267   8.071   1.239   4.420
 7464TIP3   OH222268   7.673   0.420   4.225
 7464TIP3    H122269   7.634   0.509   4.232
 7464TIP3    H222270   7.608   0.375   4.168
 7465TIP3   OH222271   7.743   0.714   4.375
 7465TIP3    H122272   7.795   0.641   4.416
 7465TIP3    H222273   7.806   0.748   4.310
 7466TIP3   OH222274   8.505   1.147   4.384
 7466TIP3    H122275   8.544   1.069   4.340
 7466TIP3    H222276   8.588   1.193   4.407
 7467TIP3   OH222277   8.923   0.669   4.413
 7467TIP3    H122278   8.946   0.583   4.452
 7467TIP3    H222279   8.894   0.644   4.322
 7468TIP3   OH222280   7.888   0.510   4.490
 7468TIP3    H122281   7.968   0.483   4.540
 7468TIP3    H222282   7.903   0.457   4.409
 7469TIP3   OH222283   8.331   0.711   4.285
 7469TIP3    H122284   8.422   0.679   4.299
 7469TIP3    H222285   8.286   0.629   4.254
 7470TIP3   OH222286   8.623   1.149   3.807
 7470TIP3    H122287   8.559   1.119   3.741
 7470TIP3    H222288   8.580   1.226   3.845
 7471TIP3   OH222289   8.358   1.068   4.615
 7471TIP3    H122290   8.294   1.134   4.651
 7471TIP3    H222291   8.401   1.118   4.544
 7472TIP3   OH222292   8.121   0.412   4.591
 7472TIP3    H122293   8.189   0.479   4.613
 7472TIP3    H222294   8.161   0.367   4.515
 7473TIP3   OH222295   8.183   1.260   4.709
 7473TIP3    H122296   8.158   1.345   4.668
 7473TIP3    H222297   8.105   1.246   4.767
 7474TIP3   OH222298   7.575   0.953   3.947
 7474TIP3    H122299   7.542   0.979   3.859
 7474TIP3    H222300   7.612   1.036   3.982
 7475TIP3   OH222301   9.014   1.450   4.174
 7475TIP3    H122302   8.925   1.451   4.217
 7475TIP3    H222303   9.016   1.538   4.133
 7476TIP3   OH222304   8.891   1.253   3.733
 7476TIP3    H122305   8.800   1.221   3.746
 7476TIP3    H222306   8.916   1.269   3.826
 7477TIP3   OH222307   8.532   0.778   3.786
 7477TIP3    H122308   8.450   0.825   3.761
 7477TIP3    H222309   8.578   0.770   3.701
 7478TIP3   OH222310   8.492   0.564   3.502
 7478TIP3    H122311   8.567   0.605   3.547
 7478TIP3    H222312   8.536   0.490   3.455
 7479TIP3   OH222313   8.894   0.851   3.768
 7479TIP3    H122314   8.826   0.879   3.834
 7479TIP3    H222315   8.973   0.852   3.825
 7480TIP3   OH222316   9.128   0.908   4.650
 7480TIP3    H122317   9.113   0.979   4.713
 7480TIP3    H222318   9.043   0.904   4.604
 7481TIP3   OH222319   8.121   0.856   4.171
 7481TIP3    H122320   8.076   0.796   4.107
 7481TIP3    H222321   8.195   0.799   4.201
 7482TIP3   OH222322   8.244   1.261   4.326
 7482TIP3    H122323   8.227   1.217   4.242
 7482TIP3    H222324   8.336   1.233   4.345
 7483TIP3   OH222325   8.257   0.825   4.529
 7483TIP3    H122326   8.288   0.804   4.438
 7483TIP3    H222327   8.302   0.910   4.548
 7484TIP3   OH222328   8.785   1.464   4.310
 7484TIP3    H122329   8.759   1.544   4.360
 7484TIP3    H222330   8.767   1.391   4.372
 7485TIP3   OH222331   8.389   1.385   4.850
 7485TIP3    H122332   8.329   1.448   4.897
 7485TIP3    H222333   8.323   1.330   4.803
 7486TIP3   OH222334   8.725   0.708   3.592
 7486TIP3    H122335   8.791   0.757   3.644
 7486TIP3    H222336   8.755   0.727   3.501
 7487TIP3   OH222337   8.122   0.963   4.942
 7487TIP3    H122338   8.137   1.046   4.993
 7487TIP3    H222339   8.031   0.941   4.971
 7488TIP3   OH222340   8.184   1.555   4.938
 7488TIP3    H122341   8.151   1.549   4.847
 7488TIP3    H222342   8.105   1.532   4.992
 7489TIP3   OH222343   7.983   0.702   3.983
 7489TIP3    H122344   7.917   0.744   3.924
 7489TIP3    H222345   7.954   0.610   3.984
 7490TIP3   OH222346   7.768   1.083   4.883
 7490TIP3    H122347   7.695   1.063   4.822
 7490TIP3    H222348   7.799   0.994   4.911
 7491TIP3   OH222349   7.620   1.276   4.516
 7491TIP3    H122350   7.716   1.264   4.506
 7491TIP3    H222351   7.616   1.351   4.576
 7492TIP3   OH222352   8.590   1.513   4.708
 7492TIP3    H122353   8.590   1.606   4.740
 7492TIP3    H222354   8.519   1.474   4.763
 7493TIP3   OH222355   8.277   1.638   3.651
 7493TIP3    H122356   8.297   1.637   3.556
 7493TIP3    H222357   8.324   1.716   3.685
 7494TIP3   OH222358   7.781   1.504   4.047
 7494TIP3    H122359   7.833   1.488   4.129
 7494TIP3    H222360   7.728   1.422   4.045
 7495TIP3   OH222361   8.554   1.544   3.306
 7495TIP3    H122362   8.615   1.474   3.274
 7495TIP3    H222363   8.582   1.553   3.400
 7496TIP3   OH222364   8.594   1.594   3.590
 7496TIP3    H122365   8.519   1.602   3.652
 7496TIP3    H222366   8.666   1.596   3.655
 7497TIP3   OH222367   7.970   1.270   4.878
 7497TIP3    H122368   8.019   1.253   4.960
 7497TIP3    H222369   7.898   1.203   4.883
 7498TIP3   OH222370   8.803   0.754   3.329
 7498TIP3    H122371   8.776   0.734   3.237
 7498TIP3    H222372   8.848   0.839   3.319
 7499TIP3   OH222373   8.305   0.595   4.670
 7499TIP3    H122374   8.297   0.649   4.752
 7499TIP3    H222375   8.291   0.667   4.605
 7500TIP3   OH222376   8.172   0.513   4.185
 7500TIP3    H122377   8.095   0.461   4.215
 7500TIP3    H222378   8.195   0.465   4.103
 7501TIP3   OH222379   8.677   0.581   3.905
 7501TIP3    H122380   8.612   0.653   3.885
 7501TIP3    H222381   8.729   0.584   3.824
 7502TIP3   OH222382   8.891   0.870   4.944
 7502TIP3    H122383   8.869   0.828   5.031
 7502TIP3    H222384   8.982   0.898   4.965
 7503TIP3   OH222385   8.821   0.596   4.166
 7503TIP3    H122386   8.778   0.643   4.092
 7503TIP3    H222387   8.858   0.520   4.120
 7504TIP3   OH222388   8.131   0.556   4.990
 7504TIP3    H122389   8.184   0.635   4.969
 7504TIP3    H222390   8.080   0.543   4.911
 7505TIP3   OH222391   8.830   0.858   4.580
 7505TIP3    H122392   8.869   0.787   4.523
 7505TIP3    H222393   8.832   0.815   4.667
 7506TIP3   OH222394   7.941   0.366   4.262
 7506TIP3    H122395   7.847   0.379   4.238
 7506TIP3    H222396   7.955   0.273   4.240
 7507TIP3   OH222397   8.231   0.384   3.950
 7507TIP3    H122398   8.317   0.363   3.910
 7507TIP3    H222399   8.170   0.380   3.873
 7508TIP3   OH222400   8.051   0.403   3.733
 7508TIP3    H122401   7.983   0.356   3.681
 7508TIP3    H222402   8.109   0.433   3.660
 7509TIP3   OH222403   9.165   2.082   4.670
 7509TIP3    H122404   9.168   2.099   4.573
 7509TIP3    H222405   9.237   2.138   4.701
 7510TIP3   OH222406   8.128   1.195   5.100
 7510TIP3    H122407   8.210   1.222   5.147
 7510TIP3    H222408   8.065   1.194   5.175
 7511TIP3   OH222409   8.598   0.644   4.352
 7511TIP3    H122410   8.667   0.600   4.299
 7511TIP3    H222411   8.600   0.592   4.434
 7512TIP3   OH222412   8.576   0.522   4.646
 7512TIP3    H122413   8.488   0.563   4.650
 7512TIP3    H222414   8.630   0.580   4.704
 7513TIP3   OH222415   8.307   0.931   3.734
 7513TIP3    H122416   8.236   0.864   3.724
 7513TIP3    H222417   8.290   0.962   3.826
 7514TIP3   OH222418   8.715   1.245   4.734
 7514TIP3    H122419   8.723   1.220   4.826
 7514TIP3    H222420   8.674   1.333   4.738
 7515TIP3   OH222421   7.994   0.952   4.401
 7515TIP3    H122422   8.039   0.923   4.319
 7515TIP3    H222423   8.027   0.888   4.466
 7516TIP3   OH222424   8.453   1.077   3.554
 7516TIP3    H122425   8.405   1.163   3.560
 7516TIP3    H222426   8.398   1.021   3.613
 7517TIP3   OH222427   7.876   0.869   5.023
 7517TIP3    H122428   7.905   0.854   5.116
 7517TIP3    H222429   7.806   0.803   5.013
 7518TIP3   OH222430   8.620   1.013   5.029
 7518TIP3    H122431   8.568   0.934   5.011
 7518TIP3    H222432   8.709   0.985   5.002
 7519TIP3   OH222433   8.870   1.500   4.632
 7519TIP3    H122434   8.773   1.503   4.638
 7519TIP3    H222435   8.895   1.558   4.706
 7520TIP3   OH222436   8.991   1.369   3.422
 7520TIP3    H122437   8.971   1.351   3.515
 7520TIP3    H222438   8.918   1.325   3.376
 7521TIP3   OH222439   8.947   1.034   4.280
 7521TIP3    H122440   8.861   0.988   4.290
 7521TIP3    H222441   9.009   0.962   4.269
 7522TIP3   OH222442   8.102   1.252   4.034
 7522TIP3    H122443   8.104   1.334   3.982
 7522TIP3    H222444   8.007   1.237   4.041
 7523TIP3   OH222445   8.247   1.023   3.982
 7523TIP3    H122446   8.205   1.109   4.001
 7523TIP3    H222447   8.210   0.968   4.053
 7524TIP3   OH222448   8.368   1.598   4.505
 7524TIP3    H122449   8.409   1.670   4.452
 7524TIP3    H222450   8.447   1.564   4.551
 7525TIP3   OH222451   8.020   1.487   3.891
 7525TIP3    H122452   7.934   1.506   3.934
 7525TIP3    H222453   8.060   1.576   3.889
 7526TIP3   OH222454   8.758   1.230   4.461
 7526TIP3    H122455   8.758   1.223   4.559
 7526TIP3    H222456   8.837   1.179   4.436
 7527TIP3   OH222457   8.726   1.129   3.349
 7527TIP3    H122458   8.782   1.092   3.420
 7527TIP3    H222459   8.638   1.104   3.381
 7528TIP3   OH222460   8.997   1.766   4.515
 7528TIP3    H122461   8.917   1.713   4.498
 7528TIP3    H222462   8.992   1.831   4.442
 7529TIP3   OH222463   8.898   1.029   3.544
 7529TIP3    H122464   8.883   0.976   3.623
 7529TIP3    H222465   8.951   1.102   3.582
 7530TIP3   OH222466   7.809   1.463   4.667
 7530TIP3    H122467   7.860   1.383   4.687
 7530TIP3    H222468   7.842   1.522   4.736
 7531TIP3   OH222469   8.101   1.109   3.347
 7531TIP3    H122470   8.111   1.016   3.316
 7531TIP3    H222471   8.082   1.095   3.441
 7532TIP3   OH222472   8.043   1.109   3.618
 7532TIP3    H122473   8.113   1.081   3.678
 7532TIP3    H222474   8.049   1.207   3.624
 7533TIP3   OH222475   7.795   0.821   3.827
 7533TIP3    H122476   7.719   0.854   3.878
 7533TIP3    H222477   7.799   0.886   3.755
 7534TIP3   OH222478   8.311   1.308   3.569
 7534TIP3    H122479   8.228   1.342   3.607
 7534TIP3    H222480   8.336   1.383   3.514
 7535TIP3   OH222481   8.526   0.361   3.977
 7535TIP3    H122482   8.566   0.449   3.960
 7535TIP3    H222483   8.483   0.375   4.063
 7536TIP3   OH222484   8.752   0.669   4.808
 7536TIP3    H122485   8.793   0.742   4.859
 7536TIP3    H222486   8.830   0.619   4.776
 7537TIP3   OH222487   8.047   1.381   3.632
 7537TIP3    H122488   8.025   1.453   3.569
 7537TIP3    H222489   8.040   1.428   3.718
 7538TIP3   OH222490   7.770   1.020   3.623
 7538TIP3    H122491   7.838   1.089   3.634
 7538TIP3    H222492   7.816   0.963   3.559
 7539TIP3   OH222493   9.047   1.748   4.118
 7539TIP3    H122494   9.004   1.792   4.042
 7539TIP3    H222495   9.123   1.701   4.077
 7540TIP3   OH222496   7.650   1.235   4.019
 7540TIP3    H122497   7.571   1.262   4.066
 7540TIP3    H222498   7.631   1.268   3.929
 7541TIP3   OH222499   7.798   1.766   5.085
 7541TIP3    H122500   7.884   1.765   5.131
 7541TIP3    H222501   7.777   1.671   5.084
 7542TIP3   OH222502   8.283   1.737   5.128
 7542TIP3    H122503   8.377   1.716   5.139
 7542TIP3    H222504   8.259   1.678   5.054
 7543TIP3   OH222505   8.265   1.310   3.259
 7543TIP3    H122506   8.206   1.241   3.299
 7543TIP3    H222507   8.337   1.254   3.226
 7544TIP3   OH222508   8.918   1.642   4.866
 7544TIP3    H122509   8.910   1.569   4.932
 7544TIP3    H222510   8.996   1.690   4.897
 7545TIP3   OH222511   8.705   1.350   3.181
 7545TIP3    H122512   8.734   1.267   3.223
 7545TIP3    H222513   8.744   1.345   3.091
 7546TIP3   OH222514   7.932   1.175   5.292
 7546TIP3    H122515   7.947   1.078   5.295
 7546TIP3    H222516   7.845   1.179   5.246
 7547TIP3   OH222517   7.902   0.827   3.477
 7547TIP3    H122518   7.954   0.790   3.550
 7547TIP3    H222519   7.973   0.838   3.410
 7548TIP3   OH222520   8.538   1.277   5.060
 7548TIP3    H122521   8.495   1.290   4.973
 7548TIP3    H222522   8.574   1.185   5.051
 7549TIP3   OH222523   8.418   1.023   3.284
 7549TIP3    H122524   8.417   1.036   3.381
 7549TIP3    H222525   8.410   0.925   3.280
 7550TIP3   OH222526   9.039   1.271   4.664
 7550TIP3    H122527   9.087   1.311   4.590
 7550TIP3    H222528   8.958   1.325   4.663
 7551TIP3   OH222529   8.045   0.899   5.268
 7551TIP3    H122530   8.124   0.847   5.247
 7551TIP3    H222531   8.072   0.935   5.356
 7552TIP3   OH222532   8.120   0.730   3.705
 7552TIP3    H122533   8.089   0.690   3.787
 7552TIP3    H222534   8.150   0.652   3.654
 7553TIP3   OH222535   8.301   0.772   4.873
 7553TIP3    H122536   8.244   0.847   4.902
 7553TIP3    H222537   8.372   0.820   4.827
 7554TIP3   OH222538   8.213   0.521   3.541
 7554TIP3    H122539   8.186   0.512   3.448
 7554TIP3    H222540   8.309   0.535   3.532
 7555TIP3   OH222541   8.898   1.193   5.066
 7555TIP3    H122542   8.980   1.174   5.018
 7555TIP3    H222543   8.903   1.130   5.140
 7556TIP3   OH222544   8.520   0.747   5.068
 7556TIP3    H122545   8.570   0.666   5.101
 7556TIP3    H222546   8.485   0.714   4.985
 7557TIP3   OH222547   8.531   0.893   4.736
 7557TIP3    H122548   8.616   0.899   4.689
 7557TIP3    H222549   8.483   0.969   4.697
 7558TIP3   OH222550   9.127   0.880   5.116
 7558TIP3    H122551   9.168   0.793   5.114
 7558TIP3    H222552   9.200   0.940   5.095
 7559TIP3   OH222553   9.175   1.133   4.851
 7559TIP3    H122554   9.112   1.184   4.795
 7559TIP3    H222555   9.253   1.138   4.795
 7560TIP3   OH222556   8.348   0.711   5.293
 7560TIP3    H122557   8.291   0.639   5.263
 7560TIP3    H222558   8.418   0.711   5.226
 7561TIP3   OH222559   8.819   0.749   5.168
 7561TIP3    H122560   8.789   0.732   5.259
 7561TIP3    H222561   8.784   0.670   5.122
 7562TIP3   OH222562   8.019   1.583   3.442
 7562TIP3    H122563   8.116   1.583   3.434
 7562TIP3    H222564   7.997   1.632   3.360
 7563TIP3   OH222565   7.504   0.969   3.666
 7563TIP3    H122566   7.598   0.993   3.650
 7563TIP3    H222567   7.499   0.881   3.623
 7564TIP3   OH222568   7.415   1.582   4.074
 7564TIP3    H122569   7.350   1.517   4.041
 7564TIP3    H222570   7.462   1.527   4.141
 7565TIP3   OH222571   7.550   1.438   4.263
 7565TIP3    H122572   7.545   1.360   4.321
 7565TIP3    H222573   7.603   1.498   4.319
 7566TIP3   OH222574   9.164   1.554   4.394
 7566TIP3    H122575   9.095   1.615   4.425
 7566TIP3    H222576   9.120   1.512   4.317
 7567TIP3   OH222577   7.733   0.833   4.628
 7567TIP3    H122578   7.730   0.804   4.535
 7567TIP3    H222579   7.830   0.847   4.638
 7568TIP3   OH222580   7.737   0.494   4.720
 7568TIP3    H122581   7.782   0.480   4.634
 7568TIP3    H222582   7.750   0.589   4.731
 7569TIP3   OH222583   8.844   1.707   3.739
 7569TIP3    H122584   8.888   1.675   3.657
 7569TIP3    H222585   8.918   1.745   3.787
 7570TIP3   OH222586   7.964   1.504   5.107
 7570TIP3    H122587   7.874   1.471   5.089
 7570TIP3    H222588   7.976   1.481   5.200
 7571TIP3   OH222589   8.143   1.531   4.654
 7571TIP3    H122590   8.098   1.609   4.615
 7571TIP3    H222591   8.230   1.543   4.610
 7572TIP3   OH222592   8.589   1.780   4.792
 7572TIP3    H122593   8.633   1.780   4.880
 7572TIP3    H222594   8.655   1.829   4.739
 7573TIP3   OH222595   8.766   1.930   4.648
 7573TIP3    H122596   8.835   1.880   4.601
 7573TIP3    H222597   8.821   1.986   4.708
 7574TIP3   OH222598   7.821   1.803   4.667
 7574TIP3    H122599   7.728   1.831   4.656
 7574TIP3    H222600   7.832   1.815   4.762
 7575TIP3   OH222601   8.061   1.771   4.540
 7575TIP3    H122602   7.973   1.784   4.581
 7575TIP3    H222603   8.045   1.794   4.446
 7576TIP3   OH222604   8.475   1.797   4.341
 7576TIP3    H122605   8.439   1.816   4.253
 7576TIP3    H222606   8.495   1.886   4.375
 7577TIP3   OH222607   8.747   1.738   4.387
 7577TIP3    H122608   8.655   1.747   4.357
 7577TIP3    H222609   8.791   1.808   4.336
 7578TIP3   OH222610   8.956   1.929   4.303
 7578TIP3    H122611   8.940   2.014   4.256
 7578TIP3    H222612   8.989   1.872   4.230
 7579TIP3   OH222613   7.728   1.585   4.428
 7579TIP3    H122614   7.762   1.557   4.516
 7579TIP3    H222615   7.798   1.547   4.371
 7580TIP3   OH222616   7.921   1.459   4.278
 7580TIP3    H122617   7.936   1.373   4.325
 7580TIP3    H222618   8.013   1.493   4.275
 7581TIP3   OH222619   8.183   1.554   4.286
 7581TIP3    H122620   8.222   1.469   4.260
 7581TIP3    H222621   8.237   1.573   4.365
 7582TIP3   OH222622   7.519   1.353   3.814
 7582TIP3    H122623   7.434   1.320   3.778
 7582TIP3    H222624   7.508   1.448   3.798
 7583TIP3   OH222625   8.291   1.553   3.383
 7583TIP3    H122626   8.382   1.569   3.351
 7583TIP3    H222627   8.269   1.473   3.331
 7584TIP3   OH222628   8.952   1.633   3.509
 7584TIP3    H122629   8.983   1.549   3.471
 7584TIP3    H222630   8.921   1.681   3.429
 7585TIP3   OH222631   7.596   1.384   3.454
 7585TIP3    H122632   7.601   1.406   3.548
 7585TIP3    H222633   7.684   1.342   3.438
 7586TIP3   OH222634   9.207   1.813   4.688
 7586TIP3    H122635   9.143   1.771   4.627
 7586TIP3    H222636   9.183   1.907   4.676
 7587TIP3   OH222637   1.161   1.710   5.644
 7587TIP3    H122638   1.134   1.803   5.628
 7587TIP3    H222639   1.081   1.663   5.616
 7588TIP3   OH222640   1.158   1.707   6.020
 7588TIP3    H122641   1.187   1.686   6.110
 7588TIP3    H222642   1.114   1.625   5.993
 7589TIP3   OH222643   0.494   1.634   6.379
 7589TIP3    H122644   0.525   1.563   6.437
 7589TIP3    H222645   0.570   1.695   6.382
 7590TIP3   OH222646   1.395   2.008   5.704
 7590TIP3    H122647   1.389   1.940   5.772
 7590TIP3    H222648   1.398   2.089   5.756
 7591TIP3   OH222649   0.426   2.013   6.114
 7591TIP3    H122650   0.419   1.915   6.118
 7591TIP3    H222651   0.523   2.022   6.113
 7592TIP3   OH222652   1.052   2.467   5.735
 7592TIP3    H122653   1.089   2.400   5.674
 7592TIP3    H222654   1.116   2.457   5.810
 7593TIP3   OH222655   0.953   1.936   6.071
 7593TIP3    H122656   0.993   1.861   6.025
 7593TIP3    H222657   1.037   1.980   6.099
 7594TIP3   OH222658   1.967   1.258   6.070
 7594TIP3    H122659   1.996   1.339   6.117
 7594TIP3    H222660   1.990   1.280   5.978
 7595TIP3   OH222661   1.371   1.439   6.107
 7595TIP3    H122662   1.413   1.353   6.126
 7595TIP3    H222663   1.338   1.426   6.016
 7596TIP3   OH222664   1.401   1.187   5.696
 7596TIP3    H122665   1.474   1.173   5.760
 7596TIP3    H222666   1.450   1.225   5.622
 7597TIP3   OH222667   0.796   1.509   5.964
 7597TIP3    H122668   0.887   1.479   5.985
 7597TIP3    H222669   0.754   1.423   5.940
 7598TIP3   OH222670   2.040   1.462   6.242
 7598TIP3    H122671   1.958   1.513   6.225
 7598TIP3    H222672   2.062   1.493   6.332
 7599TIP3   OH222673   1.056   1.935   5.514
 7599TIP3    H122674   1.008   1.910   5.434
 7599TIP3    H222675   1.010   2.018   5.538
 7600TIP3   OH222676   0.811   1.856   6.305
 7600TIP3    H122677   0.748   1.922   6.342
 7600TIP3    H222678   0.857   1.908   6.236
 7601TIP3   OH222679   1.614   1.189   5.866
 7601TIP3    H122680   1.604   1.145   5.951
 7601TIP3    H222681   1.667   1.267   5.890
 7602TIP3   OH222682   0.632   2.046   6.400
 7602TIP3    H122683   0.608   2.133   6.363
 7602TIP3    H222684   0.552   2.028   6.455
 7603TIP3   OH222685   0.074   1.752   5.620
 7603TIP3    H122686  -0.004   1.773   5.567
 7603TIP3    H222687   0.070   1.820   5.690
 7604TIP3   OH222688   1.762   1.155   6.234
 7604TIP3    H122689   1.676   1.191   6.208
 7604TIP3    H222690   1.822   1.190   6.165
 7605TIP3   OH222691   1.166   2.305   5.535
 7605TIP3    H122692   1.222   2.225   5.521
 7605TIP3    H222693   1.230   2.374   5.507
 7606TIP3   OH222694   1.320   2.088   5.451
 7606TIP3    H122695   1.274   2.009   5.418
 7606TIP3    H222696   1.356   2.054   5.535
 7607TIP3   OH222697   1.698   2.173   6.216
 7607TIP3    H122698   1.688   2.094   6.159
 7607TIP3    H222699   1.674   2.245   6.154
 7608TIP3   OH222700   0.988   1.562   5.473
 7608TIP3    H122701   0.908   1.613   5.450
 7608TIP3    H222702   1.036   1.561   5.389
 7609TIP3   OH222703   0.948   1.346   5.197
 7609TIP3    H122704   1.017   1.395   5.244
 7609TIP3    H222705   1.003   1.283   5.146
 7610TIP3   OH222706   1.894   1.802   6.061
 7610TIP3    H122707   1.812   1.857   6.069
 7610TIP3    H222708   1.923   1.829   5.971
 7611TIP3   OH222709   1.337   1.645   5.447
 7611TIP3    H122710   1.282   1.670   5.525
 7611TIP3    H222711   1.420   1.619   5.492
 7612TIP3   OH222712   1.573   1.686   6.357
 7612TIP3    H122713   1.571   1.770   6.407
 7612TIP3    H222714   1.486   1.691   6.312
 7613TIP3   OH222715   0.581   1.658   5.873
 7613TIP3    H122716   0.539   1.603   5.804
 7613TIP3    H222717   0.657   1.601   5.899
 7614TIP3   OH222718   0.700   2.058   6.012
 7614TIP3    H122719   0.680   2.007   5.932
 7614TIP3    H222720   0.790   2.025   6.033
 7615TIP3   OH222721   0.707   1.629   6.192
 7615TIP3    H122722   0.748   1.604   6.106
 7615TIP3    H222723   0.757   1.708   6.219
 7616TIP3   OH222724   0.841   2.172   6.542
 7616TIP3    H122725   0.784   2.233   6.594
 7616TIP3    H222726   0.773   2.117   6.498
 7617TIP3   OH222727   1.180   1.503   5.274
 7617TIP3    H122728   1.238   1.561   5.327
 7617TIP3    H222729   1.205   1.529   5.182
 7618TIP3   OH222730   0.595   1.712   6.629
 7618TIP3    H122731   0.609   1.800   6.672
 7618TIP3    H222732   0.500   1.714   6.614
 7619TIP3   OH222733   0.916   2.185   5.549
 7619TIP3    H122734   0.998   2.234   5.566
 7619TIP3    H222735   0.858   2.253   5.514
 7620TIP3   OH222736   0.636   2.350   6.621
 7620TIP3    H122737   0.601   2.336   6.531
 7620TIP3    H222738   0.558   2.331   6.677
 7621TIP3   OH222739   1.695   0.747   5.321
 7621TIP3    H122740   1.613   0.766   5.371
 7621TIP3    H222741   1.706   0.830   5.271
 7622TIP3   OH222742   0.473   1.514   5.665
 7622TIP3    H122743   0.399   1.561   5.621
 7622TIP3    H222744   0.430   1.429   5.684
 7623TIP3   OH222745   1.491   2.113   4.866
 7623TIP3    H122746   1.500   2.210   4.856
 7623TIP3    H222747   1.584   2.084   4.855
 7624TIP3   OH222748   0.061   2.065   6.214
 7624TIP3    H122749   0.152   2.037   6.197
 7624TIP3    H222750   0.077   2.145   6.266
 7625TIP3   OH222751   1.935   2.512   6.262
 7625TIP3    H122752   1.934   2.416   6.278
 7625TIP3    H222753   1.852   2.538   6.308
 7626TIP3   OH222754   1.032   2.306   6.393
 7626TIP3    H122755   1.040   2.396   6.432
 7626TIP3    H222756   0.970   2.263   6.455
 7627TIP3   OH222757   0.797   2.429   5.350
 7627TIP3    H122758   0.755   2.412   5.264
 7627TIP3    H222759   0.769   2.520   5.371
 7628TIP3   OH222760   0.241   2.281   5.734
 7628TIP3    H122761   0.289   2.270   5.819
 7628TIP3    H222762   0.180   2.204   5.739
 7629TIP3   OH222763   1.003   2.330   4.992
 7629TIP3    H122764   1.063   2.260   4.956
 7629TIP3    H222765   1.038   2.339   5.084
 7630TIP3   OH222766   1.052   2.378   5.264
 7630TIP3    H122767   0.965   2.386   5.307
 7630TIP3    H222768   1.106   2.342   5.337
 7631TIP3   OH222769   1.826   1.645   6.540
 7631TIP3    H122770   1.748   1.661   6.486
 7631TIP3    H222771   1.841   1.549   6.527
 7632TIP3   OH222772   0.412   2.039   6.570
 7632TIP3    H122773   0.480   2.038   6.640
 7632TIP3    H222774   0.340   1.991   6.614
 7633TIP3   OH222775   1.347   0.989   6.555
 7633TIP3    H122776   1.434   0.969   6.597
 7633TIP3    H222777   1.287   0.962   6.626
 7634TIP3   OH222778   1.594   1.420   6.456
 7634TIP3    H122779   1.547   1.416   6.542
 7634TIP3    H222780   1.571   1.509   6.423
 7635TIP3   OH222781   1.254   1.553   5.017
 7635TIP3    H122782   1.222   1.525   4.929
 7635TIP3    H222783   1.334   1.603   4.993
 7636TIP3   OH222784   0.957   0.931   5.326
 7636TIP3    H122785   0.923   0.940   5.417
 7636TIP3    H222786   0.949   0.835   5.316
 7637TIP3   OH222787   0.801   1.431   6.354
 7637TIP3    H122788   0.724   1.415   6.410
 7637TIP3    H222789   0.765   1.495   6.289
 7638TIP3   OH222790   0.672   1.282   5.887
 7638TIP3    H122791   0.587   1.242   5.913
 7638TIP3    H222792   0.679   1.247   5.796
 7639TIP3   OH222793   1.133   1.370   5.607
 7639TIP3    H122794   1.076   1.439   5.567
 7639TIP3    H222795   1.184   1.339   5.529
 7640TIP3   OH222796   1.303   1.643   6.695
 7640TIP3    H122797   1.288   1.568   6.756
 7640TIP3    H222798   1.396   1.663   6.714
 7641TIP3   OH222799   1.286   1.393   5.849
 7641TIP3    H122800   1.228   1.426   5.778
 7641TIP3    H222801   1.317   1.311   5.805
 7642TIP3   OH222802   1.296   1.641   6.270
 7642TIP3    H122803   1.328   1.568   6.212
 7642TIP3    H222804   1.267   1.589   6.348
 7643TIP3   OH222805   0.970   1.112   5.939
 7643TIP3    H122806   0.882   1.120   5.978
 7643TIP3    H222807   1.027   1.118   6.017
 7644TIP3   OH222808   0.669   1.179   5.637
 7644TIP3    H122809   0.764   1.172   5.618
 7644TIP3    H222810   0.628   1.171   5.549
 7645TIP3   OH222811   1.456   1.175   6.141
 7645TIP3    H122812   1.425   1.189   6.234
 7645TIP3    H222813   1.389   1.112   6.110
 7646TIP3   OH222814   0.511   1.159   5.403
 7646TIP3    H122815   0.431   1.149   5.351
 7646TIP3    H222816   0.567   1.210   5.341
 7647TIP3   OH222817   1.624   2.865   6.362
 7647TIP3    H122818   1.622   2.886   6.266
 7647TIP3    H222819   1.703   2.914   6.392
 7648TIP3   OH222820   0.618   1.950   6.752
 7648TIP3    H122821   0.697   1.987   6.797
 7648TIP3    H222822   0.553   1.988   6.814
 7649TIP3   OH222823   1.052   1.430   6.041
 7649TIP3    H122824   1.123   1.387   5.991
 7649TIP3    H222825   1.061   1.389   6.129
 7650TIP3   OH222826   1.037   1.312   6.315
 7650TIP3    H122827   0.953   1.358   6.338
 7650TIP3    H222828   1.099   1.357   6.375
 7651TIP3   OH222829   0.760   1.717   5.422
 7651TIP3    H122830   0.687   1.652   5.412
 7651TIP3    H222831   0.744   1.750   5.514
 7652TIP3   OH222832   1.664   1.951   6.055
 7652TIP3    H122833   1.688   1.999   5.972
 7652TIP3    H222834   1.578   1.911   6.031
 7653TIP3   OH222835   1.214   1.030   5.283
 7653TIP3    H122836   1.117   1.020   5.293
 7653TIP3    H222837   1.230   1.124   5.306
 7654TIP3   OH222838   1.156   2.033   6.425
 7654TIP3    H122839   1.181   2.015   6.516
 7654TIP3    H222840   1.126   2.125   6.427
 7655TIP3   OH222841   1.291   1.273   5.385
 7655TIP3    H122842   1.386   1.281   5.404
 7655TIP3    H222843   1.272   1.354   5.334
 7656TIP3   OH222844   0.446   1.736   6.104
 7656TIP3    H122845   0.487   1.709   6.019
 7656TIP3    H222846   0.505   1.692   6.168
 7657TIP3   OH222847   0.905   1.865   5.242
 7657TIP3    H122848   0.859   1.951   5.251
 7657TIP3    H222849   0.853   1.809   5.303
 7658TIP3   OH222850   1.057   1.768   6.735
 7658TIP3    H122851   1.002   1.718   6.672
 7658TIP3    H222852   1.147   1.740   6.706
 7659TIP3   OH222853   1.329   2.280   6.329
 7659TIP3    H122854   1.234   2.291   6.314
 7659TIP3    H222855   1.346   2.343   6.401
 7660TIP3   OH222856   1.733   1.363   5.226
 7660TIP3    H122857   1.670   1.318   5.165
 7660TIP3    H222858   1.729   1.452   5.185
 7661TIP3   OH222859   1.948   2.220   6.308
 7661TIP3    H122860   1.850   2.217   6.298
 7661TIP3    H222861   1.974   2.192   6.217
 7662TIP3   OH222862   1.427   2.185   5.132
 7662TIP3    H122863   1.407   2.118   5.198
 7662TIP3    H222864   1.442   2.133   5.051
 7663TIP3   OH222865   1.428   1.816   5.971
 7663TIP3    H122866   1.335   1.791   5.989
 7663TIP3    H222867   1.460   1.734   5.928
 7664TIP3   OH222868   0.553   2.041   5.725
 7664TIP3    H122869   0.556   2.122   5.671
 7664TIP3    H222870   0.458   2.026   5.732
 7665TIP3   OH222871   0.695   1.810   5.667
 7665TIP3    H122872   0.660   1.899   5.689
 7665TIP3    H222873   0.665   1.759   5.745
 7666TIP3   OH222874   0.822   2.389   6.200
 7666TIP3    H122875   0.874   2.455   6.150
 7666TIP3    H222876   0.893   2.346   6.251
 7667TIP3   OH222877   0.473   2.280   5.577
 7667TIP3    H122878   0.388   2.289   5.623
 7667TIP3    H222879   0.505   2.373   5.579
 7668TIP3   OH222880   1.204   2.003   6.153
 7668TIP3    H122881   1.203   2.013   6.250
 7668TIP3    H222882   1.297   1.984   6.136
 7669TIP3   OH222883   1.184   1.911   5.035
 7669TIP3    H122884   1.239   1.886   5.113
 7669TIP3    H222885   1.096   1.885   5.067
 7670TIP3   OH222886   1.453   2.559   6.205
 7670TIP3    H122887   1.390   2.490   6.175
 7670TIP3    H222888   1.448   2.621   6.128
 7671TIP3   OH222889   1.526   2.389   4.856
 7671TIP3    H122890   1.567   2.464   4.809
 7671TIP3    H222891   1.445   2.434   4.889
 7672TIP3   OH222892   1.344   1.843   5.250
 7672TIP3    H122893   1.334   1.779   5.323
 7672TIP3    H222894   1.442   1.844   5.240
 7673TIP3   OH222895   0.260   2.244   6.357
 7673TIP3    H122896   0.318   2.173   6.388
 7673TIP3    H222897   0.276   2.311   6.426
 7674TIP3   OH222898   0.550   1.894   5.035
 7674TIP3    H122899   0.569   1.803   5.005
 7674TIP3    H222900   0.534   1.880   5.130
 7675TIP3   OH222901   0.497   1.896   5.309
 7675TIP3    H122902   0.569   1.869   5.368
 7675TIP3    H222903   0.502   1.994   5.315
 7676TIP3   OH222904   0.245   1.575   5.514
 7676TIP3    H122905   0.184   1.630   5.569
 7676TIP3    H222906   0.266   1.641   5.445
 7677TIP3   OH222907   1.384   1.222   6.400
 7677TIP3    H122908   1.461   1.267   6.440
 7677TIP3    H222909   1.368   1.148   6.462
 7678TIP3   OH222910   1.266   0.983   5.561
 7678TIP3    H122911   1.249   1.009   5.468
 7678TIP3    H222912   1.303   1.065   5.599
 7679TIP3   OH222913   0.761   2.094   5.255
 7679TIP3    H122914   0.676   2.125   5.292
 7679TIP3    H222915   0.782   2.168   5.196
 7680TIP3   OH222916   0.957   1.171   5.673
 7680TIP3    H122917   1.022   1.242   5.656
 7680TIP3    H222918   0.961   1.165   5.771
 7681TIP3   OH222919   1.225   1.477   6.477
 7681TIP3    H122920   1.236   1.535   6.555
 7681TIP3    H222921   1.283   1.403   6.498
 7682TIP3   OH222922   1.108   0.889   5.770
 7682TIP3    H122923   1.079   0.965   5.825
 7682TIP3    H222924   1.164   0.933   5.702
 7683TIP3   OH222925   0.503   2.170   5.322
 7683TIP3    H122926   0.474   2.241   5.259
 7683TIP3    H222927   0.489   2.215   5.409
 7684TIP3   OH222928   1.861   1.378   6.459
 7684TIP3    H122929   1.763   1.375   6.463
 7684TIP3    H222930   1.877   1.343   6.370
 7685TIP3   OH222931   1.513   1.572   5.845
 7685TIP3    H122932   1.437   1.513   5.860
 7685TIP3    H222933   1.584   1.526   5.894
 7686TIP3   OH222934   0.219   1.807   5.310
 7686TIP3    H122935   0.285   1.876   5.327
 7686TIP3    H222936   0.269   1.752   5.247
 7687TIP3   OH222937   0.101   2.030   5.725
 7687TIP3    H122938   0.012   2.059   5.747
 7687TIP3    H222939   0.100   2.046   5.629
 7688TIP3   OH222940   0.254   2.583   6.765
 7688TIP3    H122941   0.330   2.588   6.825
 7688TIP3    H222942   0.254   2.486   6.750
 7689TIP3   OH222943   0.741   2.531   6.809
 7689TIP3    H122944   0.831   2.500   6.828
 7689TIP3    H222945   0.713   2.464   6.744
 7690TIP3   OH222946   0.715   2.098   4.948
 7690TIP3    H122947   0.659   2.028   4.988
 7690TIP3    H222948   0.791   2.044   4.919
 7691TIP3   OH222949   1.368   2.432   6.557
 7691TIP3    H122950   1.364   2.359   6.622
 7691TIP3    H222951   1.449   2.479   6.583
 7692TIP3   OH222952   1.152   2.139   4.858
 7692TIP3    H122953   1.196   2.076   4.919
 7692TIP3    H222954   1.214   2.140   4.782
 7693TIP3   OH222955   0.363   1.613   5.170
 7693TIP3    H122956   0.419   1.582   5.243
 7693TIP3    H222957   0.431   1.617   5.099
 7694TIP3   OH222958   1.009   2.050   6.736
 7694TIP3    H122959   0.954   2.061   6.656
 7694TIP3    H222960   1.029   1.954   6.736
 7695TIP3   OH222961   0.864   1.813   4.974
 7695TIP3    H122962   0.870   1.826   5.071
 7695TIP3    H222963   0.866   1.715   4.970
 7696TIP3   OH222964   1.485   2.052   6.353
 7696TIP3    H122965   1.559   2.099   6.310
 7696TIP3    H222966   1.415   2.120   6.346
 7697TIP3   OH222967   0.562   1.518   5.385
 7697TIP3    H122968   0.550   1.487   5.476
 7697TIP3    H222969   0.603   1.441   5.341
 7698TIP3   OH222970   0.832   1.576   6.623
 7698TIP3    H122971   0.759   1.642   6.623
 7698TIP3    H222972   0.881   1.600   6.541
 7699TIP3   OH222973   0.668   1.307   5.232
 7699TIP3    H122974   0.642   1.311   5.138
 7699TIP3    H222975   0.765   1.317   5.225
 7700TIP3   OH222976   1.352   1.981   6.753
 7700TIP3    H122977   1.435   1.967   6.706
 7700TIP3    H222978   1.356   1.915   6.824
 7701TIP3   OH222979   1.492   1.644   4.891
 7701TIP3    H122980   1.469   1.595   4.810
 7701TIP3    H222981   1.460   1.734   4.866
 7702TIP3   OH222982   0.993   1.376   6.738
 7702TIP3    H122983   0.946   1.311   6.684
 7702TIP3    H222984   0.937   1.454   6.719
 7703TIP3   OH222985   0.994   1.698   6.436
 7703TIP3    H122986   1.073   1.697   6.379
 7703TIP3    H222987   0.938   1.763   6.389
 7704TIP3   OH222988   1.575   1.660   6.809
 7704TIP3    H122989   1.627   1.578   6.816
 7704TIP3    H222990   1.640   1.722   6.774
 7705TIP3   OH222991   1.614   1.910   6.542
 7705TIP3    H122992   1.556   1.963   6.483
 7705TIP3    H222993   1.701   1.931   6.502
 7706TIP3   OH222994   1.242   1.422   6.840
 7706TIP3    H122995   1.228   1.437   6.935
 7706TIP3    H222996   1.150   1.405   6.807
 7707TIP3   OH222997   1.462   1.368   6.685
 7707TIP3    H122998   1.389   1.377   6.749
 7707TIP3    H222999   1.537   1.342   6.743
 7708TIP3   OH223000   1.681   1.312   6.843
 7708TIP3    H123001   1.701   1.218   6.861
 7708TIP3    H223002   1.682   1.353   6.932
 7709TIP3   OH223003   0.474   2.373   5.135
 7709TIP3    H123004   0.570   2.370   5.117
 7709TIP3    H223005   0.445   2.422   5.055
 7710TIP3   OH223006  -0.044   1.728   5.361
 7710TIP3    H123007   0.045   1.770   5.354
 7710TIP3    H223008  -0.023   1.639   5.328
 7711TIP3   OH223009  -0.124   2.361   5.752
 7711TIP3    H123010  -0.211   2.321   5.749
 7711TIP3    H223011  -0.083   2.316   5.829
 7712TIP3   OH223012  -0.005   2.232   5.958
 7712TIP3    H123013   0.003   2.151   6.010
 7712TIP3    H223014   0.051   2.292   6.011
 7713TIP3   OH223015   1.756   2.600   5.746
 7713TIP3    H123016   1.739   2.639   5.833
 7713TIP3    H223017   1.783   2.678   5.695
 7714TIP3   OH223018   1.764   2.641   6.035
 7714TIP3    H123019   1.719   2.555   6.022
 7714TIP3    H223020   1.837   2.613   6.093
 7715TIP3   OH223021   1.809   2.316   6.606
 7715TIP3    H123022   1.735   2.325   6.670
 7715TIP3    H223023   1.851   2.405   6.611
 7716TIP3   OH223024   1.625   1.830   5.227
 7716TIP3    H123025   1.696   1.893   5.201
 7716TIP3    H223026   1.666   1.790   5.307
 7717TIP3   OH223027   1.752   1.697   5.429
 7717TIP3    H123028   1.687   1.655   5.490
 7717TIP3    H223029   1.817   1.736   5.491
 7718TIP3   OH223030   1.800   2.086   5.858
 7718TIP3    H123031   1.858   2.025   5.810
 7718TIP3    H223032   1.802   2.166   5.802
 7719TIP3   OH223033   1.624   2.388   6.052
 7719TIP3    H123034   1.566   2.438   6.113
 7719TIP3    H223035   1.562   2.374   5.978
 7720TIP3   OH223036   1.691   1.604   5.078
 7720TIP3    H123037   1.619   1.608   5.011
 7720TIP3    H223038   1.665   1.680   5.134
 7721TIP3   OH223039   1.562   1.278   5.033
 7721TIP3    H123040   1.520   1.317   4.955
 7721TIP3    H223041   1.536   1.184   5.023
 7722TIP3   OH223042   1.567   1.552   5.577
 7722TIP3    H123043   1.576   1.455   5.575
 7722TIP3    H223044   1.554   1.569   5.673
 7723TIP3   OH223045   1.855   1.977   6.433
 7723TIP3    H123046   1.929   1.913   6.425
 7723TIP3    H223047   1.883   2.049   6.375
 7724TIP3   OH223048   2.041   1.785   6.453
 7724TIP3    H123049   1.968   1.733   6.494
 7724TIP3    H223050   2.115   1.722   6.466
 7725TIP3   OH223051   1.506   1.012   5.020
 7725TIP3    H123052   1.582   0.982   5.073
 7725TIP3    H223053   1.433   0.953   5.045
 7726TIP3   OH223054   1.562   1.268   5.473
 7726TIP3    H123055   1.603   1.180   5.489
 7726TIP3    H223056   1.621   1.302   5.405
 7727TIP3   OH223057   1.726   1.444   5.967
 7727TIP3    H123058   1.812   1.471   5.928
 7727TIP3    H223059   1.738   1.481   6.057
 7728TIP3   OH223060   1.791   1.587   6.201
 7728TIP3    H123061   1.713   1.622   6.249
 7728TIP3    H223062   1.824   1.667   6.155
 7729TIP3   OH223063   2.246   1.176   6.758
 7729TIP3    H123064   2.303   1.109   6.713
 7729TIP3    H223065   2.219   1.233   6.682
 7730TIP3   OH223066   1.673   1.019   5.510
 7730TIP3    H123067   1.721   1.003   5.593
 7730TIP3    H223068   1.612   0.942   5.509
 7731TIP3   OH223069   2.118   1.318   6.565
 7731TIP3    H123070   2.030   1.357   6.585
 7731TIP3    H223071   2.091   1.247   6.504
 7732TIP3   OH223072   1.754   0.956   5.141
 7732TIP3    H123073   1.795   0.882   5.091
 7732TIP3    H223074   1.822   1.026   5.135
 7733TIP3   OH223075   1.315   2.496   5.413
 7733TIP3    H123076   1.369   2.477   5.334
 7733TIP3    H223077   1.377   2.544   5.469
 7734TIP3   OH223078   0.348   2.327   6.733
 7734TIP3    H123079   0.292   2.248   6.739
 7734TIP3    H223080   0.414   2.304   6.803
 7735TIP3   OH223081   0.593   2.316   6.341
 7735TIP3    H123082   0.544   2.392   6.306
 7735TIP3    H223083   0.681   2.332   6.300
 7736TIP3   OH223084   1.042   2.573   6.482
 7736TIP3    H123085   1.088   2.569   6.569
 7736TIP3    H223086   1.111   2.617   6.427
 7737TIP3   OH223087   1.233   2.703   6.337
 7737TIP3    H123088   1.309   2.659   6.296
 7737TIP3    H223089   1.277   2.767   6.396
 7738TIP3   OH223090   2.016   1.081   6.440
 7738TIP3    H123091   1.924   1.074   6.408
 7738TIP3    H223092   2.048   0.989   6.427
 7739TIP3   OH223093   0.282   2.581   6.363
 7739TIP3    H123094   0.192   2.612   6.341
 7739TIP3    H223095   0.284   2.603   6.458
 7740TIP3   OH223096   0.519   2.581   6.222
 7740TIP3    H123097   0.442   2.584   6.283
 7740TIP3    H223098   0.471   2.588   6.138
 7741TIP3   OH223099   0.893   2.637   6.053
 7741TIP3    H123100   0.882   2.613   5.959
 7741TIP3    H223101   0.991   2.645   6.057
 7742TIP3   OH223102   1.441   2.731   5.988
 7742TIP3    H123103   1.407   2.803   5.932
 7742TIP3    H223104   1.407   2.651   5.940
 7743TIP3   OH223105   0.183   2.368   6.110
 7743TIP3    H123106   0.206   2.349   6.203
 7743TIP3    H223107   0.258   2.323   6.064
 7744TIP3   OH223108   0.379   2.242   5.967
 7744TIP3    H123109   0.395   2.157   6.013
 7744TIP3    H223110   0.470   2.278   5.962
 7745TIP3   OH223111   0.645   2.344   5.972
 7745TIP3    H123112   0.674   2.254   5.949
 7745TIP3    H223113   0.692   2.354   6.057
 7746TIP3   OH223114   1.229   0.991   6.062
 7746TIP3    H123115   1.180   0.908   6.070
 7746TIP3    H223116   1.302   0.964   6.004
 7747TIP3   OH223117   1.743   0.871   5.960
 7747TIP3    H123118   1.782   0.927   5.889
 7747TIP3    H223119   1.650   0.898   5.957
 7748TIP3   OH223120   1.839   0.977   5.727
 7748TIP3    H123121   1.913   0.926   5.687
 7748TIP3    H223122   1.872   1.069   5.713
 7749TIP3   OH223123   1.459   0.880   5.940
 7749TIP3    H123124   1.453   0.849   5.849
 7749TIP3    H223125   1.445   0.798   5.992
 7750TIP3   OH223126   1.489   0.807   5.499
 7750TIP3    H123127   1.402   0.851   5.510
 7750TIP3    H223128   1.471   0.721   5.543
 7751TIP3   OH223129  -0.043   2.142   5.513
 7751TIP3    H123130  -0.097   2.104   5.443
 7751TIP3    H223131  -0.050   2.237   5.490
 7752TIP3   OH223132   0.868   0.933   5.588
 7752TIP3    H123133   0.926   0.874   5.637
 7752TIP3    H223134   0.901   1.021   5.620
 7753TIP3   OH223135   0.743   2.336   5.083
 7753TIP3    H123136   0.833   2.357   5.049
 7753TIP3    H223137   0.722   2.260   5.026
 7754TIP3   OH223138   1.463   2.451   5.177
 7754TIP3    H123139   1.454   2.354   5.164
 7754TIP3    H223140   1.418   2.485   5.097
 7755TIP3   OH223141   0.048   2.167   5.145
 7755TIP3    H123142   0.052   2.209   5.232
 7755TIP3    H223143   0.138   2.130   5.134
 7756TIP3   OH223144   1.747   1.044   6.874
 7756TIP3    H123145   1.770   1.009   6.962
 7756TIP3    H223146   1.832   1.038   6.827
 7757TIP3   OH223147   1.689   2.597   6.364
 7757TIP3    H123148   1.608   2.565   6.319
 7757TIP3    H223149   1.670   2.693   6.366
 7758TIP3   OH223150   2.956   1.968   5.132
 7758TIP3    H123151   2.929   2.060   5.113
 7758TIP3    H223152   2.879   1.919   5.100
 7759TIP3   OH223153   2.954   1.967   5.511
 7759TIP3    H123154   2.984   1.937   5.598
 7759TIP3    H223155   2.912   1.888   5.475
 7760TIP3   OH223156   2.255   1.864   5.876
 7760TIP3    H123157   2.286   1.798   5.941
 7760TIP3    H223158   2.330   1.925   5.876
 7761TIP3   OH223159   3.197   2.270   5.192
 7761TIP3    H123160   3.183   2.199   5.257
 7761TIP3    H223161   3.224   2.344   5.249
 7762TIP3   OH223162   2.224   2.272   5.600
 7762TIP3    H123163   2.214   2.175   5.606
 7762TIP3    H223164   2.321   2.280   5.603
 7763TIP3   OH223165   1.932   1.478   5.389
 7763TIP3    H123166   1.884   1.562   5.403
 7763TIP3    H223167   1.861   1.422   5.354
 7764TIP3   OH223168   1.991   1.763   5.556
 7764TIP3    H123169   2.040   1.688   5.596
 7764TIP3    H223170   2.053   1.792   5.488
 7765TIP3   OH223171   2.845   2.733   5.208
 7765TIP3    H123172   2.894   2.661   5.164
 7765TIP3    H223173   2.838   2.700   5.298
 7766TIP3   OH223174   2.754   2.193   5.558
 7766TIP3    H123175   2.791   2.116   5.512
 7766TIP3    H223176   2.838   2.238   5.583
 7767TIP3   OH223177   3.766   1.514   5.558
 7767TIP3    H123178   3.794   1.598   5.599
 7767TIP3    H223179   3.786   1.532   5.464
 7768TIP3   OH223180   3.166   1.696   5.594
 7768TIP3    H123181   3.208   1.610   5.614
 7768TIP3    H223182   3.136   1.682   5.503
 7769TIP3   OH223183   2.501   1.355   5.559
 7769TIP3    H123184   2.481   1.428   5.497
 7769TIP3    H223185   2.453   1.281   5.515
 7770TIP3   OH223186   3.195   1.445   5.182
 7770TIP3    H123187   3.268   1.429   5.246
 7770TIP3    H223188   3.247   1.480   5.107
 7771TIP3   OH223189   2.137   1.558   5.665
 7771TIP3    H123190   2.219   1.538   5.713
 7771TIP3    H223191   2.149   1.502   5.586
 7772TIP3   OH223192   2.579   1.756   5.454
 7772TIP3    H123193   2.672   1.729   5.471
 7772TIP3    H223194   2.539   1.671   5.425
 7773TIP3   OH223195   3.840   1.723   5.727
 7773TIP3    H123196   3.756   1.770   5.707
 7773TIP3    H223197   3.848   1.742   5.822
 7774TIP3   OH223198   2.500   1.338   5.992
 7774TIP3    H123199   2.439   1.375   5.926
 7774TIP3    H223200   2.449   1.355   6.074
 7775TIP3   OH223201   2.851   2.191   5.001
 7775TIP3    H123202   2.805   2.164   4.921
 7775TIP3    H223203   2.806   2.275   5.022
 7776TIP3   OH223204   2.606   2.113   5.790
 7776TIP3    H123205   2.541   2.176   5.829
 7776TIP3    H223206   2.647   2.167   5.721
 7777TIP3   OH223207   3.407   1.447   5.351
 7777TIP3    H123208   3.403   1.395   5.432
 7777TIP3    H223209   3.464   1.522   5.378
 7778TIP3   OH223210   2.369   1.453   5.778
 7778TIP3    H123211   2.431   1.526   5.801
 7778TIP3    H223212   2.419   1.412   5.703
 7779TIP3   OH223213   2.432   2.304   5.883
 7779TIP3    H123214   2.407   2.392   5.847
 7779TIP3    H223215   2.355   2.290   5.943
 7780TIP3   OH223216   1.832   1.997   5.122
 7780TIP3    H123217   1.788   2.025   5.040
 7780TIP3    H223218   1.862   2.082   5.161
 7781TIP3   OH223219   3.270   2.511   5.362
 7781TIP3    H123220   3.180   2.502   5.402
 7781TIP3    H223221   3.261   2.598   5.318
 7782TIP3   OH223222   3.559   1.416   5.725
 7782TIP3    H123223   3.470   1.444   5.696
 7782TIP3    H223224   3.616   1.446   5.652
 7783TIP3   OH223225   2.859   1.059   5.706
 7783TIP3    H123226   2.846   0.963   5.723
 7783TIP3    H223227   2.780   1.096   5.752
 7784TIP3   OH223228   2.974   2.560   5.039
 7784TIP3    H123229   3.023   2.478   5.016
 7784TIP3    H223230   3.032   2.626   4.994
 7785TIP3   OH223231   3.115   2.346   4.939
 7785TIP3    H123232   3.074   2.266   4.902
 7785TIP3    H223233   3.149   2.311   5.024
 7786TIP3   OH223234   3.497   2.428   5.705
 7786TIP3    H123235   3.484   2.349   5.647
 7786TIP3    H223236   3.478   2.501   5.643
 7787TIP3   OH223237   2.786   1.820   4.961
 7787TIP3    H123238   2.705   1.870   4.937
 7787TIP3    H223239   2.833   1.816   4.876
 7788TIP3   OH223240   2.745   1.604   4.680
 7788TIP3    H123241   2.814   1.652   4.728
 7788TIP3    H223242   2.800   1.539   4.632
 7789TIP3   OH223243   3.691   2.064   5.550
 7789TIP3    H123244   3.608   2.115   5.556
 7789TIP3    H223245   3.718   2.086   5.459
 7790TIP3   OH223246   3.133   1.902   4.934
 7790TIP3    H123247   3.079   1.927   5.012
 7790TIP3    H223248   3.216   1.875   4.978
 7791TIP3   OH223249   3.369   1.943   5.843
 7791TIP3    H123250   3.365   2.027   5.893
 7791TIP3    H223251   3.282   1.946   5.798
 7792TIP3   OH223252   2.367   1.901   5.349
 7792TIP3    H123253   2.325   1.843   5.283
 7792TIP3    H223254   2.444   1.848   5.378
 7793TIP3   OH223255   2.498   2.315   5.497
 7793TIP3    H123256   2.476   2.264   5.418
 7793TIP3    H223257   2.588   2.282   5.517
 7794TIP3   OH223258   2.505   1.871   5.703
 7794TIP3    H123259   2.538   1.853   5.613
 7794TIP3    H223260   2.546   1.957   5.726
 7795TIP3   OH223261   3.028   2.509   5.481
 7795TIP3    H123262   3.013   2.588   5.535
 7795TIP3    H223263   3.014   2.435   5.545
 7796TIP3   OH223264   2.639   2.428   6.027
 7796TIP3    H123265   2.581   2.491   6.076
 7796TIP3    H223266   2.571   2.375   5.980
 7797TIP3   OH223267   2.975   1.761   4.759
 7797TIP3    H123268   3.034   1.819   4.812
 7797TIP3    H223269   3.001   1.786   4.667
 7798TIP3   OH223270   2.392   1.987   6.125
 7798TIP3    H123271   2.398   2.072   6.174
 7798TIP3    H223272   2.297   1.968   6.138
 7799TIP3   OH223273   2.717   2.441   5.032
 7799TIP3    H123274   2.793   2.495   5.058
 7799TIP3    H223275   2.654   2.506   5.000
 7800TIP3   OH223276   2.435   2.598   6.116
 7800TIP3    H123277   2.397   2.593   6.025
 7800TIP3    H223278   2.356   2.577   6.171
 7801TIP3   OH223279   3.491   1.009   4.817
 7801TIP3    H123280   3.407   1.028   4.862
 7801TIP3    H223281   3.501   1.083   4.755
 7802TIP3   OH223282   2.233   1.743   5.155
 7802TIP3    H123283   2.166   1.787   5.098
 7802TIP3    H223284   2.191   1.657   5.170
 7803TIP3   OH223285   3.288   2.370   4.356
 7803TIP3    H123286   3.298   2.467   4.342
 7803TIP3    H223287   3.380   2.339   4.342
 7804TIP3   OH223288   2.014   2.126   6.062
 7804TIP3    H123289   1.950   2.102   5.993
 7804TIP3    H223290   2.051   2.040   6.089
 7805TIP3   OH223291   1.865   2.317   5.702
 7805TIP3    H123292   1.961   2.327   5.696
 7805TIP3    H223293   1.839   2.402   5.741
 7806TIP3   OH223294   3.733   2.770   5.750
 7806TIP3    H123295   3.731   2.673   5.763
 7806TIP3    H223296   3.650   2.795   5.795
 7807TIP3   OH223297   2.838   2.558   5.884
 7807TIP3    H123298   2.838   2.650   5.918
 7807TIP3    H223299   2.767   2.518   5.939
 7808TIP3   OH223300   2.597   2.688   4.835
 7808TIP3    H123301   2.549   2.668   4.753
 7808TIP3    H223302   2.562   2.777   4.859
 7809TIP3   OH223303   2.036   2.537   5.220
 7809TIP3    H123304   2.086   2.527   5.304
 7809TIP3    H223305   1.973   2.464   5.230
 7810TIP3   OH223306   2.799   2.588   4.477
 7810TIP3    H123307   2.859   2.518   4.441
 7810TIP3    H223308   2.833   2.596   4.569
 7811TIP3   OH223309   2.849   2.635   4.748
 7811TIP3    H123310   2.761   2.644   4.791
 7811TIP3    H223311   2.900   2.591   4.818
 7812TIP3   OH223312   3.624   1.904   6.023
 7812TIP3    H123313   3.542   1.918   5.974
 7812TIP3    H223314   3.637   1.808   6.013
 7813TIP3   OH223315   2.220   2.309   6.053
 7813TIP3    H123316   2.269   2.294   6.136
 7813TIP3    H223317   2.145   2.246   6.062
 7814TIP3   OH223318   2.618   1.134   5.833
 7814TIP3    H123319   2.528   1.103   5.809
 7814TIP3    H223320   2.594   1.217   5.879
 7815TIP3   OH223321   3.150   1.249   6.029
 7815TIP3    H123322   3.217   1.222   6.095
 7815TIP3    H223323   3.065   1.229   6.074
 7816TIP3   OH223324   3.396   1.680   5.950
 7816TIP3    H123325   3.344   1.674   6.034
 7816TIP3    H223326   3.366   1.765   5.913
 7817TIP3   OH223327   3.049   1.810   4.500
 7817TIP3    H123328   3.018   1.785   4.411
 7817TIP3    H223329   3.131   1.857   4.478
 7818TIP3   OH223330   2.763   1.185   4.805
 7818TIP3    H123331   2.732   1.182   4.897
 7818TIP3    H223332   2.726   1.100   4.773
 7819TIP3   OH223333   2.549   1.648   5.853
 7819TIP3    H123334   2.500   1.670   5.935
 7819TIP3    H223335   2.533   1.729   5.800
 7820TIP3   OH223336   2.433   1.535   5.367
 7820TIP3    H123337   2.340   1.508   5.384
 7820TIP3    H223338   2.447   1.494   5.279
 7821TIP3   OH223339   2.924   1.621   5.094
 7821TIP3    H123340   2.870   1.692   5.053
 7821TIP3    H223341   2.979   1.592   5.019
 7822TIP3   OH223342   3.097   1.900   6.181
 7822TIP3    H123343   3.073   1.829   6.245
 7822TIP3    H223344   3.190   1.916   6.205
 7823TIP3   OH223345   3.082   1.651   5.334
 7823TIP3    H123346   3.023   1.680   5.263
 7823TIP3    H223347   3.115   1.568   5.293
 7824TIP3   OH223348   2.368   1.678   6.063
 7824TIP3    H123349   2.394   1.742   6.131
 7824TIP3    H223350   2.357   1.596   6.115
 7825TIP3   OH223351   2.418   1.154   4.772
 7825TIP3    H123352   2.412   1.152   4.869
 7825TIP3    H223353   2.338   1.206   4.750
 7826TIP3   OH223354   1.961   1.202   5.642
 7826TIP3    H123355   2.036   1.233   5.696
 7826TIP3    H223356   2.003   1.167   5.562
 7827TIP3   OH223357   1.937   1.181   5.162
 7827TIP3    H123358   1.983   1.221   5.085
 7827TIP3    H223359   1.877   1.255   5.184
 7828TIP3   OH223360   3.094   1.898   5.758
 7828TIP3    H123361   3.125   1.824   5.700
 7828TIP3    H223362   3.064   1.847   5.836
 7829TIP3   OH223363   2.758   1.359   5.430
 7829TIP3    H123364   2.676   1.356   5.482
 7829TIP3    H223365   2.826   1.358   5.499
 7830TIP3   OH223366   2.195   1.412   5.437
 7830TIP3    H123367   2.101   1.419   5.411
 7830TIP3    H223368   2.219   1.321   5.414
 7831TIP3   OH223369   2.466   1.409   5.125
 7831TIP3    H123370   2.561   1.424   5.105
 7831TIP3    H223371   2.421   1.434   5.041
 7832TIP3   OH223372   3.254   1.432   5.631
 7832TIP3    H123373   3.218   1.444   5.722
 7832TIP3    H223374   3.189   1.371   5.593
 7833TIP3   OH223375   2.302   1.443   4.904
 7833TIP3    H123376   2.230   1.399   4.856
 7833TIP3    H223377   2.355   1.478   4.829
 7834TIP3   OH223378   3.421   3.120   5.849
 7834TIP3    H123379   3.418   3.145   5.754
 7834TIP3    H223380   3.497   3.173   5.881
 7835TIP3   OH223381   2.380   2.231   6.272
 7835TIP3    H123382   2.459   2.264   6.320
 7835TIP3    H223383   2.315   2.232   6.345
 7836TIP3   OH223384   2.844   1.685   5.527
 7836TIP3    H123385   2.916   1.644   5.476
 7836TIP3    H223386   2.855   1.644   5.614
 7837TIP3   OH223387   2.368   1.174   5.402
 7837TIP3    H123388   2.336   1.093   5.448
 7837TIP3    H223389   2.423   1.137   5.332
 7838TIP3   OH223390   2.821   1.580   5.817
 7838TIP3    H123391   2.731   1.617   5.831
 7838TIP3    H223392   2.878   1.641   5.868
 7839TIP3   OH223393   2.557   1.974   4.910
 7839TIP3    H123394   2.485   1.908   4.900
 7839TIP3    H223395   2.540   2.007   5.002
 7840TIP3   OH223396   3.459   2.209   5.542
 7840TIP3    H123397   3.482   2.257   5.460
 7840TIP3    H223398   3.373   2.168   5.519
 7841TIP3   OH223399   3.016   1.286   4.771
 7841TIP3    H123400   2.919   1.271   4.779
 7841TIP3    H223401   3.026   1.381   4.795
 7842TIP3   OH223402   2.962   2.293   5.908
 7842TIP3    H123403   2.974   2.265   6.000
 7842TIP3    H223404   2.917   2.379   5.918
 7843TIP3   OH223405   3.086   1.532   4.875
 7843TIP3    H123406   3.182   1.537   4.891
 7843TIP3    H223407   3.069   1.611   4.820
 7844TIP3   OH223408   2.248   1.992   5.589
 7844TIP3    H123409   2.288   1.964   5.504
 7844TIP3    H223410   2.287   1.930   5.651
 7845TIP3   OH223411   2.702   2.122   4.730
 7845TIP3    H123412   2.655   2.209   4.739
 7845TIP3    H223413   2.648   2.066   4.790
 7846TIP3   OH223414   2.129   1.916   6.200
 7846TIP3    H123415   2.155   1.905   6.294
 7846TIP3    H223416   2.061   1.847   6.190
 7847TIP3   OH223417   2.854   2.032   6.216
 7847TIP3    H123418   2.795   1.969   6.170
 7847TIP3    H223419   2.942   1.997   6.192
 7848TIP3   OH223420   3.118   2.553   5.800
 7848TIP3    H123421   3.022   2.548   5.814
 7848TIP3    H223422   3.145   2.602   5.881
 7849TIP3   OH223423   3.530   1.620   4.712
 7849TIP3    H123424   3.467   1.574   4.652
 7849TIP3    H223425   3.526   1.708   4.670
 7850TIP3   OH223426   3.746   2.479   5.794
 7850TIP3    H123427   3.648   2.474   5.786
 7850TIP3    H223428   3.771   2.449   5.704
 7851TIP3   OH223429   3.226   2.441   4.620
 7851TIP3    H123430   3.203   2.371   4.683
 7851TIP3    H223431   3.239   2.393   4.536
 7852TIP3   OH223432   3.224   2.070   5.461
 7852TIP3    H123433   3.131   2.045   5.474
 7852TIP3    H223434   3.258   1.991   5.416
 7853TIP3   OH223435   2.348   2.295   5.207
 7853TIP3    H123436   2.349   2.379   5.158
 7853TIP3    H223437   2.254   2.285   5.225
 7854TIP3   OH223438   1.911   1.604   4.912
 7854TIP3    H123439   1.959   1.686   4.934
 7854TIP3    H223440   1.835   1.609   4.975
 7855TIP3   OH223441   2.492   2.065   5.157
 7855TIP3    H123442   2.455   2.154   5.174
 7855TIP3    H223443   2.456   2.014   5.232
 7856TIP3   OH223444   2.619   2.642   5.682
 7856TIP3    H123445   2.660   2.715   5.632
 7856TIP3    H223446   2.694   2.608   5.733
 7857TIP3   OH223447   2.269   2.537   5.063
 7857TIP3    H123448   2.184   2.542   5.111
 7857TIP3    H223449   2.299   2.630   5.069
 7858TIP3   OH223450   3.010   2.276   5.639
 7858TIP3    H123451   3.001   2.276   5.737
 7858TIP3    H223452   3.089   2.222   5.627
 7859TIP3   OH223453   2.979   2.170   4.523
 7859TIP3    H123454   3.034   2.145   4.600
 7859TIP3    H223455   2.892   2.142   4.554
 7860TIP3   OH223456   3.258   2.810   5.691
 7860TIP3    H123457   3.180   2.752   5.686
 7860TIP3    H223458   3.240   2.874   5.619
 7861TIP3   OH223459   3.323   2.645   4.343
 7861TIP3    H123460   3.363   2.718   4.292
 7861TIP3    H223461   3.242   2.691   4.374
 7862TIP3   OH223462   2.344   1.420   6.209
 7862TIP3    H123463   2.248   1.426   6.226
 7862TIP3    H223464   2.372   1.360   6.281
 7863TIP3   OH223465   3.140   2.104   4.739
 7863TIP3    H123466   3.130   2.037   4.810
 7863TIP3    H223467   3.237   2.101   4.727
 7864TIP3   OH223468   2.066   2.506   5.837
 7864TIP3    H123469   2.111   2.429   5.875
 7864TIP3    H223470   2.083   2.572   5.904
 7865TIP3   OH223471   2.347   2.150   4.521
 7865TIP3    H123472   2.364   2.059   4.492
 7865TIP3    H223473   2.330   2.137   4.616
 7866TIP3   OH223474   2.294   2.154   4.794
 7866TIP3    H123475   2.363   2.125   4.855
 7866TIP3    H223476   2.300   2.252   4.802
 7867TIP3   OH223477   2.030   1.848   4.996
 7867TIP3    H123478   1.965   1.893   5.055
 7867TIP3    H223479   2.046   1.919   4.931
 7868TIP3   OH223480   3.178   1.485   5.889
 7868TIP3    H123481   3.256   1.522   5.932
 7868TIP3    H223482   3.161   1.404   5.942
 7869TIP3   OH223483   3.053   1.240   5.052
 7869TIP3    H123484   3.043   1.262   4.958
 7869TIP3    H223485   3.096   1.320   5.088
 7870TIP3   OH223486   2.558   2.352   4.743
 7870TIP3    H123487   2.473   2.381   4.779
 7870TIP3    H223488   2.576   2.423   4.679
 7871TIP3   OH223489   2.748   1.415   5.156
 7871TIP3    H123490   2.814   1.485   5.138
 7871TIP3    H223491   2.753   1.408   5.254
 7872TIP3   OH223492   3.017   1.736   5.964
 7872TIP3    H123493   3.033   1.791   6.044
 7872TIP3    H223494   3.072   1.657   5.982
 7873TIP3   OH223495   2.894   1.146   5.261
 7873TIP3    H123496   2.888   1.222   5.321
 7873TIP3    H223497   2.953   1.182   5.191
 7874TIP3   OH223498   2.301   2.428   4.809
 7874TIP3    H123499   2.270   2.499   4.747
 7874TIP3    H223500   2.285   2.470   4.896
 7875TIP3   OH223501   2.404   1.140   5.048
 7875TIP3    H123502   2.402   1.230   5.085
 7875TIP3    H223503   2.499   1.121   5.057
 7876TIP3   OH223504   3.661   1.634   5.942
 7876TIP3    H123505   3.563   1.635   5.953
 7876TIP3    H223506   3.666   1.592   5.855
 7877TIP3   OH223507   3.309   1.829   5.333
 7877TIP3    H123508   3.233   1.770   5.345
 7877TIP3    H223509   3.380   1.782   5.381
 7878TIP3   OH223510   2.019   2.061   4.802
 7878TIP3    H123511   2.085   2.132   4.814
 7878TIP3    H223512   2.067   2.007   4.736
 7879TIP3   OH223513   1.967   1.334   4.935
 7879TIP3    H123514   1.965   1.431   4.930
 7879TIP3    H223515   1.881   1.309   4.899
 7880TIP3   OH223516   3.277   2.784   5.283
 7880TIP3    H123517   3.234   2.830   5.208
 7880TIP3    H223518   3.371   2.802   5.263
 7881TIP3   OH223519   2.353   1.054   5.812
 7881TIP3    H123520   2.321   1.020   5.725
 7881TIP3    H223521   2.342   0.975   5.869
 7882TIP3   OH223522   1.893   2.268   5.192
 7882TIP3    H123523   1.823   2.303   5.249
 7882TIP3    H223524   1.870   2.311   5.106
 7883TIP3   OH223525   2.047   2.811   6.262
 7883TIP3    H123526   2.133   2.809   6.309
 7883TIP3    H223527   2.026   2.716   6.260
 7884TIP3   OH223528   2.535   2.786   6.299
 7884TIP3    H123529   2.625   2.756   6.316
 7884TIP3    H223530   2.507   2.723   6.230
 7885TIP3   OH223531   2.513   2.354   4.436
 7885TIP3    H123532   2.456   2.283   4.475
 7885TIP3    H223533   2.587   2.301   4.403
 7886TIP3   OH223534   3.173   2.682   6.037
 7886TIP3    H123535   3.161   2.613   6.106
 7886TIP3    H223536   3.247   2.734   6.072
 7887TIP3   OH223537   2.950   2.397   4.346
 7887TIP3    H123538   2.992   2.332   4.405
 7887TIP3    H223539   3.008   2.396   4.268
 7888TIP3   OH223540   2.179   2.218   6.460
 7888TIP3    H123541   2.195   2.123   6.469
 7888TIP3    H223542   2.090   2.220   6.419
 7889TIP3   OH223543   2.155   1.872   4.654
 7889TIP3    H123544   2.209   1.836   4.727
 7889TIP3    H223545   2.224   1.876   4.583
 7890TIP3   OH223546   2.792   2.305   6.234
 7890TIP3    H123547   2.744   2.317   6.150
 7890TIP3    H223548   2.820   2.211   6.230
 7891TIP3   OH223549   2.660   2.067   4.462
 7891TIP3    H123550   2.665   2.081   4.559
 7891TIP3    H223551   2.662   1.969   4.458
 7892TIP3   OH223552   3.281   2.308   5.841
 7892TIP3    H123553   3.352   2.359   5.797
 7892TIP3    H223554   3.206   2.369   5.832
 7893TIP3   OH223555   2.298   1.945   6.441
 7893TIP3    H123556   2.378   1.892   6.426
 7893TIP3    H223557   2.318   1.982   6.529
 7894TIP3   OH223558   2.365   1.774   4.878
 7894TIP3    H123559   2.339   1.732   4.962
 7894TIP3    H223560   2.400   1.697   4.828
 7895TIP3   OH223561   2.632   1.836   6.104
 7895TIP3    H123562   2.557   1.898   6.111
 7895TIP3    H223563   2.680   1.871   6.025
 7896TIP3   OH223564   2.464   1.566   4.719
 7896TIP3    H123565   2.438   1.566   4.625
 7896TIP3    H223566   2.561   1.573   4.712
 7897TIP3   OH223567   3.149   2.240   6.239
 7897TIP3    H123568   3.232   2.217   6.195
 7897TIP3    H223569   3.146   2.175   6.312
 7898TIP3   OH223570   3.288   1.902   4.382
 7898TIP3    H123571   3.268   1.853   4.300
 7898TIP3    H223572   3.255   1.991   4.355
 7899TIP3   OH223573   2.758   1.625   6.233
 7899TIP3    H123574   2.756   1.545   6.177
 7899TIP3    H223575   2.713   1.691   6.175
 7900TIP3   OH223576   2.759   1.410   6.037
 7900TIP3    H123577   2.785   1.453   5.953
 7900TIP3    H223578   2.665   1.389   6.020
 7901TIP3   OH223579   2.788   1.947   5.910
 7901TIP3    H123580   2.870   1.956   5.859
 7901TIP3    H223581   2.731   2.016   5.868
 7902TIP3   OH223582   3.371   1.915   6.295
 7902TIP3    H123583   3.419   1.831   6.303
 7902TIP3    H223584   3.438   1.975   6.261
 7903TIP3   OH223585   3.411   2.167   6.030
 7903TIP3    H123586   3.352   2.220   5.972
 7903TIP3    H223587   3.498   2.188   5.988
 7904TIP3   OH223588   2.623   1.744   6.453
 7904TIP3    H123589   2.560   1.672   6.471
 7904TIP3    H223590   2.666   1.713   6.371
 7905TIP3   OH223591   2.891   1.177   6.104
 7905TIP3    H123592   2.843   1.259   6.082
 7905TIP3    H223593   2.821   1.109   6.093
 7906TIP3   OH223594   3.018   1.681   6.321
 7906TIP3    H123595   3.006   1.678   6.418
 7906TIP3    H223596   2.928   1.656   6.293
 7907TIP3   OH223597   3.257   1.627   6.176
 7907TIP3    H123598   3.179   1.632   6.236
 7907TIP3    H223599   3.327   1.597   6.236
 7908TIP3   OH223600   3.493   1.571   6.329
 7908TIP3    H123601   3.499   1.475   6.349
 7908TIP3    H223602   3.483   1.611   6.418
 7909TIP3   OH223603   2.472   1.520   6.513
 7909TIP3    H123604   2.482   1.428   6.480
 7909TIP3    H223605   2.507   1.510   6.604
 7910TIP3   OH223606   2.987   1.186   6.361
 7910TIP3    H123607   3.054   1.115   6.356
 7910TIP3    H223608   2.946   1.180   6.273
 7911TIP3   OH223609   3.051   1.401   6.522
 7911TIP3    H123610   3.028   1.331   6.457
 7911TIP3    H223611   2.974   1.461   6.516
 7912TIP3   OH223612   2.271   2.633   4.622
 7912TIP3    H123613   2.366   2.628   4.602
 7912TIP3    H223614   2.241   2.679   4.541
 7913TIP3   OH223615   1.751   2.013   4.836
 7913TIP3    H123616   1.846   2.035   4.826
 7913TIP3    H223617   1.748   1.923   4.797
 7914TIP3   OH223618   1.668   2.624   5.250
 7914TIP3    H123619   1.598   2.562   5.219
 7914TIP3    H223620   1.711   2.569   5.319
 7915TIP3   OH223621   1.804   2.479   5.438
 7915TIP3    H123622   1.785   2.407   5.499
 7915TIP3    H223623   1.848   2.541   5.498
 7916TIP3   OH223624   3.528   2.877   5.237
 7916TIP3    H123625   3.554   2.909   5.325
 7916TIP3    H223626   3.590   2.924   5.179
 7917TIP3   OH223627   3.560   2.896   5.518
 7917TIP3    H123628   3.515   2.809   5.515
 7917TIP3    H223629   3.633   2.875   5.578
 7918TIP3   OH223630   3.606   2.572   6.093
 7918TIP3    H123631   3.531   2.579   6.156
 7918TIP3    H223632   3.645   2.662   6.098
 7919TIP3   OH223633   3.421   2.088   4.715
 7919TIP3    H123634   3.491   2.149   4.687
 7919TIP3    H223635   3.462   2.046   4.794
 7920TIP3   OH223636   3.548   1.955   4.917
 7920TIP3    H123637   3.483   1.910   4.976
 7920TIP3    H223638   3.611   1.993   4.981
 7921TIP3   OH223639   3.603   2.345   5.351
 7921TIP3    H123640   3.656   2.281   5.299
 7921TIP3    H223641   3.590   2.418   5.288
 7922TIP3   OH223642   3.436   2.646   5.545
 7922TIP3    H123643   3.365   2.687   5.598
 7922TIP3    H223644   3.384   2.597   5.477
 7923TIP3   OH223645   3.488   1.862   4.565
 7923TIP3    H123646   3.416   1.864   4.498
 7923TIP3    H223647   3.460   1.938   4.621
 7924TIP3   OH223648   3.356   1.537   4.521
 7924TIP3    H123649   3.318   1.572   4.439
 7924TIP3    H223650   3.332   1.441   4.513
 7925TIP3   OH223651   3.364   1.808   5.064
 7925TIP3    H123652   3.372   1.712   5.058
 7925TIP3    H223653   3.351   1.823   5.160
 7926TIP3   OH223654   1.990   1.884   5.810
 7926TIP3    H123655   1.989   1.856   5.717
 7926TIP3    H223656   2.087   1.885   5.827
 7927TIP3   OH223657   3.652   2.234   5.921
 7927TIP3    H123658   3.726   2.169   5.911
 7927TIP3    H223659   3.679   2.304   5.859
 7928TIP3   OH223660   3.840   2.042   5.940
 7928TIP3    H123661   3.764   1.993   5.978
 7928TIP3    H223662   3.911   1.976   5.954
 7929TIP3   OH223663   3.303   1.270   4.510
 7929TIP3    H123664   3.380   1.238   4.561
 7929TIP3    H223665   3.232   1.208   4.534
 7930TIP3   OH223666   3.359   1.526   4.960
 7930TIP3    H123667   3.398   1.437   4.977
 7930TIP3    H223668   3.419   1.557   4.890
 7931TIP3   OH223669   3.523   1.702   5.454
 7931TIP3    H123670   3.609   1.728   5.415
 7931TIP3    H223671   3.535   1.738   5.544
 7932TIP3   OH223672   3.590   1.844   5.688
 7932TIP3    H123673   3.511   1.877   5.736
 7932TIP3    H223674   3.621   1.925   5.643
 7933TIP3   OH223675   2.204   1.568   6.481
 7933TIP3    H123676   2.302   1.565   6.485
 7933TIP3    H223677   2.182   1.485   6.527
 7934TIP3   OH223678   4.046   1.436   6.244
 7934TIP3    H123679   4.100   1.368   6.199
 7934TIP3    H223680   4.015   1.490   6.169
 7935TIP3   OH223681   3.463   1.277   5.000
 7935TIP3    H123682   3.515   1.259   5.082
 7935TIP3    H223683   3.407   1.197   4.996
 7936TIP3   OH223684   2.168   1.261   5.815
 7936TIP3    H123685   2.231   1.188   5.827
 7936TIP3    H223686   2.229   1.337   5.811
 7937TIP3   OH223687   1.972   1.536   5.890
 7937TIP3    H123688   2.021   1.530   5.806
 7937TIP3    H223689   2.000   1.622   5.922
 7938TIP3   OH223690   3.914   1.575   6.052
 7938TIP3    H123691   3.827   1.614   6.072
 7938TIP3    H223692   3.886   1.505   5.990
 7939TIP3   OH223693   3.553   1.210   4.630
 7939TIP3    H123694   3.584   1.134   4.577
 7939TIP3    H223695   3.622   1.277   4.616
 7940TIP3   OH223696   1.954   1.039   5.390
 7940TIP3    H123697   1.860   1.039   5.416
 7940TIP3    H223698   1.953   1.098   5.312
 7941TIP3   OH223699   3.111   2.744   4.894
 7941TIP3    H123700   3.165   2.726   4.814
 7941TIP3    H223701   3.166   2.807   4.943
 7942TIP3   OH223702   2.174   1.120   6.205
 7942TIP3    H123703   2.125   1.113   6.288
 7942TIP3    H223704   2.106   1.158   6.146
 7943TIP3   OH223705   2.215   2.546   6.282
 7943TIP3    H123706   2.123   2.517   6.270
 7943TIP3    H223707   2.231   2.527   6.376
 7944TIP3   OH223708   2.392   2.574   5.829
 7944TIP3    H123709   2.341   2.648   5.793
 7944TIP3    H223710   2.477   2.592   5.785
 7945TIP3   OH223711   2.840   2.823   5.967
 7945TIP3    H123712   2.880   2.824   6.057
 7945TIP3    H223713   2.906   2.874   5.916
 7946TIP3   OH223714   3.018   2.974   5.824
 7946TIP3    H123715   3.090   2.922   5.786
 7946TIP3    H223716   3.067   3.032   5.886
 7947TIP3   OH223717   3.811   1.338   5.926
 7947TIP3    H123718   3.720   1.334   5.893
 7947TIP3    H223719   3.839   1.244   5.913
 7948TIP3   OH223720   2.072   2.840   5.850
 7948TIP3    H123721   1.981   2.871   5.828
 7948TIP3    H223722   2.076   2.865   5.943
 7949TIP3   OH223723   2.307   2.815   5.709
 7949TIP3    H123724   2.221   2.827   5.757
 7949TIP3    H223725   2.283   2.847   5.620
 7950TIP3   OH223726   2.733   2.846   5.505
 7950TIP3    H123727   2.661   2.867   5.443
 7950TIP3    H223728   2.745   2.931   5.552
 7951TIP3   OH223729   3.000   2.784   5.556
 7951TIP3    H123730   2.905   2.799   5.539
 7951TIP3    H223731   3.040   2.864   5.520
 7952TIP3   OH223732   3.211   2.977   5.477
 7952TIP3    H123733   3.195   3.061   5.428
 7952TIP3    H223734   3.234   2.916   5.403
 7953TIP3   OH223735   1.992   2.637   5.591
 7953TIP3    H123736   2.005   2.609   5.684
 7953TIP3    H223737   2.062   2.584   5.547
 7954TIP3   OH223738   2.177   2.496   5.448
 7954TIP3    H123739   2.191   2.414   5.501
 7954TIP3    H223740   2.267   2.535   5.450
 7955TIP3   OH223741   2.442   2.597   5.454
 7955TIP3    H123742   2.472   2.505   5.445
 7955TIP3    H223743   2.481   2.619   5.541
 7956TIP3   OH223744   3.015   1.253   5.543
 7956TIP3    H123745   2.972   1.184   5.597
 7956TIP3    H223746   3.087   1.203   5.499
 7957TIP3   OH223747   3.542   1.136   5.454
 7957TIP3    H123748   3.578   1.186   5.378
 7957TIP3    H223749   3.446   1.150   5.445
 7958TIP3   OH223750   3.633   1.237   5.217
 7958TIP3    H123751   3.705   1.185   5.175
 7958TIP3    H223752   3.666   1.328   5.201
 7959TIP3   OH223753   2.265   0.961   5.562
 7959TIP3    H123754   2.174   0.928   5.562
 7959TIP3    H223755   2.316   0.877   5.559
 7960TIP3   OH223756   2.049   0.830   5.208
 7960TIP3    H123757   2.081   0.888   5.137
 7960TIP3    H223758   2.021   0.894   5.276
 7961TIP3   OH223759   2.706   0.995   5.441
 7961TIP3    H123760   2.767   1.045   5.384
 7961TIP3    H223761   2.728   1.031   5.528
 7962TIP3   OH223762   3.260   1.139   5.426
 7962TIP3    H123763   3.254   1.105   5.336
 7962TIP3    H223764   3.243   1.058   5.479
 7963TIP3   OH223765   3.281   1.064   4.990
 7963TIP3    H123766   3.192   1.103   4.999
 7963TIP3    H223767   3.268   0.977   5.035
 7964TIP3   OH223768   1.771   2.398   4.988
 7964TIP3    H123769   1.685   2.366   4.954
 7964TIP3    H223770   1.756   2.493   4.982
 7965TIP3   OH223771   2.167   0.991   4.973
 7965TIP3    H123772   2.216   0.928   4.917
 7965TIP3    H223773   2.240   1.045   5.010
 7966TIP3   OH223774   2.681   1.164   5.072
 7966TIP3    H123775   2.741   1.117   5.132
 7966TIP3    H223776   2.702   1.257   5.097
 7967TIP3   OH223777   2.539   2.593   4.568
 7967TIP3    H123778   2.629   2.612   4.535
 7967TIP3    H223779   2.518   2.516   4.511
 7968TIP3   OH223780   3.259   2.707   4.663
 7968TIP3    H123781   3.251   2.610   4.651
 7968TIP3    H223782   3.215   2.740   4.582
 7969TIP3   OH223783   2.472   1.242   6.452
 7969TIP3    H123784   2.439   1.171   6.510
 7969TIP3    H223785   2.567   1.243   6.479
 7970TIP3   OH223786   2.721   1.239   6.571
 7970TIP3    H123787   2.806   1.213   6.532
 7970TIP3    H223788   2.707   1.169   6.638
 7971TIP3   OH223789   1.845   2.431   4.630
 7971TIP3    H123790   1.841   2.452   4.724
 7971TIP3    H223791   1.933   2.389   4.621
 7972TIP3   OH223792   3.545   1.299   6.360
 7972TIP3    H123793   3.565   1.269   6.451
 7972TIP3    H223794   3.633   1.294   6.317
 7973TIP3   OH223795   3.488   2.853   5.851
 7973TIP3    H123796   3.408   2.819   5.806
 7973TIP3    H223797   3.467   2.948   5.855
 7974TIP3   OH223798   4.753   2.226   4.619
 7974TIP3    H123799   4.724   2.317   4.598
 7974TIP3    H223800   4.676   2.176   4.586
 7975TIP3   OH223801   4.753   2.224   4.997
 7975TIP3    H123802   4.779   2.191   5.084
 7975TIP3    H223803   4.708   2.147   4.959
 7976TIP3   OH223804   4.051   2.121   5.363
 7976TIP3    H123805   4.083   2.054   5.426
 7976TIP3    H223806   4.129   2.179   5.357
 7977TIP3   OH223807   4.995   2.525   4.679
 7977TIP3    H123808   4.978   2.456   4.744
 7977TIP3    H223809   5.019   2.601   4.735
 7978TIP3   OH223810   4.021   2.530   5.091
 7978TIP3    H123811   4.011   2.433   5.094
 7978TIP3    H223812   4.118   2.538   5.086
 7979TIP3   OH223813   3.729   1.739   4.877
 7979TIP3    H123814   3.674   1.819   4.887
 7979TIP3    H223815   3.663   1.676   4.843
 7980TIP3   OH223816   3.790   2.022   5.045
 7980TIP3    H123817   3.836   1.944   5.083
 7980TIP3    H223818   3.844   2.041   4.967
 7981TIP3   OH223819   4.641   2.989   4.695
 7981TIP3    H123820   4.690   2.917   4.649
 7981TIP3    H223821   4.633   2.954   4.784
 7982TIP3   OH223822   4.549   2.450   5.047
 7982TIP3    H123823   4.585   2.374   4.998
 7982TIP3    H223824   4.634   2.493   5.070
 7983TIP3   OH223825   5.563   1.771   5.044
 7983TIP3    H123826   5.590   1.854   5.087
 7983TIP3    H223827   5.581   1.791   4.951
 7984TIP3   OH223828   4.964   1.954   5.081
 7984TIP3    H123829   5.004   1.866   5.100
 7984TIP3    H223830   4.931   1.939   4.990
 7985TIP3   OH223831   4.300   1.612   5.046
 7985TIP3    H123832   4.276   1.683   4.983
 7985TIP3    H223833   4.253   1.536   5.002
 7986TIP3   OH223834   4.992   1.703   4.670
 7986TIP3    H123835   5.066   1.686   4.733
 7986TIP3    H223836   5.042   1.738   4.594
 7987TIP3   OH223837   3.933   1.815   5.152
 7987TIP3    H123838   4.015   1.791   5.199
 7987TIP3    H223839   3.942   1.757   5.073
 7988TIP3   OH223840   4.374   2.012   4.943
 7988TIP3    H123841   4.467   1.985   4.958
 7988TIP3    H223842   4.333   1.928   4.912
 7989TIP3   OH223843   5.636   1.980   5.213
 7989TIP3    H123844   5.552   2.026   5.194
 7989TIP3    H223845   5.643   1.997   5.309
 7990TIP3   OH223846   4.297   1.596   5.480
 7990TIP3    H123847   4.236   1.630   5.412
 7990TIP3    H223848   4.244   1.613   5.561
 7991TIP3   OH223849   4.648   2.448   4.487
 7991TIP3    H123850   4.601   2.421   4.408
 7991TIP3    H223851   4.602   2.532   4.509
 7992TIP3   OH223852   4.404   2.370   5.278
 7992TIP3    H123853   4.338   2.433   5.315
 7992TIP3    H223854   4.443   2.422   5.206
 7993TIP3   OH223855   5.207   1.703   4.837
 7993TIP3    H123856   5.196   1.651   4.918
 7993TIP3    H223857   5.259   1.779   4.867
 7994TIP3   OH223858   4.167   1.710   5.264
 7994TIP3    H123859   4.230   1.782   5.286
 7994TIP3    H223860   4.215   1.668   5.189
 7995TIP3   OH223861   4.230   2.562   5.372
 7995TIP3    H123862   4.203   2.647   5.333
 7995TIP3    H223863   4.151   2.546   5.430
 7996TIP3   OH223864   3.628   2.253   4.609
 7996TIP3    H123865   3.584   2.278   4.526
 7996TIP3    H223866   3.656   2.339   4.645
 7997TIP3   OH223867   5.067   2.768   4.850
 7997TIP3    H123868   4.977   2.759   4.890
 7997TIP3    H223869   5.058   2.854   4.804
 7998TIP3   OH223870   5.355   1.674   5.213
 7998TIP3    H123871   5.266   1.699   5.182
 7998TIP3    H223872   5.411   1.702   5.138
 7999TIP3   OH223873   4.657   1.316   5.195
 7999TIP3    H123874   4.642   1.221   5.208
 7999TIP3    H223875   4.577   1.353   5.240
 8000TIP3   OH223876   4.771   2.816   4.527
 8000TIP3    H123877   4.820   2.734   4.503
 8000TIP3    H223878   4.829   2.883   4.482
 8001TIP3   OH223879   4.911   2.601   4.426
 8001TIP3    H123880   4.867   2.524   4.389
 8001TIP3    H223881   4.946   2.566   4.511
 8002TIP3   OH223882   5.294   2.684   5.192
 8002TIP3    H123883   5.280   2.606   5.134
 8002TIP3    H223884   5.274   2.758   5.130
 8003TIP3   OH223885   4.583   2.078   4.448
 8003TIP3    H123886   4.501   2.126   4.426
 8003TIP3    H223887   4.627   2.072   4.362
 8004TIP3   OH223888   4.541   1.861   4.168
 8004TIP3    H123889   4.611   1.909   4.215
 8004TIP3    H223890   4.595   1.795   4.120
 8005TIP3   OH223891   5.487   2.321   5.037
 8005TIP3    H123892   5.404   2.372   5.043
 8005TIP3    H223893   5.515   2.343   4.945
 8006TIP3   OH223894   4.930   2.160   4.421
 8006TIP3    H123895   4.874   2.185   4.499
 8006TIP3    H223896   5.012   2.132   4.467
 8007TIP3   OH223897   5.166   2.200   5.329
 8007TIP3    H123898   5.160   2.285   5.377
 8007TIP3    H223899   5.078   2.200   5.285
 8008TIP3   OH223900   4.162   2.158   4.836
 8008TIP3    H123901   4.118   2.100   4.770
 8008TIP3    H223902   4.238   2.103   4.864
 8009TIP3   OH223903   4.292   2.570   4.985
 8009TIP3    H123904   4.269   2.523   4.904
 8009TIP3    H223905   4.382   2.536   5.004
 8010TIP3   OH223906   4.304   2.126   5.193
 8010TIP3    H123907   4.332   2.109   5.101
 8010TIP3    H223908   4.343   2.214   5.211
 8011TIP3   OH223909   4.826   2.766   4.969
 8011TIP3    H123910   4.809   2.845   5.022
 8011TIP3    H223911   4.810   2.692   5.031
 8012TIP3   OH223912   4.435   2.684   5.516
 8012TIP3    H123913   4.375   2.748   5.562
 8012TIP3    H223914   4.369   2.631   5.467
 8013TIP3   OH223915   4.773   2.015   4.247
 8013TIP3    H123916   4.830   2.075   4.300
 8013TIP3    H223917   4.798   2.041   4.155
 8014TIP3   OH223918   4.189   2.242   5.614
 8014TIP3    H123919   4.193   2.328   5.661
 8014TIP3    H223920   4.094   2.222   5.623
 8015TIP3   OH223921   4.513   2.697   4.521
 8015TIP3    H123922   4.588   2.754   4.545
 8015TIP3    H223923   4.450   2.760   4.483
 8016TIP3   OH223924   4.231   2.855   5.602
 8016TIP3    H123925   4.195   2.851   5.511
 8016TIP3    H223926   4.152   2.832   5.656
 8017TIP3   OH223927   5.287   1.259   4.295
 8017TIP3    H123928   5.205   1.276   4.346
 8017TIP3    H223929   5.297   1.342   4.245
 8018TIP3   OH223930   4.027   2.000   4.645
 8018TIP3    H123931   3.962   2.044   4.586
 8018TIP3    H223932   3.988   1.913   4.655
 8019TIP3   OH223933   5.083   2.627   3.842
 8019TIP3    H123934   5.091   2.724   3.829
 8019TIP3    H223935   5.176   2.598   3.829
 8020TIP3   OH223936   3.810   2.383   5.549
 8020TIP3    H123937   3.744   2.361   5.480
 8020TIP3    H223938   3.846   2.295   5.574
 8021TIP3   OH223939   3.663   2.577   5.181
 8021TIP3    H123940   3.759   2.571   5.174
 8021TIP3    H223941   3.652   2.656   5.236
 8022TIP3   OH223942   5.530   3.027   5.237
 8022TIP3    H123943   5.527   2.930   5.249
 8022TIP3    H223944   5.446   3.052   5.282
 8023TIP3   OH223945   4.635   2.813   5.373
 8023TIP3    H123946   4.635   2.906   5.404
 8023TIP3    H223947   4.563   2.775   5.427
 8024TIP3   OH223948   4.394   2.944   4.323
 8024TIP3    H123949   4.347   2.923   4.240
 8024TIP3    H223950   4.361   3.034   4.345
 8025TIP3   OH223951   3.832   2.793   4.706
 8025TIP3    H123952   3.879   2.783   4.792
 8025TIP3    H223953   3.773   2.716   4.710
 8026TIP3   OH223954   4.597   2.844   3.965
 8026TIP3    H123955   4.655   2.774   3.929
 8026TIP3    H223956   4.630   2.852   4.057
 8027TIP3   OH223957   4.646   2.892   4.236
 8027TIP3    H123958   4.557   2.901   4.277
 8027TIP3    H223959   4.694   2.848   4.307
 8028TIP3   OH223960   5.419   2.161   5.510
 8028TIP3    H123961   5.338   2.174   5.459
 8028TIP3    H223962   5.433   2.065   5.499
 8029TIP3   OH223963   4.015   2.566   5.540
 8029TIP3    H123964   4.064   2.549   5.622
 8029TIP3    H223965   3.941   2.502   5.546
 8030TIP3   OH223966   4.415   1.391   5.319
 8030TIP3    H123967   4.326   1.358   5.294
 8030TIP3    H223968   4.389   1.473   5.365
 8031TIP3   OH223969   4.946   1.507   5.516
 8031TIP3    H123970   5.012   1.478   5.581
 8031TIP3    H223971   4.861   1.485   5.560
 8032TIP3   OH223972   5.192   1.937   5.438
 8032TIP3    H123973   5.140   1.931   5.521
 8032TIP3    H223974   5.162   2.021   5.399
 8033TIP3   OH223975   4.848   2.067   3.992
 8033TIP3    H123976   4.813   2.039   3.905
 8033TIP3    H223977   4.927   2.117   3.965
 8034TIP3   OH223978   4.563   1.439   4.292
 8034TIP3    H123979   4.528   1.437   4.383
 8034TIP3    H223980   4.522   1.357   4.258
 8035TIP3   OH223981   4.348   1.904   5.342
 8035TIP3    H123982   4.294   1.924   5.421
 8035TIP3    H223983   4.331   1.985   5.287
 8036TIP3   OH223984   4.229   1.792   4.855
 8036TIP3    H123985   4.136   1.764   4.871
 8036TIP3    H223986   4.243   1.752   4.766
 8037TIP3   OH223987   4.722   1.880   4.582
 8037TIP3    H123988   4.666   1.950   4.541
 8037TIP3    H223989   4.773   1.849   4.506
 8038TIP3   OH223990   4.895   2.158   5.670
 8038TIP3    H123991   4.871   2.085   5.731
 8038TIP3    H223992   4.989   2.169   5.691
 8039TIP3   OH223993   4.880   1.909   4.821
 8039TIP3    H123994   4.819   1.937   4.750
 8039TIP3    H223995   4.911   1.825   4.780
 8040TIP3   OH223996   4.166   1.935   5.549
 8040TIP3    H123997   4.185   1.999   5.620
 8040TIP3    H223998   4.151   1.853   5.599
 8041TIP3   OH223999   4.217   1.413   4.260
 8041TIP3    H124000   4.207   1.405   4.357
 8041TIP3    H224001   4.133   1.458   4.236
 8042TIP3   OH224002   3.752   1.467   5.139
 8042TIP3    H124003   3.838   1.487   5.181
 8042TIP3    H224004   3.776   1.428   5.052
 8043TIP3   OH224005   3.734   1.434   4.646
 8043TIP3    H124006   3.780   1.475   4.570
 8043TIP3    H224007   3.674   1.507   4.672
 8044TIP3   OH224008   4.893   2.154   5.246
 8044TIP3    H124009   4.923   2.081   5.187
 8044TIP3    H224010   4.861   2.102   5.323
 8045TIP3   OH224011   4.557   1.617   4.917
 8045TIP3    H124012   4.471   1.612   4.965
 8045TIP3    H224013   4.620   1.615   4.990
 8046TIP3   OH224014   3.991   1.668   4.924
 8046TIP3    H124015   3.896   1.676   4.899
 8046TIP3    H224016   4.012   1.575   4.902
 8047TIP3   OH224017   4.263   1.671   4.612
 8047TIP3    H124018   4.357   1.682   4.586
 8047TIP3    H224019   4.214   1.690   4.529
 8048TIP3   OH224020   5.049   1.688   5.118
 8048TIP3    H124021   5.012   1.700   5.208
 8048TIP3    H224022   4.984   1.626   5.080
 8049TIP3   OH224023   4.099   1.702   4.394
 8049TIP3    H124024   4.026   1.655   4.350
 8049TIP3    H224025   4.149   1.733   4.315
 8050TIP3   OH224026   5.217   3.377   5.335
 8050TIP3    H124027   5.213   3.401   5.241
 8050TIP3    H224028   5.292   3.431   5.367
 8051TIP3   OH224029   4.176   2.488   5.758
 8051TIP3    H124030   4.254   2.520   5.807
 8051TIP3    H224031   4.110   2.487   5.831
 8052TIP3   OH224032   4.642   1.943   5.015
 8052TIP3    H124033   4.710   1.898   4.963
 8052TIP3    H224034   4.650   1.899   5.102
 8053TIP3   OH224035   4.171   1.428   4.891
 8053TIP3    H124036   4.129   1.349   4.933
 8053TIP3    H224037   4.208   1.389   4.810
 8054TIP3   OH224038   4.617   1.837   5.302
 8054TIP3    H124039   4.527   1.871   5.316
 8054TIP3    H224040   4.673   1.898   5.354
 8055TIP3   OH224041   4.354   2.230   4.398
 8055TIP3    H124042   4.282   2.164   4.387
 8055TIP3    H224043   4.336   2.263   4.490
 8056TIP3   OH224044   5.255   2.465   5.029
 8056TIP3    H124045   5.277   2.514   4.947
 8056TIP3    H224046   5.169   2.424   5.006
 8057TIP3   OH224047   4.812   1.543   4.257
 8057TIP3    H124048   4.716   1.524   4.266
 8057TIP3    H224049   4.819   1.638   4.282
 8058TIP3   OH224050   4.759   2.550   5.395
 8058TIP3    H124051   4.768   2.522   5.486
 8058TIP3    H224052   4.714   2.636   5.402
 8059TIP3   OH224053   4.882   1.789   4.364
 8059TIP3    H124054   4.978   1.795   4.378
 8059TIP3    H224055   4.862   1.867   4.309
 8060TIP3   OH224056   4.049   2.254   5.076
 8060TIP3    H124057   4.084   2.223   4.990
 8060TIP3    H224058   4.079   2.184   5.136
 8061TIP3   OH224059   4.499   2.379   4.219
 8061TIP3    H124060   4.452   2.466   4.227
 8061TIP3    H224061   4.444   2.323   4.278
 8062TIP3   OH224062   3.926   2.170   5.686
 8062TIP3    H124063   3.944   2.156   5.781
 8062TIP3    H224064   3.855   2.106   5.670
 8063TIP3   OH224065   4.649   2.285   5.708
 8063TIP3    H124066   4.589   2.227   5.658
 8063TIP3    H224067   4.736   2.251   5.678
 8064TIP3   OH224068   4.916   2.809   5.288
 8064TIP3    H124069   4.819   2.804   5.301
 8064TIP3    H224070   4.941   2.859   5.368
 8065TIP3   OH224071   5.327   1.876   4.198
 8065TIP3    H124072   5.263   1.831   4.138
 8065TIP3    H224073   5.321   1.965   4.157
 8066TIP3   OH224074   5.543   2.736   5.280
 8066TIP3    H124075   5.445   2.731   5.273
 8066TIP3    H224076   5.568   2.706   5.190
 8067TIP3   OH224077   5.027   2.697   4.108
 8067TIP3    H124078   4.997   2.628   4.169
 8067TIP3    H224079   5.034   2.650   4.023
 8068TIP3   OH224080   5.020   2.326   4.950
 8068TIP3    H124081   4.927   2.300   4.962
 8068TIP3    H224082   5.054   2.247   4.903
 8069TIP3   OH224083   4.145   2.553   4.698
 8069TIP3    H124084   4.146   2.635   4.645
 8069TIP3    H224085   4.050   2.538   4.707
 8070TIP3   OH224086   3.708   1.861   4.400
 8070TIP3    H124087   3.755   1.943   4.423
 8070TIP3    H224088   3.631   1.866   4.462
 8071TIP3   OH224089   4.290   2.323   4.646
 8071TIP3    H124090   4.252   2.411   4.663
 8071TIP3    H224091   4.251   2.271   4.718
 8072TIP3   OH224092   4.414   2.899   5.169
 8072TIP3    H124093   4.454   2.972   5.117
 8072TIP3    H224094   4.492   2.866   5.218
 8073TIP3   OH224095   4.067   2.793   4.552
 8073TIP3    H124096   3.980   2.800   4.597
 8073TIP3    H224097   4.097   2.886   4.555
 8074TIP3   OH224098   4.807   2.533   5.126
 8074TIP3    H124099   4.798   2.532   5.224
 8074TIP3    H224100   4.884   2.477   5.112
 8075TIP3   OH224101   4.776   2.425   4.008
 8075TIP3    H124102   4.828   2.400   4.088
 8075TIP3    H224103   4.688   2.398   4.036
 8076TIP3   OH224104   5.054   3.068   5.178
 8076TIP3    H124105   4.976   3.010   5.171
 8076TIP3    H224106   5.037   3.132   5.105
 8077TIP3   OH224107   5.119   2.902   3.829
 8077TIP3    H124108   5.153   2.973   3.774
 8077TIP3    H224109   5.038   2.947   3.863
 8078TIP3   OH224110   4.138   1.678   5.697
 8078TIP3    H124111   4.041   1.683   5.709
 8078TIP3    H224112   4.163   1.614   5.766
 8079TIP3   OH224113   4.937   2.360   4.225
 8079TIP3    H124114   4.926   2.294   4.297
 8079TIP3    H224115   5.034   2.358   4.214
 8080TIP3   OH224116   3.855   2.763   5.327
 8080TIP3    H124117   3.905   2.686   5.358
 8080TIP3    H224118   3.881   2.829   5.393
 8081TIP3   OH224119   4.146   2.406   4.008
 8081TIP3    H124120   4.158   2.314   3.978
 8081TIP3    H224121   4.126   2.392   4.103
 8082TIP3   OH224122   4.091   2.411   4.281
 8082TIP3    H124123   4.160   2.382   4.342
 8082TIP3    H224124   4.096   2.509   4.288
 8083TIP3   OH224125   3.828   2.106   4.484
 8083TIP3    H124126   3.762   2.149   4.541
 8083TIP3    H224127   3.842   2.176   4.417
 8084TIP3   OH224128   4.973   1.743   5.377
 8084TIP3    H124129   5.054   1.777   5.418
 8084TIP3    H224130   4.956   1.662   5.428
 8085TIP3   OH224131   4.854   1.495   4.539
 8085TIP3    H124132   4.838   1.518   4.445
 8085TIP3    H224133   4.891   1.578   4.574
 8086TIP3   OH224134   4.356   2.610   4.231
 8086TIP3    H124135   4.269   2.638   4.266
 8086TIP3    H224136   4.371   2.679   4.165
 8087TIP3   OH224137   4.549   1.671   4.643
 8087TIP3    H124138   4.613   1.744   4.626
 8087TIP3    H224139   4.549   1.666   4.741
 8088TIP3   OH224140   4.813   1.993   5.451
 8088TIP3    H124141   4.830   2.046   5.531
 8088TIP3    H224142   4.867   1.913   5.466
 8089TIP3   OH224143   4.693   1.405   4.751
 8089TIP3    H124144   4.678   1.485   4.804
 8089TIP3    H224145   4.750   1.439   4.679
 8090TIP3   OH224146   4.098   2.685   4.296
 8090TIP3    H124147   4.068   2.754   4.233
 8090TIP3    H224148   4.082   2.728   4.382
 8091TIP3   OH224149   4.202   1.397   4.536
 8091TIP3    H124150   4.199   1.487   4.572
 8091TIP3    H224151   4.297   1.378   4.544
 8092TIP3   OH224152   5.457   1.891   5.428
 8092TIP3    H124153   5.360   1.892   5.440
 8092TIP3    H224154   5.462   1.847   5.342
 8093TIP3   OH224155   5.105   2.086   4.820
 8093TIP3    H124156   5.028   2.027   4.831
 8093TIP3    H224157   5.176   2.037   4.868
 8094TIP3   OH224158   3.816   2.317   4.290
 8094TIP3    H124159   3.881   2.389   4.298
 8094TIP3    H224160   3.862   2.262   4.223
 8095TIP3   OH224161   3.766   1.592   4.422
 8095TIP3    H124162   3.757   1.689   4.416
 8095TIP3    H224163   3.683   1.562   4.383
 8096TIP3   OH224164   5.073   3.040   4.771
 8096TIP3    H124165   5.030   3.087   4.696
 8096TIP3    H224166   5.167   3.059   4.749
 8097TIP3   OH224167   4.151   1.311   5.298
 8097TIP3    H124168   4.118   1.279   5.211
 8097TIP3    H224169   4.138   1.232   5.355
 8098TIP3   OH224170   3.693   2.533   4.681
 8098TIP3    H124171   3.616   2.561   4.733
 8098TIP3    H224172   3.669   2.569   4.593
 8099TIP3   OH224173   3.843   3.067   5.748
 8099TIP3    H124174   3.929   3.065   5.795
 8099TIP3    H224175   3.820   2.972   5.747
 8100TIP3   OH224176   4.330   3.037   5.793
 8100TIP3    H124177   4.424   3.014   5.799
 8100TIP3    H224178   4.302   2.979   5.719
 8101TIP3   OH224179   4.309   2.611   3.924
 8101TIP3    H124180   4.251   2.540   3.961
 8101TIP3    H224181   4.383   2.557   3.890
 8102TIP3   OH224182   4.967   2.940   5.525
 8102TIP3    H124183   4.957   2.870   5.594
 8102TIP3    H224184   5.043   2.992   5.558
 8103TIP3   OH224185   4.746   2.654   3.833
 8103TIP3    H124186   4.789   2.587   3.890
 8103TIP3    H224187   4.801   2.653   3.753
 8104TIP3   OH224188   3.976   2.476   5.949
 8104TIP3    H124189   3.992   2.380   5.953
 8104TIP3    H224190   3.887   2.479   5.907
 8105TIP3   OH224191   3.952   2.130   4.141
 8105TIP3    H124192   4.004   2.092   4.213
 8105TIP3    H224193   4.020   2.133   4.070
 8106TIP3   OH224194   4.585   2.560   5.721
 8106TIP3    H124195   4.540   2.574   5.636
 8106TIP3    H224196   4.614   2.466   5.715
 8107TIP3   OH224197   4.461   2.326   3.949
 8107TIP3    H124198   4.462   2.339   4.046
 8107TIP3    H224199   4.460   2.228   3.943
 8108TIP3   OH224200   5.078   2.565   5.330
 8108TIP3    H124201   5.148   2.616   5.284
 8108TIP3    H224202   5.002   2.626   5.319
 8109TIP3   OH224203   4.094   2.210   5.930
 8109TIP3    H124204   4.165   2.147   5.913
 8109TIP3    H224205   4.118   2.242   6.020
 8110TIP3   OH224206   4.165   2.029   4.367
 8110TIP3    H124207   4.134   1.986   4.448
 8110TIP3    H224208   4.197   1.953   4.314
 8111TIP3   OH224209   4.431   2.098   5.596
 8111TIP3    H124210   4.351   2.154   5.599
 8111TIP3    H224211   4.475   2.129   5.514
 8112TIP3   OH224212   4.260   1.824   4.205
 8112TIP3    H124213   4.232   1.822   4.111
 8112TIP3    H224214   4.357   1.831   4.197
 8113TIP3   OH224215   4.947   2.498   5.729
 8113TIP3    H124216   5.025   2.473   5.677
 8113TIP3    H224217   4.943   2.428   5.796
 8114TIP3   OH224218   5.087   2.157   3.865
 8114TIP3    H124219   5.062   2.108   3.784
 8114TIP3    H224220   5.054   2.246   3.840
 8115TIP3   OH224221   4.555   1.882   5.719
 8115TIP3    H124222   4.551   1.802   5.664
 8115TIP3    H224223   4.509   1.948   5.662
 8116TIP3   OH224224   4.555   1.669   5.525
 8116TIP3    H124225   4.581   1.709   5.440
 8116TIP3    H224226   4.461   1.645   5.508
 8117TIP3   OH224227   4.587   2.208   5.400
 8117TIP3    H124228   4.665   2.212   5.344
 8117TIP3    H224229   4.528   2.274   5.357
 8118TIP3   OH224230   5.168   2.173   5.784
 8118TIP3    H124231   5.214   2.088   5.788
 8118TIP3    H224232   5.235   2.231   5.746
 8119TIP3   OH224233   5.207   2.425   5.520
 8119TIP3    H124234   5.148   2.477   5.459
 8119TIP3    H224235   5.294   2.444   5.477
 8120TIP3   OH224236   4.432   1.996   5.949
 8120TIP3    H124237   4.362   1.930   5.962
 8120TIP3    H224238   4.465   1.972   5.860
 8121TIP3   OH224239   4.687   1.434   5.592
 8121TIP3    H124240   4.638   1.516   5.569
 8121TIP3    H224241   4.618   1.366   5.580
 8122TIP3   OH224242   4.813   1.939   5.809
 8122TIP3    H124243   4.799   1.927   5.905
 8122TIP3    H224244   4.724   1.914   5.777
 8123TIP3   OH224245   5.054   1.889   5.665
 8123TIP3    H124246   4.976   1.888   5.723
 8123TIP3    H224247   5.125   1.854   5.723
 8124TIP3   OH224248   5.288   1.828   5.817
 8124TIP3    H124249   5.296   1.732   5.835
 8124TIP3    H224250   5.280   1.867   5.906
 8125TIP3   OH224251   4.271   1.777   6.000
 8125TIP3    H124252   4.275   1.687   5.964
 8125TIP3    H224253   4.304   1.762   6.090
 8126TIP3   OH224254   4.784   1.444   5.849
 8126TIP3    H124255   4.850   1.372   5.842
 8126TIP3    H224256   4.742   1.437   5.760
 8127TIP3   OH224257   4.848   1.658   6.009
 8127TIP3    H124258   4.825   1.587   5.944
 8127TIP3    H224259   4.770   1.717   6.002
 8128TIP3   OH224260   4.067   2.888   4.110
 8128TIP3    H124261   4.163   2.885   4.089
 8128TIP3    H224262   4.035   2.934   4.030
 8129TIP3   OH224263   3.548   2.267   4.326
 8129TIP3    H124264   3.643   2.289   4.312
 8129TIP3    H224265   3.541   2.179   4.284
 8130TIP3   OH224266   3.461   2.881   4.739
 8130TIP3    H124267   3.393   2.818   4.705
 8130TIP3    H224268   3.506   2.825   4.806
 8131TIP3   OH224269   3.597   2.736   4.926
 8131TIP3    H124270   3.587   2.660   4.985
 8131TIP3    H224271   3.647   2.796   4.984
 8132TIP3   OH224272   5.326   3.130   4.724
 8132TIP3    H124273   5.350   3.165   4.812
 8132TIP3    H224274   5.382   3.183   4.665
 8133TIP3   OH224275   5.356   3.153   5.006
 8133TIP3    H124276   5.311   3.066   5.001
 8133TIP3    H224277   5.429   3.131   5.065
 8134TIP3   OH224278   5.403   2.829   5.581
 8134TIP3    H124279   5.328   2.836   5.643
 8134TIP3    H224280   5.441   2.919   5.585
 8135TIP3   OH224281   5.218   2.343   4.201
 8135TIP3    H124282   5.288   2.406   4.175
 8135TIP3    H224283   5.259   2.302   4.280
 8136TIP3   OH224284   5.345   2.211   4.404
 8136TIP3    H124285   5.279   2.167   4.462
 8136TIP3    H224286   5.406   2.250   4.469
 8137TIP3   OH224287   5.400   2.602   4.839
 8137TIP3    H124288   5.451   2.538   4.785
 8137TIP3    H224289   5.386   2.675   4.776
 8138TIP3   OH224290   5.232   2.902   5.033
 8138TIP3    H124291   5.160   2.945   5.084
 8138TIP3    H224292   5.181   2.854   4.964
 8139TIP3   OH224293   5.284   2.118   4.051
 8139TIP3    H124294   5.212   2.120   3.984
 8139TIP3    H224295   5.256   2.194   4.107
 8140TIP3   OH224296   5.157   1.791   4.005
 8140TIP3    H124297   5.111   1.830   3.930
 8140TIP3    H224298   5.130   1.696   3.996
 8141TIP3   OH224299   5.161   2.065   4.551
 8141TIP3    H124300   5.166   1.968   4.546
 8141TIP3    H224301   5.147   2.080   4.647
 8142TIP3   OH224302   3.786   2.140   5.297
 8142TIP3    H124303   3.785   2.110   5.203
 8142TIP3    H224304   3.883   2.141   5.313
 8143TIP3   OH224305   5.448   2.490   5.409
 8143TIP3    H124306   5.521   2.425   5.399
 8143TIP3    H224307   5.473   2.559   5.345
 8144TIP3   OH224308   5.636   2.299   5.429
 8144TIP3    H124309   5.560   2.249   5.465
 8144TIP3    H224310   5.707   2.233   5.442
 8145TIP3   OH224311   5.098   1.525   3.994
 8145TIP3    H124312   5.171   1.493   4.050
 8145TIP3    H224313   5.023   1.468   4.018
 8146TIP3   OH224314   5.156   1.782   4.448
 8146TIP3    H124315   5.195   1.693   4.464
 8146TIP3    H224316   5.214   1.814   4.377
 8147TIP3   OH224317   5.319   1.957   4.941
 8147TIP3    H124318   5.405   1.985   4.902
 8147TIP3    H224319   5.330   1.994   5.031
 8148TIP3   OH224320   5.386   2.101   5.175
 8148TIP3    H124321   5.307   2.133   5.222
 8148TIP3    H224322   5.417   2.182   5.129
 8149TIP3   OH224323   4.004   1.829   5.976
 8149TIP3    H124324   4.101   1.819   5.974
 8149TIP3    H224325   3.978   1.743   6.016
 8150TIP3   OH224326   5.840   1.692   5.731
 8150TIP3    H124327   5.895   1.624   5.687
 8150TIP3    H224328   5.811   1.747   5.655
 8151TIP3   OH224329   5.265   1.531   4.484
 8151TIP3    H124330   5.311   1.514   4.569
 8151TIP3    H224331   5.203   1.455   4.481
 8152TIP3   OH224332   3.967   1.518   5.308
 8152TIP3    H124333   4.029   1.443   5.314
 8152TIP3    H224334   4.029   1.593   5.299
 8153TIP3   OH224335   3.769   1.794   5.379
 8153TIP3    H124336   3.816   1.782   5.294
 8153TIP3    H224337   3.799   1.882   5.404
 8154TIP3   OH224338   5.710   1.833   5.537
 8154TIP3    H124339   5.622   1.870   5.556
 8154TIP3    H224340   5.684   1.760   5.477
 8155TIP3   OH224341   5.348   1.468   4.117
 8155TIP3    H124342   5.385   1.395   4.064
 8155TIP3    H224343   5.415   1.538   4.105
 8156TIP3   OH224344   3.742   1.332   4.900
 8156TIP3    H124345   3.650   1.302   4.901
 8156TIP3    H224346   3.755   1.357   4.807
 8157TIP3   OH224347   4.911   2.997   4.383
 8157TIP3    H124348   4.961   2.982   4.301
 8157TIP3    H224349   4.963   3.066   4.426
 8158TIP3   OH224350   3.971   1.377   5.693
 8158TIP3    H124351   3.919   1.371   5.775
 8158TIP3    H224352   3.905   1.415   5.632
 8159TIP3   OH224353   4.012   2.801   5.771
 8159TIP3    H124354   3.920   2.774   5.751
 8159TIP3    H224355   4.017   2.783   5.865
 8160TIP3   OH224356   4.188   2.833   5.318
 8160TIP3    H124357   4.138   2.907   5.279
 8160TIP3    H224358   4.273   2.848   5.272
 8161TIP3   OH224359   4.636   3.079   5.454
 8161TIP3    H124360   4.677   3.082   5.543
 8161TIP3    H224361   4.701   3.130   5.402
 8162TIP3   OH224362   4.813   3.230   5.312
 8162TIP3    H124363   4.885   3.179   5.271
 8162TIP3    H224364   4.864   3.288   5.373
 8163TIP3   OH224365   5.607   1.594   5.413
 8163TIP3    H124366   5.516   1.590   5.380
 8163TIP3    H224367   5.636   1.501   5.400
 8164TIP3   OH224368   3.867   3.094   5.338
 8164TIP3    H124369   3.778   3.128   5.315
 8164TIP3    H224370   3.872   3.123   5.430
 8165TIP3   OH224371   4.102   3.071   5.196
 8165TIP3    H124372   4.017   3.084   5.243
 8165TIP3    H224373   4.081   3.104   5.107
 8166TIP3   OH224374   4.529   3.101   4.994
 8166TIP3    H124375   4.459   3.121   4.929
 8166TIP3    H224376   4.541   3.188   5.037
 8167TIP3   OH224377   4.796   3.041   5.045
 8167TIP3    H124378   4.701   3.056   5.027
 8167TIP3    H224379   4.836   3.119   5.004
 8168TIP3   OH224380   5.008   3.234   4.963
 8168TIP3    H124381   4.991   3.318   4.915
 8168TIP3    H224382   5.029   3.173   4.889
 8169TIP3   OH224383   3.778   2.888   5.085
 8169TIP3    H124384   3.803   2.861   5.176
 8169TIP3    H224385   3.849   2.843   5.035
 8170TIP3   OH224386   3.969   2.757   4.940
 8170TIP3    H124387   3.985   2.673   4.989
 8170TIP3    H224388   4.060   2.794   4.936
 8171TIP3   OH224389   4.236   2.854   4.941
 8171TIP3    H124390   4.267   2.762   4.929
 8171TIP3    H224391   4.277   2.874   5.028
 8172TIP3   OH224392   4.816   1.511   5.037
 8172TIP3    H124393   4.768   1.442   5.087
 8172TIP3    H224394   4.878   1.459   4.984
 8173TIP3   OH224395   5.339   1.392   4.941
 8173TIP3    H124396   5.373   1.443   4.863
 8173TIP3    H224397   5.242   1.404   4.931
 8174TIP3   OH224398   5.432   1.491   4.702
 8174TIP3    H124399   5.504   1.440   4.660
 8174TIP3    H224400   5.464   1.583   4.686
 8175TIP3   OH224401   4.062   1.220   5.053
 8175TIP3    H124402   3.970   1.191   5.039
 8175TIP3    H224403   4.110   1.135   5.041
 8176TIP3   OH224404   3.893   1.135   4.720
 8176TIP3    H124405   3.876   1.136   4.626
 8176TIP3    H224406   3.805   1.134   4.760
 8177TIP3   OH224407   4.506   1.249   4.926
 8177TIP3    H124408   4.566   1.302   4.871
 8177TIP3    H224409   4.519   1.288   5.013
 8178TIP3   OH224410   5.060   1.396   4.911
 8178TIP3    H124411   5.045   1.361   4.822
 8178TIP3    H224412   5.042   1.316   4.966
 8179TIP3   OH224413   5.082   1.318   4.475
 8179TIP3    H124414   4.994   1.359   4.483
 8179TIP3    H224415   5.067   1.233   4.522
 8180TIP3   OH224416   3.566   2.655   4.477
 8180TIP3    H124417   3.481   2.621   4.442
 8180TIP3    H224418   3.551   2.750   4.464
 8181TIP3   OH224419   3.962   1.258   4.441
 8181TIP3    H124420   4.011   1.183   4.405
 8181TIP3    H224421   4.029   1.300   4.499
 8182TIP3   OH224422   4.478   1.422   4.556
 8182TIP3    H124423   4.532   1.370   4.618
 8182TIP3    H224424   4.502   1.513   4.585
 8183TIP3   OH224425   4.336   2.849   4.057
 8183TIP3    H124426   4.425   2.871   4.021
 8183TIP3    H224427   4.314   2.773   3.999
 8184TIP3   OH224428   5.056   2.965   4.150
 8184TIP3    H124429   5.048   2.867   4.137
 8184TIP3    H224430   5.010   2.998   4.071
 8185TIP3   OH224431   4.269   1.501   5.942
 8185TIP3    H124432   4.235   1.429   5.998
 8185TIP3    H224433   4.363   1.501   5.967
 8186TIP3   OH224434   4.519   1.498   6.060
 8186TIP3    H124435   4.601   1.468   6.018
 8186TIP3    H224436   4.504   1.426   6.126
 8187TIP3   OH224437   3.642   2.687   4.117
 8187TIP3    H124438   3.641   2.709   4.211
 8187TIP3    H224439   3.730   2.644   4.106
 8188TIP3   OH224440   5.342   1.557   5.847
 8188TIP3    H124441   5.362   1.525   5.938
 8188TIP3    H224442   5.429   1.551   5.804
 8189TIP3   OH224443   5.284   3.109   5.339
 8189TIP3    H124444   5.204   3.076   5.292
 8189TIP3    H224445   5.263   3.205   5.341
 8190TIP3   OH224446   6.550   2.487   4.103
 8190TIP3    H124447   6.517   2.577   4.082
 8190TIP3    H224448   6.474   2.433   4.075
 8191TIP3   OH224449   6.548   2.480   4.484
 8191TIP3    H124450   6.577   2.451   4.572
 8191TIP3    H224451   6.504   2.400   4.450
 8192TIP3   OH224452   5.848   2.377   4.849
 8192TIP3    H124453   5.879   2.310   4.913
 8192TIP3    H224454   5.925   2.436   4.845
 8193TIP3   OH224455   6.811   2.794   4.168
 8193TIP3    H124456   6.779   2.707   4.199
 8193TIP3    H224457   6.809   2.844   4.252
 8194TIP3   OH224458   5.817   2.787   4.577
 8194TIP3    H124459   5.807   2.690   4.580
 8194TIP3    H224460   5.914   2.794   4.575
 8195TIP3   OH224461   5.525   1.994   4.364
 8195TIP3    H124462   5.472   2.075   4.375
 8195TIP3    H224463   5.457   1.934   4.329
 8196TIP3   OH224464   5.587   2.280   4.532
 8196TIP3    H124465   5.633   2.202   4.570
 8196TIP3    H224466   5.639   2.298   4.454
 8197TIP3   OH224467   6.436   3.228   4.170
 8197TIP3    H124468   6.507   3.164   4.155
 8197TIP3    H224469   6.424   3.224   4.266
 8198TIP3   OH224470   6.346   2.707   4.531
 8198TIP3    H124471   6.382   2.628   4.486
 8198TIP3    H224472   6.431   2.749   4.557
 8199TIP3   OH224473   7.360   2.035   4.525
 8199TIP3    H124474   7.391   2.108   4.584
 8199TIP3    H224475   7.339   2.084   4.444
 8200TIP3   OH224476   6.762   2.212   4.566
 8200TIP3    H124477   6.800   2.125   4.588
 8200TIP3    H224478   6.727   2.195   4.477
 8201TIP3   OH224479   6.095   1.869   4.532
 8201TIP3    H124480   6.072   1.940   4.470
 8201TIP3    H224481   6.048   1.794   4.489
 8202TIP3   OH224482   6.788   1.959   4.156
 8202TIP3    H124483   6.861   1.941   4.220
 8202TIP3    H224484   6.839   1.994   4.081
 8203TIP3   OH224485   5.729   2.071   4.639
 8203TIP3    H124486   5.812   2.048   4.686
 8203TIP3    H224487   5.739   2.014   4.560
 8204TIP3   OH224488   6.171   2.269   4.428
 8204TIP3    H124489   6.263   2.241   4.445
 8204TIP3    H224490   6.130   2.185   4.399
 8205TIP3   OH224491   7.429   2.235   4.699
 8205TIP3    H124492   7.343   2.281   4.686
 8205TIP3    H224493   7.443   2.249   4.793
 8206TIP3   OH224494   6.093   1.852   4.966
 8206TIP3    H124495   6.031   1.887   4.899
 8206TIP3    H224496   6.041   1.869   5.048
 8207TIP3   OH224497   6.446   2.713   3.979
 8207TIP3    H124498   6.407   2.677   3.898
 8207TIP3    H224499   6.396   2.796   3.990
 8208TIP3   OH224500   6.199   2.627   4.764
 8208TIP3    H124501   6.134   2.689   4.803
 8208TIP3    H224502   6.239   2.681   4.694
 8209TIP3   OH224503   7.002   1.960   4.324
 8209TIP3    H124504   6.992   1.905   4.402
 8209TIP3    H224505   7.052   2.037   4.359
 8210TIP3   OH224506   5.963   1.966   4.751
 8210TIP3    H124507   6.026   2.039   4.773
 8210TIP3    H224508   6.011   1.925   4.676
 8211TIP3   OH224509   6.025   2.818   4.859
 8211TIP3    H124510   5.999   2.904   4.820
 8211TIP3    H224511   5.947   2.803   4.916
 8212TIP3   OH224512   5.425   2.509   4.095
 8212TIP3    H124513   5.379   2.534   4.013
 8212TIP3    H224514   5.451   2.596   4.132
 8213TIP3   OH224515   6.852   3.030   4.307
 8213TIP3    H124516   6.772   3.020   4.365
 8213TIP3    H224517   6.851   3.128   4.294
 8214TIP3   OH224518   7.151   1.934   4.699
 8214TIP3    H124519   7.061   1.958   4.671
 8214TIP3    H224520   7.205   1.957   4.621
 8215TIP3   OH224521   6.450   1.573   4.678
 8215TIP3    H124522   6.440   1.478   4.696
 8215TIP3    H224523   6.371   1.608   4.725
 8216TIP3   OH224524   6.629   3.048   4.040
 8216TIP3    H124525   6.562   2.992   3.995
 8216TIP3    H224526   6.640   3.123   3.977
 8217TIP3   OH224527   7.087   2.941   4.679
 8217TIP3    H124528   7.077   2.863   4.622
 8217TIP3    H224529   7.072   3.015   4.617
 8218TIP3   OH224530   6.380   2.335   3.935
 8218TIP3    H124531   6.297   2.382   3.913
 8218TIP3    H224532   6.423   2.329   3.848
 8219TIP3   OH224533   6.338   2.118   3.654
 8219TIP3    H124534   6.408   2.165   3.701
 8219TIP3    H224535   6.391   2.051   3.607
 8220TIP3   OH224536   7.281   2.571   4.517
 8220TIP3    H124537   7.201   2.626   4.527
 8220TIP3    H224538   7.311   2.600   4.428
 8221TIP3   OH224539   6.727   2.418   3.906
 8221TIP3    H124540   6.671   2.442   3.984
 8221TIP3    H224541   6.808   2.388   3.952
 8222TIP3   OH224542   6.962   2.457   4.816
 8222TIP3    H124543   6.959   2.539   4.868
 8222TIP3    H224544   6.874   2.460   4.773
 8223TIP3   OH224545   5.960   2.415   4.321
 8223TIP3    H124546   5.915   2.357   4.256
 8223TIP3    H224547   6.035   2.360   4.350
 8224TIP3   OH224548   6.091   2.829   4.469
 8224TIP3    H124549   6.065   2.777   4.393
 8224TIP3    H224550   6.180   2.793   4.490
 8225TIP3   OH224551   6.100   2.383   4.679
 8225TIP3    H124552   6.129   2.365   4.587
 8225TIP3    H224553   6.139   2.470   4.698
 8226TIP3   OH224554   6.630   3.020   4.456
 8226TIP3    H124555   6.608   3.101   4.507
 8226TIP3    H224556   6.611   2.948   4.520
 8227TIP3   OH224557   6.231   2.942   5.001
 8227TIP3    H124558   6.172   3.004   5.048
 8227TIP3    H224559   6.165   2.888   4.953
 8228TIP3   OH224560   6.569   2.273   3.733
 8228TIP3    H124561   6.627   2.332   3.786
 8228TIP3    H224562   6.594   2.298   3.641
 8229TIP3   OH224563   5.985   2.500   5.100
 8229TIP3    H124564   5.989   2.585   5.148
 8229TIP3    H224565   5.890   2.479   5.109
 8230TIP3   OH224566   6.338   2.978   3.991
 8230TIP3    H124567   6.343   3.032   4.071
 8230TIP3    H224568   6.250   3.003   3.957
 8231TIP3   OH224569   6.027   3.111   5.089
 8231TIP3    H124570   5.992   3.108   4.998
 8231TIP3    H224571   5.948   3.089   5.142
 8232TIP3   OH224572   7.083   1.516   3.781
 8232TIP3    H124573   7.001   1.533   3.833
 8232TIP3    H224574   7.091   1.599   3.731
 8233TIP3   OH224575   5.824   2.257   4.130
 8233TIP3    H124576   5.758   2.301   4.072
 8233TIP3    H224577   5.783   2.171   4.143
 8234TIP3   OH224578   6.881   2.886   3.337
 8234TIP3    H124579   6.889   2.982   3.315
 8234TIP3    H224580   6.973   2.855   3.321
 8235TIP3   OH224581   5.607   2.640   5.035
 8235TIP3    H124582   5.540   2.619   4.967
 8235TIP3    H224583   5.641   2.552   5.060
 8236TIP3   OH224584   5.459   2.833   4.669
 8236TIP3    H124585   5.555   2.830   4.661
 8236TIP3    H224586   5.445   2.913   4.721
 8237TIP3   OH224587   7.324   3.281   4.722
 8237TIP3    H124588   7.324   3.186   4.739
 8237TIP3    H224589   7.241   3.308   4.769
 8238TIP3   OH224590   6.431   3.071   4.858
 8238TIP3    H124591   6.431   3.163   4.892
 8238TIP3    H224592   6.359   3.032   4.913
 8239TIP3   OH224593   6.190   3.203   3.808
 8239TIP3    H124594   6.140   3.182   3.727
 8239TIP3    H224595   6.156   3.291   3.832
 8240TIP3   OH224596   5.630   3.049   4.192
 8240TIP3    H124597   5.675   3.039   4.279
 8240TIP3    H224598   5.567   2.975   4.195
 8241TIP3   OH224599   6.394   3.101   3.451
 8241TIP3    H124600   6.452   3.032   3.414
 8241TIP3    H224601   6.427   3.109   3.543
 8242TIP3   OH224602   6.441   3.151   3.724
 8242TIP3    H124603   6.349   3.167   3.757
 8242TIP3    H224604   6.472   3.089   3.791
 8243TIP3   OH224605   7.215   2.417   4.997
 8243TIP3    H124606   7.133   2.428   4.947
 8243TIP3    H224607   7.231   2.321   4.989
 8244TIP3   OH224608   5.811   2.823   5.026
 8244TIP3    H124609   5.860   2.805   5.109
 8244TIP3    H224610   5.737   2.759   5.033
 8245TIP3   OH224611   6.210   1.648   4.806
 8245TIP3    H124612   6.121   1.615   4.782
 8245TIP3    H224613   6.185   1.730   4.853
 8246TIP3   OH224614   6.743   1.764   5.003
 8246TIP3    H124615   6.812   1.734   5.066
 8246TIP3    H224616   6.660   1.741   5.049
 8247TIP3   OH224617   6.985   2.193   4.922
 8247TIP3    H124618   6.936   2.186   5.007
 8247TIP3    H224619   6.956   2.279   4.887
 8248TIP3   OH224620   6.643   2.324   3.477
 8248TIP3    H124621   6.610   2.295   3.390
 8248TIP3    H224622   6.724   2.372   3.451
 8249TIP3   OH224623   6.358   1.697   3.779
 8249TIP3    H124624   6.325   1.694   3.871
 8249TIP3    H224625   6.318   1.614   3.745
 8250TIP3   OH224626   6.143   2.161   4.828
 8250TIP3    H124627   6.091   2.181   4.908
 8250TIP3    H224628   6.127   2.241   4.774
 8251TIP3   OH224629   6.025   2.049   4.341
 8251TIP3    H124630   5.932   2.022   4.358
 8251TIP3    H224631   6.038   2.008   4.252
 8252TIP3   OH224632   6.518   2.137   4.069
 8252TIP3    H124633   6.462   2.206   4.027
 8252TIP3    H224634   6.570   2.105   3.993
 8253TIP3   OH224635   6.691   2.415   5.157
 8253TIP3    H124636   6.668   2.341   5.217
 8253TIP3    H224637   6.785   2.427   5.178
 8254TIP3   OH224638   6.676   2.165   4.306
 8254TIP3    H124639   6.614   2.191   4.236
 8254TIP3    H224640   6.708   2.081   4.267
 8255TIP3   OH224641   5.962   2.191   5.036
 8255TIP3    H124642   5.984   2.254   5.106
 8255TIP3    H224643   5.948   2.109   5.086
 8256TIP3   OH224644   6.013   1.670   3.745
 8256TIP3    H124645   6.004   1.664   3.843
 8256TIP3    H224646   5.931   1.717   3.722
 8257TIP3   OH224647   5.553   1.717   4.616
 8257TIP3    H124648   5.631   1.744   4.668
 8257TIP3    H224649   5.590   1.679   4.535
 8258TIP3   OH224650   5.532   1.696   4.136
 8258TIP3    H124651   5.576   1.736   4.057
 8258TIP3    H224652   5.469   1.767   4.158
 8259TIP3   OH224653   6.687   2.412   4.731
 8259TIP3    H124654   6.719   2.338   4.674
 8259TIP3    H224655   6.657   2.360   4.809
 8260TIP3   OH224656   6.352   1.876   4.404
 8260TIP3    H124657   6.268   1.869   4.454
 8260TIP3    H224658   6.418   1.868   4.475
 8261TIP3   OH224659   5.788   1.925   4.411
 8261TIP3    H124660   5.693   1.933   4.385
 8261TIP3    H224661   5.809   1.833   4.388
 8262TIP3   OH224662   6.059   1.925   4.099
 8262TIP3    H124663   6.153   1.938   4.075
 8262TIP3    H224664   6.011   1.946   4.016
 8263TIP3   OH224665   6.844   1.947   4.603
 8263TIP3    H124666   6.810   1.957   4.695
 8263TIP3    H224667   6.780   1.883   4.567
 8264TIP3   OH224668   5.896   1.957   3.880
 8264TIP3    H124669   5.822   1.912   3.836
 8264TIP3    H224670   5.946   1.989   3.802
 8265TIP3   OH224671   7.013   3.634   4.822
 8265TIP3    H124672   7.012   3.659   4.728
 8265TIP3    H224673   7.089   3.686   4.855
 8266TIP3   OH224674   5.972   2.745   5.245
 8266TIP3    H124675   6.051   2.776   5.294
 8266TIP3    H224676   5.906   2.744   5.318
 8267TIP3   OH224677   6.438   2.201   4.503
 8267TIP3    H124678   6.504   2.152   4.452
 8267TIP3    H224679   6.444   2.158   4.590
 8268TIP3   OH224680   5.963   1.686   4.377
 8268TIP3    H124681   5.927   1.606   4.423
 8268TIP3    H224682   6.012   1.647   4.304
 8269TIP3   OH224683   6.414   2.096   4.786
 8269TIP3    H124684   6.323   2.129   4.803
 8269TIP3    H224685   6.470   2.153   4.841
 8270TIP3   OH224686   6.151   2.487   3.886
 8270TIP3    H124687   6.079   2.421   3.874
 8270TIP3    H224688   6.132   2.519   3.977
 8271TIP3   OH224689   7.052   2.724   4.514
 8271TIP3    H124690   7.074   2.768   4.429
 8271TIP3    H224691   6.967   2.680   4.493
 8272TIP3   OH224692   6.608   1.801   3.742
 8272TIP3    H124693   6.512   1.782   3.753
 8272TIP3    H224694   6.616   1.895   3.770
 8273TIP3   OH224695   6.554   2.807   4.880
 8273TIP3    H124696   6.568   2.777   4.971
 8273TIP3    H224697   6.510   2.893   4.892
 8274TIP3   OH224698   6.678   2.045   3.850
 8274TIP3    H124699   6.774   2.050   3.865
 8274TIP3    H224700   6.660   2.124   3.796
 8275TIP3   OH224701   5.846   2.511   4.562
 8275TIP3    H124702   5.880   2.479   4.477
 8275TIP3    H224703   5.874   2.441   4.624
 8276TIP3   OH224704   6.295   2.637   3.706
 8276TIP3    H124705   6.247   2.723   3.714
 8276TIP3    H224706   6.240   2.581   3.765
 8277TIP3   OH224707   5.721   2.427   5.173
 8277TIP3    H124708   5.739   2.412   5.268
 8277TIP3    H224709   5.651   2.362   5.156
 8278TIP3   OH224710   6.446   2.541   5.194
 8278TIP3    H124711   6.387   2.482   5.144
 8278TIP3    H224712   6.534   2.508   5.166
 8279TIP3   OH224713   6.710   3.068   4.773
 8279TIP3    H124714   6.614   3.061   4.789
 8279TIP3    H224715   6.739   3.116   4.854
 8280TIP3   OH224716   7.123   2.134   3.686
 8280TIP3    H124717   7.060   2.087   3.626
 8280TIP3    H224718   7.118   2.222   3.643
 8281TIP3   OH224719   7.338   2.991   4.769
 8281TIP3    H124720   7.240   2.987   4.762
 8281TIP3    H224721   7.363   2.963   4.678
 8282TIP3   OH224722   6.820   2.938   3.603
 8282TIP3    H124723   6.789   2.851   3.635
 8282TIP3    H224724   6.839   2.917   3.510
 8283TIP3   OH224725   6.817   2.584   4.434
 8283TIP3    H124726   6.724   2.558   4.448
 8283TIP3    H224727   6.851   2.503   4.391
 8284TIP3   OH224728   5.941   2.810   4.181
 8284TIP3    H124729   5.936   2.894   4.131
 8284TIP3    H224730   5.847   2.793   4.197
 8285TIP3   OH224731   5.505   2.116   3.888
 8285TIP3    H124732   5.550   2.200   3.909
 8285TIP3    H224733   5.427   2.122   3.948
 8286TIP3   OH224734   6.088   2.582   4.133
 8286TIP3    H124735   6.045   2.668   4.150
 8286TIP3    H224736   6.049   2.527   4.204
 8287TIP3   OH224737   6.211   3.155   4.656
 8287TIP3    H124738   6.251   3.229   4.606
 8287TIP3    H224739   6.288   3.123   4.706
 8288TIP3   OH224740   5.865   3.049   4.041
 8288TIP3    H124741   5.777   3.056   4.084
 8288TIP3    H224742   5.894   3.143   4.042
 8289TIP3   OH224743   6.604   2.789   4.612
 8289TIP3    H124744   6.592   2.790   4.710
 8289TIP3    H224745   6.681   2.732   4.604
 8290TIP3   OH224746   6.572   2.682   3.495
 8290TIP3    H124747   6.624   2.656   3.574
 8290TIP3    H224748   6.483   2.654   3.522
 8291TIP3   OH224749   6.851   3.322   4.663
 8291TIP3    H124750   6.772   3.266   4.659
 8291TIP3    H224751   6.833   3.388   4.592
 8292TIP3   OH224752   6.913   3.159   3.317
 8292TIP3    H124753   6.952   3.228   3.261
 8292TIP3    H224754   6.833   3.208   3.346
 8293TIP3   OH224755   5.934   1.935   5.184
 8293TIP3    H124756   5.838   1.939   5.196
 8293TIP3    H224757   5.960   1.871   5.252
 8294TIP3   OH224758   6.738   2.622   3.708
 8294TIP3    H124759   6.721   2.560   3.781
 8294TIP3    H224760   6.835   2.611   3.698
 8295TIP3   OH224761   5.653   3.020   4.813
 8295TIP3    H124762   5.700   2.942   4.846
 8295TIP3    H224763   5.678   3.086   4.879
 8296TIP3   OH224764   5.945   2.662   3.494
 8296TIP3    H124765   5.954   2.569   3.464
 8296TIP3    H224766   5.923   2.649   3.589
 8297TIP3   OH224767   5.890   2.668   3.765
 8297TIP3    H124768   5.952   2.639   3.832
 8297TIP3    H224769   5.892   2.766   3.774
 8298TIP3   OH224770   5.625   2.363   3.971
 8298TIP3    H124771   5.558   2.406   4.028
 8298TIP3    H224772   5.636   2.433   3.903
 8299TIP3   OH224773   6.770   1.998   4.862
 8299TIP3    H124774   6.849   2.034   4.904
 8299TIP3    H224775   6.753   1.917   4.915
 8300TIP3   OH224776   6.649   1.752   4.025
 8300TIP3    H124777   6.635   1.776   3.932
 8300TIP3    H224778   6.688   1.834   4.062
 8301TIP3   OH224779   6.155   2.871   3.722
 8301TIP3    H124780   6.065   2.894   3.752
 8301TIP3    H224781   6.166   2.935   3.650
 8302TIP3   OH224782   6.344   1.928   4.130
 8302TIP3    H124783   6.409   2.000   4.114
 8302TIP3    H224784   6.345   1.921   4.228
 8303TIP3   OH224785   6.611   2.250   4.938
 8303TIP3    H124786   6.628   2.302   5.019
 8303TIP3    H224787   6.665   2.170   4.954
 8304TIP3   OH224788   6.487   1.660   4.235
 8304TIP3    H124789   6.480   1.737   4.294
 8304TIP3    H224790   6.545   1.695   4.165
 8305TIP3   OH224791   5.897   2.941   3.784
 8305TIP3    H124792   5.865   3.009   3.719
 8305TIP3    H224793   5.877   2.985   3.869
 8306TIP3   OH224794   5.996   1.652   4.022
 8306TIP3    H124795   5.993   1.743   4.059
 8306TIP3    H224796   6.092   1.634   4.030
 8307TIP3   OH224797   7.251   2.149   4.914
 8307TIP3    H124798   7.153   2.149   4.926
 8307TIP3    H224799   7.257   2.096   4.833
 8308TIP3   OH224800   6.902   2.342   4.307
 8308TIP3    H124801   6.824   2.284   4.318
 8308TIP3    H224802   6.971   2.293   4.356
 8309TIP3   OH224803   5.613   2.573   3.778
 8309TIP3    H124804   5.673   2.649   3.784
 8309TIP3    H224805   5.659   2.520   3.710
 8310TIP3   OH224806   5.561   1.847   3.908
 8310TIP3    H124807   5.554   1.945   3.904
 8310TIP3    H224808   5.475   1.820   3.871
 8311TIP3   OH224809   6.871   3.291   4.248
 8311TIP3    H124810   6.828   3.344   4.177
 8311TIP3    H224811   6.965   3.318   4.235
 8312TIP3   OH224812   5.946   1.567   4.785
 8312TIP3    H124813   5.914   1.534   4.698
 8312TIP3    H224814   5.935   1.488   4.842
 8313TIP3   OH224815   5.488   2.788   4.167
 8313TIP3    H124816   5.412   2.817   4.221
 8313TIP3    H224817   5.463   2.826   4.080
 8314TIP3   OH224818   5.639   3.323   5.235
 8314TIP3    H124819   5.725   3.321   5.282
 8314TIP3    H224820   5.616   3.229   5.234
 8315TIP3   OH224821   6.126   3.293   5.281
 8315TIP3    H124822   6.220   3.271   5.286
 8315TIP3    H224823   6.099   3.236   5.206
 8316TIP3   OH224824   6.106   2.867   3.412
 8316TIP3    H124825   6.047   2.796   3.447
 8316TIP3    H224826   6.178   2.812   3.377
 8317TIP3   OH224827   6.764   3.196   5.011
 8317TIP3    H124828   6.754   3.127   5.080
 8317TIP3    H224829   6.840   3.247   5.044
 8318TIP3   OH224830   6.542   2.910   3.321
 8318TIP3    H124831   6.585   2.842   3.375
 8318TIP3    H224832   6.596   2.911   3.239
 8319TIP3   OH224833   5.772   2.733   5.437
 8319TIP3    H124834   5.789   2.637   5.438
 8319TIP3    H224835   5.684   2.736   5.394
 8320TIP3   OH224836   5.749   2.387   3.626
 8320TIP3    H124837   5.800   2.349   3.700
 8320TIP3    H224838   5.818   2.390   3.556
 8321TIP3   OH224839   6.380   2.816   5.209
 8321TIP3    H124840   6.336   2.830   5.123
 8321TIP3    H224841   6.410   2.723   5.203
 8322TIP3   OH224842   6.260   2.583   3.435
 8322TIP3    H124843   6.257   2.595   3.532
 8322TIP3    H224844   6.256   2.485   3.430
 8323TIP3   OH224845   6.872   2.821   4.813
 8323TIP3    H124846   6.945   2.872   4.772
 8323TIP3    H224847   6.799   2.884   4.805
 8324TIP3   OH224848   5.890   2.467   5.416
 8324TIP3    H124849   5.961   2.405   5.398
 8324TIP3    H224850   5.914   2.498   5.506
 8325TIP3   OH224851   5.963   2.286   3.855
 8325TIP3    H124852   5.929   2.244   3.936
 8325TIP3    H224853   5.993   2.209   3.803
 8326TIP3   OH224854   6.226   2.354   5.082
 8326TIP3    H124855   6.147   2.411   5.084
 8326TIP3    H224856   6.272   2.385   5.001
 8327TIP3   OH224857   6.056   2.080   3.692
 8327TIP3    H124858   6.028   2.079   3.598
 8327TIP3    H224859   6.153   2.087   3.683
 8328TIP3   OH224860   6.742   2.754   5.214
 8328TIP3    H124861   6.824   2.733   5.168
 8328TIP3    H224862   6.740   2.685   5.283
 8329TIP3   OH224863   6.881   2.413   3.353
 8329TIP3    H124864   6.858   2.365   3.271
 8329TIP3    H224865   6.849   2.503   3.327
 8330TIP3   OH224866   6.348   2.139   5.208
 8330TIP3    H124867   6.348   2.058   5.153
 8330TIP3    H224868   6.304   2.204   5.149
 8331TIP3   OH224869   6.351   1.927   5.012
 8331TIP3    H124870   6.377   1.964   4.926
 8331TIP3    H224871   6.257   1.902   4.995
 8332TIP3   OH224872   6.382   2.464   4.887
 8332TIP3    H124873   6.461   2.466   4.832
 8332TIP3    H224874   6.324   2.530   4.843
 8333TIP3   OH224875   6.962   2.429   5.269
 8333TIP3    H124876   7.008   2.345   5.280
 8333TIP3    H224877   7.034   2.486   5.236
 8334TIP3   OH224878   7.003   2.681   5.003
 8334TIP3    H124879   6.945   2.733   4.943
 8334TIP3    H224880   7.090   2.700   4.962
 8335TIP3   OH224881   6.226   2.255   5.436
 8335TIP3    H124882   6.157   2.186   5.449
 8335TIP3    H224883   6.261   2.229   5.349
 8336TIP3   OH224884   6.484   1.691   5.078
 8336TIP3    H124885   6.434   1.773   5.056
 8336TIP3    H224886   6.414   1.623   5.067
 8337TIP3   OH224887   6.609   2.197   5.296
 8337TIP3    H124888   6.600   2.183   5.392
 8337TIP3    H224889   6.519   2.170   5.267
 8338TIP3   OH224890   6.850   2.144   5.150
 8338TIP3    H124891   6.773   2.143   5.211
 8338TIP3    H224892   6.922   2.112   5.207
 8339TIP3   OH224893   7.078   2.083   5.302
 8339TIP3    H124894   7.091   1.988   5.320
 8339TIP3    H224895   7.074   2.122   5.392
 8340TIP3   OH224896   6.067   2.034   5.487
 8340TIP3    H124897   6.073   1.943   5.450
 8340TIP3    H224898   6.102   2.018   5.577
 8341TIP3   OH224899   6.578   1.701   5.336
 8341TIP3    H124900   6.647   1.631   5.332
 8341TIP3    H224901   6.539   1.692   5.246
 8342TIP3   OH224902   6.644   1.915   5.495
 8342TIP3    H124903   6.622   1.843   5.431
 8342TIP3    H224904   6.566   1.974   5.487
 8343TIP3   OH224905   5.864   3.143   3.597
 8343TIP3    H124906   5.959   3.143   3.574
 8343TIP3    H224907   5.828   3.189   3.519
 8344TIP3   OH224908   5.344   2.524   3.813
 8344TIP3    H124909   5.439   2.545   3.800
 8344TIP3    H224910   5.338   2.436   3.771
 8345TIP3   OH224911   5.259   3.137   4.224
 8345TIP3    H124912   5.190   3.076   4.190
 8345TIP3    H224913   5.302   3.080   4.291
 8346TIP3   OH224914   5.396   2.992   4.411
 8346TIP3    H124915   5.381   2.916   4.471
 8346TIP3    H224916   5.443   3.052   4.471
 8347TIP3   OH224917   7.119   3.390   4.212
 8347TIP3    H124918   7.147   3.424   4.299
 8347TIP3    H224919   7.179   3.437   4.152
 8348TIP3   OH224920   7.151   3.409   4.493
 8348TIP3    H124921   7.111   3.320   4.491
 8348TIP3    H224922   7.227   3.391   4.551
 8349TIP3   OH224923   7.196   3.087   5.064
 8349TIP3    H124924   7.124   3.094   5.130
 8349TIP3    H224925   7.238   3.175   5.071
 8350TIP3   OH224926   7.015   2.602   3.689
 8350TIP3    H124927   7.085   2.663   3.659
 8350TIP3    H224928   7.058   2.560   3.767
 8351TIP3   OH224929   7.140   2.469   3.891
 8351TIP3    H124930   7.076   2.423   3.950
 8351TIP3    H224931   7.206   2.503   3.955
 8352TIP3   OH224932   7.184   2.855   4.311
 8352TIP3    H124933   7.249   2.794   4.271
 8352TIP3    H224934   7.196   2.936   4.258
 8353TIP3   OH224935   7.026   3.157   4.517
 8353TIP3    H124936   6.959   3.202   4.573
 8353TIP3    H224937   6.971   3.110   4.452
 8354TIP3   OH224938   7.079   2.376   3.540
 8354TIP3    H124939   7.008   2.377   3.472
 8354TIP3    H224940   7.052   2.452   3.594
 8355TIP3   OH224941   6.951   2.048   3.494
 8355TIP3    H124942   6.909   2.086   3.416
 8355TIP3    H224943   6.925   1.953   3.486
 8356TIP3   OH224944   6.957   2.321   4.038
 8356TIP3    H124945   6.962   2.224   4.031
 8356TIP3    H224946   6.943   2.334   4.134
 8357TIP3   OH224947   5.583   2.396   4.784
 8357TIP3    H124948   5.581   2.366   4.691
 8357TIP3    H224949   5.680   2.397   4.800
 8358TIP3   OH224950   7.244   2.747   4.893
 8358TIP3    H124951   7.317   2.681   4.886
 8358TIP3    H224952   7.276   2.818   4.835
 8359TIP3   OH224953   7.431   2.555   4.913
 8359TIP3    H124954   7.357   2.503   4.952
 8359TIP3    H224955   7.504   2.491   4.926
 8360TIP3   OH224956   6.894   1.783   3.481
 8360TIP3    H124957   6.969   1.750   3.534
 8360TIP3    H224958   6.821   1.723   3.505
 8361TIP3   OH224959   6.953   2.039   3.934
 8361TIP3    H124960   6.991   1.950   3.951
 8361TIP3    H224961   7.011   2.069   3.862
 8362TIP3   OH224962   7.115   2.211   4.428
 8362TIP3    H124963   7.198   2.246   4.389
 8362TIP3    H224964   7.124   2.249   4.519
 8363TIP3   OH224965   7.178   2.356   4.659
 8363TIP3    H124966   7.102   2.389   4.711
 8363TIP3    H224967   7.211   2.438   4.617
 8364TIP3   OH224968   5.800   2.086   5.464
 8364TIP3    H124969   5.898   2.076   5.461
 8364TIP3    H224970   5.774   2.000   5.502
 8365TIP3   OH224971   7.631   1.945   5.216
 8365TIP3    H124972   7.691   1.879   5.175
 8365TIP3    H224973   7.609   2.003   5.140
 8366TIP3   OH224974   7.059   1.788   3.971
 8366TIP3    H124975   7.106   1.769   4.055
 8366TIP3    H224976   6.998   1.711   3.968
 8367TIP3   OH224977   5.761   1.775   4.790
 8367TIP3    H124978   5.823   1.700   4.800
 8367TIP3    H224979   5.823   1.849   4.785
 8368TIP3   OH224980   5.566   2.050   4.865
 8368TIP3    H124981   5.613   2.040   4.780
 8368TIP3    H224982   5.594   2.138   4.892
 8369TIP3   OH224983   7.507   2.090   5.021
 8369TIP3    H124984   7.420   2.126   5.046
 8369TIP3    H224985   7.480   2.015   4.965
 8370TIP3   OH224986   7.145   1.726   3.602
 8370TIP3    H124987   7.182   1.650   3.552
 8370TIP3    H224988   7.213   1.794   3.591
 8371TIP3   OH224989   5.546   1.559   4.369
 8371TIP3    H124990   5.452   1.551   4.390
 8371TIP3    H224991   5.544   1.613   4.287
 8372TIP3   OH224992   6.730   3.232   3.878
 8372TIP3    H124993   6.765   3.238   3.786
 8372TIP3    H224994   6.753   3.320   3.913
 8373TIP3   OH224995   5.767   1.635   5.180
 8373TIP3    H124996   5.715   1.627   5.262
 8373TIP3    H224997   5.700   1.672   5.120
 8374TIP3   OH224998   5.808   3.057   5.256
 8374TIP3    H124999   5.716   3.030   5.236
 8374TIP3    H225000   5.812   3.042   5.351
 8375TIP3   OH225001   5.985   3.089   4.804
 8375TIP3    H125002   5.933   3.163   4.766
 8375TIP3    H225003   6.069   3.105   4.759
 8376TIP3   OH225004   6.432   3.336   4.941
 8376TIP3    H125005   6.473   3.338   5.030
 8376TIP3    H225006   6.499   3.387   4.889
 8377TIP3   OH225007   6.611   3.486   4.797
 8377TIP3    H125008   6.685   3.435   4.761
 8377TIP3    H225009   6.659   3.545   4.859
 8378TIP3   OH225010   7.404   1.849   4.899
 8378TIP3    H125011   7.312   1.838   4.871
 8378TIP3    H225012   7.436   1.756   4.889
 8379TIP3   OH225013   5.664   3.351   4.825
 8379TIP3    H125014   5.575   3.384   4.800
 8379TIP3    H225015   5.667   3.380   4.917
 8380TIP3   OH225016   5.899   3.327   4.683
 8380TIP3    H125017   5.813   3.340   4.730
 8380TIP3    H225018   5.876   3.361   4.594
 8381TIP3   OH225019   6.327   3.359   4.475
 8381TIP3    H125020   6.251   3.380   4.417
 8381TIP3    H225021   6.338   3.445   4.522
 8382TIP3   OH225022   6.592   3.295   4.524
 8382TIP3    H125023   6.497   3.314   4.512
 8382TIP3    H225024   6.633   3.378   4.495
 8383TIP3   OH225025   6.800   3.489   4.448
 8383TIP3    H125026   6.786   3.576   4.405
 8383TIP3    H225027   6.825   3.433   4.373
 8384TIP3   OH225028   5.575   3.145   4.572
 8384TIP3    H125029   5.599   3.118   4.663
 8384TIP3    H225030   5.645   3.099   4.521
 8385TIP3   OH225031   5.766   3.014   4.427
 8385TIP3    H125032   5.781   2.930   4.476
 8385TIP3    H225033   5.856   3.051   4.423
 8386TIP3   OH225034   6.035   3.110   4.427
 8386TIP3    H125035   6.062   3.016   4.419
 8386TIP3    H225036   6.073   3.131   4.514
 8387TIP3   OH225037   6.608   1.766   4.517
 8387TIP3    H125038   6.564   1.698   4.572
 8387TIP3    H225039   6.678   1.715   4.473
 8388TIP3   OH225040   7.132   1.651   4.429
 8388TIP3    H125041   7.167   1.698   4.350
 8388TIP3    H225042   7.035   1.662   4.418
 8389TIP3   OH225043   7.223   1.744   4.188
 8389TIP3    H125044   7.297   1.690   4.150
 8389TIP3    H225045   7.260   1.834   4.175
 8390TIP3   OH225046   5.858   1.475   4.536
 8390TIP3    H125047   5.766   1.442   4.536
 8390TIP3    H225048   5.907   1.390   4.533
 8391TIP3   OH225049   5.646   1.343   4.183
 8391TIP3    H125050   5.673   1.401   4.110
 8391TIP3    H225051   5.613   1.407   4.249
 8392TIP3   OH225052   6.299   1.509   4.414
 8392TIP3    H125053   6.361   1.559   4.359
 8392TIP3    H225054   6.319   1.542   4.502
 8393TIP3   OH225055   6.852   1.652   4.398
 8393TIP3    H125056   6.844   1.613   4.310
 8393TIP3    H225057   6.837   1.573   4.456
 8394TIP3   OH225058   6.877   1.575   3.961
 8394TIP3    H125059   6.789   1.614   3.971
 8394TIP3    H225060   6.865   1.490   4.009
 8395TIP3   OH225061   5.362   2.912   3.963
 8395TIP3    H125062   5.277   2.879   3.929
 8395TIP3    H225063   5.349   3.007   3.947
 8396TIP3   OH225064   5.759   1.505   3.946
 8396TIP3    H125065   5.807   1.441   3.891
 8396TIP3    H225066   5.832   1.557   3.984
 8397TIP3   OH225067   6.274   1.678   4.044
 8397TIP3    H125068   6.330   1.629   4.105
 8397TIP3    H225069   6.296   1.770   4.071
 8398TIP3   OH225070   6.133   3.106   3.544
 8398TIP3    H125071   6.220   3.129   3.505
 8398TIP3    H225072   6.110   3.030   3.485
 8399TIP3   OH225073   6.850   3.216   3.634
 8399TIP3    H125074   6.841   3.120   3.617
 8399TIP3    H225075   6.808   3.255   3.554
 8400TIP3   OH225076   6.065   1.758   5.428
 8400TIP3    H125077   6.032   1.685   5.484
 8400TIP3    H225078   6.160   1.757   5.453
 8401TIP3   OH225079   6.315   1.753   5.546
 8401TIP3    H125080   6.398   1.727   5.505
 8401TIP3    H225081   6.302   1.682   5.612
 8402TIP3   OH225082   5.437   2.943   3.603
 8402TIP3    H125083   5.432   2.970   3.696
 8402TIP3    H225084   5.526   2.902   3.597
 8403TIP3   OH225085   7.137   1.814   5.334
 8403TIP3    H125086   7.157   1.781   5.424
 8403TIP3    H225087   7.225   1.807   5.291
 8404TIP3   OH225088   7.080   3.367   4.824
 8404TIP3    H125089   7.000   3.334   4.779
 8404TIP3    H225090   7.060   3.462   4.828
 8405TIP3   OH225091   8.344   2.737   3.594
 8405TIP3    H125092   8.316   2.829   3.574
 8405TIP3    H225093   8.267   2.688   3.560
 8406TIP3   OH225094   8.336   2.740   3.974
 8406TIP3    H125095   8.372   2.708   4.059
 8406TIP3    H225096   8.303   2.657   3.935
 8407TIP3   OH225097   7.641   2.630   4.338
 8407TIP3    H125098   7.673   2.568   4.406
 8407TIP3    H225099   7.718   2.688   4.330
 8408TIP3   OH225100   8.584   3.039   3.653
 8408TIP3    H125101   8.575   2.968   3.718
 8408TIP3    H225102   8.614   3.114   3.709
 8409TIP3   OH225103   7.612   3.039   4.064
 8409TIP3    H125104   7.605   2.941   4.067
 8409TIP3    H225105   7.708   3.050   4.058
 8410TIP3   OH225106   7.318   2.248   3.853
 8410TIP3    H125107   7.269   2.331   3.860
 8410TIP3    H225108   7.250   2.192   3.811
 8411TIP3   OH225109   7.382   2.531   4.019
 8411TIP3    H125110   7.431   2.454   4.052
 8411TIP3    H225111   7.440   2.565   3.949
 8412TIP3   OH225112   8.232   3.500   3.669
 8412TIP3    H125113   8.280   3.430   3.620
 8412TIP3    H225114   8.233   3.465   3.759
 8413TIP3   OH225115   8.142   2.962   4.021
 8413TIP3    H125116   8.181   2.885   3.977
 8413TIP3    H225117   8.226   3.008   4.044
 8414TIP3   OH225118   9.085   2.311   4.027
 8414TIP3    H125119   9.150   2.359   4.082
 8414TIP3    H225120   9.134   2.307   3.943
 8415TIP3   OH225121   8.551   2.467   4.055
 8415TIP3    H125122   8.594   2.382   4.076
 8415TIP3    H225123   8.523   2.451   3.963
 8416TIP3   OH225124   7.841   2.114   4.047
 8416TIP3    H125125   7.859   2.196   3.997
 8416TIP3    H225126   7.830   2.053   3.971
 8417TIP3   OH225127   8.585   2.218   3.642
 8417TIP3    H125128   8.655   2.199   3.709
 8417TIP3    H225129   8.638   2.251   3.569
 8418TIP3   OH225130   7.541   2.309   4.136
 8418TIP3    H125131   7.628   2.350   4.144
 8418TIP3    H225132   7.548   2.262   4.050
 8419TIP3   OH225133   7.967   2.523   3.919
 8419TIP3    H125134   8.062   2.501   3.931
 8419TIP3    H225135   7.932   2.437   3.887
 8420TIP3   OH225136   9.224   2.490   4.185
 8420TIP3    H125137   9.139   2.539   4.184
 8420TIP3    H225138   9.266   2.522   4.267
 8421TIP3   OH225139   7.850   2.112   4.411
 8421TIP3    H125140   7.863   2.208   4.394
 8421TIP3    H225141   7.823   2.114   4.505
 8422TIP3   OH225142   8.234   2.957   3.465
 8422TIP3    H125143   8.196   2.937   3.379
 8422TIP3    H225144   8.193   3.044   3.485
 8423TIP3   OH225145   7.992   2.880   4.248
 8423TIP3    H125146   7.931   2.947   4.287
 8423TIP3    H225147   8.038   2.932   4.179
 8424TIP3   OH225148   8.798   2.216   3.813
 8424TIP3    H125149   8.806   2.158   3.890
 8424TIP3    H225150   8.853   2.291   3.839
 8425TIP3   OH225151   7.820   3.075   4.345
 8425TIP3    H125152   7.796   3.162   4.306
 8425TIP3    H225153   7.742   3.062   4.404
 8426TIP3   OH225154   7.218   2.767   3.583
 8426TIP3    H125155   7.179   2.791   3.497
 8426TIP3    H225156   7.247   2.853   3.618
 8427TIP3   OH225157   8.656   3.281   3.822
 8427TIP3    H125158   8.566   3.273   3.860
 8427TIP3    H225159   8.650   3.367   3.777
 8428TIP3   OH225160   8.927   2.179   4.199
 8428TIP3    H125161   8.840   2.208   4.166
 8428TIP3    H225162   8.986   2.218   4.130
 8429TIP3   OH225163   8.242   1.840   4.155
 8429TIP3    H125164   8.259   1.745   4.165
 8429TIP3    H225165   8.167   1.855   4.215
 8430TIP3   OH225166   8.359   3.329   3.496
 8430TIP3    H125167   8.409   3.248   3.475
 8430TIP3    H225168   8.419   3.396   3.455
 8431TIP3   OH225169   8.500   3.114   3.401
 8431TIP3    H125170   8.471   3.033   3.357
 8431TIP3    H225171   8.535   3.079   3.486
 8432TIP3   OH225172   8.879   3.197   4.165
 8432TIP3    H125173   8.870   3.119   4.106
 8432TIP3    H225174   8.865   3.272   4.103
 8433TIP3   OH225175   8.174   2.590   3.421
 8433TIP3    H125176   8.095   2.641   3.395
 8433TIP3    H225177   8.224   2.586   3.337
 8434TIP3   OH225178   8.132   2.374   3.140
 8434TIP3    H125179   8.202   2.422   3.190
 8434TIP3    H225180   8.188   2.309   3.093
 8435TIP3   OH225181   9.076   2.829   4.009
 8435TIP3    H125182   8.994   2.883   4.015
 8435TIP3    H225183   9.105   2.849   3.918
 8436TIP3   OH225184   8.521   2.672   3.396
 8436TIP3    H125185   8.468   2.697   3.475
 8436TIP3    H225186   8.604   2.643   3.438
 8437TIP3   OH225187   8.757   2.713   4.305
 8437TIP3    H125188   8.755   2.796   4.357
 8437TIP3    H225189   8.671   2.719   4.258
 8438TIP3   OH225190   7.754   2.670   3.814
 8438TIP3    H125191   7.713   2.613   3.745
 8438TIP3    H225192   7.833   2.618   3.840
 8439TIP3   OH225193   7.882   3.078   3.962
 8439TIP3    H125194   7.866   3.036   3.876
 8439TIP3    H225195   7.973   3.048   3.981
 8440TIP3   OH225196   7.887   2.638   4.164
 8440TIP3    H125197   7.926   2.617   4.077
 8440TIP3    H225198   7.933   2.721   4.188
 8441TIP3   OH225199   8.414   3.280   3.941
 8441TIP3    H125200   8.402   3.358   3.997
 8441TIP3    H225201   8.402   3.206   4.004
 8442TIP3   OH225202   8.027   3.200   4.488
 8442TIP3    H125203   7.968   3.262   4.536
 8442TIP3    H225204   7.961   3.145   4.441
 8443TIP3   OH225205   8.362   2.531   3.221
 8443TIP3    H125206   8.422   2.588   3.274
 8443TIP3    H225207   8.389   2.557   3.129
 8444TIP3   OH225208   7.779   2.757   4.586
 8444TIP3    H125209   7.786   2.842   4.633
 8444TIP3    H225210   7.684   2.738   4.599
 8445TIP3   OH225211   8.102   3.214   3.497
 8445TIP3    H125212   8.183   3.264   3.516
 8445TIP3    H225213   8.044   3.280   3.458
 8446TIP3   OH225214   7.822   3.371   4.576
 8446TIP3    H125215   7.788   3.366   4.485
 8446TIP3    H225216   7.743   3.348   4.629
 8447TIP3   OH225217   8.884   1.784   3.293
 8447TIP3    H125218   8.795   1.799   3.332
 8447TIP3    H225219   8.888   1.854   3.225
 8448TIP3   OH225220   7.615   2.513   3.623
 8448TIP3    H125221   7.556   2.559   3.561
 8448TIP3    H225222   7.581   2.423   3.619
 8449TIP3   OH225223   8.675   3.140   2.815
 8449TIP3    H125224   8.683   3.237   2.802
 8449TIP3    H225225   8.769   3.112   2.802
 8450TIP3   OH225226   7.402   2.895   4.524
 8450TIP3    H125227   7.341   2.865   4.454
 8450TIP3    H225228   7.442   2.811   4.555
 8451TIP3   OH225229   7.252   3.088   4.155
 8451TIP3    H125230   7.348   3.080   4.145
 8451TIP3    H225231   7.246   3.169   4.208
 8452TIP3   OH225232   9.112   3.543   4.204
 8452TIP3    H125233   9.120   3.448   4.218
 8452TIP3    H225234   9.032   3.563   4.256
 8453TIP3   OH225235   8.226   3.329   4.345
 8453TIP3    H125236   8.226   3.421   4.378
 8453TIP3    H225237   8.156   3.289   4.400
 8454TIP3   OH225238   7.982   3.455   3.299
 8454TIP3    H125239   7.941   3.438   3.212
 8454TIP3    H225240   7.955   3.546   3.318
 8455TIP3   OH225241   7.423   3.305   3.680
 8455TIP3    H125242   7.474   3.296   3.763
 8455TIP3    H225243   7.362   3.230   3.689
 8456TIP3   OH225244   8.188   3.355   2.939
 8456TIP3    H125245   8.248   3.287   2.902
 8456TIP3    H225246   8.224   3.366   3.030
 8457TIP3   OH225247   8.236   3.405   3.210
 8457TIP3    H125248   8.150   3.413   3.255
 8457TIP3    H225249   8.291   3.365   3.279
 8458TIP3   OH225250   9.017   2.677   4.478
 8458TIP3    H125251   8.936   2.685   4.427
 8458TIP3    H225252   9.035   2.581   4.472
 8459TIP3   OH225253   7.606   3.080   4.514
 8459TIP3    H125254   7.658   3.063   4.596
 8459TIP3    H225255   7.534   3.016   4.523
 8460TIP3   OH225256   8.004   1.898   4.296
 8460TIP3    H125257   7.928   1.842   4.281
 8460TIP3    H225258   7.969   1.979   4.337
 8461TIP3   OH225259   8.541   2.023   4.490
 8461TIP3    H125260   8.611   1.991   4.551
 8461TIP3    H225261   8.458   1.996   4.536
 8462TIP3   OH225262   8.774   2.446   4.404
 8462TIP3    H125263   8.731   2.444   4.492
 8462TIP3    H225264   8.756   2.536   4.373
 8463TIP3   OH225265   8.436   2.581   2.963
 8463TIP3    H125266   8.407   2.551   2.875
 8463TIP3    H225267   8.519   2.628   2.941
 8464TIP3   OH225268   8.151   1.956   3.265
 8464TIP3    H125269   8.123   1.952   3.359
 8464TIP3    H225270   8.117   1.869   3.235
 8465TIP3   OH225271   7.923   2.402   4.315
 8465TIP3    H125272   7.878   2.436   4.394
 8465TIP3    H225273   7.915   2.480   4.255
 8466TIP3   OH225274   7.822   2.298   3.838
 8466TIP3    H125275   7.729   2.271   3.842
 8466TIP3    H225276   7.846   2.263   3.749
 8467TIP3   OH225277   8.313   2.391   3.554
 8467TIP3    H125278   8.259   2.462   3.512
 8467TIP3    H225279   8.369   2.361   3.480
 8468TIP3   OH225280   8.487   2.673   4.645
 8468TIP3    H125281   8.466   2.598   4.704
 8468TIP3    H225282   8.582   2.683   4.662
 8469TIP3   OH225283   8.468   2.421   3.795
 8469TIP3    H125284   8.410   2.447   3.720
 8469TIP3    H225285   8.503   2.337   3.757
 8470TIP3   OH225286   7.751   2.446   4.528
 8470TIP3    H125287   7.791   2.511   4.588
 8470TIP3    H225288   7.743   2.367   4.585
 8471TIP3   OH225289   7.805   1.924   3.232
 8471TIP3    H125290   7.804   1.920   3.329
 8471TIP3    H225291   7.724   1.974   3.213
 8472TIP3   OH225292   7.355   1.966   4.104
 8472TIP3    H125293   7.422   2.034   4.094
 8472TIP3    H225294   7.353   1.926   4.015
 8473TIP3   OH225295   7.328   1.950   3.623
 8473TIP3    H125296   7.373   1.989   3.544
 8473TIP3    H225297   7.266   2.023   3.643
 8474TIP3   OH225298   8.476   2.667   4.218
 8474TIP3    H125299   8.511   2.595   4.160
 8474TIP3    H225300   8.452   2.615   4.298
 8475TIP3   OH225301   8.146   2.150   3.898
 8475TIP3    H125302   8.078   2.109   3.953
 8475TIP3    H225303   8.228   2.123   3.944
 8476TIP3   OH225304   7.574   2.165   3.909
 8476TIP3    H125305   7.485   2.181   3.870
 8476TIP3    H225306   7.606   2.087   3.860
 8477TIP3   OH225307   7.852   2.184   3.589
 8477TIP3    H125308   7.949   2.192   3.574
 8477TIP3    H225309   7.813   2.205   3.501
 8478TIP3   OH225310   8.631   2.204   4.092
 8478TIP3    H125311   8.596   2.211   4.183
 8478TIP3    H225312   8.572   2.137   4.053
 8479TIP3   OH225313   7.688   2.215   3.363
 8479TIP3    H125314   7.619   2.169   3.313
 8479TIP3    H225315   7.743   2.250   3.290
 8480TIP3   OH225316   8.808   3.893   4.309
 8480TIP3    H125317   8.809   3.914   4.214
 8480TIP3    H225318   8.888   3.940   4.340
 8481TIP3   OH225319   7.768   3.002   4.732
 8481TIP3    H125320   7.848   3.031   4.779
 8481TIP3    H225321   7.704   3.001   4.806
 8482TIP3   OH225322   8.234   2.457   3.986
 8482TIP3    H125323   8.300   2.416   3.930
 8482TIP3    H225324   8.249   2.412   4.071
 8483TIP3   OH225325   7.762   1.941   3.856
 8483TIP3    H125326   7.732   1.857   3.896
 8483TIP3    H225327   7.825   1.911   3.790
 8484TIP3   OH225328   8.208   2.344   4.286
 8484TIP3    H125329   8.122   2.390   4.294
 8484TIP3    H225330   8.271   2.406   4.329
 8485TIP3   OH225331   7.943   2.745   3.369
 8485TIP3    H125332   7.871   2.678   3.360
 8485TIP3    H225333   7.929   2.777   3.461
 8486TIP3   OH225334   8.846   2.979   4.001
 8486TIP3    H125335   8.869   3.025   3.918
 8486TIP3    H225336   8.761   2.937   3.979
 8487TIP3   OH225337   8.402   2.061   3.223
 8487TIP3    H125338   8.307   2.043   3.240
 8487TIP3    H225339   8.414   2.153   3.255
 8488TIP3   OH225340   8.340   3.057   4.370
 8488TIP3    H125341   8.371   3.037   4.459
 8488TIP3    H225342   8.309   3.149   4.377
 8489TIP3   OH225343   8.475   2.301   3.335
 8489TIP3    H125344   8.572   2.305   3.352
 8489TIP3    H225345   8.460   2.381   3.280
 8490TIP3   OH225346   7.633   2.756   4.049
 8490TIP3    H125347   7.674   2.735   3.963
 8490TIP3    H225348   7.689   2.704   4.109
 8491TIP3   OH225349   8.090   2.892   3.189
 8491TIP3    H125350   8.044   2.979   3.198
 8491TIP3    H225351   8.037   2.837   3.250
 8492TIP3   OH225352   7.515   2.688   4.663
 8492TIP3    H125353   7.544   2.676   4.756
 8492TIP3    H225354   7.451   2.615   4.652
 8493TIP3   OH225355   8.244   2.798   4.680
 8493TIP3    H125356   8.190   2.740   4.624
 8493TIP3    H225357   8.334   2.767   4.657
 8494TIP3   OH225358   8.506   3.319   4.266
 8494TIP3    H125359   8.409   3.320   4.276
 8494TIP3    H225360   8.533   3.373   4.343
 8495TIP3   OH225361   8.910   2.383   3.183
 8495TIP3    H125362   8.852   2.337   3.119
 8495TIP3    H225363   8.930   2.461   3.128
 8496TIP3   OH225364   9.131   3.238   4.249
 8496TIP3    H125365   9.033   3.239   4.242
 8496TIP3    H225366   9.154   3.209   4.159
 8497TIP3   OH225367   8.609   3.211   3.078
 8497TIP3    H125368   8.596   3.139   3.141
 8497TIP3    H225369   8.629   3.164   2.995
 8498TIP3   OH225370   8.611   2.841   3.923
 8498TIP3    H125371   8.518   2.815   3.934
 8498TIP3    H225372   8.646   2.763   3.876
 8499TIP3   OH225373   7.738   3.067   3.674
 8499TIP3    H125374   7.746   3.148   3.620
 8499TIP3    H225375   7.643   3.056   3.677
 8500TIP3   OH225376   7.299   2.373   3.372
 8500TIP3    H125377   7.348   2.455   3.393
 8500TIP3    H225378   7.224   2.380   3.434
 8501TIP3   OH225379   7.877   2.833   3.617
 8501TIP3    H125380   7.845   2.924   3.635
 8501TIP3    H225381   7.843   2.785   3.694
 8502TIP3   OH225382   8.007   3.412   4.142
 8502TIP3    H125383   8.048   3.484   4.091
 8502TIP3    H225384   8.084   3.378   4.190
 8503TIP3   OH225385   7.659   3.307   3.526
 8503TIP3    H125386   7.573   3.317   3.570
 8503TIP3    H225387   7.693   3.399   3.528
 8504TIP3   OH225388   8.398   3.048   4.100
 8504TIP3    H125389   8.389   3.042   4.198
 8504TIP3    H225390   8.478   2.995   4.085
 8505TIP3   OH225391   8.369   2.935   2.983
 8505TIP3    H125392   8.424   2.913   3.062
 8505TIP3    H225393   8.281   2.911   3.017
 8506TIP3   OH225394   8.644   3.583   4.153
 8506TIP3    H125395   8.566   3.525   4.141
 8506TIP3    H225396   8.631   3.647   4.079
 8507TIP3   OH225397   8.709   3.415   2.804
 8507TIP3    H125398   8.748   3.488   2.751
 8507TIP3    H225399   8.629   3.461   2.836
 8508TIP3   OH225400   7.735   2.187   4.665
 8508TIP3    H125401   7.641   2.195   4.689
 8508TIP3    H225402   7.768   2.130   4.738
 8509TIP3   OH225403   8.527   2.874   3.203
 8509TIP3    H125404   8.520   2.806   3.272
 8509TIP3    H225405   8.624   2.872   3.187
 8510TIP3   OH225406   7.444   3.273   4.303
 8510TIP3    H125407   7.501   3.200   4.333
 8510TIP3    H225408   7.472   3.344   4.360
 8511TIP3   OH225409   7.735   2.920   2.982
 8511TIP3    H125410   7.754   2.829   2.952
 8511TIP3    H225411   7.718   2.906   3.077
 8512TIP3   OH225412   7.682   2.923   3.257
 8512TIP3    H125413   7.757   2.897   3.312
 8512TIP3    H225414   7.688   3.021   3.262
 8513TIP3   OH225415   7.419   2.617   3.457
 8513TIP3    H125416   7.354   2.664   3.514
 8513TIP3    H225417   7.437   2.687   3.390
 8514TIP3   OH225418   8.559   2.261   4.354
 8514TIP3    H125419   8.646   2.295   4.382
 8514TIP3    H225420   8.551   2.178   4.406
 8515TIP3   OH225421   8.446   2.011   3.508
 8515TIP3    H125422   8.437   2.038   3.416
 8515TIP3    H225423   8.486   2.090   3.551
 8516TIP3   OH225424   7.946   3.121   3.203
 8516TIP3    H125425   7.860   3.153   3.238
 8516TIP3    H225426   7.967   3.193   3.142
 8517TIP3   OH225427   8.128   2.191   3.617
 8517TIP3    H125428   8.200   2.255   3.597
 8517TIP3    H225429   8.144   2.175   3.713
 8518TIP3   OH225430   8.404   2.504   4.427
 8518TIP3    H125431   8.428   2.554   4.507
 8518TIP3    H225432   8.462   2.426   4.433
 8519TIP3   OH225433   8.273   1.931   3.714
 8519TIP3    H125434   8.311   1.968   3.795
 8519TIP3    H225435   8.343   1.952   3.649
 8520TIP3   OH225436   7.687   3.197   3.270
 8520TIP3    H125437   7.660   3.267   3.206
 8520TIP3    H225438   7.674   3.243   3.355
 8521TIP3   OH225439   7.791   1.910   3.509
 8521TIP3    H125440   7.794   2.001   3.544
 8521TIP3    H225441   7.887   1.887   3.517
 8522TIP3   OH225442   9.043   2.409   4.405
 8522TIP3    H125443   8.945   2.401   4.407
 8522TIP3    H225444   9.061   2.372   4.318
 8523TIP3   OH225445   8.688   2.606   3.790
 8523TIP3    H125446   8.617   2.541   3.804
 8523TIP3    H225447   8.763   2.564   3.837
 8524TIP3   OH225448   7.408   2.831   3.264
 8524TIP3    H125449   7.475   2.902   3.272
 8524TIP3    H225450   7.454   2.776   3.197
 8525TIP3   OH225451   7.353   2.103   3.399
 8525TIP3    H125452   7.353   2.201   3.390
 8525TIP3    H225453   7.272   2.079   3.354
 8526TIP3   OH225454   8.665   3.553   3.744
 8526TIP3    H125455   8.623   3.600   3.668
 8526TIP3    H225456   8.759   3.573   3.725
 8527TIP3   OH225457   7.281   3.041   3.660
 8527TIP3    H125458   7.197   3.082   3.687
 8527TIP3    H225459   7.285   3.074   3.568
 8528TIP3   OH225460   7.436   3.580   4.722
 8528TIP3    H125461   7.522   3.578   4.768
 8528TIP3    H225462   7.414   3.485   4.720
 8529TIP3   OH225463   7.926   3.552   4.764
 8529TIP3    H125464   8.018   3.521   4.773
 8529TIP3    H225465   7.896   3.496   4.690
 8530TIP3   OH225466   7.900   3.124   2.896
 8530TIP3    H125467   7.845   3.053   2.935
 8530TIP3    H225468   7.976   3.073   2.864
 8531TIP3   OH225469   8.554   3.457   4.503
 8531TIP3    H125470   8.549   3.384   4.569
 8531TIP3    H225471   8.635   3.504   4.529
 8532TIP3   OH225472   8.336   3.165   2.805
 8532TIP3    H125473   8.385   3.105   2.864
 8532TIP3    H225474   8.393   3.168   2.726
 8533TIP3   OH225475   7.568   2.990   4.923
 8533TIP3    H125476   7.586   2.894   4.930
 8533TIP3    H225477   7.480   2.990   4.881
 8534TIP3   OH225478   7.543   2.641   3.116
 8534TIP3    H125479   7.599   2.606   3.188
 8534TIP3    H225480   7.610   2.646   3.044
 8535TIP3   OH225481   8.175   3.072   4.696
 8535TIP3    H125482   8.137   3.086   4.608
 8535TIP3    H225483   8.209   2.980   4.691
 8536TIP3   OH225484   8.047   2.837   2.921
 8536TIP3    H125485   8.055   2.851   3.018
 8536TIP3    H225486   8.050   2.739   2.918
 8537TIP3   OH225487   8.667   3.081   4.301
 8537TIP3    H125488   8.743   3.124   4.257
 8537TIP3    H225489   8.598   3.149   4.287
 8538TIP3   OH225490   7.687   2.720   4.901
 8538TIP3    H125491   7.762   2.661   4.886
 8538TIP3    H225492   7.709   2.754   4.991
 8539TIP3   OH225493   7.751   2.542   3.338
 8539TIP3    H125494   7.732   2.496   3.421
 8539TIP3    H225495   7.789   2.470   3.284
 8540TIP3   OH225496   8.014   2.601   4.558
 8540TIP3    H125497   7.945   2.669   4.568
 8540TIP3    H225498   8.069   2.638   4.485
 8541TIP3   OH225499   7.853   2.337   3.180
 8541TIP3    H125500   7.827   2.336   3.086
 8541TIP3    H225501   7.950   2.343   3.173
 8542TIP3   OH225502   8.539   3.010   4.700
 8542TIP3    H125503   8.621   2.989   4.652
 8542TIP3    H225504   8.539   2.941   4.769
 8543TIP3   OH225505   8.676   2.670   2.838
 8543TIP3    H125506   8.652   2.621   2.757
 8543TIP3    H225507   8.644   2.760   2.814
 8544TIP3   OH225508   8.140   2.394   4.696
 8544TIP3    H125509   8.146   2.313   4.641
 8544TIP3    H225510   8.101   2.459   4.634
 8545TIP3   OH225511   8.137   2.179   4.499
 8545TIP3    H125512   8.178   2.222   4.420
 8545TIP3    H225513   8.051   2.154   4.465
 8546TIP3   OH225514   8.175   2.717   4.373
 8546TIP3    H125515   8.259   2.720   4.326
 8546TIP3    H225516   8.123   2.786   4.328
 8547TIP3   OH225517   8.761   2.688   4.756
 8547TIP3    H125518   8.804   2.601   4.765
 8547TIP3    H225519   8.833   2.742   4.723
 8548TIP3   OH225520   8.797   2.939   4.491
 8548TIP3    H125521   8.742   2.992   4.430
 8548TIP3    H225522   8.886   2.955   4.451
 8549TIP3   OH225523   8.016   2.514   4.919
 8549TIP3    H125524   7.951   2.443   4.935
 8549TIP3    H225525   8.057   2.483   4.835
 8550TIP3   OH225526   8.282   1.950   4.568
 8550TIP3    H125527   8.231   2.030   4.545
 8550TIP3    H225528   8.215   1.879   4.556
 8551TIP3   OH225529   8.404   2.455   4.783
 8551TIP3    H125530   8.400   2.441   4.880
 8551TIP3    H225531   8.313   2.426   4.759
 8552TIP3   OH225532   8.647   2.406   4.639
 8552TIP3    H125533   8.571   2.400   4.700
 8552TIP3    H225534   8.720   2.371   4.694
 8553TIP3   OH225535   8.870   2.339   4.790
 8553TIP3    H125536   8.885   2.244   4.808
 8553TIP3    H225537   8.869   2.379   4.880
 8554TIP3   OH225538   7.862   2.290   4.974
 8554TIP3    H125539   7.871   2.199   4.941
 8554TIP3    H225540   7.899   2.279   5.065
 8555TIP3   OH225541   8.374   1.956   4.825
 8555TIP3    H125542   8.443   1.887   4.821
 8555TIP3    H225543   8.337   1.949   4.735
 8556TIP3   OH225544   8.439   2.171   4.983
 8556TIP3    H125545   8.418   2.099   4.919
 8556TIP3    H225546   8.362   2.230   4.974
 8557TIP3   OH225547   7.659   3.398   3.082
 8557TIP3    H125548   7.755   3.396   3.064
 8557TIP3    H225549   7.629   3.447   3.003
 8558TIP3   OH225550   7.141   2.780   3.303
 8558TIP3    H125551   7.235   2.804   3.287
 8558TIP3    H225552   7.136   2.692   3.260
 8559TIP3   OH225553   7.053   3.391   3.712
 8559TIP3    H125554   6.987   3.330   3.674
 8559TIP3    H225555   7.096   3.335   3.781
 8560TIP3   OH225556   7.184   3.246   3.906
 8560TIP3    H125557   7.203   3.170   3.963
 8560TIP3    H225558   7.235   3.315   3.953
 8561TIP3   OH225559   8.916   3.648   3.699
 8561TIP3    H125560   8.947   3.683   3.784
 8561TIP3    H225561   8.979   3.687   3.637
 8562TIP3   OH225562   8.946   3.668   3.984
 8562TIP3    H125563   8.907   3.578   3.977
 8562TIP3    H225564   9.025   3.647   4.037
 8563TIP3   OH225565   8.992   3.345   4.551
 8563TIP3    H125566   8.921   3.352   4.617
 8563TIP3    H225567   9.035   3.433   4.558
 8564TIP3   OH225568   8.803   2.859   3.172
 8564TIP3    H125569   8.873   2.924   3.149
 8564TIP3    H225570   8.844   2.816   3.251
 8565TIP3   OH225571   8.923   2.723   3.374
 8565TIP3    H125572   8.858   2.678   3.433
 8565TIP3    H225573   8.985   2.762   3.438
 8566TIP3   OH225574   8.986   3.108   3.804
 8566TIP3    H125575   9.038   3.056   3.740
 8566TIP3    H225576   8.977   3.192   3.756
 8567TIP3   OH225577   8.824   3.414   4.005
 8567TIP3    H125578   8.754   3.457   4.057
 8567TIP3    H225579   8.772   3.366   3.936
 8568TIP3   OH225580   8.882   2.638   3.019
 8568TIP3    H125581   8.805   2.635   2.958
 8568TIP3    H225582   8.852   2.709   3.080
 8569TIP3   OH225583   8.733   2.304   2.991
 8569TIP3    H125584   8.720   2.344   2.905
 8569TIP3    H225585   8.712   2.210   2.973
 8570TIP3   OH225586   8.749   2.577   3.524
 8570TIP3    H125587   8.761   2.480   3.521
 8570TIP3    H225588   8.736   2.592   3.621
 8571TIP3   OH225589   7.379   2.662   4.268
 8571TIP3    H125590   7.380   2.631   4.175
 8571TIP3    H225591   7.476   2.660   4.288
 8572TIP3   OH225592   9.040   3.002   4.380
 8572TIP3    H125593   9.115   2.938   4.372
 8572TIP3    H225594   9.070   3.075   4.323
 8573TIP3   OH225595   9.237   2.819   4.406
 8573TIP3    H125596   9.159   2.769   4.439
 8573TIP3    H225597   9.304   2.747   4.414
 8574TIP3   OH225598   8.689   2.036   2.965
 8574TIP3    H125599   8.764   2.005   3.020
 8574TIP3    H225600   8.614   1.980   2.994
 8575TIP3   OH225601   8.749   2.294   3.419
 8575TIP3    H125602   8.790   2.206   3.436
 8575TIP3    H225603   8.806   2.327   3.347
 8576TIP3   OH225604   8.901   2.493   3.905
 8576TIP3    H125605   8.986   2.520   3.865
 8576TIP3    H225606   8.924   2.496   3.999
 8577TIP3   OH225607   8.978   2.615   4.154
 8577TIP3    H125608   8.897   2.648   4.198
 8577TIP3    H225609   9.008   2.693   4.104
 8578TIP3   OH225610   7.596   2.341   4.943
 8578TIP3    H125611   7.694   2.334   4.948
 8578TIP3    H225612   7.571   2.257   4.985
 8579TIP3   OH225613   8.855   2.042   3.464
 8579TIP3    H125614   8.892   2.028   3.554
 8579TIP3    H225615   8.793   1.967   3.459
 8580TIP3   OH225616   7.363   2.301   4.351
 8580TIP3    H125617   7.419   2.304   4.271
 8580TIP3    H225618   7.386   2.384   4.395
 8581TIP3   OH225619   9.287   2.335   4.525
 8581TIP3    H125620   9.206   2.386   4.544
 8581TIP3    H225621   9.253   2.275   4.455
 8582TIP3   OH225622   8.937   1.969   3.080
 8582TIP3    H125623   8.981   1.884   3.062
 8582TIP3    H225624   8.989   2.028   3.022
 8583TIP3   OH225625   7.336   1.834   3.865
 8583TIP3    H125626   7.243   1.806   3.872
 8583TIP3    H225627   7.339   1.874   3.775
 8584TIP3   OH225628   8.500   3.512   3.356
 8584TIP3    H125629   8.552   3.495   3.275
 8584TIP3    H225630   8.556   3.578   3.401
 8585TIP3   OH225631   7.563   1.896   4.666
 8585TIP3    H125632   7.515   1.880   4.749
 8585TIP3    H225633   7.490   1.926   4.608
 8586TIP3   OH225634   7.602   3.317   4.745
 8586TIP3    H125635   7.511   3.287   4.726
 8586TIP3    H225636   7.613   3.294   4.838
 8587TIP3   OH225637   7.779   3.346   4.290
 8587TIP3    H125638   7.733   3.423   4.251
 8587TIP3    H225639   7.866   3.359   4.247
 8588TIP3   OH225640   8.228   3.594   4.431
 8588TIP3    H125641   8.272   3.595   4.518
 8588TIP3    H225642   8.295   3.643   4.376
 8589TIP3   OH225643   8.406   3.743   4.285
 8589TIP3    H125644   8.477   3.693   4.242
 8589TIP3    H225645   8.458   3.801   4.345
 8590TIP3   OH225646   9.192   2.108   4.392
 8590TIP3    H125647   9.104   2.106   4.350
 8590TIP3    H225648   9.229   2.023   4.362
 8591TIP3   OH225649   7.456   3.602   4.313
 8591TIP3    H125650   7.369   3.639   4.289
 8591TIP3    H225651   7.466   3.636   4.403
 8592TIP3   OH225652   7.693   3.583   4.170
 8592TIP3    H125653   7.607   3.597   4.215
 8592TIP3    H225654   7.675   3.618   4.081
 8593TIP3   OH225655   8.119   3.614   3.969
 8593TIP3    H125656   8.053   3.636   3.901
 8593TIP3    H225657   8.134   3.701   4.011
 8594TIP3   OH225658   8.388   3.553   4.020
 8594TIP3    H125659   8.294   3.571   3.999
 8594TIP3    H225660   8.432   3.629   3.977
 8595TIP3   OH225661   8.594   3.745   3.935
 8595TIP3    H125662   8.582   3.830   3.888
 8595TIP3    H225663   8.622   3.686   3.863
 8596TIP3   OH225664   7.367   3.398   4.057
 8596TIP3    H125665   7.395   3.376   4.148
 8596TIP3    H225666   7.441   3.356   4.007
 8597TIP3   OH225667   7.561   3.269   3.913
 8597TIP3    H125668   7.580   3.185   3.961
 8597TIP3    H225669   7.651   3.309   3.909
 8598TIP3   OH225670   7.825   3.366   3.918
 8598TIP3    H125671   7.860   3.277   3.903
 8598TIP3    H225672   7.870   3.388   4.001
 8599TIP3   OH225673   8.397   2.017   3.992
 8599TIP3    H125674   8.351   1.960   4.056
 8599TIP3    H225675   8.452   1.945   3.952
 8600TIP3   OH225676   8.920   1.909   3.930
 8600TIP3    H125677   8.953   1.953   3.848
 8600TIP3    H225678   8.831   1.881   3.903
 8601TIP3   OH225679   9.016   2.002   3.691
 8601TIP3    H125680   9.101   1.957   3.674
 8601TIP3    H225681   9.042   2.096   3.680
 8602TIP3   OH225682   7.652   1.750   4.040
 8602TIP3    H125683   7.563   1.710   4.036
 8602TIP3    H225684   7.706   1.668   4.040
 8603TIP3   OH225685   7.435   1.598   3.666
 8603TIP3    H125686   7.472   1.654   3.594
 8603TIP3    H225687   7.411   1.664   3.733
 8604TIP3   OH225688   8.086   1.788   3.910
 8604TIP3    H125689   8.149   1.806   3.837
 8604TIP3    H225690   8.145   1.797   3.986
 8605TIP3   OH225691   8.664   1.833   3.450
 8605TIP3    H125692   8.578   1.877   3.470
 8605TIP3    H225693   8.655   1.754   3.508
 8606TIP3   OH225694   7.152   3.172   3.457
 8606TIP3    H125695   7.069   3.140   3.416
 8606TIP3    H225696   7.145   3.266   3.435
 8607TIP3   OH225697   7.557   1.763   3.433
 8607TIP3    H125698   7.604   1.697   3.378
 8607TIP3    H225699   7.631   1.815   3.469
 8608TIP3   OH225700   8.066   1.936   3.531
 8608TIP3    H125701   8.128   1.886   3.588
 8608TIP3    H225702   8.093   2.026   3.559
 8609TIP3   OH225703   7.929   3.362   3.032
 8609TIP3    H125704   8.017   3.384   2.997
 8609TIP3    H225705   7.907   3.287   2.973
 8610TIP3   OH225706   8.645   3.476   3.124
 8610TIP3    H125707   8.635   3.379   3.109
 8610TIP3    H225708   8.603   3.511   3.043
 8611TIP3   OH225709   7.862   2.015   4.912
 8611TIP3    H125710   7.828   1.943   4.969
 8611TIP3    H225711   7.957   2.014   4.939
 8612TIP3   OH225712   8.110   2.009   5.031
 8612TIP3    H125713   8.195   1.984   4.992
 8612TIP3    H225714   8.099   1.939   5.098
 8613TIP3   OH225715   7.232   3.194   3.090
 8613TIP3    H125716   7.236   3.230   3.180
 8613TIP3    H225717   7.322   3.155   3.078
 8614TIP3   OH225718   8.932   2.070   4.822
 8614TIP3    H125719   8.955   2.038   4.912
 8614TIP3    H225720   9.019   2.066   4.777
 8615TIP3   OH225721   8.870   3.623   4.317
 8615TIP3    H125722   8.793   3.592   4.266
 8615TIP3    H225723   8.855   3.720   4.315
 8616TIP3   OH225724   9.096   2.504   3.352
 8616TIP3    H125725   9.032   2.577   3.352
 8616TIP3    H225726   9.045   2.437   3.301
 8617TIP3   OH225727   9.151   2.795   3.507
 8617TIP3    H125728   9.190   2.716   3.547
 8617TIP3    H225729   9.192   2.792   3.419
 8618TIP3   OH225730   9.006   3.029   3.093
 8618TIP3    H125731   8.993   3.035   2.997
 8618TIP3    H225732   9.039   3.118   3.115
 8619TIP3   OH225733   9.191   3.137   4.000
 8619TIP3    H125734   9.122   3.106   3.938
 8619TIP3    H225735   9.227   3.054   4.037
 8620TIP3   OH225736   9.056   3.345   3.649
 8620TIP3    H125737   9.152   3.348   3.637
 8620TIP3    H225738   9.042   3.427   3.698
 8621TIP3   OH225739   9.185   3.567   3.188
 8621TIP3    H125740   9.246   3.562   3.265
 8621TIP3    H225741   9.141   3.480   3.194
 8622TIP3   OH225742   9.335   3.363   4.027
 8622TIP3    H125743   9.388   3.325   4.097
 8622TIP3    H225744   9.273   3.287   4.010
 8623TIP3   OH225745   9.112   2.244   3.620
 8623TIP3    H125746   9.180   2.289   3.671
 8623TIP3    H225747   9.129   2.275   3.529
 8624TIP3   OH225748   9.297   2.936   4.150
 8624TIP3    H125749   9.324   2.908   4.239
 8624TIP3    H225750   9.231   2.868   4.128
 8625TIP3   OH225751   9.080   2.704   2.839
 8625TIP3    H125752   9.155   2.689   2.900
 8625TIP3    H225753   9.004   2.682   2.899
 8626TIP3   OH225754   9.235   3.536   3.794
 8626TIP3    H125755   9.278   3.463   3.842
 8626TIP3    H225756   9.269   3.613   3.843
 8627TIP3   OH225757   9.075   3.296   3.143
 8627TIP3    H125758   8.995   3.327   3.187
 8627TIP3    H225759   9.064   3.339   3.055
 8628TIP3   OH225760   9.228   3.832   4.213
 8628TIP3    H125761   9.319   3.821   4.247
 8628TIP3    H225762   9.203   3.738   4.205
 8629TIP3   OH225763   9.359   3.271   4.397
 8629TIP3    H125764   9.391   3.185   4.428
 8629TIP3    H225765   9.275   3.248   4.352
 8630TIP3   OH225766   8.933   3.044   2.776
 8630TIP3    H125767   9.030   3.039   2.787
 8630TIP3    H225768   8.918   2.959   2.729
 8631TIP3   OH225769   8.846   3.651   3.201
 8631TIP3    H125770   8.781   3.586   3.166
 8631TIP3    H225771   8.894   3.595   3.266
 8632TIP3   OH225772   8.978   3.502   3.391
 8632TIP3    H125773   8.973   3.428   3.453
 8632TIP3    H225774   9.036   3.564   3.441
 8633TIP3   OH225775   9.199   2.906   3.758
 8633TIP3    H125776   9.175   2.877   3.667
 8633TIP3    H225777   9.283   2.953   3.741
 8634TIP3   OH225778   9.375   2.586   4.414
 8634TIP3    H125779   9.466   2.619   4.426
 8634TIP3    H225780   9.372   2.510   4.476
 8635TIP3   OH225781   9.149   2.583   3.803
 8635TIP3    H125782   9.212   2.508   3.813
 8635TIP3    H225783   9.193   2.654   3.850
 8636TIP3   OH225784   9.102   2.116   3.322
 8636TIP3    H125785   9.007   2.099   3.338
 8636TIP3    H225786   9.104   2.134   3.227
 8637TIP3   OH225787   9.393   3.585   4.250
 8637TIP3    H125788   9.318   3.540   4.208
 8637TIP3    H225789   9.400   3.539   4.334
 8638TIP3   OH225790   9.243   3.853   3.803
 8638TIP3    H125791   9.158   3.896   3.778
 8638TIP3    H225792   9.261   3.900   3.886
 8639TIP3   OH225793   9.491   3.839   3.668
 8639TIP3    H125794   9.400   3.848   3.699
 8639TIP3    H225795   9.485   3.872   3.576
 8640TIP3   OH225796   9.165   3.652   3.543
 8640TIP3    H125797   9.194   3.635   3.635
 8640TIP3    H225798   9.244   3.620   3.495
 8641TIP3   OH225799   9.372   3.545   3.388
 8641TIP3    H125800   9.396   3.451   3.398
 8641TIP3    H225801   9.459   3.588   3.399
 8642TIP3   OH225802   8.952   3.423   2.937
 8642TIP3    H125803   8.866   3.395   2.901
 8642TIP3    H225804   8.944   3.519   2.928
 8643TIP3   OH225805   9.046   3.466   2.586
 8643TIP3    H125806   9.018   3.492   2.675
 8643TIP3    H225807   9.109   3.395   2.605
 8644TIP3   OH225808   0.798   3.524   5.282
 8644TIP3    H125809   0.772   3.617   5.266
 8644TIP3    H225810   0.717   3.478   5.254
 8645TIP3   OH225811   0.793   3.525   5.661
 8645TIP3    H125812   0.825   3.498   5.749
 8645TIP3    H225813   0.751   3.443   5.629
 8646TIP3   OH225814   0.095   3.422   6.020
 8646TIP3    H125815   0.121   3.354   6.084
 8646TIP3    H225816   0.169   3.483   6.026
 8647TIP3   OH225817   1.035   3.828   5.343
 8647TIP3    H125818   1.028   3.759   5.410
 8647TIP3    H225819   1.067   3.904   5.396
 8648TIP3   OH225820   0.072   3.831   5.752
 8648TIP3    H125821   0.058   3.734   5.758
 8648TIP3    H225822   0.169   3.834   5.754
 8649TIP3   OH225823  -0.255   3.036   5.536
 8649TIP3    H125824  -0.273   3.127   5.566
 8649TIP3    H225825  -0.287   2.985   5.612
 8650TIP3   OH225826  -0.160   3.321   5.704
 8650TIP3    H125827  -0.112   3.247   5.748
 8650TIP3    H225828  -0.099   3.348   5.635
 8651TIP3   OH225829   0.682   4.286   5.358
 8651TIP3    H125830   0.733   4.216   5.312
 8651TIP3    H225831   0.686   4.256   5.450
 8652TIP3   OH225832   0.595   3.751   5.708
 8652TIP3    H125833   0.634   3.674   5.664
 8652TIP3    H225834   0.679   3.796   5.734
 8653TIP3   OH225835   1.606   3.073   5.706
 8653TIP3    H125836   1.634   3.154   5.754
 8653TIP3    H225837   1.628   3.098   5.615
 8654TIP3   OH225838   1.004   3.255   5.745
 8654TIP3    H125839   1.050   3.171   5.764
 8654TIP3    H225840   0.976   3.240   5.653
 8655TIP3   OH225841   0.343   2.912   5.710
 8655TIP3    H125842   0.323   2.986   5.649
 8655TIP3    H225843   0.293   2.840   5.665
 8656TIP3   OH225844   1.036   3.002   5.332
 8656TIP3    H125845   1.107   2.987   5.399
 8656TIP3    H225846   1.089   3.039   5.259
 8657TIP3   OH225847  -0.020   3.113   5.810
 8657TIP3    H125848   0.055   3.096   5.869
 8657TIP3    H225849   0.000   3.054   5.735
 8658TIP3   OH225850   0.421   3.314   5.601
 8658TIP3    H125851   0.513   3.287   5.620
 8658TIP3    H225852   0.380   3.228   5.574
 8659TIP3   OH225853   1.679   3.279   5.877
 8659TIP3    H125854   1.594   3.326   5.861
 8659TIP3    H225855   1.695   3.302   5.970
 8660TIP3   OH225856   0.345   2.889   6.143
 8660TIP3    H125857   0.289   2.937   6.079
 8660TIP3    H225858   0.299   2.913   6.227
 8661TIP3   OH225859   0.692   3.749   5.151
 8661TIP3    H125860   0.643   3.723   5.072
 8661TIP3    H225861   0.650   3.834   5.174
 8662TIP3   OH225862   0.448   3.670   5.940
 8662TIP3    H125863   0.383   3.733   5.979
 8662TIP3    H225864   0.491   3.725   5.872
 8663TIP3   OH225865   1.248   3.005   5.501
 8663TIP3    H125866   1.258   2.945   5.576
 8663TIP3    H225867   1.304   3.080   5.529
 8664TIP3   OH225868   0.212   3.010   5.931
 8664TIP3    H125869   0.272   3.085   5.952
 8664TIP3    H225870   0.260   2.970   5.856
 8665TIP3   OH225871   0.275   3.861   6.033
 8665TIP3    H125872   0.251   3.949   5.996
 8665TIP3    H225873   0.198   3.847   6.092
 8666TIP3   OH225874  -0.272   3.582   5.213
 8666TIP3    H125875  -0.364   3.605   5.189
 8666TIP3    H225876  -0.263   3.630   5.298
 8667TIP3   OH225877   1.107   4.067   5.510
 8667TIP3    H125878   1.017   4.061   5.550
 8667TIP3    H225879   1.103   4.155   5.467
 8668TIP3   OH225880   1.396   2.986   5.877
 8668TIP3    H125881   1.309   3.007   5.840
 8668TIP3    H225882   1.457   3.004   5.802
 8669TIP3   OH225883   0.689   2.617   5.855
 8669TIP3    H125884   0.685   2.520   5.865
 8669TIP3    H225885   0.598   2.643   5.882
 8670TIP3   OH225886   0.813   4.117   5.186
 8670TIP3    H125887   0.865   4.036   5.165
 8670TIP3    H225888   0.872   4.184   5.145
 8671TIP3   OH225889   0.956   3.901   5.089
 8671TIP3    H125890   0.911   3.822   5.057
 8671TIP3    H225891   0.991   3.870   5.176
 8672TIP3   OH225892   1.334   3.985   5.857
 8672TIP3    H125893   1.327   3.908   5.797
 8672TIP3    H225894   1.320   4.060   5.795
 8673TIP3   OH225895   0.625   3.375   5.110
 8673TIP3    H125896   0.545   3.428   5.088
 8673TIP3    H225897   0.674   3.376   5.026
 8674TIP3   OH225898   0.585   3.164   4.828
 8674TIP3    H125899   0.652   3.210   4.880
 8674TIP3    H225900   0.641   3.098   4.783
 8675TIP3   OH225901   1.530   3.616   5.697
 8675TIP3    H125902   1.449   3.672   5.705
 8675TIP3    H225903   1.561   3.643   5.608
 8676TIP3   OH225904   0.974   3.459   5.085
 8676TIP3    H125905   0.920   3.485   5.163
 8676TIP3    H225906   1.057   3.433   5.129
 8677TIP3   OH225907   1.210   3.499   5.996
 8677TIP3    H125908   1.210   3.583   6.048
 8677TIP3    H225909   1.125   3.507   5.949
 8678TIP3   OH225910   0.209   3.458   5.498
 8678TIP3    H125911   0.168   3.399   5.432
 8678TIP3    H225912   0.286   3.406   5.528
 8679TIP3   OH225913   0.343   3.875   5.645
 8679TIP3    H125914   0.319   3.819   5.570
 8679TIP3    H225915   0.432   3.841   5.667
 8680TIP3   OH225916   0.353   3.426   5.854
 8680TIP3    H125917   0.382   3.413   5.762
 8680TIP3    H225918   0.389   3.514   5.877
 8681TIP3   OH225919   0.865   4.067   5.631
 8681TIP3    H125920   0.855   4.147   5.685
 8681TIP3    H225921   0.854   3.994   5.695
 8682TIP3   OH225922   0.480   3.986   6.178
 8682TIP3    H125923   0.422   4.050   6.225
 8682TIP3    H225924   0.413   3.933   6.131
 8683TIP3   OH225925   0.816   3.318   4.910
 8683TIP3    H125926   0.875   3.376   4.965
 8683TIP3    H225927   0.843   3.345   4.819
 8684TIP3   OH225928   0.244   3.546   6.271
 8684TIP3    H125929   0.246   3.634   6.315
 8684TIP3    H225930   0.150   3.522   6.286
 8685TIP3   OH225931   0.557   3.999   5.179
 8685TIP3    H125932   0.635   4.051   5.206
 8685TIP3    H225933   0.494   4.067   5.154
 8686TIP3   OH225934   0.278   4.159   6.265
 8686TIP3    H125935   0.242   4.150   6.175
 8686TIP3    H225936   0.207   4.120   6.321
 8687TIP3   OH225937   1.330   2.560   4.957
 8687TIP3    H125938   1.250   2.577   5.010
 8687TIP3    H225939   1.341   2.645   4.910
 8688TIP3   OH225940   0.078   3.297   5.305
 8688TIP3    H125941   0.014   3.341   5.244
 8688TIP3    H225942   0.032   3.216   5.327
 8689TIP3   OH225943   1.128   3.927   4.503
 8689TIP3    H125944   1.137   4.024   4.493
 8689TIP3    H225945   1.222   3.899   4.492
 8690TIP3   OH225946  -0.142   3.699   6.206
 8690TIP3    H125947  -0.196   3.660   6.135
 8690TIP3    H225948  -0.111   3.618   6.250
 8691TIP3   OH225949   1.571   4.329   5.900
 8691TIP3    H125950   1.571   4.232   5.914
 8691TIP3    H225951   1.487   4.353   5.946
 8692TIP3   OH225952   0.678   4.117   6.034
 8692TIP3    H125953   0.679   4.209   6.068
 8692TIP3    H225954   0.608   4.077   6.090
 8693TIP3   OH225955   0.435   4.245   4.987
 8693TIP3    H125956   0.391   4.230   4.901
 8693TIP3    H225957   0.407   4.335   5.010
 8694TIP3   OH225958  -0.084   4.081   5.342
 8694TIP3    H125959  -0.063   4.057   5.435
 8694TIP3    H225960  -0.168   4.036   5.325
 8695TIP3   OH225961   0.639   4.142   4.628
 8695TIP3    H125962   0.701   4.074   4.593
 8695TIP3    H225963   0.674   4.155   4.719
 8696TIP3   OH225964   0.688   4.191   4.898
 8696TIP3    H125965   0.602   4.201   4.945
 8696TIP3    H225966   0.744   4.156   4.969
 8697TIP3   OH225967   1.463   3.460   6.177
 8697TIP3    H125968   1.385   3.475   6.122
 8697TIP3    H225969   1.479   3.364   6.163
 8698TIP3   OH225970   0.066   3.873   6.202
 8698TIP3    H125971   0.112   3.863   6.288
 8698TIP3    H225972  -0.005   3.806   6.209
 8699TIP3   OH225973   0.465   2.705   5.985
 8699TIP3    H125974   0.379   2.665   5.956
 8699TIP3    H225975   0.426   2.783   6.031
 8700TIP3   OH225976   1.221   3.231   6.091
 8700TIP3    H125977   1.183   3.230   6.182
 8700TIP3    H225978   1.209   3.323   6.063
 8701TIP3   OH225979   0.888   3.367   4.652
 8701TIP3    H125980   0.861   3.339   4.564
 8701TIP3    H225981   0.969   3.417   4.632
 8702TIP3   OH225982   0.604   2.743   4.955
 8702TIP3    H125983   0.574   2.741   5.048
 8702TIP3    H225984   0.567   2.658   4.924
 8703TIP3   OH225985   0.393   3.204   6.003
 8703TIP3    H125986   0.341   3.227   6.083
 8703TIP3    H225987   0.379   3.285   5.949
 8704TIP3   OH225988   0.274   3.091   5.518
 8704TIP3    H125989   0.181   3.067   5.534
 8704TIP3    H225990   0.288   3.050   5.430
 8705TIP3   OH225991   0.764   3.178   5.244
 8705TIP3    H125992   0.710   3.250   5.204
 8705TIP3    H225993   0.819   3.151   5.168
 8706TIP3   OH225994   0.939   3.459   6.331
 8706TIP3    H125995   0.918   3.386   6.394
 8706TIP3    H225996   1.032   3.475   6.353
 8707TIP3   OH225997   0.922   3.208   5.486
 8707TIP3    H125998   0.864   3.239   5.413
 8707TIP3    H225999   0.955   3.125   5.444
 8708TIP3   OH226000   0.215   3.237   6.211
 8708TIP3    H126001   0.222   3.304   6.280
 8708TIP3    H226002   0.196   3.156   6.261
 8709TIP3   OH226003   0.259   2.712   4.922
 8709TIP3    H126004   0.255   2.709   5.020
 8709TIP3    H226005   0.178   2.763   4.902
 8710TIP3   OH226006  -0.200   2.776   5.761
 8710TIP3    H126007  -0.142   2.799   5.837
 8710TIP3    H226008  -0.152   2.701   5.724
 8711TIP3   OH226009  -0.212   2.764   5.325
 8711TIP3    H126010  -0.174   2.788   5.238
 8711TIP3    H226011  -0.263   2.843   5.346
 8712TIP3   OH226012   0.928   3.455   5.908
 8712TIP3    H126013   0.963   3.383   5.851
 8712TIP3    H226014   0.903   3.405   5.988
 8713TIP3   OH226015   0.598   2.913   5.579
 8713TIP3    H126016   0.516   2.914   5.632
 8713TIP3    H226017   0.666   2.921   5.648
 8714TIP3   OH226018   0.033   2.969   5.579
 8714TIP3    H126019  -0.060   2.964   5.552
 8714TIP3    H226020   0.064   2.877   5.567
 8715TIP3   OH226021   0.307   2.966   5.275
 8715TIP3    H126022   0.402   2.982   5.257
 8715TIP3    H226023   0.262   2.992   5.192
 8716TIP3   OH226024   1.092   2.995   5.780
 8716TIP3    H126025   1.057   3.000   5.872
 8716TIP3    H226026   1.034   2.928   5.741
 8717TIP3   OH226027   0.142   3.001   5.053
 8717TIP3    H126028   0.071   2.956   5.005
 8717TIP3    H226029   0.196   3.036   4.979
 8718TIP3   OH226030   1.261   4.680   5.999
 8718TIP3    H126031   1.261   4.704   5.904
 8718TIP3    H226032   1.340   4.728   6.030
 8719TIP3   OH226033   0.228   3.784   6.420
 8719TIP3    H126034   0.307   3.819   6.467
 8719TIP3    H226035   0.161   3.795   6.490
 8720TIP3   OH226036   0.685   3.240   5.674
 8720TIP3    H126037   0.761   3.205   5.625
 8720TIP3    H226038   0.700   3.204   5.763
 8721TIP3   OH226039   0.208   2.732   5.554
 8721TIP3    H126040   0.175   2.651   5.599
 8721TIP3    H226041   0.263   2.695   5.483
 8722TIP3   OH226042   0.665   3.126   5.972
 8722TIP3    H126043   0.574   3.156   5.989
 8722TIP3    H226044   0.719   3.188   6.025
 8723TIP3   OH226045   0.398   3.532   5.059
 8723TIP3    H126046   0.326   3.466   5.051
 8723TIP3    H226047   0.383   3.565   5.151
 8724TIP3   OH226048   1.301   3.767   5.692
 8724TIP3    H126049   1.326   3.816   5.610
 8724TIP3    H226050   1.214   3.728   5.667
 8725TIP3   OH226051   0.855   2.847   4.914
 8725TIP3    H126052   0.759   2.830   4.929
 8725TIP3    H226053   0.868   2.939   4.946
 8726TIP3   OH226054   0.795   3.847   6.059
 8726TIP3    H126055   0.821   3.826   6.150
 8726TIP3    H226056   0.760   3.937   6.067
 8727TIP3   OH226057   0.927   3.088   5.023
 8727TIP3    H126058   1.023   3.094   5.043
 8727TIP3    H226059   0.911   3.170   4.973
 8728TIP3   OH226060   0.095   3.556   5.738
 8728TIP3    H126061   0.134   3.521   5.656
 8728TIP3    H226062   0.119   3.489   5.804
 8729TIP3   OH226063   0.540   3.679   4.875
 8729TIP3    H126064   0.495   3.766   4.885
 8729TIP3    H226065   0.489   3.624   4.938
 8730TIP3   OH226066  -0.005   3.470   6.351
 8730TIP3    H126067   0.003   3.463   6.448
 8730TIP3    H226068  -0.096   3.438   6.334
 8731TIP3   OH226069   0.695   3.585   6.372
 8731TIP3    H126070   0.637   3.529   6.319
 8731TIP3    H226071   0.783   3.554   6.343
 8732TIP3   OH226072   0.958   4.106   5.954
 8732TIP3    H126073   0.861   4.108   5.967
 8732TIP3    H226074   0.987   4.159   6.032
 8733TIP3   OH226075   1.370   3.177   4.862
 8733TIP3    H126076   1.306   3.133   4.801
 8733TIP3    H226077   1.366   3.267   4.822
 8734TIP3   OH226078   1.585   4.034   5.947
 8734TIP3    H126079   1.487   4.031   5.938
 8734TIP3    H226080   1.611   4.007   5.856
 8735TIP3   OH226081   1.059   3.999   4.767
 8735TIP3    H126082   1.046   3.931   4.835
 8735TIP3    H226083   1.081   3.948   4.687
 8736TIP3   OH226084   1.063   3.629   5.610
 8736TIP3    H126085   0.971   3.603   5.624
 8736TIP3    H226086   1.099   3.550   5.566
 8737TIP3   OH226087   0.191   3.852   5.354
 8737TIP3    H126088   0.196   3.937   5.305
 8737TIP3    H226089   0.098   3.849   5.378
 8738TIP3   OH226090  -0.251   3.164   5.071
 8738TIP3    H126091  -0.184   3.235   5.078
 8738TIP3    H226092  -0.316   3.199   5.134
 8739TIP3   OH226093   0.333   3.622   5.305
 8739TIP3    H126094   0.296   3.711   5.323
 8739TIP3    H226095   0.297   3.572   5.381
 8740TIP3   OH226096   0.460   4.202   5.830
 8740TIP3    H126097   0.504   4.273   5.780
 8740TIP3    H226098   0.535   4.166   5.881
 8741TIP3   OH226099   0.141   4.099   5.201
 8741TIP3    H126100   0.055   4.099   5.249
 8741TIP3    H226101   0.165   4.194   5.207
 8742TIP3   OH226102   0.850   3.834   5.790
 8742TIP3    H126103   0.841   3.832   5.888
 8742TIP3    H226104   0.933   3.785   5.777
 8743TIP3   OH226105   0.819   3.722   4.673
 8743TIP3    H126106   0.877   3.700   4.750
 8743TIP3    H226107   0.733   3.700   4.711
 8744TIP3   OH226108   1.097   4.370   5.842
 8744TIP3    H126109   1.018   4.313   5.831
 8744TIP3    H226110   1.083   4.435   5.769
 8745TIP3   OH226111   1.163   4.203   4.493
 8745TIP3    H126112   1.205   4.277   4.446
 8745TIP3    H226113   1.082   4.249   4.525
 8746TIP3   OH226114   0.194   2.974   6.366
 8746TIP3    H126115   0.101   2.986   6.388
 8746TIP3    H226116   0.221   2.910   6.434
 8747TIP3   OH226117   0.982   3.656   4.886
 8747TIP3    H126118   0.972   3.593   4.960
 8747TIP3    H226119   1.079   3.659   4.878
 8748TIP3   OH226120  -0.071   4.085   5.984
 8748TIP3    H126121  -0.045   3.993   5.992
 8748TIP3    H226122  -0.063   4.115   6.075
 8749TIP3   OH226123   0.186   3.705   4.668
 8749TIP3    H126124   0.207   3.613   4.646
 8749TIP3    H226125   0.172   3.698   4.765
 8750TIP3   OH226126   0.140   3.712   4.941
 8750TIP3    H126127   0.205   3.684   5.007
 8750TIP3    H226128   0.143   3.810   4.951
 8751TIP3   OH226129  -0.108   3.393   5.126
 8751TIP3    H126130  -0.172   3.447   5.178
 8751TIP3    H226131  -0.087   3.460   5.060
 8752TIP3   OH226132   1.026   3.031   6.044
 8752TIP3    H126133   1.098   3.096   6.059
 8752TIP3    H226134   1.037   2.971   6.117
 8753TIP3   OH226135   0.897   2.797   5.201
 8753TIP3    H126136   0.887   2.824   5.109
 8753TIP3    H226137   0.938   2.876   5.241
 8754TIP3   OH226138   0.398   3.909   4.886
 8754TIP3    H126139   0.314   3.937   4.927
 8754TIP3    H226140   0.423   3.991   4.841
 8755TIP3   OH226141   0.588   2.973   5.306
 8755TIP3    H126142   0.654   3.044   5.288
 8755TIP3    H226143   0.594   2.965   5.403
 8756TIP3   OH226144   0.860   3.292   6.118
 8756TIP3    H126145   0.874   3.352   6.194
 8756TIP3    H226146   0.920   3.219   6.139
 8757TIP3   OH226147   0.733   2.703   5.410
 8757TIP3    H126148   0.729   2.778   5.472
 8757TIP3    H226149   0.795   2.739   5.342
 8758TIP3   OH226150   0.138   3.983   4.955
 8758TIP3    H126151   0.110   4.056   4.895
 8758TIP3    H226152   0.135   4.028   5.042
 8759TIP3   OH226153   0.246   2.697   5.198
 8759TIP3    H126154   0.243   2.788   5.235
 8759TIP3    H226155   0.342   2.679   5.208
 8760TIP3   OH226156   1.494   3.196   6.092
 8760TIP3    H126157   1.397   3.188   6.098
 8760TIP3    H226158   1.509   3.146   6.010
 8761TIP3   OH226159   1.149   3.387   5.482
 8761TIP3    H126160   1.075   3.326   5.497
 8761TIP3    H226161   1.223   3.343   5.531
 8762TIP3   OH226162  -0.128   3.627   4.942
 8762TIP3    H126163  -0.055   3.690   4.960
 8762TIP3    H226164  -0.084   3.570   4.876
 8763TIP3   OH226165  -0.191   2.892   5.084
 8763TIP3    H126166  -0.196   2.990   5.087
 8763TIP3    H226167  -0.273   2.869   5.038
 8764TIP3   OH226168   1.117   4.339   5.432
 8764TIP3    H126169   1.076   4.386   5.357
 8764TIP3    H226170   1.212   4.360   5.415
 8765TIP3   OH226171   0.208   2.605   5.961
 8765TIP3    H126172   0.166   2.579   5.876
 8765TIP3    H226173   0.185   2.530   6.019
 8766TIP3   OH226174  -0.240   3.801   5.379
 8766TIP3    H126175  -0.330   3.838   5.377
 8766TIP3    H226176  -0.208   3.831   5.292
 8767TIP3   OH226177   0.369   4.346   6.453
 8767TIP3    H126178   0.462   4.322   6.468
 8767TIP3    H226179   0.345   4.284   6.382
 8768TIP3   OH226180   0.347   3.911   4.579
 8768TIP3    H126181   0.293   3.844   4.626
 8768TIP3    H226182   0.429   3.861   4.565
 8769TIP3   OH226183   1.010   4.242   6.189
 8769TIP3    H126184   1.002   4.172   6.258
 8769TIP3    H226185   1.088   4.292   6.219
 8770TIP3   OH226186   0.786   3.950   4.493
 8770TIP3    H126187   0.834   3.894   4.556
 8770TIP3    H226188   0.849   3.957   4.419
 8771TIP3   OH226189   0.038   3.761   6.620
 8771TIP3    H126190   0.072   3.670   6.615
 8771TIP3    H226191  -0.056   3.744   6.602
 8772TIP3   OH226192   0.002   3.428   4.804
 8772TIP3    H126193   0.053   3.394   4.879
 8772TIP3    H226194   0.072   3.433   4.735
 8773TIP3   OH226195   0.629   3.860   6.385
 8773TIP3    H126196   0.587   3.875   6.298
 8773TIP3    H226197   0.661   3.768   6.379
 8774TIP3   OH226198   0.497   3.625   4.608
 8774TIP3    H126199   0.505   3.641   4.705
 8774TIP3    H226200   0.501   3.527   4.607
 8775TIP3   OH226201   1.119   3.868   5.989
 8775TIP3    H126202   1.195   3.913   5.947
 8775TIP3    H226203   1.050   3.935   5.979
 8776TIP3   OH226204   0.127   3.493   6.609
 8776TIP3    H126205   0.207   3.449   6.576
 8776TIP3    H226206   0.159   3.530   6.695
 8777TIP3   OH226207   0.205   3.332   5.027
 8777TIP3    H126208   0.179   3.294   5.113
 8777TIP3    H226209   0.241   3.254   4.980
 8778TIP3   OH226210   0.479   3.399   6.258
 8778TIP3    H126211   0.398   3.456   6.259
 8778TIP3    H226212   0.523   3.429   6.175
 8779TIP3   OH226213   0.305   3.123   4.869
 8779TIP3    H126214   0.279   3.123   4.775
 8779TIP3    H226215   0.403   3.131   4.862
 8780TIP3   OH226216   0.989   3.796   6.390
 8780TIP3    H126217   1.073   3.780   6.345
 8780TIP3    H226218   0.991   3.731   6.461
 8781TIP3   OH226219   1.128   3.458   4.529
 8781TIP3    H126220   1.105   3.410   4.446
 8781TIP3    H226221   1.097   3.548   4.504
 8782TIP3   OH226222   0.595   3.192   6.388
 8782TIP3    H126223   0.573   3.113   6.338
 8782TIP3    H226224   0.555   3.263   6.332
 8783TIP3   OH226225   0.632   3.506   6.061
 8783TIP3    H126226   0.713   3.515   6.009
 8783TIP3    H226227   0.574   3.574   6.019
 8784TIP3   OH226228   1.210   3.473   6.444
 8784TIP3    H126229   1.261   3.392   6.458
 8784TIP3    H226230   1.279   3.534   6.412
 8785TIP3   OH226231   1.251   3.724   6.177
 8785TIP3    H126232   1.193   3.778   6.118
 8785TIP3    H226233   1.339   3.745   6.138
 8786TIP3   OH226234   0.469   3.302   6.614
 8786TIP3    H126235   0.404   3.230   6.626
 8786TIP3    H226236   0.509   3.278   6.528
 8787TIP3   OH226237   0.860   3.241   6.474
 8787TIP3    H126238   0.855   3.230   6.570
 8787TIP3    H226239   0.768   3.219   6.449
 8788TIP3   OH226240   1.095   3.182   6.326
 8788TIP3    H126241   1.022   3.190   6.391
 8788TIP3    H226242   1.170   3.155   6.383
 8789TIP3   OH226243   1.321   3.127   6.478
 8789TIP3    H126244   1.337   3.033   6.497
 8789TIP3    H226245   1.320   3.168   6.567
 8790TIP3   OH226246   0.314   3.079   6.664
 8790TIP3    H126247   0.321   2.988   6.629
 8790TIP3    H226248   0.352   3.067   6.754
 8791TIP3   OH226249   0.830   2.748   6.495
 8791TIP3    H126250   0.911   2.695   6.510
 8791TIP3    H226251   0.780   2.686   6.442
 8792TIP3   OH226252   0.889   2.957   6.672
 8792TIP3    H126253   0.868   2.892   6.602
 8792TIP3    H226254   0.814   3.019   6.667
 8793TIP3   OH226255   0.110   4.188   4.770
 8793TIP3    H126256   0.207   4.184   4.755
 8793TIP3    H226257   0.084   4.238   4.691
 8794TIP3   OH226258  -0.397   3.588   4.925
 8794TIP3    H126259  -0.305   3.600   4.960
 8794TIP3    H226260  -0.401   3.490   4.920
 8795TIP3   OH226261   1.366   4.438   5.388
 8795TIP3    H126262   1.395   4.470   5.475
 8795TIP3    H226263   1.432   4.479   5.329
 8796TIP3   OH226264   1.397   4.454   5.670
 8796TIP3    H126265   1.360   4.364   5.668
 8796TIP3    H226266   1.478   4.437   5.722
 8797TIP3   OH226267   1.445   4.131   6.243
 8797TIP3    H126268   1.372   4.139   6.308
 8797TIP3    H226269   1.487   4.219   6.247
 8798TIP3   OH226270   1.263   3.645   4.863
 8798TIP3    H126271   1.333   3.708   4.838
 8798TIP3    H226272   1.303   3.604   4.944
 8799TIP3   OH226273   1.388   3.511   5.066
 8799TIP3    H126274   1.324   3.469   5.128
 8799TIP3    H226275   1.455   3.549   5.126
 8800TIP3   OH226276   1.438   3.900   5.496
 8800TIP3    H126277   1.497   3.841   5.446
 8800TIP3    H226278   1.434   3.979   5.438
 8801TIP3   OH226279   1.276   4.201   5.696
 8801TIP3    H126280   1.206   4.245   5.748
 8801TIP3    H226281   1.224   4.153   5.627
 8802TIP3   OH226282   1.328   3.418   4.715
 8802TIP3    H126283   1.255   3.424   4.649
 8802TIP3    H226284   1.304   3.494   4.772
 8803TIP3   OH226285   1.199   3.091   4.669
 8803TIP3    H126286   1.156   3.131   4.593
 8803TIP3    H226287   1.173   2.997   4.659
 8804TIP3   OH226288   1.203   3.366   5.214
 8804TIP3    H126289   1.214   3.269   5.214
 8804TIP3    H226290   1.191   3.384   5.310
 8805TIP3   OH226291  -0.167   3.482   5.938
 8805TIP3    H126292  -0.170   3.429   5.856
 8805TIP3    H226293  -0.077   3.460   5.970
 8806TIP3   OH226294   1.492   3.791   6.070
 8806TIP3    H126295   1.566   3.727   6.062
 8806TIP3    H226296   1.522   3.864   6.012
 8807TIP3   OH226297   1.677   3.599   6.091
 8807TIP3    H126298   1.604   3.547   6.131
 8807TIP3    H226299   1.752   3.536   6.103
 8808TIP3   OH226300   1.144   2.824   4.653
 8808TIP3    H126301   1.220   2.798   4.708
 8808TIP3    H226302   1.072   2.768   4.685
 8809TIP3   OH226303   1.197   3.081   5.110
 8809TIP3    H126304   1.238   2.993   5.126
 8809TIP3    H226305   1.259   3.116   5.043
 8810TIP3   OH226306   1.362   3.262   5.603
 8810TIP3    H126307   1.449   3.287   5.565
 8810TIP3    H226308   1.375   3.295   5.694
 8811TIP3   OH226309   1.428   3.401   5.837
 8811TIP3    H126310   1.351   3.436   5.886
 8811TIP3    H226311   1.462   3.481   5.792
 8812TIP3   OH226312   0.041   3.109   6.642
 8812TIP3    H126313   0.136   3.127   6.627
 8812TIP3    H226314   0.047   3.039   6.707
 8813TIP3   OH226315   1.881   2.991   6.393
 8813TIP3    H126316   1.940   2.925   6.350
 8813TIP3    H226317   1.856   3.047   6.318
 8814TIP3   OH226318   1.307   2.832   5.143
 8814TIP3    H126319   1.358   2.818   5.226
 8814TIP3    H226320   1.248   2.754   5.146
 8815TIP3   OH226321   0.010   2.807   5.948
 8815TIP3    H126322   0.079   2.743   5.971
 8815TIP3    H226323   0.055   2.891   5.964
 8816TIP3   OH226324  -0.149   3.104   6.063
 8816TIP3    H126325  -0.133   3.091   5.969
 8816TIP3    H226326  -0.190   3.192   6.066
 8817TIP3   OH226327   1.754   3.134   6.199
 8817TIP3    H126328   1.667   3.171   6.223
 8817TIP3    H226329   1.726   3.060   6.141
 8818TIP3   OH226330   1.390   2.772   4.775
 8818TIP3    H126331   1.434   2.697   4.731
 8818TIP3    H226332   1.460   2.841   4.773
 8819TIP3   OH226333  -0.212   2.582   5.521
 8819TIP3    H126334  -0.291   2.616   5.565
 8819TIP3    H226335  -0.200   2.649   5.450
 8820TIP3   OH226336   0.950   4.300   5.043
 8820TIP3    H126337   1.007   4.287   4.965
 8820TIP3    H226338   1.001   4.365   5.095
 8821TIP3   OH226339   0.014   2.683   6.368
 8821TIP3    H126340  -0.045   2.670   6.443
 8821TIP3    H226341  -0.045   2.721   6.303
 8822TIP3   OH226342   0.086   4.066   6.438
 8822TIP3    H126343   0.000   4.109   6.423
 8822TIP3    H226344   0.087   4.062   6.536
 8823TIP3   OH226345   0.240   4.130   5.982
 8823TIP3    H126346   0.184   4.201   5.945
 8823TIP3    H226347   0.323   4.150   5.936
 8824TIP3   OH226348   0.680   4.383   6.118
 8824TIP3    H126349   0.722   4.382   6.206
 8824TIP3    H226350   0.747   4.432   6.066
 8825TIP3   OH226351   0.859   4.531   5.974
 8825TIP3    H126352   0.932   4.481   5.934
 8825TIP3    H226353   0.909   4.590   6.035
 8826TIP3   OH226354   1.654   2.895   6.077
 8826TIP3    H126355   1.562   2.881   6.045
 8826TIP3    H226356   1.687   2.803   6.066
 8827TIP3   OH226357   0.143   4.372   5.867
 8827TIP3    H126358   0.057   4.379   5.909
 8827TIP3    H226359   0.125   4.406   5.777
 8828TIP3   OH226360   0.573   4.403   5.658
 8828TIP3    H126361   0.507   4.428   5.590
 8828TIP3    H226362   0.588   4.488   5.703
 8829TIP3   OH226363   0.841   4.340   5.707
 8829TIP3    H126364   0.747   4.360   5.689
 8829TIP3    H226365   0.886   4.418   5.670
 8830TIP3   OH226366   1.044   4.531   5.626
 8830TIP3    H126367   1.034   4.618   5.580
 8830TIP3    H226368   1.075   4.474   5.553
 8831TIP3   OH226369  -0.132   4.210   5.738
 8831TIP3    H126370  -0.110   4.170   5.825
 8831TIP3    H226371  -0.076   4.151   5.681
 8832TIP3   OH226372   0.023   4.042   5.591
 8832TIP3    H126373   0.035   3.962   5.648
 8832TIP3    H226374   0.113   4.080   5.593
 8833TIP3   OH226375   0.284   4.155   5.608
 8833TIP3    H126376   0.315   4.063   5.595
 8833TIP3    H226377   0.328   4.175   5.692
 8834TIP3   OH226378   0.857   2.808   5.692
 8834TIP3    H126379   0.815   2.735   5.740
 8834TIP3    H226380   0.933   2.765   5.648
 8835TIP3   OH226381   1.382   2.724   5.602
 8835TIP3    H126382   1.410   2.755   5.514
 8835TIP3    H226383   1.286   2.713   5.595
 8836TIP3   OH226384   1.474   2.795   5.354
 8836TIP3    H126385   1.550   2.741   5.322
 8836TIP3    H226386   1.511   2.885   5.345
 8837TIP3   OH226387   0.105   2.519   5.712
 8837TIP3    H126388   0.014   2.483   5.710
 8837TIP3    H226389   0.156   2.435   5.710
 8838TIP3   OH226390  -0.096   2.382   5.367
 8838TIP3    H126391  -0.081   2.440   5.290
 8838TIP3    H226392  -0.136   2.446   5.430
 8839TIP3   OH226393   0.547   2.553   5.588
 8839TIP3    H126394   0.606   2.602   5.528
 8839TIP3    H226395   0.570   2.592   5.673
 8840TIP3   OH226396   1.088   2.692   5.579
 8840TIP3    H126397   1.103   2.652   5.493
 8840TIP3    H226398   1.084   2.613   5.638
 8841TIP3   OH226399   1.125   2.617   5.136
 8841TIP3    H126400   1.039   2.660   5.150
 8841TIP3    H226401   1.113   2.534   5.187
 8842TIP3   OH226402   0.009   2.553   5.118
 8842TIP3    H126403   0.059   2.487   5.066
 8842TIP3    H226404   0.081   2.604   5.159
 8843TIP3   OH226405   0.523   2.722   5.221
 8843TIP3    H126406   0.583   2.676   5.282
 8843TIP3    H226407   0.543   2.815   5.247
 8844TIP3   OH226408   0.379   4.150   4.720
 8844TIP3    H126409   0.469   4.170   4.687
 8844TIP3    H226410   0.359   4.073   4.662
 8845TIP3   OH226411   1.099   4.265   4.813
 8845TIP3    H126412   1.088   4.168   4.799
 8845TIP3    H226413   1.056   4.300   4.732
 8846TIP3   OH226414   0.311   2.803   6.604
 8846TIP3    H126415   0.273   2.732   6.660
 8846TIP3    H226416   0.405   2.799   6.633
 8847TIP3   OH226417   0.562   2.795   6.720
 8847TIP3    H126418   0.651   2.769   6.694
 8847TIP3    H226419   0.543   2.728   6.789
 8848TIP3   OH226420  -0.300   3.991   4.812
 8848TIP3    H126421  -0.279   4.081   4.843
 8848TIP3    H226422  -0.214   3.955   4.783
 8849TIP3   OH226423   1.386   2.859   6.510
 8849TIP3    H126424   1.406   2.826   6.600
 8849TIP3    H226425   1.473   2.853   6.466
 8850TIP3   OH226426   1.326   4.411   6.004
 8850TIP3    H126427   1.247   4.380   5.955
 8850TIP3    H226428   1.309   4.507   6.004
 8851TIP3   OH226429   2.591   3.778   4.761
 8851TIP3    H126430   2.576   3.874   4.751
 8851TIP3    H226431   2.500   3.747   4.761
 8852TIP3   OH226432   2.593   3.776   5.145
 8852TIP3    H126433   2.623   3.754   5.235
 8852TIP3    H226434   2.545   3.696   5.120
 8853TIP3   OH226435   1.894   3.679   5.512
 8853TIP3    H126436   1.924   3.613   5.577
 8853TIP3    H226437   1.963   3.746   5.519
 8854TIP3   OH226438   2.832   4.081   4.829
 8854TIP3    H126439   2.824   4.020   4.903
 8854TIP3    H226440   2.859   4.163   4.876
 8855TIP3   OH226441   1.855   4.084   5.233
 8855TIP3    H126442   1.851   3.987   5.241
 8855TIP3    H226443   1.947   4.101   5.260
 8856TIP3   OH226444   1.571   3.293   5.024
 8856TIP3    H126445   1.524   3.377   5.041
 8856TIP3    H226446   1.498   3.237   4.993
 8857TIP3   OH226447   1.627   3.576   5.191
 8857TIP3    H126448   1.676   3.503   5.233
 8857TIP3    H226449   1.693   3.613   5.131
 8858TIP3   OH226450   2.476   4.547   4.839
 8858TIP3    H126451   2.531   4.471   4.811
 8858TIP3    H226452   2.471   4.537   4.935
 8859TIP3   OH226453   2.391   4.005   5.193
 8859TIP3    H126454   2.433   3.930   5.148
 8859TIP3    H226455   2.472   4.055   5.218
 8860TIP3   OH226456   3.402   3.330   5.194
 8860TIP3    H126457   3.430   3.411   5.241
 8860TIP3    H226458   3.423   3.353   5.102
 8861TIP3   OH226459   2.805   3.513   5.232
 8861TIP3    H126460   2.845   3.427   5.255
 8861TIP3    H226461   2.773   3.496   5.142
 8862TIP3   OH226462   2.140   3.169   5.195
 8862TIP3    H126463   2.117   3.242   5.134
 8862TIP3    H226464   2.090   3.096   5.153
 8863TIP3   OH226465   2.831   3.259   4.814
 8863TIP3    H126466   2.901   3.243   4.882
 8863TIP3    H226467   2.887   3.293   4.742
 8864TIP3   OH226468   1.774   3.373   5.302
 8864TIP3    H126469   1.856   3.353   5.351
 8864TIP3    H226470   1.787   3.316   5.224
 8865TIP3   OH226471   2.218   3.570   5.085
 8865TIP3    H126472   2.309   3.541   5.109
 8865TIP3    H226473   2.176   3.485   5.061
 8866TIP3   OH226474   3.475   3.536   5.364
 8866TIP3    H126475   3.392   3.584   5.346
 8866TIP3    H226476   3.487   3.558   5.458
 8867TIP3   OH226477   2.138   3.152   5.629
 8867TIP3    H126478   2.076   3.190   5.564
 8867TIP3    H226479   2.087   3.168   5.712
 8868TIP3   OH226480   2.488   4.005   4.635
 8868TIP3    H126481   2.438   3.989   4.554
 8868TIP3    H226482   2.449   4.090   4.663
 8869TIP3   OH226483   2.242   3.928   5.428
 8869TIP3    H126484   2.175   3.990   5.467
 8869TIP3    H226485   2.281   3.985   5.360
 8870TIP3   OH226486   3.043   3.262   4.987
 8870TIP3    H126487   3.033   3.213   5.069
 8870TIP3    H226488   3.097   3.337   5.015
 8871TIP3   OH226489   2.006   3.268   5.414
 8871TIP3    H126490   2.068   3.341   5.438
 8871TIP3    H226491   2.058   3.227   5.341
 8872TIP3   OH226492   2.063   4.121   5.500
 8872TIP3    H126493   2.096   4.213   5.508
 8872TIP3    H226494   1.991   4.122   5.566
 8873TIP3   OH226495   1.469   3.811   4.759
 8873TIP3    H126496   1.426   3.841   4.678
 8873TIP3    H226497   1.498   3.896   4.799
 8874TIP3   OH226498   2.899   4.308   4.976
 8874TIP3    H126499   2.817   4.309   5.030
 8874TIP3    H226500   2.911   4.404   4.961
 8875TIP3   OH226501   3.196   3.229   5.361
 8875TIP3    H126502   3.108   3.261   5.334
 8875TIP3    H226503   3.254   3.261   5.288
 8876TIP3   OH226504   2.495   2.874   5.342
 8876TIP3    H126505   2.484   2.779   5.362
 8876TIP3    H226506   2.417   2.911   5.389
 8877TIP3   OH226507   2.613   4.370   4.673
 8877TIP3    H126508   2.667   4.292   4.650
 8877TIP3    H226509   2.669   4.441   4.633
 8878TIP3   OH226510   2.757   4.154   4.573
 8878TIP3    H126511   2.704   4.079   4.546
 8878TIP3    H226512   2.790   4.125   4.661
 8879TIP3   OH226513   2.422   3.616   4.560
 8879TIP3    H126514   2.338   3.667   4.570
 8879TIP3    H226515   2.475   3.682   4.512
 8880TIP3   OH226516   2.398   3.420   4.306
 8880TIP3    H126517   2.415   3.453   4.396
 8880TIP3    H226518   2.397   3.324   4.318
 8881TIP3   OH226519   3.330   3.875   5.186
 8881TIP3    H126520   3.246   3.926   5.192
 8881TIP3    H226521   3.358   3.900   5.095
 8882TIP3   OH226522   2.766   3.700   4.568
 8882TIP3    H126523   2.711   3.733   4.642
 8882TIP3    H226524   2.851   3.684   4.614
 8883TIP3   OH226525   3.007   3.757   5.481
 8883TIP3    H126526   3.003   3.838   5.535
 8883TIP3    H226527   2.920   3.762   5.436
 8884TIP3   OH226528   2.005   3.714   4.985
 8884TIP3    H126529   1.964   3.656   4.918
 8884TIP3    H226530   2.082   3.662   5.015
 8885TIP3   OH226531   2.138   4.135   5.129
 8885TIP3    H126532   2.114   4.076   5.057
 8885TIP3    H226533   2.225   4.100   5.156
 8886TIP3   OH226534   2.145   3.686   5.339
 8886TIP3    H126535   2.178   3.675   5.248
 8886TIP3    H226536   2.182   3.773   5.365
 8887TIP3   OH226537   2.673   4.319   5.120
 8887TIP3    H126538   2.656   4.410   5.154
 8887TIP3    H226539   2.642   4.261   5.191
 8888TIP3   OH226540   2.029   3.798   5.763
 8888TIP3    H126541   2.036   3.886   5.807
 8888TIP3    H226542   1.933   3.782   5.775
 8889TIP3   OH226543   2.356   4.254   4.667
 8889TIP3    H126544   2.430   4.310   4.696
 8889TIP3    H226545   2.290   4.320   4.641
 8890TIP3   OH226546   3.127   2.817   4.444
 8890TIP3    H126547   3.046   2.834   4.496
 8890TIP3    H226548   3.137   2.902   4.396
 8891TIP3   OH226549   1.873   3.555   4.784
 8891TIP3    H126550   1.804   3.602   4.733
 8891TIP3    H226551   1.826   3.475   4.811
 8892TIP3   OH226552   2.924   4.183   3.991
 8892TIP3    H126553   2.932   4.280   3.979
 8892TIP3    H226554   3.018   4.155   3.980
 8893TIP3   OH226555   1.647   3.939   5.703
 8893TIP3    H126556   1.587   3.915   5.630
 8893TIP3    H226557   1.687   3.853   5.728
 8894TIP3   OH226558   1.506   4.134   5.334
 8894TIP3    H126559   1.602   4.127   5.324
 8894TIP3    H226560   1.499   4.213   5.390
 8895TIP3   OH226561   2.234   4.502   4.472
 8895TIP3    H126562   2.186   4.487   4.389
 8895TIP3    H226563   2.203   4.591   4.499
 8896TIP3   OH226564   1.672   4.350   4.856
 8896TIP3    H126565   1.725   4.343   4.940
 8896TIP3    H226566   1.607   4.280   4.872
 8897TIP3   OH226567   2.437   4.401   4.115
 8897TIP3    H126568   2.497   4.332   4.080
 8897TIP3    H226569   2.470   4.411   4.207
 8898TIP3   OH226570   2.486   4.447   4.385
 8898TIP3    H126571   2.398   4.459   4.428
 8898TIP3    H226572   2.538   4.413   4.460
 8899TIP3   OH226573   3.261   3.718   5.660
 8899TIP3    H126574   3.177   3.731   5.613
 8899TIP3    H226575   3.274   3.621   5.651
 8900TIP3   OH226576   1.856   4.121   5.683
 8900TIP3    H126577   1.906   4.119   5.767
 8900TIP3    H226578   1.784   4.058   5.700
 8901TIP3   OH226579   2.255   2.950   5.468
 8901TIP3    H126580   2.165   2.918   5.446
 8901TIP3    H226581   2.231   3.031   5.517
 8902TIP3   OH226582   2.787   3.063   5.666
 8902TIP3    H126583   2.854   3.037   5.732
 8902TIP3    H226584   2.703   3.043   5.712
 8903TIP3   OH226585   3.032   3.494   5.586
 8903TIP3    H126586   2.982   3.487   5.671
 8903TIP3    H226587   3.002   3.581   5.552
 8904TIP3   OH226588   2.705   3.585   4.145
 8904TIP3    H126589   2.663   3.573   4.057
 8904TIP3    H226590   2.755   3.668   4.129
 8905TIP3   OH226591   2.418   2.992   4.439
 8905TIP3    H126592   2.384   2.995   4.530
 8905TIP3    H226593   2.372   2.912   4.407
 8906TIP3   OH226594   2.186   3.462   5.489
 8906TIP3    H126595   2.139   3.484   5.572
 8906TIP3    H226596   2.170   3.544   5.436
 8907TIP3   OH226597   2.070   3.349   5.004
 8907TIP3    H126598   1.977   3.323   5.023
 8907TIP3    H226599   2.082   3.306   4.916
 8908TIP3   OH226600   2.557   3.438   4.724
 8908TIP3    H126601   2.494   3.503   4.687
 8908TIP3    H226602   2.636   3.459   4.673
 8909TIP3   OH226603   2.740   3.709   5.809
 8909TIP3    H126604   2.712   3.644   5.877
 8909TIP3    H226605   2.828   3.734   5.842
 8910TIP3   OH226606   2.721   3.464   4.975
 8910TIP3    H126607   2.661   3.499   4.907
 8910TIP3    H226608   2.750   3.381   4.930
 8911TIP3   OH226609   2.003   3.492   5.699
 8911TIP3    H126610   2.033   3.557   5.764
 8911TIP3    H226611   1.993   3.411   5.753
 8912TIP3   OH226612   2.058   2.972   4.409
 8912TIP3    H126613   2.051   2.966   4.506
 8912TIP3    H226614   1.976   3.020   4.388
 8913TIP3   OH226615   1.600   3.020   5.274
 8913TIP3    H126616   1.673   3.049   5.333
 8913TIP3    H226617   1.645   2.980   5.199
 8914TIP3   OH226618   1.574   2.996   4.796
 8914TIP3    H126619   1.622   3.037   4.721
 8914TIP3    H226620   1.514   3.069   4.821
 8915TIP3   OH226621   2.728   3.714   5.394
 8915TIP3    H126622   2.762   3.641   5.339
 8915TIP3    H226623   2.701   3.664   5.474
 8916TIP3   OH226624   2.394   3.174   5.065
 8916TIP3    H126625   2.312   3.170   5.118
 8916TIP3    H226626   2.461   3.172   5.136
 8917TIP3   OH226627   1.833   3.227   5.073
 8917TIP3    H126628   1.738   3.234   5.049
 8917TIP3    H226629   1.855   3.134   5.053
 8918TIP3   OH226630   2.103   3.221   4.762
 8918TIP3    H126631   2.197   3.239   4.742
 8918TIP3    H226632   2.055   3.247   4.680
 8919TIP3   OH226633   2.888   3.247   5.263
 8919TIP3    H126634   2.859   3.258   5.357
 8919TIP3    H226635   2.822   3.184   5.230
 8920TIP3   OH226636   1.941   3.257   4.542
 8920TIP3    H126637   1.865   3.214   4.499
 8920TIP3    H226638   1.991   3.288   4.464
 8921TIP3   OH226639   2.014   4.039   5.910
 8921TIP3    H126640   2.093   4.077   5.954
 8921TIP3    H226641   1.948   4.050   5.981
 8922TIP3   OH226642   2.482   3.499   5.165
 8922TIP3    H126643   2.555   3.455   5.120
 8922TIP3    H226644   2.487   3.461   5.255
 8923TIP3   OH226645   2.004   2.987   5.040
 8923TIP3    H126646   1.970   2.908   5.088
 8923TIP3    H226647   2.062   2.947   4.974
 8924TIP3   OH226648   2.458   3.399   5.449
 8924TIP3    H126649   2.368   3.432   5.468
 8924TIP3    H226650   2.515   3.455   5.505
 8925TIP3   OH226651   2.201   3.781   4.553
 8925TIP3    H126652   2.124   3.722   4.540
 8925TIP3    H226653   2.180   3.820   4.642
 8926TIP3   OH226654   3.099   4.016   5.185
 8926TIP3    H126655   3.122   4.077   5.112
 8926TIP3    H226656   3.010   3.985   5.159
 8927TIP3   OH226657   1.880   3.800   5.226
 8927TIP3    H126658   1.926   3.777   5.142
 8927TIP3    H226659   1.925   3.744   5.291
 8928TIP3   OH226660   2.339   3.935   4.369
 8928TIP3    H126661   2.293   4.022   4.374
 8928TIP3    H226662   2.284   3.882   4.431
 8929TIP3   OH226663   1.766   3.729   5.838
 8929TIP3    H126664   1.792   3.719   5.932
 8929TIP3    H226665   1.698   3.660   5.828
 8930TIP3   OH226666   2.488   3.823   5.873
 8930TIP3    H126667   2.432   3.787   5.803
 8930TIP3    H226668   2.576   3.820   5.831
 8931TIP3   OH226669   3.163   3.434   4.349
 8931TIP3    H126670   3.105   3.387   4.286
 8931TIP3    H226671   3.162   3.523   4.306
 8932TIP3   OH226672   2.863   4.256   4.256
 8932TIP3    H126673   2.840   4.189   4.322
 8932TIP3    H226674   2.877   4.206   4.175
 8933TIP3   OH226675   2.855   3.886   5.099
 8933TIP3    H126676   2.763   3.855   5.110
 8933TIP3    H226677   2.895   3.809   5.055
 8934TIP3   OH226678   1.984   4.104   4.835
 8934TIP3    H126679   1.989   4.193   4.795
 8934TIP3    H226680   1.892   4.104   4.867
 8935TIP3   OH226681   1.548   3.418   4.550
 8935TIP3    H126682   1.596   3.501   4.571
 8935TIP3    H226683   1.472   3.424   4.612
 8936TIP3   OH226684   2.131   3.878   4.794
 8936TIP3    H126685   2.092   3.967   4.808
 8936TIP3    H226686   2.092   3.830   4.869
 8937TIP3   OH226687   1.907   4.352   4.699
 8937TIP3    H126688   1.822   4.359   4.747
 8937TIP3    H226689   1.940   4.445   4.706
 8938TIP3   OH226690   2.646   4.087   5.283
 8938TIP3    H126691   2.657   4.082   5.379
 8938TIP3    H226692   2.725   4.041   5.251
 8939TIP3   OH226693   2.617   3.974   4.159
 8939TIP3    H126694   2.669   3.954   4.239
 8939TIP3    H226695   2.527   3.961   4.192
 8940TIP3   OH226696   2.959   4.459   3.980
 8940TIP3    H126697   2.998   4.532   3.928
 8940TIP3    H226698   2.879   4.505   4.013
 8941TIP3   OH226699   1.981   3.234   5.847
 8941TIP3    H126700   1.885   3.240   5.862
 8941TIP3    H226701   2.008   3.173   5.918
 8942TIP3   OH226702   2.776   3.906   4.373
 8942TIP3    H126703   2.766   3.841   4.444
 8942TIP3    H226704   2.873   3.914   4.368
 8943TIP3   OH226705   1.695   4.318   5.483
 8943TIP3    H126706   1.750   4.246   5.519
 8943TIP3    H226707   1.733   4.394   5.530
 8944TIP3   OH226708   1.987   3.963   4.157
 8944TIP3    H126709   2.000   3.871   4.130
 8944TIP3    H226710   1.970   3.953   4.253
 8945TIP3   OH226711   1.934   3.968   4.430
 8945TIP3    H126712   1.995   3.945   4.501
 8945TIP3    H226713   1.935   4.066   4.435
 8946TIP3   OH226714   1.667   3.663   4.634
 8946TIP3    H126715   1.602   3.707   4.693
 8946TIP3    H226716   1.682   3.735   4.569
 8947TIP3   OH226717   2.819   3.295   5.521
 8947TIP3    H126718   2.891   3.337   5.571
 8947TIP3    H226719   2.799   3.217   5.578
 8948TIP3   OH226720   2.698   3.054   4.684
 8948TIP3    H126721   2.653   3.096   4.610
 8948TIP3    H226722   2.742   3.130   4.728
 8949TIP3   OH226723   2.195   4.165   4.376
 8949TIP3    H126724   2.111   4.193   4.416
 8949TIP3    H226725   2.216   4.243   4.322
 8950TIP3   OH226726   2.387   3.229   4.793
 8950TIP3    H126727   2.452   3.301   4.779
 8950TIP3    H226728   2.388   3.220   4.891
 8951TIP3   OH226729   2.654   3.549   5.600
 8951TIP3    H126730   2.669   3.608   5.678
 8951TIP3    H226731   2.709   3.473   5.624
 8952TIP3   OH226732   2.531   2.961   4.898
 8952TIP3    H126733   2.528   3.033   4.963
 8952TIP3    H226734   2.593   2.998   4.832
 8953TIP3   OH226735   1.937   4.240   4.446
 8953TIP3    H126736   1.908   4.311   4.384
 8953TIP3    H226737   1.922   4.284   4.533
 8954TIP3   OH226738   2.041   2.953   4.684
 8954TIP3    H126739   2.038   3.042   4.723
 8954TIP3    H226740   2.137   2.934   4.694
 8955TIP3   OH226741   3.297   3.448   5.580
 8955TIP3    H126742   3.199   3.448   5.591
 8955TIP3    H226743   3.304   3.408   5.492
 8956TIP3   OH226744   2.947   3.644   4.969
 8956TIP3    H126745   2.871   3.585   4.988
 8956TIP3    H226746   3.020   3.599   5.018
 8957TIP3   OH226747   1.656   3.875   4.441
 8957TIP3    H126748   1.715   3.951   4.452
 8957TIP3    H226749   1.705   3.825   4.373
 8958TIP3   OH226750   1.606   3.149   4.568
 8958TIP3    H126751   1.602   3.247   4.566
 8958TIP3    H226752   1.517   3.125   4.542
 8959TIP3   OH226753   2.929   4.587   4.929
 8959TIP3    H126754   2.872   4.638   4.868
 8959TIP3    H226755   3.017   4.615   4.899
 8960TIP3   OH226756   1.991   2.871   5.446
 8960TIP3    H126757   1.958   2.834   5.362
 8960TIP3    H226758   1.985   2.792   5.505
 8961TIP3   OH226759   1.527   4.077   4.830
 8961TIP3    H126760   1.459   4.117   4.885
 8961TIP3    H226761   1.511   4.123   4.745
 8962TIP3   OH226762   1.683   4.624   5.902
 8962TIP3    H126763   1.772   4.622   5.944
 8962TIP3    H226764   1.665   4.529   5.894
 8963TIP3   OH226765   2.176   4.600   5.926
 8963TIP3    H126766   2.260   4.554   5.949
 8963TIP3    H226767   2.174   4.575   5.832
 8964TIP3   OH226768   2.148   4.169   4.070
 8964TIP3    H126769   2.092   4.100   4.111
 8964TIP3    H226770   2.224   4.116   4.040
 8965TIP3   OH226771   2.585   4.209   3.982
 8965TIP3    H126772   2.637   4.150   4.040
 8965TIP3    H226773   2.641   4.213   3.901
 8966TIP3   OH226774   1.814   4.033   6.104
 8966TIP3    H126775   1.834   3.938   6.102
 8966TIP3    H226776   1.727   4.036   6.057
 8967TIP3   OH226777   1.792   3.686   4.289
 8967TIP3    H126778   1.846   3.654   4.364
 8967TIP3    H226779   1.861   3.691   4.220
 8968TIP3   OH226780   2.300   3.883   4.099
 8968TIP3    H126781   2.301   3.898   4.195
 8968TIP3    H226782   2.296   3.786   4.095
 8969TIP3   OH226783   2.919   4.124   5.473
 8969TIP3    H126784   2.975   4.164   5.407
 8969TIP3    H226785   2.854   4.194   5.490
 8970TIP3   OH226786   1.932   3.762   6.081
 8970TIP3    H126787   2.011   3.710   6.062
 8970TIP3    H226788   1.956   3.799   6.169
 8971TIP3   OH226789   2.005   3.586   4.517
 8971TIP3    H126790   1.972   3.552   4.602
 8971TIP3    H226791   2.031   3.505   4.471
 8972TIP3   OH226792   2.264   3.645   5.737
 8972TIP3    H126793   2.192   3.711   5.748
 8972TIP3    H226794   2.316   3.684   5.663
 8973TIP3   OH226795   2.100   3.377   4.352
 8973TIP3    H126796   2.063   3.377   4.261
 8973TIP3    H226797   2.190   3.408   4.334
 8974TIP3   OH226798   2.782   4.034   5.866
 8974TIP3    H126799   2.874   4.054   5.849
 8974TIP3    H226800   2.786   3.984   5.949
 8975TIP3   OH226801   2.930   3.714   4.014
 8975TIP3    H126802   2.904   3.668   3.932
 8975TIP3    H226803   2.897   3.804   3.992
 8976TIP3   OH226804   2.394   3.441   5.871
 8976TIP3    H126805   2.392   3.360   5.816
 8976TIP3    H226806   2.350   3.506   5.813
 8977TIP3   OH226807   2.396   3.225   5.673
 8977TIP3    H126808   2.421   3.267   5.589
 8977TIP3    H226809   2.302   3.203   5.658
 8978TIP3   OH226810   2.424   3.763   5.550
 8978TIP3    H126811   2.502   3.768   5.494
 8978TIP3    H226812   2.365   3.831   5.508
 8979TIP3   OH226813   3.007   3.731   5.934
 8979TIP3    H126814   3.057   3.648   5.943
 8979TIP3    H226815   3.074   3.792   5.901
 8980TIP3   OH226816   3.052   3.979   5.663
 8980TIP3    H126817   2.991   4.033   5.608
 8980TIP3    H226818   3.138   4.003   5.622
 8981TIP3   OH226819   2.270   3.555   6.099
 8981TIP3    H126820   2.201   3.487   6.112
 8981TIP3    H226821   2.306   3.531   6.012
 8982TIP3   OH226822   2.528   2.990   5.739
 8982TIP3    H126823   2.479   3.073   5.720
 8982TIP3    H226824   2.457   2.923   5.731
 8983TIP3   OH226825   2.656   3.496   5.959
 8983TIP3    H126826   2.644   3.487   6.055
 8983TIP3    H226827   2.565   3.474   5.929
 8984TIP3   OH226828   2.893   3.437   5.811
 8984TIP3    H126829   2.817   3.447   5.871
 8984TIP3    H226830   2.964   3.410   5.872
 8985TIP3   OH226831   3.129   3.385   5.966
 8985TIP3    H126832   3.136   3.290   5.986
 8985TIP3    H226833   3.119   3.425   6.055
 8986TIP3   OH226834   2.110   3.334   6.150
 8986TIP3    H126835   2.117   3.243   6.116
 8986TIP3    H226836   2.145   3.323   6.241
 8987TIP3   OH226837   2.626   3.003   5.997
 8987TIP3    H126838   2.691   2.930   5.994
 8987TIP3    H226839   2.584   2.993   5.909
 8988TIP3   OH226840   2.689   3.216   6.158
 8988TIP3    H126841   2.666   3.145   6.094
 8988TIP3    H226842   2.611   3.276   6.152
 8989TIP3   OH226843   1.907   4.441   4.256
 8989TIP3    H126844   2.003   4.441   4.240
 8989TIP3    H226845   1.878   4.493   4.179
 8990TIP3   OH226846   1.387   3.827   4.474
 8990TIP3    H126847   1.483   3.850   4.464
 8990TIP3    H226848   1.385   3.737   4.434
 8991TIP3   OH226849   1.303   4.436   4.888
 8991TIP3    H126850   1.234   4.375   4.856
 8991TIP3    H226851   1.347   4.382   4.957
 8992TIP3   OH226852   1.441   4.290   5.074
 8992TIP3    H126853   1.431   4.218   5.138
 8992TIP3    H226854   1.493   4.353   5.129
 8993TIP3   OH226855   3.180   4.689   4.883
 8993TIP3    H126856   3.203   4.752   4.952
 8993TIP3    H226857   3.216   4.731   4.804
 8994TIP3   OH226858   3.244   4.386   5.735
 8994TIP3    H126859   3.164   4.393   5.792
 8994TIP3    H226860   3.274   4.480   5.736
 8995TIP3   OH226861   3.060   3.898   4.349
 8995TIP3    H126862   3.127   3.964   4.323
 8995TIP3    H226863   3.101   3.861   4.430
 8996TIP3   OH226864   3.185   3.767   4.554
 8996TIP3    H126865   3.121   3.726   4.616
 8996TIP3    H226866   3.251   3.807   4.614
 8997TIP3   OH226867   3.238   4.154   4.987
 8997TIP3    H126868   3.293   4.093   4.934
 8997TIP3    H226869   3.217   4.224   4.923
 8998TIP3   OH226870   3.119   3.669   4.204
 8998TIP3    H126871   3.053   3.683   4.132
 8998TIP3    H226872   3.099   3.749   4.258
 8999TIP3   OH226873   2.966   3.358   4.159
 8999TIP3    H126874   2.980   3.388   4.068
 8999TIP3    H226875   2.961   3.260   4.146
 9000TIP3   OH226876   3.000   3.622   4.702
 9000TIP3    H126877   3.012   3.526   4.706
 9000TIP3    H226878   2.986   3.644   4.797
 9001TIP3   OH226879   1.628   3.698   5.447
 9001TIP3    H126880   1.627   3.671   5.353
 9001TIP3    H226881   1.726   3.700   5.464
 9002TIP3   OH226882   3.292   4.054   5.554
 9002TIP3    H126883   3.362   3.984   5.551
 9002TIP3    H226884   3.306   4.099   5.470
 9003TIP3   OH226885   3.475   3.857   5.577
 9003TIP3    H126886   3.400   3.806   5.616
 9003TIP3    H226887   3.548   3.793   5.591
 9004TIP3   OH226888   2.934   3.092   4.163
 9004TIP3    H126889   3.016   3.051   4.200
 9004TIP3    H226890   2.866   3.024   4.177
 9005TIP3   OH226891   2.988   3.333   4.592
 9005TIP3    H126892   3.028   3.244   4.606
 9005TIP3    H226893   3.054   3.373   4.535
 9006TIP3   OH226894   3.159   3.516   5.090
 9006TIP3    H126895   3.246   3.542   5.052
 9006TIP3    H226896   3.170   3.552   5.180
 9007TIP3   OH226897   3.225   3.657   5.323
 9007TIP3    H126898   3.148   3.691   5.373
 9007TIP3    H226899   3.257   3.739   5.279
 9008TIP3   OH226900   1.843   3.385   6.121
 9008TIP3    H126901   1.941   3.379   6.123
 9008TIP3    H226902   1.819   3.300   6.164
 9009TIP3   OH226903   3.682   3.250   5.881
 9009TIP3    H126904   3.736   3.182   5.836
 9009TIP3    H226905   3.652   3.305   5.806
 9010TIP3   OH226906   3.104   3.088   4.634
 9010TIP3    H126907   3.153   3.075   4.717
 9010TIP3    H226908   3.046   3.009   4.634
 9011TIP3   OH226909   1.805   3.076   5.449
 9011TIP3    H126910   1.867   3.002   5.464
 9011TIP3    H226911   1.866   3.151   5.449
 9012TIP3   OH226912   1.609   3.351   5.526
 9012TIP3    H126913   1.660   3.346   5.442
 9012TIP3    H226914   1.637   3.436   5.561
 9013TIP3   OH226915   3.552   3.390   5.688
 9013TIP3    H126916   3.465   3.429   5.712
 9013TIP3    H226917   3.522   3.319   5.628
 9014TIP3   OH226918   3.188   3.028   4.261
 9014TIP3    H126919   3.229   2.952   4.215
 9014TIP3    H226920   3.260   3.095   4.257
 9015TIP3   OH226921   1.591   2.851   5.025
 9015TIP3    H126922   1.498   2.853   5.055
 9015TIP3    H226923   1.589   2.912   4.948
 9016TIP3   OH226924   2.749   4.555   4.531
 9016TIP3    H126925   2.805   4.543   4.452
 9016TIP3    H226926   2.799   4.621   4.583
 9017TIP3   OH226927   1.811   2.935   5.841
 9017TIP3    H126928   1.762   2.925   5.925
 9017TIP3    H226929   1.741   2.973   5.784
 9018TIP3   OH226930   1.846   4.341   5.938
 9018TIP3    H126931   1.754   4.325   5.912
 9018TIP3    H226932   1.843   4.340   6.034
 9019TIP3   OH226933   3.449   3.152   5.562
 9019TIP3    H126934   3.357   3.148   5.532
 9019TIP3    H226935   3.477   3.059   5.550
 9020TIP3   OH226936   1.702   4.642   5.484
 9020TIP3    H126937   1.616   4.685   5.467
 9020TIP3    H226938   1.723   4.677   5.572
 9021TIP3   OH226939   1.945   4.635   5.334
 9021TIP3    H126940   1.865   4.634   5.388
 9021TIP3    H226941   1.916   4.677   5.251
 9022TIP3   OH226942   2.379   4.684   5.113
 9022TIP3    H126943   2.290   4.693   5.075
 9022TIP3    H226944   2.370   4.735   5.195
 9023TIP3   OH226945   2.634   4.591   5.155
 9023TIP3    H126946   2.540   4.599   5.179
 9023TIP3    H226947   2.650   4.681   5.126
 9024TIP3   OH226948   1.616   4.442   5.234
 9024TIP3    H126949   1.645   4.425   5.326
 9024TIP3    H226950   1.692   4.401   5.187
 9025TIP3   OH226951   1.811   4.314   5.086
 9025TIP3    H126952   1.827   4.231   5.137
 9025TIP3    H226953   1.901   4.354   5.086
 9026TIP3   OH226954   2.072   4.413   5.091
 9026TIP3    H126955   2.111   4.323   5.097
 9026TIP3    H226956   2.091   4.446   5.180
 9027TIP3   OH226957   2.650   3.064   5.174
 9027TIP3    H126958   2.608   2.999   5.234
 9027TIP3    H226959   2.725   3.014   5.138
 9028TIP3   OH226960   3.178   2.945   5.086
 9028TIP3    H126961   3.214   2.999   5.012
 9028TIP3    H226962   3.083   2.965   5.081
 9029TIP3   OH226963   3.272   3.050   4.850
 9029TIP3    H126964   3.345   2.997   4.811
 9029TIP3    H226965   3.306   3.141   4.836
 9030TIP3   OH226966   1.903   2.776   5.196
 9030TIP3    H126967   1.811   2.740   5.200
 9030TIP3    H226968   1.954   2.692   5.196
 9031TIP3   OH226969   1.680   2.645   4.842
 9031TIP3    H126970   1.716   2.705   4.775
 9031TIP3    H226971   1.656   2.708   4.914
 9032TIP3   OH226972   2.342   2.811   5.077
 9032TIP3    H126973   2.406   2.861   5.025
 9032TIP3    H226974   2.360   2.843   5.167
 9033TIP3   OH226975   2.895   2.953   5.062
 9033TIP3    H126976   2.894   2.912   4.975
 9033TIP3    H226977   2.881   2.874   5.120
 9034TIP3   OH226978   2.922   2.875   4.624
 9034TIP3    H126979   2.835   2.917   4.639
 9034TIP3    H226980   2.909   2.790   4.672
 9035TIP3   OH226981   1.407   4.213   4.626
 9035TIP3    H126982   1.321   4.183   4.591
 9035TIP3    H226983   1.396   4.309   4.620
 9036TIP3   OH226984   1.804   2.809   4.606
 9036TIP3    H126985   1.854   2.743   4.555
 9036TIP3    H226986   1.876   2.861   4.647
 9037TIP3   OH226987   2.321   2.979   4.704
 9037TIP3    H126988   2.374   2.929   4.768
 9037TIP3    H226989   2.339   3.070   4.735
 9038TIP3   OH226990   2.176   4.407   4.207
 9038TIP3    H126991   2.265   4.429   4.173
 9038TIP3    H226992   2.155   4.330   4.149
 9039TIP3   OH226993   2.899   4.523   4.299
 9039TIP3    H126994   2.888   4.426   4.287
 9039TIP3    H226995   2.851   4.557   4.221
 9040TIP3   OH226996   2.110   3.058   6.090
 9040TIP3    H126997   2.077   2.986   6.147
 9040TIP3    H226998   2.205   3.058   6.117
 9041TIP3   OH226999   2.359   3.054   6.209
 9041TIP3    H127000   2.444   3.026   6.171
 9041TIP3    H227001   2.345   2.984   6.277
 9042TIP3   OH227002   1.480   4.241   4.267
 9042TIP3    H127003   1.480   4.270   4.359
 9042TIP3    H227004   1.570   4.202   4.257
 9043TIP3   OH227005   3.182   3.113   5.997
 9043TIP3    H127006   3.201   3.083   6.089
 9043TIP3    H227007   3.270   3.108   5.955
 9044TIP3   OH227008   4.389   4.038   4.257
 9044TIP3    H127009   4.362   4.131   4.237
 9044TIP3    H227010   4.311   3.991   4.223
 9045TIP3   OH227011   4.386   4.040   4.636
 9045TIP3    H127012   4.417   4.008   4.722
 9045TIP3    H227013   4.345   3.960   4.599
 9046TIP3   OH227014   3.689   3.933   4.997
 9046TIP3    H127015   3.720   3.867   5.063
 9046TIP3    H227016   3.761   3.998   5.000
 9047TIP3   OH227017   4.631   4.339   4.315
 9047TIP3    H127018   4.619   4.274   4.385
 9047TIP3    H227019   4.657   4.419   4.366
 9048TIP3   OH227020   3.662   4.345   4.726
 9048TIP3    H127021   3.647   4.249   4.732
 9048TIP3    H227022   3.759   4.347   4.718
 9049TIP3   OH227023   3.366   3.549   4.512
 9049TIP3    H127024   3.319   3.633   4.527
 9049TIP3    H227025   3.293   3.494   4.480
 9050TIP3   OH227026   3.425   3.834   4.677
 9050TIP3    H127027   3.474   3.759   4.719
 9050TIP3    H227028   3.488   3.863   4.610
 9051TIP3   OH227029   4.272   4.803   4.329
 9051TIP3    H127030   4.324   4.730   4.290
 9051TIP3    H227031   4.273   4.782   4.423
 9052TIP3   OH227032   4.188   4.265   4.684
 9052TIP3    H127033   4.222   4.188   4.636
 9052TIP3    H227034   4.273   4.308   4.706
 9053TIP3   OH227035   5.200   3.585   4.682
 9053TIP3    H127036   5.227   3.668   4.726
 9053TIP3    H227037   5.216   3.608   4.589
 9054TIP3   OH227038   4.600   3.768   4.718
 9054TIP3    H127039   4.641   3.681   4.738
 9054TIP3    H227040   4.568   3.753   4.627
 9055TIP3   OH227041   3.935   3.426   4.683
 9055TIP3    H127042   3.914   3.499   4.621
 9055TIP3    H227043   3.887   3.352   4.639
 9056TIP3   OH227044   4.629   3.516   4.307
 9056TIP3    H127045   4.703   3.500   4.370
 9056TIP3    H227046   4.679   3.552   4.232
 9057TIP3   OH227047   3.570   3.629   4.789
 9057TIP3    H127048   3.652   3.609   4.837
 9057TIP3    H227049   3.583   3.572   4.710
 9058TIP3   OH227050   4.012   3.827   4.578
 9058TIP3    H127051   4.105   3.800   4.594
 9058TIP3    H227052   3.972   3.743   4.548
 9059TIP3   OH227053   5.273   3.793   4.852
 9059TIP3    H127054   5.189   3.841   4.831
 9059TIP3    H227055   5.284   3.816   4.945
 9060TIP3   OH227056   3.933   3.409   5.116
 9060TIP3    H127057   3.873   3.446   5.050
 9060TIP3    H227058   3.882   3.426   5.198
 9061TIP3   OH227059   4.284   4.261   4.125
 9061TIP3    H127060   4.238   4.238   4.043
 9061TIP3    H227061   4.240   4.346   4.148
 9062TIP3   OH227062   4.040   4.184   4.914
 9062TIP3    H127063   3.978   4.250   4.951
 9062TIP3    H227064   4.082   4.236   4.842
 9063TIP3   OH227065   4.844   3.517   4.475
 9063TIP3    H127066   4.831   3.469   4.558
 9063TIP3    H227067   4.896   3.594   4.503
 9064TIP3   OH227068   3.803   3.524   4.902
 9064TIP3    H127069   3.865   3.597   4.924
 9064TIP3    H227070   3.852   3.483   4.827
 9065TIP3   OH227071   3.872   4.389   4.989
 9065TIP3    H127072   3.817   4.450   4.939
 9065TIP3    H227073   3.805   4.365   5.058
 9066TIP3   OH227074   3.264   4.067   4.246
 9066TIP3    H127075   3.222   4.095   4.163
 9066TIP3    H227076   3.293   4.153   4.283
 9067TIP3   OH227077   4.695   4.567   4.470
 9067TIP3    H127078   4.611   4.571   4.521
 9067TIP3    H227079   4.706   4.661   4.447
 9068TIP3   OH227080   4.992   3.486   4.848
 9068TIP3    H127081   4.904   3.515   4.820
 9068TIP3    H227082   5.049   3.517   4.775
 9069TIP3   OH227083   4.292   3.130   4.830
 9069TIP3    H127084   4.279   3.035   4.847
 9069TIP3    H227085   4.214   3.167   4.876
 9070TIP3   OH227086   4.406   4.629   4.162
 9070TIP3    H127087   4.458   4.549   4.139
 9070TIP3    H227088   4.465   4.697   4.120
 9071TIP3   OH227089   4.549   4.415   4.063
 9071TIP3    H127090   4.506   4.336   4.027
 9071TIP3    H227091   4.583   4.381   4.149
 9072TIP3   OH227092   4.911   4.480   4.833
 9072TIP3    H127093   4.909   4.410   4.765
 9072TIP3    H227094   4.899   4.561   4.782
 9073TIP3   OH227095   4.219   3.891   4.085
 9073TIP3    H127096   4.138   3.941   4.063
 9073TIP3    H227097   4.265   3.888   3.999
 9074TIP3   OH227098   4.178   3.674   3.806
 9074TIP3    H127099   4.248   3.724   3.853
 9074TIP3    H227100   4.234   3.610   3.757
 9075TIP3   OH227101   5.125   4.130   4.673
 9075TIP3    H127102   5.041   4.181   4.678
 9075TIP3    H227103   5.154   4.154   4.583
 9076TIP3   OH227104   4.566   3.973   4.059
 9076TIP3    H127105   4.511   3.999   4.137
 9076TIP3    H227106   4.649   3.947   4.104
 9077TIP3   OH227107   4.803   4.014   4.967
 9077TIP3    H127108   4.800   4.097   5.018
 9077TIP3    H227109   4.716   4.019   4.922
 9078TIP3   OH227110   3.799   3.972   4.474
 9078TIP3    H127111   3.757   3.914   4.407
 9078TIP3    H227112   3.877   3.918   4.501
 9079TIP3   OH227113   3.932   4.384   4.623
 9079TIP3    H127114   3.908   4.340   4.540
 9079TIP3    H227115   4.021   4.348   4.640
 9080TIP3   OH227116   3.941   3.941   4.828
 9080TIP3    H127117   3.972   3.924   4.736
 9080TIP3    H227118   3.980   4.028   4.849
 9081TIP3   OH227119   4.464   4.584   4.613
 9081TIP3    H127120   4.436   4.656   4.672
 9081TIP3    H227121   4.448   4.504   4.667
 9082TIP3   OH227122   4.074   4.489   5.153
 9082TIP3    H127123   4.037   4.572   5.185
 9082TIP3    H227124   3.999   4.451   5.104
 9083TIP3   OH227125   4.409   3.830   3.884
 9083TIP3    H127126   4.467   3.890   3.937
 9083TIP3    H227127   4.435   3.856   3.792
 9084TIP3   OH227128   3.824   4.056   5.250
 9084TIP3    H127129   3.832   4.141   5.298
 9084TIP3    H227130   3.728   4.041   5.258
 9085TIP3   OH227131   4.149   4.513   4.160
 9085TIP3    H127132   4.227   4.568   4.181
 9085TIP3    H227133   4.088   4.577   4.122
 9086TIP3   OH227134   4.924   3.073   3.932
 9086TIP3    H127135   4.842   3.091   3.983
 9086TIP3    H227136   4.935   3.156   3.883
 9087TIP3   OH227137   3.665   3.814   4.280
 9087TIP3    H127138   3.601   3.859   4.222
 9087TIP3    H227139   3.623   3.729   4.293
 9088TIP3   OH227140   4.720   4.441   3.479
 9088TIP3    H127141   4.729   4.538   3.466
 9088TIP3    H227142   4.813   4.412   3.467
 9089TIP3   OH227143   3.471   4.184   5.152
 9089TIP3    H127144   3.387   4.164   5.106
 9089TIP3    H227145   3.488   4.103   5.204
 9090TIP3   OH227146   3.300   4.394   4.810
 9090TIP3    H127147   3.395   4.381   4.824
 9090TIP3    H227148   3.278   4.467   4.869
 9091TIP3   OH227149   4.030   4.758   3.961
 9091TIP3    H127150   3.985   4.739   3.876
 9091TIP3    H227151   3.999   4.848   3.983
 9092TIP3   OH227152   3.468   4.608   4.343
 9092TIP3    H127153   3.516   4.597   4.428
 9092TIP3    H227154   3.407   4.533   4.348
 9093TIP3   OH227155   4.233   4.658   3.602
 9093TIP3    H127156   4.293   4.588   3.566
 9093TIP3    H227157   4.267   4.667   3.694
 9094TIP3   OH227158   4.282   4.706   3.873
 9094TIP3    H127159   4.194   4.715   3.915
 9094TIP3    H227160   4.334   4.666   3.945
 9095TIP3   OH227161   5.058   3.974   5.148
 9095TIP3    H127162   4.976   3.991   5.100
 9095TIP3    H227163   5.069   3.878   5.136
 9096TIP3   OH227164   3.683   4.351   5.167
 9096TIP3    H127165   3.718   4.333   5.256
 9096TIP3    H227166   3.602   4.296   5.163
 9097TIP3   OH227167   4.051   3.205   4.957
 9097TIP3    H127168   3.962   3.174   4.933
 9097TIP3    H227169   4.027   3.288   5.003
 9098TIP3   OH227170   4.583   3.320   5.153
 9098TIP3    H127171   4.650   3.293   5.219
 9098TIP3    H227172   4.498   3.300   5.198
 9099TIP3   OH227173   4.829   3.751   5.073
 9099TIP3    H127174   4.778   3.745   5.157
 9099TIP3    H227175   4.800   3.837   5.037
 9100TIP3   OH227176   4.485   3.880   3.629
 9100TIP3    H127177   4.451   3.853   3.541
 9100TIP3    H227178   4.563   3.931   3.603
 9101TIP3   OH227179   4.198   3.254   3.929
 9101TIP3    H127180   4.165   3.252   4.021
 9101TIP3    H227181   4.159   3.171   3.896
 9102TIP3   OH227182   3.983   3.719   4.977
 9102TIP3    H127183   3.932   3.740   5.059
 9102TIP3    H227184   3.967   3.799   4.924
 9103TIP3   OH227185   3.867   3.606   4.491
 9103TIP3    H127186   3.774   3.580   4.508
 9103TIP3    H227187   3.880   3.565   4.402
 9104TIP3   OH227188   4.357   3.692   4.218
 9104TIP3    H127189   4.303   3.764   4.178
 9104TIP3    H227190   4.411   3.663   4.142
 9105TIP3   OH227191   4.530   3.966   5.300
 9105TIP3    H127192   4.510   3.897   5.367
 9105TIP3    H227193   4.620   3.993   5.327
 9106TIP3   OH227194   4.516   3.722   4.459
 9106TIP3    H127195   4.456   3.753   4.387
 9106TIP3    H227196   4.547   3.639   4.416
 9107TIP3   OH227197   3.802   3.749   5.186
 9107TIP3    H127198   3.826   3.813   5.255
 9107TIP3    H227199   3.789   3.667   5.239
 9108TIP3   OH227200   3.853   3.227   3.896
 9108TIP3    H127201   3.845   3.223   3.993
 9108TIP3    H227202   3.772   3.276   3.873
 9109TIP3   OH227203   3.395   3.275   4.763
 9109TIP3    H127204   3.469   3.304   4.820
 9109TIP3    H227205   3.438   3.236   4.686
 9110TIP3   OH227206   3.370   3.252   4.286
 9110TIP3    H127207   3.416   3.290   4.208
 9110TIP3    H227208   3.314   3.328   4.311
 9111TIP3   OH227209   4.524   3.969   4.881
 9111TIP3    H127210   4.558   3.896   4.824
 9111TIP3    H227211   4.497   3.918   4.960
 9112TIP3   OH227212   4.192   3.429   4.554
 9112TIP3    H127213   4.109   3.426   4.605
 9112TIP3    H227214   4.259   3.430   4.625
 9113TIP3   OH227215   3.629   3.483   4.561
 9113TIP3    H127216   3.535   3.490   4.535
 9113TIP3    H227217   3.653   3.392   4.539
 9114TIP3   OH227218   3.900   3.481   4.248
 9114TIP3    H127219   3.994   3.496   4.227
 9114TIP3    H227220   3.853   3.505   4.165
 9115TIP3   OH227221   4.686   3.503   4.753
 9115TIP3    H127222   4.652   3.515   4.844
 9115TIP3    H227223   4.620   3.441   4.717
 9116TIP3   OH227224   3.736   3.514   4.028
 9116TIP3    H127225   3.665   3.469   3.979
 9116TIP3    H227226   3.789   3.549   3.954
 9117TIP3   OH227227   3.817   4.298   5.401
 9117TIP3    H127228   3.897   4.331   5.448
 9117TIP3    H227229   3.751   4.300   5.472
 9118TIP3   OH227230   4.278   3.756   4.651
 9118TIP3    H127231   4.349   3.714   4.600
 9118TIP3    H227232   4.288   3.715   4.739
 9119TIP3   OH227233   3.801   3.244   4.527
 9119TIP3    H127234   3.769   3.164   4.572
 9119TIP3    H227235   3.855   3.208   4.455
 9120TIP3   OH227236   4.254   3.651   4.940
 9120TIP3    H127237   4.164   3.687   4.954
 9120TIP3    H227238   4.311   3.711   4.992
 9121TIP3   OH227239   3.991   4.044   4.035
 9121TIP3    H127240   3.918   3.979   4.024
 9121TIP3    H227241   3.973   4.078   4.126
 9122TIP3   OH227242   4.893   4.271   4.660
 9122TIP3    H127243   4.915   4.323   4.580
 9122TIP3    H227244   4.804   4.235   4.638
 9123TIP3   OH227245   4.449   3.357   3.895
 9123TIP3    H127246   4.352   3.341   3.903
 9123TIP3    H227247   4.459   3.452   3.918
 9124TIP3   OH227248   4.402   4.371   5.039
 9124TIP3    H127249   4.427   4.323   5.120
 9124TIP3    H227250   4.332   4.430   5.072
 9125TIP3   OH227251   4.519   3.603   3.999
 9125TIP3    H127252   4.615   3.610   4.015
 9125TIP3    H227253   4.500   3.682   3.946
 9126TIP3   OH227254   3.682   4.065   4.713
 9126TIP3    H127255   3.722   4.035   4.628
 9126TIP3    H227256   3.718   4.001   4.776
 9127TIP3   OH227257   4.136   4.193   3.855
 9127TIP3    H127258   4.089   4.280   3.862
 9127TIP3    H227259   4.082   4.138   3.915
 9128TIP3   OH227260   3.556   3.989   5.329
 9128TIP3    H127261   3.579   3.971   5.422
 9128TIP3    H227262   3.491   3.919   5.310
 9129TIP3   OH227263   4.287   4.093   5.345
 9129TIP3    H127264   4.231   4.035   5.292
 9129TIP3    H227265   4.377   4.066   5.316
 9130TIP3   OH227266   4.964   3.691   3.835
 9130TIP3    H127267   4.900   3.646   3.775
 9130TIP3    H227268   4.959   3.780   3.795
 9131TIP3   OH227269   4.663   4.512   3.745
 9131TIP3    H127270   4.635   4.443   3.806
 9131TIP3    H227271   4.672   4.464   3.660
 9132TIP3   OH227272   4.654   4.141   4.587
 9132TIP3    H127273   4.561   4.114   4.598
 9132TIP3    H227274   4.690   4.063   4.540
 9133TIP3   OH227275   3.782   4.369   4.337
 9133TIP3    H127276   3.786   4.450   4.284
 9133TIP3    H227277   3.687   4.354   4.343
 9134TIP3   OH227278   3.345   3.675   4.037
 9134TIP3    H127279   3.393   3.758   4.057
 9134TIP3    H227280   3.269   3.682   4.099
 9135TIP3   OH227281   3.925   4.137   4.282
 9135TIP3    H127282   3.889   4.226   4.299
 9135TIP3    H227283   3.887   4.086   4.356
 9136TIP3   OH227284   3.704   4.607   4.190
 9136TIP3    H127285   3.618   4.616   4.234
 9136TIP3    H227286   3.736   4.700   4.193
 9137TIP3   OH227287   4.445   4.351   4.766
 9137TIP3    H127288   4.438   4.345   4.864
 9137TIP3    H227289   4.522   4.294   4.749
 9138TIP3   OH227290   4.413   4.238   3.646
 9138TIP3    H127291   4.466   4.214   3.725
 9138TIP3    H227292   4.325   4.214   3.676
 9139TIP3   OH227293   4.755   4.716   3.467
 9139TIP3    H127294   4.793   4.788   3.413
 9139TIP3    H227295   4.675   4.762   3.500
 9140TIP3   OH227296   3.776   3.492   5.334
 9140TIP3    H127297   3.680   3.498   5.348
 9140TIP3    H227298   3.803   3.430   5.404
 9141TIP3   OH227299   4.573   4.173   3.863
 9141TIP3    H127300   4.564   4.107   3.934
 9141TIP3    H227301   4.671   4.172   3.851
 9142TIP3   OH227302   3.782   4.221   3.645
 9142TIP3    H127303   3.796   4.129   3.615
 9142TIP3    H227304   3.764   4.208   3.740
 9143TIP3   OH227305   3.728   4.225   3.918
 9143TIP3    H127306   3.799   4.199   3.979
 9143TIP3    H227307   3.732   4.323   3.924
 9144TIP3   OH227308   3.463   3.919   4.120
 9144TIP3    H127309   3.399   3.965   4.178
 9144TIP3    H227310   3.479   3.989   4.054
 9145TIP3   OH227311   4.613   3.555   5.011
 9145TIP3    H127312   4.689   3.594   5.056
 9145TIP3    H227313   4.594   3.475   5.065
 9146TIP3   OH227314   4.491   3.309   4.176
 9146TIP3    H127315   4.476   3.333   4.082
 9146TIP3    H227316   4.529   3.392   4.212
 9147TIP3   OH227317   3.992   4.423   3.867
 9147TIP3    H127318   3.906   4.452   3.903
 9147TIP3    H227319   4.010   4.494   3.804
 9148TIP3   OH227320   4.183   3.485   4.280
 9148TIP3    H127321   4.248   3.557   4.262
 9148TIP3    H227322   4.187   3.480   4.378
 9149TIP3   OH227323   4.450   3.806   5.088
 9149TIP3    H127324   4.467   3.863   5.166
 9149TIP3    H227325   4.505   3.729   5.106
 9150TIP3   OH227326   4.328   3.217   4.385
 9150TIP3    H127327   4.319   3.295   4.443
 9150TIP3    H227328   4.387   3.254   4.315
 9151TIP3   OH227329   3.734   4.498   3.933
 9151TIP3    H127330   3.705   4.568   3.870
 9151TIP3    H227331   3.719   4.543   4.019
 9152TIP3   OH227332   3.837   3.211   4.173
 9152TIP3    H127333   3.835   3.302   4.208
 9152TIP3    H227334   3.932   3.192   4.181
 9153TIP3   OH227335   5.094   3.703   5.067
 9153TIP3    H127336   4.996   3.704   5.078
 9153TIP3    H227337   5.100   3.666   4.978
 9154TIP3   OH227338   4.743   3.900   4.457
 9154TIP3    H127339   4.666   3.841   4.469
 9154TIP3    H227340   4.814   3.853   4.505
 9155TIP3   OH227341   3.453   4.131   3.928
 9155TIP3    H127342   3.516   4.205   3.937
 9155TIP3    H227343   3.500   4.078   3.860
 9156TIP3   OH227344   3.399   3.406   4.064
 9156TIP3    H127345   3.399   3.503   4.055
 9156TIP3    H227346   3.325   3.380   4.008
 9157TIP3   OH227347   4.717   4.846   4.404
 9157TIP3    H127348   4.672   4.896   4.333
 9157TIP3    H227349   4.810   4.871   4.389
 9158TIP3   OH227350   3.787   3.125   4.935
 9158TIP3    H127351   3.754   3.091   4.849
 9158TIP3    H227352   3.776   3.046   4.993
 9159TIP3   OH227353   3.327   4.342   4.317
 9159TIP3    H127354   3.253   4.374   4.370
 9159TIP3    H227355   3.305   4.382   4.230
 9160TIP3   OH227356   3.946   4.426   3.560
 9160TIP3    H127357   3.889   4.354   3.598
 9160TIP3    H227358   4.020   4.373   3.526
 9161TIP3   OH227359   4.382   4.467   3.469
 9161TIP3    H127360   4.428   4.403   3.527
 9161TIP3    H227361   4.438   4.468   3.389
 9162TIP3   OH227362   3.611   4.285   5.585
 9162TIP3    H127363   3.639   4.191   5.588
 9162TIP3    H227364   3.515   4.277   5.592
 9163TIP3   OH227365   3.589   3.943   3.778
 9163TIP3    H127366   3.644   3.909   3.851
 9163TIP3    H227367   3.656   3.947   3.707
 9164TIP3   OH227368   4.215   4.363   5.362
 9164TIP3    H127369   4.174   4.385   5.277
 9164TIP3    H227370   4.248   4.271   5.350
 9165TIP3   OH227371   4.096   4.140   3.586
 9165TIP3    H127372   4.099   4.153   3.682
 9165TIP3    H227373   4.096   4.041   3.581
 9166TIP3   OH227374   4.709   4.362   4.969
 9166TIP3    H127375   4.780   4.414   4.925
 9166TIP3    H227376   4.635   4.424   4.970
 9167TIP3   OH227377   3.731   4.024   5.569
 9167TIP3    H127378   3.804   3.964   5.549
 9167TIP3    H227379   3.755   4.055   5.659
 9168TIP3   OH227380   3.799   3.844   4.003
 9168TIP3    H127381   3.772   3.802   4.086
 9168TIP3    H227382   3.834   3.769   3.951
 9169TIP3   OH227383   4.066   3.908   5.230
 9169TIP3    H127384   3.989   3.968   5.235
 9169TIP3    H227385   4.113   3.942   5.150
 9170TIP3   OH227386   3.897   3.636   3.843
 9170TIP3    H127387   3.870   3.638   3.749
 9170TIP3    H227388   3.994   3.645   3.835
 9171TIP3   OH227389   4.575   4.287   5.341
 9171TIP3    H127390   4.667   4.310   5.326
 9171TIP3    H227391   4.577   4.246   5.429
 9172TIP3   OH227392   4.724   3.971   3.503
 9172TIP3    H127393   4.699   3.923   3.421
 9172TIP3    H227394   4.691   4.061   3.478
 9173TIP3   OH227395   4.191   3.697   5.357
 9173TIP3    H127396   4.189   3.616   5.302
 9173TIP3    H227397   4.146   3.762   5.299
 9174TIP3   OH227398   4.192   3.482   5.162
 9174TIP3    H127399   4.218   3.524   5.078
 9174TIP3    H227400   4.098   3.460   5.145
 9175TIP3   OH227401   4.222   4.021   5.036
 9175TIP3    H127402   4.302   4.024   4.983
 9175TIP3    H227403   4.164   4.087   4.993
 9176TIP3   OH227404   4.803   3.988   5.422
 9176TIP3    H127405   4.854   3.905   5.426
 9176TIP3    H227406   4.868   4.050   5.385
 9177TIP3   OH227407   4.851   4.232   5.156
 9177TIP3    H127408   4.787   4.282   5.099
 9177TIP3    H227409   4.935   4.259   5.113
 9178TIP3   OH227410   4.067   3.811   5.586
 9178TIP3    H127411   3.998   3.744   5.599
 9178TIP3    H227412   4.102   3.786   5.498
 9179TIP3   OH227413   4.325   3.248   5.228
 9179TIP3    H127414   4.276   3.330   5.206
 9179TIP3    H227415   4.254   3.181   5.217
 9180TIP3   OH227416   4.452   3.751   5.447
 9180TIP3    H127417   4.439   3.743   5.543
 9180TIP3    H227418   4.362   3.728   5.416
 9181TIP3   OH227419   4.690   3.697   5.299
 9181TIP3    H127420   4.613   3.703   5.359
 9181TIP3    H227421   4.761   3.668   5.360
 9182TIP3   OH227422   4.925   3.642   5.454
 9182TIP3    H127423   4.932   3.546   5.473
 9182TIP3    H227424   4.916   3.682   5.543
 9183TIP3   OH227425   3.907   3.591   5.637
 9183TIP3    H127426   3.913   3.500   5.602
 9183TIP3    H227427   3.941   3.578   5.728
 9184TIP3   OH227428   4.421   3.258   5.485
 9184TIP3    H127429   4.487   3.186   5.480
 9184TIP3    H227430   4.379   3.251   5.397
 9185TIP3   OH227431   4.484   3.472   5.646
 9185TIP3    H127432   4.461   3.402   5.581
 9185TIP3    H227433   4.407   3.532   5.639
 9186TIP3   OH227434   3.704   4.700   3.746
 9186TIP3    H127435   3.800   4.699   3.727
 9186TIP3    H227436   3.673   4.748   3.667
 9187TIP3   OH227437   3.185   4.082   3.964
 9187TIP3    H127438   3.280   4.105   3.951
 9187TIP3    H227439   3.181   3.993   3.921
 9188TIP3   OH227440   3.101   4.695   4.374
 9188TIP3    H127441   3.031   4.634   4.340
 9188TIP3    H227442   3.143   4.638   4.442
 9189TIP3   OH227443   3.235   4.548   4.562
 9189TIP3    H127444   3.224   4.472   4.622
 9189TIP3    H227445   3.288   4.607   4.618
 9190TIP3   OH227446   4.978   4.947   4.379
 9190TIP3    H127447   4.983   5.027   4.434
 9190TIP3    H227448   5.007   4.982   4.294
 9191TIP3   OH227449   5.044   4.641   5.224
 9191TIP3    H127450   4.966   4.651   5.282
 9191TIP3    H227451   5.079   4.733   5.223
 9192TIP3   OH227452   4.855   4.157   3.838
 9192TIP3    H127453   4.924   4.221   3.811
 9192TIP3    H227454   4.896   4.117   3.917
 9193TIP3   OH227455   4.983   4.024   4.041
 9193TIP3    H127456   4.916   3.982   4.099
 9193TIP3    H227457   5.044   4.065   4.104
 9194TIP3   OH227458   5.033   4.413   4.473
 9194TIP3    H127459   5.087   4.351   4.420
 9194TIP3    H227460   5.019   4.487   4.412
 9195TIP3   OH227461   4.921   3.932   3.689
 9195TIP3    H127462   4.849   3.935   3.621
 9195TIP3    H227463   4.894   4.008   3.744
 9196TIP3   OH227464   4.793   3.605   3.643
 9196TIP3    H127465   4.749   3.646   3.568
 9196TIP3    H227466   4.766   3.511   3.632
 9197TIP3   OH227467   4.798   3.880   4.188
 9197TIP3    H127468   4.804   3.783   4.184
 9197TIP3    H227469   4.784   3.896   4.284
 9198TIP3   OH227470   3.423   3.949   4.933
 9198TIP3    H127471   3.424   3.923   4.838
 9198TIP3    H227472   3.520   3.955   4.951
 9199TIP3   OH227473   5.085   4.310   5.044
 9199TIP3    H127474   5.161   4.250   5.029
 9199TIP3    H227475   5.086   4.369   4.966
 9200TIP3   OH227476   5.273   4.114   5.064
 9200TIP3    H127477   5.197   4.066   5.103
 9200TIP3    H227478   5.343   4.048   5.078
 9201TIP3   OH227479   4.736   3.339   3.631
 9201TIP3    H127480   4.809   3.308   3.687
 9201TIP3    H227481   4.661   3.281   3.655
 9202TIP3   OH227482   4.792   3.596   4.085
 9202TIP3    H127483   4.833   3.507   4.100
 9202TIP3    H227484   4.850   3.629   4.015
 9203TIP3   OH227485   4.956   3.771   4.578
 9203TIP3    H127486   5.042   3.799   4.539
 9203TIP3    H227487   4.967   3.809   4.668
 9204TIP3   OH227488   5.022   3.913   4.812
 9204TIP3    H127489   4.944   3.948   4.860
 9204TIP3    H227490   5.054   3.995   4.766
 9205TIP3   OH227491   3.640   3.643   5.609
 9205TIP3    H127492   3.737   3.635   5.611
 9205TIP3    H227493   3.615   3.559   5.652
 9206TIP3   OH227494   5.481   3.507   5.368
 9206TIP3    H127495   5.533   3.439   5.322
 9206TIP3    H227496   5.447   3.561   5.293
 9207TIP3   OH227497   4.903   3.345   4.121
 9207TIP3    H127498   4.949   3.329   4.206
 9207TIP3    H227499   4.841   3.269   4.119
 9208TIP3   OH227500   3.601   3.332   4.938
 9208TIP3    H127501   3.664   3.258   4.950
 9208TIP3    H227502   3.662   3.408   4.935
 9209TIP3   OH227503   3.406   3.607   5.014
 9209TIP3    H127504   3.456   3.602   4.930
 9209TIP3    H227505   3.431   3.695   5.046
 9210TIP3   OH227506   5.347   3.645   5.177
 9210TIP3    H127507   5.261   3.686   5.198
 9210TIP3    H227508   5.318   3.576   5.115
 9211TIP3   OH227509   4.985   3.282   3.754
 9211TIP3    H127510   5.023   3.210   3.700
 9211TIP3    H227511   5.051   3.354   3.743
 9212TIP3   OH227512   3.388   3.110   4.515
 9212TIP3    H127513   3.295   3.108   4.541
 9212TIP3    H227514   3.386   3.168   4.436
 9213TIP3   OH227515   4.546   4.812   4.020
 9213TIP3    H127516   4.598   4.797   3.938
 9213TIP3    H227517   4.598   4.880   4.065
 9214TIP3   OH227518   3.608   3.191   5.329
 9214TIP3    H127519   3.558   3.184   5.412
 9214TIP3    H227520   3.540   3.229   5.270
 9215TIP3   OH227521   5.245   3.409   5.049
 9215TIP3    H127522   5.153   3.407   5.017
 9215TIP3    H227523   5.272   3.316   5.036
 9216TIP3   OH227524   4.155   4.911   4.626
 9216TIP3    H127525   4.095   4.949   4.560
 9216TIP3    H227526   4.199   4.989   4.663
 9217TIP3   OH227527   4.606   5.064   4.586
 9217TIP3    H127528   4.614   5.150   4.541
 9217TIP3    H227529   4.627   4.998   4.519
 9218TIP3   OH227530   3.416   4.703   4.717
 9218TIP3    H127531   3.449   4.695   4.807
 9218TIP3    H227532   3.486   4.656   4.667
 9219TIP3   OH227533   3.604   4.570   4.576
 9219TIP3    H127534   3.623   4.485   4.623
 9219TIP3    H227535   3.695   4.607   4.568
 9220TIP3   OH227536   3.866   4.663   4.571
 9220TIP3    H127537   3.903   4.573   4.560
 9220TIP3    H227538   3.913   4.693   4.650
 9221TIP3   OH227539   4.450   3.324   4.669
 9221TIP3    H127540   4.405   3.256   4.722
 9221TIP3    H227541   4.519   3.273   4.623
 9222TIP3   OH227542   4.976   3.204   4.576
 9222TIP3    H127543   5.010   3.256   4.500
 9222TIP3    H227544   4.880   3.220   4.569
 9223TIP3   OH227545   5.069   3.305   4.339
 9223TIP3    H127546   5.142   3.254   4.297
 9223TIP3    H227547   5.101   3.397   4.323
 9224TIP3   OH227548   3.698   3.032   4.686
 9224TIP3    H127549   3.607   2.998   4.687
 9224TIP3    H227550   3.749   2.948   4.684
 9225TIP3   OH227551   3.479   2.902   4.331
 9225TIP3    H127552   3.514   2.959   4.260
 9225TIP3    H227553   3.455   2.966   4.400
 9226TIP3   OH227554   4.140   3.066   4.564
 9226TIP3    H127555   4.201   3.117   4.509
 9226TIP3    H227556   4.159   3.102   4.652
 9227TIP3   OH227557   4.695   3.210   4.550
 9227TIP3    H127558   4.684   3.176   4.460
 9227TIP3    H227559   4.678   3.130   4.604
 9228TIP3   OH227560   4.719   3.132   4.112
 9228TIP3    H127561   4.631   3.174   4.121
 9228TIP3    H227562   4.703   3.048   4.159
 9229TIP3   OH227563   3.203   4.469   4.114
 9229TIP3    H127564   3.117   4.437   4.079
 9229TIP3    H227565   3.190   4.565   4.101
 9230TIP3   OH227566   3.600   3.063   4.097
 9230TIP3    H127567   3.648   2.999   4.042
 9230TIP3    H227568   3.674   3.116   4.134
 9231TIP3   OH227569   4.114   3.235   4.195
 9231TIP3    H127570   4.173   3.188   4.256
 9231TIP3    H227571   4.136   3.328   4.221
 9232TIP3   OH227572   3.973   4.663   3.695
 9232TIP3    H127573   4.062   4.685   3.659
 9232TIP3    H227574   3.951   4.588   3.636
 9233TIP3   OH227575   4.693   4.779   3.787
 9233TIP3    H127576   4.684   4.682   3.774
 9233TIP3    H227577   4.647   4.813   3.707
 9234TIP3   OH227578   3.906   3.314   5.577
 9234TIP3    H127579   3.872   3.243   5.634
 9234TIP3    H227580   4.001   3.315   5.603
 9235TIP3   OH227581   4.155   3.311   5.696
 9235TIP3    H127582   4.239   3.284   5.657
 9235TIP3    H227583   4.141   3.240   5.763
 9236TIP3   OH227584   3.278   4.499   3.754
 9236TIP3    H127585   3.277   4.526   3.847
 9236TIP3    H227586   3.367   4.458   3.744
 9237TIP3   OH227587   4.978   3.370   5.484
 9237TIP3    H127588   4.998   3.340   5.575
 9237TIP3    H227589   5.066   3.365   5.441
 9238TIP3   OH227590   6.184   4.294   3.745
 9238TIP3    H127591   6.158   4.387   3.724
 9238TIP3    H227592   6.107   4.247   3.709
 9239TIP3   OH227593   6.182   4.297   4.123
 9239TIP3    H127594   6.213   4.261   4.207
 9239TIP3    H227595   6.140   4.220   4.082
 9240TIP3   OH227596   5.487   4.184   4.476
 9240TIP3    H127597   5.516   4.122   4.545
 9240TIP3    H227598   5.547   4.258   4.492
 9241TIP3   OH227599   6.426   4.596   3.802
 9241TIP3    H127600   6.416   4.531   3.873
 9241TIP3    H227601   6.454   4.675   3.852
 9242TIP3   OH227602   5.462   4.604   4.221
 9242TIP3    H127603   5.446   4.507   4.224
 9242TIP3    H227604   5.557   4.605   4.200
 9243TIP3   OH227605   5.163   3.807   4.001
 9243TIP3    H127606   5.112   3.889   4.013
 9243TIP3    H227607   5.093   3.750   3.964
 9244TIP3   OH227608   5.225   4.093   4.165
 9244TIP3    H127609   5.271   4.016   4.205
 9244TIP3    H227610   5.280   4.112   4.088
 9245TIP3   OH227611   6.070   5.057   3.817
 9245TIP3    H127612   6.121   4.986   3.773
 9245TIP3    H227613   6.081   5.035   3.910
 9246TIP3   OH227614   5.983   4.522   4.173
 9246TIP3    H127615   6.016   4.445   4.123
 9246TIP3    H227616   6.069   4.566   4.191
 9247TIP3   OH227617   6.994   3.842   4.168
 9247TIP3    H127618   7.022   3.924   4.213
 9247TIP3    H227619   7.015   3.864   4.076
 9248TIP3   OH227620   6.395   4.025   4.206
 9248TIP3    H127621   6.437   3.939   4.225
 9248TIP3    H227622   6.364   4.010   4.114
 9249TIP3   OH227623   5.733   3.683   4.169
 9249TIP3    H127624   5.710   3.755   4.108
 9249TIP3    H227625   5.685   3.609   4.126
 9250TIP3   OH227626   6.426   3.772   3.795
 9250TIP3    H127627   6.501   3.758   3.857
 9250TIP3    H227628   6.474   3.810   3.719
 9251TIP3   OH227629   5.366   3.885   4.276
 9251TIP3    H127630   5.448   3.865   4.324
 9251TIP3    H227631   5.377   3.828   4.197
 9252TIP3   OH227632   5.808   4.083   4.064
 9252TIP3    H127633   5.900   4.056   4.081
 9252TIP3    H227634   5.767   3.999   4.034
 9253TIP3   OH227635   7.067   4.046   4.341
 9253TIP3    H127636   6.986   4.097   4.319
 9253TIP3    H227637   7.085   4.078   4.431
 9254TIP3   OH227638   5.730   3.665   4.604
 9254TIP3    H127639   5.669   3.702   4.537
 9254TIP3    H227640   5.678   3.683   4.685
 9255TIP3   OH227641   6.078   4.516   3.613
 9255TIP3    H127642   6.035   4.495   3.529
 9255TIP3    H227643   6.037   4.602   3.635
 9256TIP3   OH227644   5.837   4.444   4.404
 9256TIP3    H127645   5.771   4.506   4.442
 9256TIP3    H227646   5.871   4.494   4.327
 9257TIP3   OH227647   6.641   3.772   3.964
 9257TIP3    H127648   6.625   3.731   4.050
 9257TIP3    H227649   6.693   3.850   3.987
 9258TIP3   OH227650   5.600   3.781   4.388
 9258TIP3    H127651   5.662   3.854   4.410
 9258TIP3    H227652   5.649   3.740   4.313
 9259TIP3   OH227653   5.656   4.631   4.508
 9259TIP3    H127654   5.615   4.702   4.456
 9259TIP3    H227655   5.578   4.593   4.553
 9260TIP3   OH227656   5.061   4.324   3.733
 9260TIP3    H127657   5.017   4.348   3.650
 9260TIP3    H227658   5.088   4.410   3.769
 9261TIP3   OH227659   6.487   4.831   3.955
 9261TIP3    H127660   6.398   4.829   3.998
 9261TIP3    H227661   6.487   4.922   3.919
 9262TIP3   OH227662   6.788   3.738   4.332
 9262TIP3    H127663   6.701   3.774   4.307
 9262TIP3    H227664   6.847   3.774   4.262
 9263TIP3   OH227665   6.090   3.386   4.320
 9263TIP3    H127666   6.073   3.291   4.335
 9263TIP3    H227667   6.011   3.425   4.363
 9264TIP3   OH227668   6.202   4.886   3.648
 9264TIP3    H127669   6.253   4.805   3.624
 9264TIP3    H227670   6.261   4.954   3.606
 9265TIP3   OH227671   6.344   4.671   3.550
 9265TIP3    H127672   6.304   4.592   3.512
 9265TIP3    H227673   6.378   4.637   3.635
 9266TIP3   OH227674   6.729   4.741   4.329
 9266TIP3    H127675   6.721   4.676   4.256
 9266TIP3    H227676   6.720   4.826   4.280
 9267TIP3   OH227677   6.016   4.147   3.572
 9267TIP3    H127678   5.935   4.198   3.551
 9267TIP3    H227679   6.061   4.146   3.486
 9268TIP3   OH227680   5.975   3.931   3.292
 9268TIP3    H127681   6.044   3.981   3.339
 9268TIP3    H227682   6.032   3.867   3.244
 9269TIP3   OH227683   6.919   4.385   4.160
 9269TIP3    H127684   6.837   4.439   4.164
 9269TIP3    H227685   6.951   4.409   4.070
 9270TIP3   OH227686   6.361   4.229   3.547
 9270TIP3    H127687   6.307   4.256   3.624
 9270TIP3    H227688   6.445   4.204   3.590
 9271TIP3   OH227689   6.599   4.268   4.454
 9271TIP3    H127690   6.600   4.352   4.505
 9271TIP3    H227691   6.513   4.276   4.408
 9272TIP3   OH227692   5.594   4.228   3.961
 9272TIP3    H127693   5.552   4.171   3.893
 9272TIP3    H227694   5.672   4.174   3.987
 9273TIP3   OH227695   5.726   4.636   4.112
 9273TIP3    H127696   5.701   4.598   4.026
 9273TIP3    H227697   5.816   4.602   4.124
 9274TIP3   OH227698   5.749   4.195   4.316
 9274TIP3    H127699   5.768   4.182   4.221
 9274TIP3    H227700   5.777   4.287   4.333
 9275TIP3   OH227701   6.253   4.831   4.085
 9275TIP3    H127702   6.240   4.923   4.120
 9275TIP3    H227703   6.239   4.773   4.162
 9276TIP3   OH227704   5.866   4.736   4.665
 9276TIP3    H127705   5.835   4.827   4.653
 9276TIP3    H227706   5.797   4.689   4.615
 9277TIP3   OH227707   6.207   4.085   3.371
 9277TIP3    H127708   6.263   4.146   3.424
 9277TIP3    H227709   6.231   4.111   3.279
 9278TIP3   OH227710   5.617   4.307   4.724
 9278TIP3    H127711   5.631   4.387   4.780
 9278TIP3    H227712   5.522   4.294   4.739
 9279TIP3   OH227713   5.945   4.769   3.649
 9279TIP3    H127714   6.023   4.825   3.668
 9279TIP3    H227715   5.884   4.832   3.608
 9280TIP3   OH227716   6.720   3.330   3.419
 9280TIP3    H127717   6.638   3.352   3.469
 9280TIP3    H227718   6.733   3.414   3.369
 9281TIP3   OH227719   5.461   4.070   3.767
 9281TIP3    H127720   5.397   4.117   3.709
 9281TIP3    H227721   5.416   3.986   3.779
 9282TIP3   OH227722   6.517   4.697   2.966
 9282TIP3    H127723   6.524   4.794   2.953
 9282TIP3    H227724   6.610   4.669   2.954
 9283TIP3   OH227725   5.291   4.414   4.605
 9283TIP3    H127726   5.198   4.405   4.581
 9283TIP3    H227727   5.300   4.352   4.680
 9284TIP3   OH227728   5.093   4.647   4.306
 9284TIP3    H127729   5.189   4.642   4.306
 9284TIP3    H227730   5.074   4.732   4.347
 9285TIP3   OH227731   5.826   5.014   3.448
 9285TIP3    H127732   5.781   4.996   3.364
 9285TIP3    H227733   5.796   5.104   3.470
 9286TIP3   OH227734   5.265   4.864   3.829
 9286TIP3    H127735   5.311   4.853   3.915
 9286TIP3    H227736   5.203   4.789   3.833
 9287TIP3   OH227737   6.030   4.914   3.089
 9287TIP3    H127738   6.089   4.845   3.052
 9287TIP3    H227739   6.064   4.924   3.180
 9288TIP3   OH227740   6.078   4.962   3.359
 9288TIP3    H127741   5.990   4.972   3.402
 9288TIP3    H227742   6.130   4.924   3.432
 9289TIP3   OH227743   6.855   4.230   4.636
 9289TIP3    H127744   6.774   4.247   4.585
 9289TIP3    H227745   6.866   4.133   4.625
 9290TIP3   OH227746   5.848   3.462   4.443
 9290TIP3    H127747   5.759   3.430   4.419
 9290TIP3    H227748   5.823   3.545   4.489
 9291TIP3   OH227749   6.380   3.575   4.639
 9291TIP3    H127750   6.446   3.551   4.706
 9291TIP3    H227751   6.295   3.557   4.684
 9292TIP3   OH227752   6.622   4.004   4.557
 9292TIP3    H127753   6.574   4.002   4.643
 9292TIP3    H227754   6.598   4.093   4.523
 9293TIP3   OH227755   6.280   4.133   3.114
 9293TIP3    H127756   6.247   4.109   3.025
 9293TIP3    H227757   6.357   4.188   3.091
 9294TIP3   OH227758   5.996   3.509   3.416
 9294TIP3    H127759   5.961   3.509   3.507
 9294TIP3    H227760   5.954   3.427   3.382
 9295TIP3   OH227761   5.781   3.975   4.467
 9295TIP3    H127762   5.726   3.995   4.546
 9295TIP3    H227763   5.765   4.055   4.412
 9296TIP3   OH227764   5.663   3.862   3.978
 9296TIP3    H127765   5.570   3.837   3.995
 9296TIP3    H227766   5.676   3.822   3.889
 9297TIP3   OH227767   6.153   3.949   3.705
 9297TIP3    H127768   6.099   4.020   3.665
 9297TIP3    H227769   6.207   3.921   3.628
 9298TIP3   OH227770   6.326   4.231   4.795
 9298TIP3    H127771   6.307   4.156   4.856
 9298TIP3    H227772   6.421   4.247   4.815
 9299TIP3   OH227773   6.312   3.978   3.946
 9299TIP3    H127774   6.253   4.011   3.875
 9299TIP3    H227775   6.342   3.896   3.903
 9300TIP3   OH227776   5.602   4.005   4.675
 9300TIP3    H127777   5.608   4.072   4.744
 9300TIP3    H227778   5.586   3.924   4.726
 9301TIP3   OH227779   5.650   3.483   3.383
 9301TIP3    H127780   5.639   3.480   3.480
 9301TIP3    H227781   5.570   3.533   3.357
 9302TIP3   OH227782   5.190   3.530   4.253
 9302TIP3    H127783   5.267   3.559   4.305
 9302TIP3    H227784   5.229   3.495   4.172
 9303TIP3   OH227785   5.169   3.511   3.773
 9303TIP3    H127786   5.212   3.551   3.694
 9303TIP3    H227787   5.106   3.582   3.795
 9304TIP3   OH227788   6.319   4.226   4.369
 9304TIP3    H127789   6.354   4.154   4.312
 9304TIP3    H227790   6.293   4.173   4.448
 9305TIP3   OH227791   5.989   3.681   4.041
 9305TIP3    H127792   5.904   3.681   4.089
 9305TIP3    H227793   6.052   3.690   4.114
 9306TIP3   OH227794   5.425   3.740   4.048
 9306TIP3    H127795   5.330   3.749   4.022
 9306TIP3    H227796   5.445   3.648   4.025
 9307TIP3   OH227797   5.697   3.738   3.735
 9307TIP3    H127798   5.790   3.755   3.710
 9307TIP3    H227799   5.647   3.761   3.653
 9308TIP3   OH227800   6.480   3.758   4.239
 9308TIP3    H127801   6.448   3.772   4.331
 9308TIP3    H227802   6.412   3.698   4.205
 9309TIP3   OH227803   5.535   3.768   3.517
 9309TIP3    H127804   5.460   3.726   3.471
 9309TIP3    H227805   5.585   3.804   3.441
 9310TIP3   OH227806   5.639   4.523   4.893
 9310TIP3    H127807   5.702   4.570   4.951
 9310TIP3    H227808   5.570   4.495   4.954
 9311TIP3   OH227809   6.074   4.011   4.138
 9311TIP3    H127810   6.147   3.972   4.087
 9311TIP3    H227811   6.085   3.970   4.226
 9312TIP3   OH227812   5.602   3.500   4.015
 9312TIP3    H127813   5.565   3.420   4.059
 9312TIP3    H227814   5.644   3.462   3.937
 9313TIP3   OH227815   6.051   3.907   4.426
 9313TIP3    H127816   5.960   3.942   4.440
 9313TIP3    H227817   6.107   3.967   4.479
 9314TIP3   OH227818   5.788   4.300   3.523
 9314TIP3    H127819   5.715   4.236   3.512
 9314TIP3    H227820   5.770   4.334   3.614
 9315TIP3   OH227821   6.689   4.532   4.151
 9315TIP3    H127822   6.712   4.582   4.069
 9315TIP3    H227823   6.601   4.495   4.128
 9316TIP3   OH227824   6.246   3.613   3.382
 9316TIP3    H127825   6.149   3.598   3.389
 9316TIP3    H227826   6.256   3.708   3.404
 9317TIP3   OH227827   6.199   4.644   4.533
 9317TIP3    H127828   6.187   4.568   4.592
 9317TIP3    H227829   6.114   4.690   4.542
 9318TIP3   OH227830   6.316   3.859   3.486
 9318TIP3    H127831   6.412   3.867   3.501
 9318TIP3    H227832   6.295   3.938   3.433
 9319TIP3   OH227833   5.486   4.328   4.202
 9319TIP3    H127834   5.518   4.292   4.117
 9319TIP3    H227835   5.505   4.256   4.264
 9320TIP3   OH227836   5.932   4.450   3.343
 9320TIP3    H127837   5.886   4.537   3.349
 9320TIP3    H227838   5.877   4.395   3.403
 9321TIP3   OH227839   5.357   4.243   4.815
 9321TIP3    H127840   5.381   4.231   4.909
 9321TIP3    H227841   5.287   4.176   4.804
 9322TIP3   OH227842   6.081   4.350   4.829
 9322TIP3    H127843   6.018   4.292   4.783
 9322TIP3    H227844   6.167   4.312   4.800
 9323TIP3   OH227845   6.758   3.948   3.323
 9323TIP3    H127846   6.696   3.903   3.262
 9323TIP3    H227847   6.754   4.037   3.282
 9324TIP3   OH227848   6.457   4.768   3.231
 9324TIP3    H127849   6.432   4.698   3.292
 9324TIP3    H227850   6.469   4.722   3.146
 9325TIP3   OH227851   6.449   4.397   4.077
 9325TIP3    H127852   6.356   4.369   4.084
 9325TIP3    H227853   6.487   4.322   4.028
 9326TIP3   OH227854   5.579   4.627   3.828
 9326TIP3    H127855   5.582   4.707   3.772
 9326TIP3    H227856   5.484   4.609   3.828
 9327TIP3   OH227857   5.143   3.930   3.526
 9327TIP3    H127858   5.188   4.015   3.545
 9327TIP3    H227859   5.065   3.937   3.585
 9328TIP3   OH227860   5.721   4.394   3.770
 9328TIP3    H127861   5.686   4.483   3.787
 9328TIP3    H227862   5.681   4.343   3.843
 9329TIP3   OH227863   5.502   4.863   3.678
 9329TIP3    H127864   5.414   4.873   3.720
 9329TIP3    H227865   5.534   4.956   3.679
 9330TIP3   OH227866   6.244   4.610   4.260
 9330TIP3    H127867   6.247   4.597   4.357
 9330TIP3    H227868   6.316   4.554   4.229
 9331TIP3   OH227869   6.210   4.492   3.132
 9331TIP3    H127870   6.262   4.469   3.213
 9331TIP3    H227871   6.120   4.471   3.163
 9332TIP3   OH227872   6.551   4.972   2.954
 9332TIP3    H127873   6.589   5.043   2.899
 9332TIP3    H227874   6.472   5.019   2.987
 9333TIP3   OH227875   5.571   3.748   4.821
 9333TIP3    H127876   5.475   3.755   4.834
 9333TIP3    H227877   5.597   3.685   4.891
 9334TIP3   OH227878   6.370   4.429   3.350
 9334TIP3    H127879   6.361   4.363   3.422
 9334TIP3    H227880   6.467   4.429   3.338
 9335TIP3   OH227881   5.580   4.477   3.132
 9335TIP3    H127882   5.592   4.385   3.102
 9335TIP3    H227883   5.560   4.464   3.227
 9336TIP3   OH227884   5.525   4.482   3.404
 9336TIP3    H127885   5.595   4.456   3.467
 9336TIP3    H227886   5.528   4.580   3.410
 9337TIP3   OH227887   5.262   4.178   3.608
 9337TIP3    H127888   5.195   4.221   3.665
 9337TIP3    H227889   5.274   4.247   3.540
 9338TIP3   OH227890   6.408   3.812   4.498
 9338TIP3    H127891   6.486   3.851   4.540
 9338TIP3    H227892   6.392   3.732   4.553
 9339TIP3   OH227893   6.290   3.564   3.662
 9339TIP3    H127894   6.272   3.589   3.569
 9339TIP3    H227895   6.326   3.648   3.698
 9340TIP3   OH227896   5.789   4.680   3.354
 9340TIP3    H127897   5.702   4.709   3.389
 9340TIP3    H227898   5.807   4.751   3.291
 9341TIP3   OH227899   5.984   3.739   3.767
 9341TIP3    H127900   6.045   3.814   3.748
 9341TIP3    H227901   5.983   3.738   3.864
 9342TIP3   OH227902   6.246   4.063   4.576
 9342TIP3    H127903   6.263   4.117   4.656
 9342TIP3    H227904   6.302   3.985   4.591
 9343TIP3   OH227905   6.127   3.475   3.874
 9343TIP3    H127906   6.109   3.555   3.927
 9343TIP3    H227907   6.183   3.513   3.803
 9344TIP3   OH227908   5.530   4.754   3.420
 9344TIP3    H127909   5.501   4.823   3.356
 9344TIP3    H227910   5.515   4.800   3.506
 9345TIP3   OH227911   5.633   3.467   3.661
 9345TIP3    H127912   5.629   3.558   3.694
 9345TIP3    H227913   5.730   3.451   3.668
 9346TIP3   OH227914   6.888   3.960   4.557
 9346TIP3    H127915   6.790   3.959   4.563
 9346TIP3    H227916   6.901   3.931   4.465
 9347TIP3   OH227917   6.538   4.157   3.945
 9347TIP3    H127918   6.463   4.097   3.956
 9347TIP3    H227919   6.610   4.111   3.992
 9348TIP3   OH227920   5.249   4.387   3.416
 9348TIP3    H127921   5.310   4.463   3.422
 9348TIP3    H227922   5.296   4.335   3.347
 9349TIP3   OH227923   5.197   3.661   3.546
 9349TIP3    H127924   5.193   3.759   3.542
 9349TIP3    H227925   5.112   3.636   3.507
 9350TIP3   OH227926   6.511   5.100   3.885
 9350TIP3    H127927   6.465   5.152   3.816
 9350TIP3    H227928   6.604   5.123   3.865
 9351TIP3   OH227929   5.585   3.381   4.421
 9351TIP3    H127930   5.551   3.349   4.335
 9351TIP3    H227931   5.572   3.303   4.479
 9352TIP3   OH227932   5.124   4.601   3.805
 9352TIP3    H127933   5.047   4.631   3.856
 9352TIP3    H227934   5.103   4.639   3.717
 9353TIP3   OH227935   5.742   4.682   3.047
 9353TIP3    H127936   5.685   4.611   3.084
 9353TIP3    H227937   5.816   4.630   3.013
 9354TIP3   OH227938   6.178   4.723   2.956
 9354TIP3    H127939   6.227   4.662   3.013
 9354TIP3    H227940   6.233   4.727   2.875
 9355TIP3   OH227941   5.385   4.200   3.264
 9355TIP3    H127942   5.439   4.166   3.337
 9355TIP3    H227943   5.453   4.204   3.193
 9356TIP3   OH227944   6.047   4.617   4.846
 9356TIP3    H127945   5.984   4.643   4.774
 9356TIP3    H227946   6.050   4.519   4.835
 9357TIP3   OH227947   5.894   4.396   3.072
 9357TIP3    H127948   5.895   4.410   3.169
 9357TIP3    H227949   5.891   4.298   3.068
 9358TIP3   OH227950   6.512   4.629   4.457
 9358TIP3    H127951   6.587   4.675   4.413
 9358TIP3    H227952   6.438   4.686   4.437
 9359TIP3   OH227953   5.538   4.271   5.045
 9359TIP3    H127954   5.610   4.207   5.052
 9359TIP3    H227955   5.540   4.311   5.134
 9360TIP3   OH227956   5.598   4.100   3.491
 9360TIP3    H127957   5.566   4.058   3.573
 9360TIP3    H227958   5.630   4.024   3.439
 9361TIP3   OH227959   5.868   4.175   4.723
 9361TIP3    H127960   5.782   4.223   4.723
 9361TIP3    H227961   5.906   4.202   4.637
 9362TIP3   OH227962   5.693   3.892   3.330
 9362TIP3    H127963   5.665   3.895   3.236
 9362TIP3    H227964   5.790   3.902   3.321
 9363TIP3   OH227965   6.520   4.226   2.989
 9363TIP3    H127966   6.495   4.180   2.907
 9363TIP3    H227967   6.488   4.317   2.966
 9364TIP3   OH227968   5.987   3.953   4.843
 9364TIP3    H127969   5.984   3.873   4.788
 9364TIP3    H227970   5.942   4.019   4.786
 9365TIP3   OH227971   5.989   3.738   4.649
 9365TIP3    H127972   6.014   3.780   4.564
 9365TIP3    H227973   5.894   3.716   4.632
 9366TIP3   OH227974   6.027   4.291   4.525
 9366TIP3    H127975   6.097   4.278   4.459
 9366TIP3    H227976   5.963   4.347   4.477
 9367TIP3   OH227977   6.596   4.245   4.907
 9367TIP3    H127978   6.646   4.163   4.918
 9367TIP3    H227979   6.663   4.305   4.869
 9368TIP3   OH227980   6.648   4.486   4.640
 9368TIP3    H127981   6.588   4.542   4.585
 9368TIP3    H227982   6.734   4.513   4.601
 9369TIP3   OH227983   5.865   4.068   5.072
 9369TIP3    H127984   5.795   4.002   5.087
 9369TIP3    H227985   5.898   4.041   4.984
 9370TIP3   OH227986   6.121   3.504   4.714
 9370TIP3    H127987   6.072   3.587   4.693
 9370TIP3    H227988   6.049   3.437   4.704
 9371TIP3   OH227989   6.246   4.012   4.933
 9371TIP3    H127990   6.235   3.998   5.029
 9371TIP3    H227991   6.156   3.986   4.903
 9372TIP3   OH227992   6.486   3.957   4.787
 9372TIP3    H127993   6.410   3.960   4.849
 9372TIP3    H227994   6.559   3.927   4.845
 9373TIP3   OH227995   6.716   3.897   4.940
 9373TIP3    H127996   6.727   3.802   4.960
 9373TIP3    H227997   6.711   3.938   5.029
 9374TIP3   OH227998   5.704   3.849   5.124
 9374TIP3    H127999   5.709   3.758   5.088
 9374TIP3    H228000   5.738   3.834   5.215
 9375TIP3   OH228001   6.216   3.514   4.972
 9375TIP3    H128002   6.284   3.443   4.967
 9375TIP3    H228003   6.175   3.507   4.883
 9376TIP3   OH228004   6.281   3.728   5.133
 9376TIP3    H128005   6.257   3.658   5.068
 9376TIP3    H228006   6.203   3.788   5.126
 9377TIP3   OH228007   5.500   4.955   3.232
 9377TIP3    H128008   5.596   4.956   3.213
 9377TIP3    H228009   5.468   5.004   3.155
 9378TIP3   OH228010   4.981   4.338   3.451
 9378TIP3    H128011   5.076   4.360   3.437
 9378TIP3    H228012   4.976   4.250   3.408
 9379TIP3   OH228013   4.895   4.951   3.860
 9379TIP3    H128014   4.826   4.890   3.826
 9379TIP3    H228015   4.938   4.894   3.927
 9380TIP3   OH228016   5.029   4.805   4.048
 9380TIP3    H128017   5.017   4.729   4.106
 9380TIP3    H228018   5.084   4.863   4.103
 9381TIP3   OH228019   6.761   5.204   3.832
 9381TIP3    H128020   6.767   5.275   3.897
 9381TIP3    H228021   6.809   5.244   3.758
 9382TIP3   OH228022   6.846   4.901   4.710
 9382TIP3    H128023   6.761   4.921   4.750
 9382TIP3    H228024   6.884   4.990   4.701
 9383TIP3   OH228025   6.651   4.413   3.324
 9383TIP3    H128026   6.719   4.478   3.297
 9383TIP3    H228027   6.693   4.374   3.403
 9384TIP3   OH228028   6.778   4.280   3.526
 9384TIP3    H128029   6.713   4.240   3.587
 9384TIP3    H228030   6.843   4.321   3.588
 9385TIP3   OH228031   6.816   4.661   3.951
 9385TIP3    H128032   6.879   4.609   3.900
 9385TIP3    H228033   6.814   4.746   3.901
 9386TIP3   OH228034   6.653   4.937   4.154
 9386TIP3    H128035   6.603   5.012   4.188
 9386TIP3    H228036   6.596   4.905   4.081
 9387TIP3   OH228037   6.716   4.187   3.176
 9387TIP3    H128038   6.645   4.192   3.108
 9387TIP3    H228039   6.691   4.264   3.231
 9388TIP3   OH228040   6.590   3.860   3.130
 9388TIP3    H128041   6.546   3.906   3.058
 9388TIP3    H228042   6.561   3.767   3.115
 9389TIP3   OH228043   6.592   4.137   3.675
 9389TIP3    H128044   6.601   4.040   3.672
 9389TIP3    H228045   6.580   4.154   3.771
 9390TIP3   OH228046   5.215   4.198   4.419
 9390TIP3    H128047   5.217   4.174   4.324
 9390TIP3    H228048   5.310   4.212   4.437
 9391TIP3   OH228049   6.881   4.568   4.530
 9391TIP3    H128050   6.959   4.510   4.512
 9391TIP3    H228051   6.878   4.628   4.454
 9392TIP3   OH228052   7.069   4.372   4.552
 9392TIP3    H128053   6.993   4.323   4.590
 9392TIP3    H228054   7.140   4.305   4.564
 9393TIP3   OH228055   6.533   3.594   3.115
 9393TIP3    H128056   6.606   3.565   3.172
 9393TIP3    H228057   6.458   3.538   3.142
 9394TIP3   OH228058   6.588   3.853   3.572
 9394TIP3    H128059   6.630   3.765   3.585
 9394TIP3    H228060   6.646   3.889   3.502
 9395TIP3   OH228061   6.752   4.027   4.065
 9395TIP3    H128062   6.838   4.055   4.025
 9395TIP3    H228063   6.764   4.066   4.154
 9396TIP3   OH228064   6.818   4.170   4.298
 9396TIP3    H128065   6.740   4.206   4.346
 9396TIP3    H228066   6.851   4.250   4.252
 9397TIP3   OH228067   5.436   3.898   5.096
 9397TIP3    H128068   5.534   3.890   5.097
 9397TIP3    H228069   5.411   3.814   5.139
 9398TIP3   OH228070   7.274   3.763   4.855
 9398TIP3    H128071   7.329   3.695   4.810
 9398TIP3    H228072   7.244   3.818   4.780
 9399TIP3   OH228073   6.699   3.603   3.607
 9399TIP3    H128074   6.747   3.588   3.691
 9399TIP3    H228075   6.637   3.527   3.606
 9400TIP3   OH228076   5.399   3.588   4.425
 9400TIP3    H128077   5.463   3.515   4.437
 9400TIP3    H228078   5.459   3.665   4.422
 9401TIP3   OH228079   5.204   3.863   4.503
 9401TIP3    H128080   5.251   3.857   4.417
 9401TIP3    H228081   5.224   3.954   4.529
 9402TIP3   OH228082   7.144   3.902   4.663
 9402TIP3    H128083   7.057   3.942   4.685
 9402TIP3    H228084   7.115   3.833   4.601
 9403TIP3   OH228085   6.781   3.539   3.241
 9403TIP3    H128086   6.822   3.468   3.188
 9403TIP3    H228087   6.846   3.611   3.233
 9404TIP3   OH228088   5.184   3.371   4.004
 9404TIP3    H128089   5.089   3.365   4.027
 9404TIP3    H228090   5.182   3.426   3.923
 9405TIP3   OH228091   6.343   5.068   3.507
 9405TIP3    H128092   6.394   5.054   3.425
 9405TIP3    H228093   6.393   5.138   3.552
 9406TIP3   OH228094   5.404   3.446   4.816
 9406TIP3    H128095   5.354   3.441   4.899
 9406TIP3    H228096   5.338   3.486   4.756
 9407TIP3   OH228097   7.041   3.666   4.537
 9407TIP3    H128098   6.950   3.664   4.504
 9407TIP3    H228099   7.069   3.573   4.524
 9408TIP3   OH228100   5.959   5.194   4.099
 9408TIP3    H128101   5.885   5.205   4.037
 9408TIP3    H228102   5.971   5.285   4.134
 9409TIP3   OH228103   6.222   5.097   4.131
 9409TIP3    H128104   6.139   5.147   4.118
 9409TIP3    H228105   6.289   5.167   4.144
 9410TIP3   OH228106   6.426   5.312   4.073
 9410TIP3    H128107   6.430   5.400   4.031
 9410TIP3    H228108   6.454   5.251   4.003
 9411TIP3   OH228109   5.207   4.956   4.202
 9411TIP3    H128110   5.244   4.963   4.291
 9411TIP3    H228111   5.281   4.913   4.153
 9412TIP3   OH228112   5.401   4.827   4.064
 9412TIP3    H128113   5.421   4.742   4.111
 9412TIP3    H228114   5.491   4.865   4.052
 9413TIP3   OH228115   5.662   4.920   4.057
 9413TIP3    H128116   5.701   4.833   4.042
 9413TIP3    H228117   5.700   4.944   4.142
 9414TIP3   OH228118   6.250   3.583   4.163
 9414TIP3    H128119   6.200   3.516   4.213
 9414TIP3    H228120   6.310   3.529   4.109
 9415TIP3   OH228121   6.771   3.453   4.058
 9415TIP3    H128122   6.808   3.510   3.987
 9415TIP3    H228123   6.676   3.479   4.056
 9416TIP3   OH228124   6.864   3.559   3.824
 9416TIP3    H128125   6.938   3.510   3.782
 9416TIP3    H228126   6.896   3.651   3.811
 9417TIP3   OH228127   5.495   3.289   4.173
 9417TIP3    H128128   5.403   3.256   4.173
 9417TIP3    H228129   5.544   3.204   4.170
 9418TIP3   OH228130   5.284   3.157   3.820
 9418TIP3    H128131   5.310   3.216   3.747
 9418TIP3    H228132   5.250   3.221   3.886
 9419TIP3   OH228133   5.941   3.319   4.051
 9419TIP3    H128134   5.998   3.376   3.997
 9419TIP3    H228135   5.948   3.360   4.138
 9420TIP3   OH228136   6.493   3.462   4.037
 9420TIP3    H128137   6.465   3.441   3.947
 9420TIP3    H228138   6.471   3.379   4.086
 9421TIP3   OH228139   6.515   3.390   3.600
 9421TIP3    H128140   6.429   3.436   3.608
 9421TIP3    H228141   6.494   3.305   3.644
 9422TIP3   OH228142   4.999   4.727   3.602
 9422TIP3    H128143   4.914   4.694   3.566
 9422TIP3    H228144   4.986   4.822   3.586
 9423TIP3   OH228145   5.396   3.318   3.584
 9423TIP3    H128146   5.445   3.256   3.527
 9423TIP3    H228147   5.468   3.372   3.621
 9424TIP3   OH228148   5.911   3.491   3.682
 9424TIP3    H128149   5.968   3.444   3.744
 9424TIP3    H228150   5.932   3.584   3.707
 9425TIP3   OH228151   5.770   4.920   3.182
 9425TIP3    H128152   5.858   4.942   3.146
 9425TIP3    H228153   5.748   4.845   3.123
 9426TIP3   OH228154   6.488   5.036   3.274
 9426TIP3    H128155   6.479   4.938   3.260
 9426TIP3    H228156   6.444   5.070   3.194
 9427TIP3   OH228157   5.702   3.572   5.064
 9427TIP3    H128158   5.668   3.501   5.121
 9427TIP3    H228159   5.797   3.572   5.091
 9428TIP3   OH228160   5.951   3.567   5.183
 9428TIP3    H128161   6.035   3.540   5.143
 9428TIP3    H228162   5.937   3.496   5.249
 9429TIP3   OH228163   5.073   4.755   3.240
 9429TIP3    H128164   5.072   4.785   3.332
 9429TIP3    H228165   5.163   4.715   3.232
 9430TIP3   OH228166   6.774   3.626   4.971
 9430TIP3    H128167   6.795   3.596   5.062
 9430TIP3    H228168   6.863   3.622   4.929
 9431TIP3   OH228169   7.980   4.551   3.232
 9431TIP3    H128170   7.954   4.643   3.212
 9431TIP3    H228171   7.903   4.503   3.196
 9432TIP3   OH228172   7.977   4.554   3.610
 9432TIP3    H128173   8.008   4.520   3.695
 9432TIP3    H228174   7.938   4.475   3.569
 9433TIP3   OH228175   7.282   4.442   3.967
 9433TIP3    H128176   7.313   4.379   4.034
 9433TIP3    H228177   7.353   4.507   3.968
 9434TIP3   OH228178   8.221   4.852   3.291
 9434TIP3    H128179   8.212   4.784   3.358
 9434TIP3    H228180   8.252   4.928   3.343
 9435TIP3   OH228181   7.261   4.860   3.712
 9435TIP3    H128182   7.244   4.763   3.713
 9435TIP3    H228183   7.354   4.860   3.683
 9436TIP3   OH228184   6.957   4.060   3.488
 9436TIP3    H128185   6.911   4.145   3.502
 9436TIP3    H228186   6.885   4.008   3.448
 9437TIP3   OH228187   7.019   4.347   3.648
 9437TIP3    H128188   7.068   4.272   3.691
 9437TIP3    H228189   7.081   4.374   3.579
 9438TIP3   OH228190   7.868   5.314   3.305
 9438TIP3    H128191   7.917   5.244   3.257
 9438TIP3    H228192   7.869   5.280   3.395
 9439TIP3   OH228193   7.778   4.777   3.660
 9439TIP3    H128194   7.814   4.701   3.611
 9439TIP3    H228195   7.863   4.821   3.682
 9440TIP3   OH228196   8.787   4.099   3.653
 9440TIP3    H128197   8.818   4.180   3.698
 9440TIP3    H228198   8.816   4.115   3.562
 9441TIP3   OH228199   8.188   4.281   3.693
 9441TIP3    H128200   8.234   4.196   3.712
 9441TIP3    H228201   8.161   4.266   3.601
 9442TIP3   OH228202   7.526   3.939   3.658
 9442TIP3    H128203   7.508   4.012   3.595
 9442TIP3    H228204   7.479   3.866   3.612
 9443TIP3   OH228205   8.221   4.030   3.280
 9443TIP3    H128206   8.294   4.014   3.344
 9443TIP3    H228207   8.272   4.065   3.205
 9444TIP3   OH228208   7.161   4.141   3.763
 9444TIP3    H128209   7.245   4.123   3.810
 9444TIP3    H228210   7.175   4.086   3.683
 9445TIP3   OH228211   7.604   4.340   3.554
 9445TIP3    H128212   7.698   4.313   3.568
 9445TIP3    H228213   7.565   4.255   3.522
 9446TIP3   OH228214   8.862   4.301   3.828
 9446TIP3    H128215   8.781   4.353   3.808
 9446TIP3    H228216   8.884   4.334   3.916
 9447TIP3   OH228217   7.525   3.922   4.091
 9447TIP3    H128218   7.466   3.960   4.022
 9447TIP3    H228219   7.473   3.942   4.171
 9448TIP3   OH228220   7.871   4.771   3.102
 9448TIP3    H128221   7.833   4.752   3.015
 9448TIP3    H228222   7.831   4.858   3.123
 9449TIP3   OH228223   7.631   4.701   3.890
 9449TIP3    H128224   7.572   4.769   3.929
 9449TIP3    H228225   7.673   4.750   3.817
 9450TIP3   OH228226   8.433   4.032   3.449
 9450TIP3    H128227   8.433   3.980   3.531
 9450TIP3    H228228   8.491   4.106   3.473
 9451TIP3   OH228229   7.395   4.037   3.876
 9451TIP3    H128230   7.457   4.111   3.897
 9451TIP3    H228231   7.444   3.997   3.800
 9452TIP3   OH228232   7.452   4.895   3.989
 9452TIP3    H128233   7.411   4.944   3.916
 9452TIP3    H228234   7.375   4.859   4.034
 9453TIP3   OH228235   6.856   4.580   3.220
 9453TIP3    H128236   6.814   4.606   3.136
 9453TIP3    H228237   6.884   4.667   3.256
 9454TIP3   OH228238   8.293   5.095   3.461
 9454TIP3    H128239   8.202   5.089   3.496
 9454TIP3    H228240   8.289   5.181   3.414
 9455TIP3   OH228241   8.584   3.997   3.821
 9455TIP3    H128242   8.498   4.030   3.791
 9455TIP3    H228243   8.644   4.030   3.750
 9456TIP3   OH228244   7.883   3.643   3.801
 9456TIP3    H128245   7.873   3.548   3.819
 9456TIP3    H228246   7.806   3.680   3.849
 9457TIP3   OH228247   7.998   5.143   3.136
 9457TIP3    H128248   8.047   5.062   3.112
 9457TIP3    H228249   8.057   5.210   3.093
 9458TIP3   OH228250   8.137   4.928   3.038
 9458TIP3    H128251   8.107   4.848   2.993
 9458TIP3    H228252   8.172   4.892   3.123
 9459TIP3   OH228253   8.519   5.010   3.804
 9459TIP3    H128254   8.512   4.934   3.743
 9459TIP3    H228255   8.504   5.086   3.744
 9460TIP3   OH228256   7.812   4.404   3.059
 9460TIP3    H128257   7.732   4.456   3.036
 9460TIP3    H228258   7.859   4.402   2.974
 9461TIP3   OH228259   7.771   4.187   2.779
 9461TIP3    H128260   7.839   4.237   2.827
 9461TIP3    H228261   7.828   4.124   2.730
 9462TIP3   OH228262   8.715   4.644   3.646
 9462TIP3    H128263   8.634   4.699   3.651
 9462TIP3    H228264   8.746   4.667   3.556
 9463TIP3   OH228265   8.157   4.485   3.033
 9463TIP3    H128266   8.104   4.511   3.112
 9463TIP3    H228267   8.242   4.459   3.076
 9464TIP3   OH228268   8.395   4.526   3.942
 9464TIP3    H128269   8.393   4.611   3.991
 9464TIP3    H228270   8.309   4.531   3.895
 9465TIP3   OH228271   7.390   4.484   3.449
 9465TIP3    H128272   7.349   4.427   3.380
 9465TIP3    H228273   7.469   4.432   3.475
 9466TIP3   OH228274   7.518   4.889   3.600
 9466TIP3    H128275   7.499   4.854   3.512
 9466TIP3    H228276   7.610   4.858   3.615
 9467TIP3   OH228277   7.535   4.455   3.803
 9467TIP3    H128278   7.564   4.437   3.711
 9467TIP3    H228279   7.574   4.543   3.822
 9468TIP3   OH228280   8.049   5.094   3.578
 9468TIP3    H128281   8.039   5.175   3.631
 9468TIP3    H228282   8.039   5.022   3.643
 9469TIP3   OH228283   8.001   4.344   2.857
 9469TIP3    H128284   8.059   4.402   2.910
 9469TIP3    H228285   8.027   4.369   2.765
 9470TIP3   OH228286   7.413   4.564   4.216
 9470TIP3    H128287   7.419   4.628   4.288
 9470TIP3    H228288   7.317   4.545   4.219
 9471TIP3   OH228289   7.740   5.027   3.136
 9471TIP3    H128290   7.820   5.081   3.153
 9471TIP3    H228291   7.681   5.091   3.093
 9472TIP3   OH228292   8.515   3.586   2.904
 9472TIP3    H128293   8.435   3.607   2.957
 9472TIP3    H228294   8.528   3.670   2.855
 9473TIP3   OH228295   7.257   4.327   3.254
 9473TIP3    H128296   7.194   4.374   3.196
 9473TIP3    H228297   7.213   4.242   3.265
 9474TIP3   OH228298   8.314   4.954   2.454
 9474TIP3    H128299   8.322   5.051   2.439
 9474TIP3    H228300   8.407   4.925   2.441
 9475TIP3   OH228301   7.061   4.667   4.088
 9475TIP3    H128302   6.966   4.660   4.069
 9475TIP3    H228303   7.075   4.607   4.163
 9476TIP3   OH228304   6.890   4.899   3.803
 9476TIP3    H128305   6.985   4.902   3.789
 9476TIP3    H228306   6.866   4.989   3.828
 9477TIP3   OH228307   8.759   5.354   3.850
 9477TIP3    H128308   8.756   5.257   3.860
 9477TIP3    H228309   8.674   5.379   3.893
 9478TIP3   OH228310   7.878   5.144   3.981
 9478TIP3    H128311   7.882   5.238   4.008
 9478TIP3    H228312   7.823   5.106   4.050
 9479TIP3   OH228313   7.622   5.269   2.936
 9479TIP3    H128314   7.579   5.252   2.850
 9479TIP3    H228315   7.592   5.360   2.957
 9480TIP3   OH228316   7.061   5.120   3.316
 9480TIP3    H128317   7.109   5.110   3.401
 9480TIP3    H228318   6.998   5.047   3.322
 9481TIP3   OH228319   7.826   5.170   2.575
 9481TIP3    H128320   7.885   5.101   2.539
 9481TIP3    H228321   7.861   5.180   2.666
 9482TIP3   OH228322   7.874   5.219   2.846
 9482TIP3    H128323   7.787   5.228   2.889
 9482TIP3    H228324   7.927   5.180   2.917
 9483TIP3   OH228325   8.646   4.486   4.124
 9483TIP3    H128326   8.570   4.499   4.066
 9483TIP3    H228327   8.663   4.390   4.112
 9484TIP3   OH228328   7.644   3.717   3.932
 9484TIP3    H128329   7.554   3.687   3.908
 9484TIP3    H228330   7.621   3.802   3.974
 9485TIP3   OH228331   8.177   3.833   4.126
 9485TIP3    H128332   8.246   3.806   4.190
 9485TIP3    H228333   8.094   3.812   4.173
 9486TIP3   OH228334   8.415   4.260   4.041
 9486TIP3    H128335   8.369   4.258   4.128
 9486TIP3    H228336   8.394   4.349   4.008
 9487TIP3   OH228337   8.074   4.393   2.601
 9487TIP3    H128338   8.044   4.366   2.512
 9487TIP3    H228339   8.155   4.442   2.578
 9488TIP3   OH228340   7.788   3.769   2.902
 9488TIP3    H128341   7.757   3.767   2.995
 9488TIP3    H228342   7.752   3.684   2.871
 9489TIP3   OH228343   7.574   4.232   3.951
 9489TIP3    H128344   7.523   4.254   4.032
 9489TIP3    H228345   7.560   4.313   3.897
 9490TIP3   OH228346   7.460   4.118   3.465
 9490TIP3    H128347   7.366   4.094   3.481
 9490TIP3    H228348   7.473   4.079   3.376
 9491TIP3   OH228349   7.949   4.204   3.191
 9491TIP3    H128350   7.895   4.276   3.150
 9491TIP3    H228351   8.004   4.177   3.115
 9492TIP3   OH228352   8.124   4.486   4.280
 9492TIP3    H128353   8.103   4.412   4.340
 9492TIP3    H228354   8.219   4.499   4.299
 9493TIP3   OH228355   8.107   4.235   3.433
 9493TIP3    H128356   8.049   4.266   3.360
 9493TIP3    H228357   8.139   4.152   3.391
 9494TIP3   OH228358   7.396   4.262   4.161
 9494TIP3    H128359   7.412   4.327   4.231
 9494TIP3    H228360   7.382   4.180   4.212
 9495TIP3   OH228361   7.442   3.737   2.870
 9495TIP3    H128362   7.437   3.736   2.967
 9495TIP3    H228363   7.365   3.792   2.847
 9496TIP3   OH228364   6.987   3.783   3.742
 9496TIP3    H128365   7.062   3.817   3.795
 9496TIP3    H228366   7.029   3.756   3.659
 9497TIP3   OH228367   6.963   3.766   3.260
 9497TIP3    H128368   7.008   3.806   3.182
 9497TIP3    H228369   6.902   3.839   3.283
 9498TIP3   OH228370   8.115   4.481   3.857
 9498TIP3    H128371   8.149   4.409   3.798
 9498TIP3    H228372   8.088   4.429   3.935
 9499TIP3   OH228373   7.783   3.941   3.527
 9499TIP3    H128374   7.702   3.940   3.581
 9499TIP3    H228375   7.853   3.943   3.595
 9500TIP3   OH228376   7.220   3.996   3.536
 9500TIP3    H128377   7.126   4.004   3.509
 9500TIP3    H228378   7.244   3.906   3.510
 9501TIP3   OH228379   7.492   3.993   3.222
 9501TIP3    H128380   7.586   4.009   3.203
 9501TIP3    H228381   7.446   4.018   3.139
 9502TIP3   OH228382   8.278   4.018   3.730
 9502TIP3    H128383   8.240   4.029   3.820
 9502TIP3    H228384   8.215   3.956   3.690
 9503TIP3   OH228385   7.329   4.025   3.002
 9503TIP3    H128386   7.257   3.983   2.952
 9503TIP3    H228387   7.382   4.062   2.928
 9504TIP3   OH228388   8.446   5.706   3.946
 9504TIP3    H128389   8.445   5.729   3.851
 9504TIP3    H228390   8.525   5.754   3.977
 9505TIP3   OH228391   7.870   4.267   3.622
 9505TIP3    H128392   7.943   4.231   3.570
 9505TIP3    H228393   7.885   4.226   3.709
 9506TIP3   OH228394   7.394   3.759   3.499
 9506TIP3    H128395   7.364   3.677   3.543
 9506TIP3    H228396   7.448   3.725   3.426
 9507TIP3   OH228397   7.846   4.160   3.919
 9507TIP3    H128398   7.757   4.201   3.928
 9507TIP3    H228399   7.904   4.223   3.966
 9508TIP3   OH228400   7.583   4.557   3.009
 9508TIP3    H128401   7.510   4.493   2.998
 9508TIP3    H228402   7.566   4.591   3.100
 9509TIP3   OH228403   8.484   4.794   3.639
 9509TIP3    H128404   8.510   4.842   3.557
 9509TIP3    H228405   8.399   4.753   3.613
 9510TIP3   OH228406   8.042   3.870   2.869
 9510TIP3    H128407   7.945   3.857   2.876
 9510TIP3    H228408   8.054   3.965   2.891
 9511TIP3   OH228409   7.966   4.867   4.016
 9511TIP3    H128410   8.017   4.850   4.097
 9511TIP3    H228411   7.969   4.964   4.009
 9512TIP3   OH228412   8.112   4.116   2.972
 9512TIP3    H128413   8.208   4.122   2.988
 9512TIP3    H228414   8.094   4.195   2.918
 9513TIP3   OH228415   7.277   4.581   3.687
 9513TIP3    H128416   7.314   4.550   3.602
 9513TIP3    H228417   7.307   4.513   3.748
 9514TIP3   OH228418   7.728   4.707   2.828
 9514TIP3    H128419   7.682   4.793   2.835
 9514TIP3    H228420   7.674   4.652   2.889
 9515TIP3   OH228421   7.153   4.501   4.299
 9515TIP3    H128422   7.179   4.491   4.393
 9515TIP3    H228423   7.084   4.433   4.289
 9516TIP3   OH228424   7.881   4.609   4.322
 9516TIP3    H128425   7.823   4.554   4.268
 9516TIP3    H228426   7.969   4.578   4.292
 9517TIP3   OH228427   8.146   5.122   3.908
 9517TIP3    H128428   8.050   5.136   3.909
 9517TIP3    H228429   8.175   5.182   3.980
 9518TIP3   OH228430   8.553   4.205   2.811
 9518TIP3    H128431   8.490   4.160   2.750
 9518TIP3    H228432   8.551   4.293   2.768
 9519TIP3   OH228433   8.770   5.062   3.893
 9519TIP3    H128434   8.673   5.057   3.883
 9519TIP3    H228435   8.797   5.033   3.803
 9520TIP3   OH228436   8.249   5.025   2.716
 9520TIP3    H128437   8.231   4.953   2.777
 9520TIP3    H228438   8.266   4.980   2.632
 9521TIP3   OH228439   8.248   4.655   3.561
 9521TIP3    H128440   8.154   4.628   3.571
 9521TIP3    H228441   8.284   4.577   3.515
 9522TIP3   OH228442   7.375   4.883   3.315
 9522TIP3    H128443   7.381   4.963   3.259
 9522TIP3    H228444   7.280   4.867   3.313
 9523TIP3   OH228445   6.939   4.187   3.011
 9523TIP3    H128446   6.985   4.271   3.030
 9523TIP3    H228447   6.861   4.194   3.071
 9524TIP3   OH228448   7.516   4.649   3.256
 9524TIP3    H128449   7.482   4.740   3.273
 9524TIP3    H228450   7.478   4.600   3.331
 9525TIP3   OH228451   7.658   5.240   3.815
 9525TIP3    H128452   7.677   5.305   3.744
 9525TIP3    H228453   7.742   5.191   3.818
 9526TIP3   OH228454   7.298   5.119   3.165
 9526TIP3    H128455   7.211   5.130   3.207
 9526TIP3    H228456   7.330   5.212   3.166
 9527TIP3   OH228457   8.035   4.862   3.739
 9527TIP3    H128458   8.028   4.850   3.836
 9527TIP3    H228459   8.114   4.810   3.718
 9528TIP3   OH228460   8.006   4.749   2.621
 9528TIP3    H128461   8.059   4.727   2.700
 9528TIP3    H228462   7.917   4.727   2.652
 9529TIP3   OH228463   8.281   5.396   3.788
 9529TIP3    H128464   8.201   5.344   3.772
 9529TIP3    H228465   8.272   5.464   3.717
 9530TIP3   OH228466   8.347   5.229   2.440
 9530TIP3    H128467   8.387   5.300   2.388
 9530TIP3    H228468   8.267   5.276   2.472
 9531TIP3   OH228469   7.368   4.005   4.308
 9531TIP3    H128470   7.271   4.011   4.322
 9531TIP3    H228471   7.394   3.942   4.378
 9532TIP3   OH228472   8.166   4.689   2.840
 9532TIP3    H128473   8.158   4.620   2.909
 9532TIP3    H228474   8.263   4.687   2.825
 9533TIP3   OH228475   7.375   4.734   2.619
 9533TIP3    H128476   7.390   4.642   2.589
 9533TIP3    H228477   7.356   4.721   2.714
 9534TIP3   OH228478   7.321   4.738   2.892
 9534TIP3    H128479   7.393   4.713   2.952
 9534TIP3    H228480   7.324   4.836   2.897
 9535TIP3   OH228481   7.057   4.433   3.094
 9535TIP3    H128482   6.991   4.478   3.151
 9535TIP3    H228483   7.071   4.502   3.027
 9536TIP3   OH228484   8.199   4.072   3.989
 9536TIP3    H128485   8.283   4.109   4.022
 9536TIP3    H228486   8.189   3.990   4.042
 9537TIP3   OH228487   8.081   3.823   3.150
 9537TIP3    H128488   8.069   3.847   3.056
 9537TIP3    H228489   8.122   3.904   3.186
 9538TIP3   OH228490   7.584   4.936   2.841
 9538TIP3    H128491   7.498   4.966   2.875
 9538TIP3    H228492   7.604   5.007   2.778
 9539TIP3   OH228493   7.774   3.999   3.253
 9539TIP3    H128494   7.839   4.069   3.234
 9539TIP3    H228495   7.780   3.993   3.350
 9540TIP3   OH228496   8.041   4.319   4.064
 9540TIP3    H128497   8.063   4.372   4.143
 9540TIP3    H228498   8.099   4.241   4.073
 9541TIP3   OH228499   7.919   3.729   3.357
 9541TIP3    H128500   7.914   3.805   3.418
 9541TIP3    H228501   7.979   3.766   3.288
 9542TIP3   OH228502   7.326   5.011   2.907
 9542TIP3    H128503   7.297   5.080   2.843
 9542TIP3    H228504   7.311   5.057   2.992
 9543TIP3   OH228505   7.429   3.724   3.147
 9543TIP3    H128506   7.427   3.816   3.181
 9543TIP3    H228507   7.525   3.706   3.155
 9544TIP3   OH228508   8.683   4.220   4.045
 9544TIP3    H128509   8.585   4.215   4.047
 9544TIP3    H228510   8.701   4.185   3.956
 9545TIP3   OH228511   8.334   4.415   3.432
 9545TIP3    H128512   8.260   4.353   3.443
 9545TIP3    H228513   8.407   4.369   3.478
 9546TIP3   OH228514   7.045   4.644   2.902
 9546TIP3    H128515   7.106   4.719   2.910
 9546TIP3    H228516   7.092   4.592   2.834
 9547TIP3   OH228517   6.991   3.917   3.033
 9547TIP3    H128518   6.993   4.015   3.029
 9547TIP3    H228519   6.905   3.897   2.995
 9548TIP3   OH228520   8.302   5.366   3.381
 9548TIP3    H128521   8.260   5.413   3.306
 9548TIP3    H228522   8.396   5.386   3.361
 9549TIP3   OH228523   7.379   3.638   3.910
 9549TIP3    H128524   7.347   3.607   3.822
 9549TIP3    H228525   7.368   3.558   3.966
 9550TIP3   OH228526   6.919   4.855   3.292
 9550TIP3    H128527   6.842   4.888   3.341
 9550TIP3    H228528   6.902   4.894   3.204
 9551TIP3   OH228529   7.538   4.939   2.534
 9551TIP3    H128530   7.482   4.867   2.571
 9551TIP3    H228531   7.613   4.887   2.499
 9552TIP3   OH228532   8.192   5.268   4.138
 9552TIP3    H128533   8.188   5.198   4.207
 9552TIP3    H228534   8.271   5.320   4.165
 9553TIP3   OH228535   7.974   4.979   2.442
 9553TIP3    H128536   8.024   4.919   2.500
 9553TIP3    H228537   8.029   4.983   2.362
 9554TIP3   OH228538   7.181   4.455   2.752
 9554TIP3    H128539   7.237   4.423   2.825
 9554TIP3    H228540   7.248   4.461   2.680
 9555TIP3   OH228541   7.807   4.878   4.319
 9555TIP3    H128542   7.777   4.856   4.231
 9555TIP3    H228543   7.855   4.796   4.341
 9556TIP3   OH228544   7.687   4.651   2.559
 9556TIP3    H128545   7.692   4.666   2.656
 9556TIP3    H228546   7.687   4.553   2.556
 9557TIP3   OH228547   8.304   4.896   3.939
 9557TIP3    H128548   8.382   4.934   3.894
 9557TIP3    H228549   8.239   4.968   3.923
 9558TIP3   OH228550   7.338   4.523   4.527
 9558TIP3    H128551   7.412   4.462   4.542
 9558TIP3    H228552   7.337   4.573   4.611
 9559TIP3   OH228553   7.391   4.357   2.976
 9559TIP3    H128554   7.365   4.315   3.059
 9559TIP3    H228555   7.426   4.282   2.924
 9560TIP3   OH228556   7.662   4.424   4.206
 9560TIP3    H128557   7.580   4.478   4.203
 9560TIP3    H228558   7.708   4.454   4.124
 9561TIP3   OH228559   7.490   4.149   2.817
 9561TIP3    H128560   7.463   4.152   2.723
 9561TIP3    H228561   7.587   4.158   2.809
 9562TIP3   OH228562   8.173   4.823   4.336
 9562TIP3    H128563   8.256   4.806   4.289
 9562TIP3    H228564   8.176   4.756   4.407
 9563TIP3   OH228565   8.312   4.483   2.478
 9563TIP3    H128566   8.293   4.436   2.394
 9563TIP3    H228567   8.282   4.573   2.453
 9564TIP3   OH228568   7.782   4.208   4.332
 9564TIP3    H128569   7.783   4.128   4.275
 9564TIP3    H228570   7.741   4.274   4.272
 9565TIP3   OH228571   7.784   3.995   4.138
 9565TIP3    H128572   7.812   4.038   4.055
 9565TIP3    H228573   7.690   3.973   4.118
 9566TIP3   OH228574   7.814   4.534   4.010
 9566TIP3    H128575   7.896   4.538   3.959
 9566TIP3    H228576   7.759   4.602   3.965
 9567TIP3   OH228577   8.397   4.500   4.394
 9567TIP3    H128578   8.446   4.416   4.396
 9567TIP3    H228579   8.465   4.560   4.359
 9568TIP3   OH228580   8.435   4.753   4.127
 9568TIP3    H128581   8.378   4.807   4.067
 9568TIP3    H228582   8.523   4.772   4.088
 9569TIP3   OH228583   7.660   4.323   4.558
 9569TIP3    H128584   7.591   4.256   4.571
 9569TIP3    H228585   7.691   4.301   4.468
 9570TIP3   OH228586   7.917   3.762   4.204
 9570TIP3    H128587   7.869   3.844   4.180
 9570TIP3    H228588   7.847   3.694   4.190
 9571TIP3   OH228589   8.043   4.267   4.418
 9571TIP3    H128590   8.038   4.258   4.515
 9571TIP3    H228591   7.953   4.240   4.392
 9572TIP3   OH228592   8.283   4.218   4.274
 9572TIP3    H128593   8.207   4.216   4.335
 9572TIP3    H228594   8.356   4.185   4.330
 9573TIP3   OH228595   8.505   4.152   4.427
 9573TIP3    H128596   8.523   4.058   4.445
 9573TIP3    H228597   8.508   4.192   4.516
 9574TIP3   OH228598   7.497   4.105   4.608
 9574TIP3    H128599   7.504   4.015   4.569
 9574TIP3    H228600   7.528   4.087   4.699
 9575TIP3   OH228601   8.012   3.770   4.461
 9575TIP3    H128602   8.081   3.701   4.455
 9575TIP3    H228603   7.973   3.764   4.371
 9576TIP3   OH228604   8.073   3.984   4.622
 9576TIP3    H128605   8.054   3.913   4.557
 9576TIP3    H228606   7.997   4.044   4.610
 9577TIP3   OH228607   7.296   5.211   2.719
 9577TIP3    H128608   7.392   5.212   2.700
 9577TIP3    H228609   7.264   5.261   2.641
 9578TIP3   OH228610   6.778   4.594   2.939
 9578TIP3    H128611   6.872   4.618   2.925
 9578TIP3    H228612   6.773   4.507   2.896
 9579TIP3   OH228613   6.691   5.208   3.348
 9579TIP3    H128614   6.622   5.147   3.313
 9579TIP3    H228615   6.735   5.150   3.414
 9580TIP3   OH228616   6.828   5.061   3.533
 9580TIP3    H128617   6.811   4.986   3.591
 9580TIP3    H228618   6.881   5.119   3.591
 9581TIP3   OH228619   8.553   5.461   3.336
 9581TIP3    H128620   8.583   5.499   3.420
 9581TIP3    H228621   8.613   5.503   3.273
 9582TIP3   OH228622   8.582   5.482   3.620
 9582TIP3    H128623   8.545   5.392   3.613
 9582TIP3    H228624   8.663   5.463   3.670
 9583TIP3   OH228625   8.632   5.156   4.193
 9583TIP3    H128626   8.555   5.166   4.253
 9583TIP3    H228627   8.671   5.245   4.194
 9584TIP3   OH228628   8.446   4.671   2.811
 9584TIP3    H128629   8.515   4.735   2.783
 9584TIP3    H228630   8.489   4.631   2.890
 9585TIP3   OH228631   8.574   4.539   3.014
 9585TIP3    H128632   8.510   4.496   3.075
 9585TIP3    H228633   8.640   4.577   3.075
 9586TIP3   OH228634   8.625   4.926   3.446
 9586TIP3    H128635   8.681   4.865   3.395
 9586TIP3    H228636   8.621   5.004   3.387
 9587TIP3   OH228637   8.462   5.227   3.645
 9587TIP3    H128638   8.391   5.273   3.693
 9587TIP3    H228639   8.412   5.180   3.574
 9588TIP3   OH228640   8.512   4.444   2.663
 9588TIP3    H128641   8.441   4.448   2.595
 9588TIP3    H228642   8.487   4.522   2.718
 9589TIP3   OH228643   8.381   4.119   2.620
 9589TIP3    H128644   8.346   4.161   2.541
 9589TIP3    H228645   8.355   4.025   2.606
 9590TIP3   OH228646   8.387   4.393   3.162
 9590TIP3    H128647   8.399   4.297   3.158
 9590TIP3    H228648   8.376   4.409   3.259
 9591TIP3   OH228649   7.010   4.446   3.907
 9591TIP3    H128650   7.014   4.429   3.811
 9591TIP3    H228651   7.105   4.467   3.925
 9592TIP3   OH228652   8.677   4.818   4.020
 9592TIP3    H128653   8.750   4.753   4.012
 9592TIP3    H228654   8.705   4.888   3.958
 9593TIP3   OH228655   8.862   4.627   4.046
 9593TIP3    H128656   8.788   4.573   4.081
 9593TIP3    H228657   8.936   4.563   4.055
 9594TIP3   OH228658   8.327   3.853   2.605
 9594TIP3    H128659   8.405   3.824   2.656
 9594TIP3    H228660   8.257   3.792   2.633
 9595TIP3   OH228661   8.384   4.109   3.058
 9595TIP3    H128662   8.426   4.021   3.073
 9595TIP3    H228663   8.442   4.143   2.988
 9596TIP3   OH228664   8.547   4.288   3.551
 9596TIP3    H128665   8.633   4.313   3.511
 9596TIP3    H228666   8.562   4.322   3.641
 9597TIP3   OH228667   8.615   4.428   3.787
 9597TIP3    H128668   8.536   4.464   3.832
 9597TIP3    H228669   8.648   4.507   3.739
 9598TIP3   OH228670   7.230   4.153   4.580
 9598TIP3    H128671   7.327   4.148   4.581
 9598TIP3    H228672   7.207   4.069   4.625
 9599TIP3   OH228673   9.065   4.015   4.342
 9599TIP3    H128674   9.124   3.949   4.299
 9599TIP3    H228675   9.040   4.073   4.266
 9600TIP3   OH228676   8.493   3.859   3.096
 9600TIP3    H128677   8.544   3.844   3.178
 9600TIP3    H228678   8.434   3.781   3.094
 9601TIP3   OH228679   7.194   3.846   3.915
 9601TIP3    H128680   7.258   3.773   3.925
 9601TIP3    H228681   7.254   3.922   3.909
 9602TIP3   OH228682   6.999   4.120   3.989
 9602TIP3    H128683   7.047   4.114   3.904
 9602TIP3    H228684   7.019   4.212   4.014
 9603TIP3   OH228685   8.939   4.161   4.149
 9603TIP3    H128686   8.848   4.196   4.162
 9603TIP3    H228687   8.919   4.088   4.087
 9604TIP3   OH228688   8.575   3.797   2.726
 9604TIP3    H128689   8.617   3.724   2.675
 9604TIP3    H228690   8.643   3.867   2.720
 9605TIP3   OH228691   6.979   3.621   3.487
 9605TIP3    H128692   6.885   3.623   3.513
 9605TIP3    H228693   6.980   3.681   3.409
 9606TIP3   OH228694   8.139   5.324   2.995
 9606TIP3    H128695   8.189   5.309   2.912
 9606TIP3    H228696   8.192   5.394   3.037
 9607TIP3   OH228697   7.199   3.702   4.302
 9607TIP3    H128698   7.149   3.700   4.386
 9607TIP3    H228699   7.133   3.743   4.243
 9608TIP3   OH228700   7.851   5.400   4.072
 9608TIP3    H128701   7.899   5.408   4.157
 9608TIP3    H228702   7.910   5.455   4.015
 9609TIP3   OH228703   8.035   5.551   3.931
 9609TIP3    H128704   8.106   5.507   3.881
 9609TIP3    H228705   8.088   5.610   3.988
 9610TIP3   OH228706   8.836   3.921   4.025
 9610TIP3    H128707   8.746   3.916   3.990
 9610TIP3    H228708   8.868   3.829   4.012
 9611TIP3   OH228709   7.088   5.412   3.930
 9611TIP3    H128710   7.001   5.456   3.924
 9611TIP3    H228711   7.107   5.420   4.025
 9612TIP3   OH228712   7.344   5.413   3.806
 9612TIP3    H128713   7.259   5.404   3.854
 9612TIP3    H228714   7.313   5.444   3.719
 9613TIP3   OH228715   7.754   5.425   3.609
 9613TIP3    H128716   7.689   5.446   3.539
 9613TIP3    H228717   7.769   5.514   3.648
 9614TIP3   OH228718   8.024   5.367   3.660
 9614TIP3    H128719   7.931   5.385   3.637
 9614TIP3    H228720   8.070   5.440   3.614
 9615TIP3   OH228721   8.230   5.558   3.573
 9615TIP3    H128722   8.218   5.644   3.527
 9615TIP3    H228723   8.259   5.501   3.499
 9616TIP3   OH228724   7.007   5.214   3.692
 9616TIP3    H128725   7.049   5.238   3.777
 9616TIP3    H228726   7.081   5.170   3.644
 9617TIP3   OH228727   7.199   5.084   3.551
 9617TIP3    H128728   7.220   5.000   3.598
 9617TIP3    H228729   7.288   5.124   3.541
 9618TIP3   OH228730   7.461   5.182   3.552
 9618TIP3    H128731   7.501   5.095   3.539
 9618TIP3    H228732   7.488   5.204   3.642
 9619TIP3   OH228733   8.040   3.837   3.639
 9619TIP3    H128734   7.998   3.767   3.692
 9619TIP3    H228735   8.114   3.790   3.596
 9620TIP3   OH228736   8.565   3.716   3.549
 9620TIP3    H128737   8.604   3.768   3.475
 9620TIP3    H228738   8.471   3.737   3.541
 9621TIP3   OH228739   8.659   3.818   3.313
 9621TIP3    H128740   8.732   3.766   3.273
 9621TIP3    H228741   8.694   3.909   3.297
 9622TIP3   OH228742   7.292   3.546   3.662
 9622TIP3    H128743   7.199   3.513   3.658
 9622TIP3    H228744   7.341   3.461   3.656
 9623TIP3   OH228745   7.078   3.413   3.307
 9623TIP3    H128746   7.108   3.471   3.234
 9623TIP3    H228747   7.047   3.479   3.372
 9624TIP3   OH228748   7.732   3.579   3.540
 9624TIP3    H128749   7.790   3.628   3.480
 9624TIP3    H228750   7.757   3.616   3.626
 9625TIP3   OH228751   8.280   3.724   3.525
 9625TIP3    H128752   8.281   3.689   3.435
 9625TIP3    H228753   8.267   3.642   3.578
 9626TIP3   OH228754   8.311   3.645   3.085
 9626TIP3    H128755   8.224   3.687   3.094
 9626TIP3    H228756   8.296   3.561   3.133
 9627TIP3   OH228757   6.794   4.984   3.090
 9627TIP3    H128758   6.709   4.952   3.054
 9627TIP3    H228759   6.783   5.079   3.072
 9628TIP3   OH228760   7.193   3.573   3.073
 9628TIP3    H128761   7.243   3.513   3.014
 9628TIP3    H228762   7.264   3.630   3.108
 9629TIP3   OH228763   7.706   3.748   3.170
 9629TIP3    H128764   7.769   3.703   3.230
 9629TIP3    H228765   7.727   3.841   3.194
 9630TIP3   OH228766   7.567   5.176   2.670
 9630TIP3    H128767   7.655   5.199   2.633
 9630TIP3    H228768   7.544   5.101   2.610
 9631TIP3   OH228769   8.282   5.292   2.761
 9631TIP3    H128770   8.274   5.194   2.746
 9631TIP3    H228771   8.240   5.326   2.680
 9632TIP3   OH228772   7.500   3.826   4.551
 9632TIP3    H128773   7.467   3.755   4.609
 9632TIP3    H228774   7.594   3.828   4.577
 9633TIP3   OH228775   7.749   3.827   4.673
 9633TIP3    H128776   7.831   3.798   4.628
 9633TIP3    H228777   7.736   3.754   4.737
 9634TIP3   OH228778   6.868   5.008   2.727
 9634TIP3    H128779   6.869   5.044   2.817
 9634TIP3    H228780   6.959   4.970   2.718
 9635TIP3   OH228781   8.571   3.885   4.457
 9635TIP3    H128782   8.593   3.851   4.547
 9635TIP3    H228783   8.659   3.880   4.413
 9636TIP3   OH228784   8.511   5.437   3.952
 9636TIP3    H128785   8.433   5.407   3.901
 9636TIP3    H228786   8.495   5.534   3.951
 9637TIP3   OH228787   9.076   4.707   3.465
 9637TIP3    H128788   9.109   4.638   3.526
 9637TIP3    H228789   9.155   4.760   3.452
 9638TIP3   OH228790   9.039   5.112   3.195
 9638TIP3    H128791   9.036   5.014   3.196
 9638TIP3    H228792   9.134   5.126   3.178
 9639TIP3   OH228793   8.751   4.317   2.975
 9639TIP3    H128794   8.704   4.402   2.986
 9639TIP3    H228795   8.680   4.263   2.935
 9640TIP3   OH228796   8.813   4.605   3.141
 9640TIP3    H128797   8.862   4.529   3.180
 9640TIP3    H228798   8.873   4.633   3.071
 9641TIP3   OH228799   9.558   5.516   2.822
 9641TIP3    H128800   9.639   5.529   2.768
 9641TIP3    H228801   9.597   5.521   2.911
 9642TIP3   OH228802   9.525   5.050   3.140
 9642TIP3    H128803   9.536   4.990   3.065
 9642TIP3    H228804   9.620   5.055   3.167
 9643TIP3   OH228805   9.304   4.198   3.154
 9643TIP3    H128806   9.308   4.264   3.082
 9643TIP3    H228807   9.275   4.120   3.105
 9644TIP3   OH228808   8.957   4.399   3.249
 9644TIP3    H128809   9.040   4.378   3.298
 9644TIP3    H228810   8.971   4.344   3.169
 9645TIP3   OH228811   9.360   4.613   3.030
 9645TIP3    H128812   9.455   4.593   3.044
 9645TIP3    H228813   9.328   4.525   3.001
 9646TIP3   OH228814   9.316   4.178   3.582
 9646TIP3    H128815   9.258   4.213   3.512
 9646TIP3    H228816   9.265   4.200   3.662
 9647TIP3   OH228817   9.401   4.962   3.365
 9647TIP3    H128818   9.345   5.031   3.407
 9647TIP3    H228819   9.446   5.014   3.295
 9648TIP3   OH228820   9.183   4.295   3.370
 9648TIP3    H128821   9.249   4.366   3.389
 9648TIP3    H228822   9.229   4.253   3.293
 9649TIP3   OH228823   9.248   5.155   3.474
 9649TIP3    H128824   9.224   5.241   3.434
 9649TIP3    H228825   9.169   5.140   3.530
 9650TIP3   OH228826   8.651   4.837   2.707
 9650TIP3    H128827   8.612   4.864   2.622
 9650TIP3    H228828   8.681   4.923   2.743
 9651TIP3   OH228829   9.162   4.759   2.922
 9651TIP3    H128830   9.125   4.697   2.855
 9651TIP3    H228831   9.238   4.707   2.956
 9652TIP3   OH228832   9.287   5.164   3.075
 9652TIP3    H128833   9.274   5.121   2.989
 9652TIP3    H228834   9.374   5.130   3.103
 9653TIP3   OH228835   9.323   4.712   3.291
 9653TIP3    H128836   9.345   4.699   3.197
 9653TIP3    H228837   9.357   4.802   3.310
 9654TIP3   OH228838   9.459   5.271   3.615
 9654TIP3    H128839   9.401   5.334   3.663
 9654TIP3    H228840   9.393   5.218   3.566
 9655TIP3   OH228841   9.212   4.830   3.716
 9655TIP3    H128842   9.215   4.917   3.760
 9655TIP3    H228843   9.116   4.811   3.718
 9656TIP3   OH228844   9.512   5.307   2.643
 9656TIP3    H128845   9.522   5.377   2.711
 9656TIP3    H228846   9.449   5.349   2.581
 9657TIP3   OH228847   9.255   5.439   3.697
 9657TIP3    H128848   9.220   5.436   3.606
 9657TIP3    H228849   9.176   5.417   3.751
 9658TIP3   OH228850   9.051   4.581   2.737
 9658TIP3    H128851   8.987   4.627   2.679
 9658TIP3    H228852   9.008   4.496   2.750
 9659TIP3   OH228853   8.833   4.968   3.648
 9659TIP3    H128854   8.773   4.944   3.574
 9659TIP3    H228855   8.871   4.881   3.674
 9660TIP3   OH228856   8.690   5.157   3.286
 9660TIP3    H128857   8.785   5.152   3.269
 9660TIP3    H228858   8.683   5.241   3.335
 9661TIP3   OH228859   9.647   5.402   3.464
 9661TIP3    H128860   9.652   5.493   3.500
 9661TIP3    H228861   9.581   5.360   3.524
 9662TIP3   OH228862   9.397   5.522   2.436
 9662TIP3    H128863   9.376   5.508   2.342
 9662TIP3    H228864   9.391   5.619   2.446
 9663TIP3   OH228865   8.856   5.377   2.804
 9663TIP3    H128866   8.906   5.368   2.888
 9663TIP3    H228867   8.797   5.301   2.811
 9664TIP3   OH228868   9.036   5.152   3.641
 9664TIP3    H128869   9.088   5.134   3.722
 9664TIP3    H228870   8.964   5.086   3.647
 9665TIP3   OH228871   9.427   3.969   3.430
 9665TIP3    H128872   9.337   3.945   3.402
 9665TIP3    H228873   9.410   4.056   3.470
 9666TIP3   OH228874   9.372   4.482   3.430
 9666TIP3    H128875   9.329   4.505   3.514
 9666TIP3    H228876   9.361   4.566   3.379
 9667TIP3   OH228877   9.253   4.373   2.949
 9667TIP3    H128878   9.163   4.344   2.974
 9667TIP3    H228879   9.258   4.340   2.857
 9668TIP3   OH228880   9.186   4.517   3.647
 9668TIP3    H128881   9.228   4.575   3.711
 9668TIP3    H228882   9.178   4.434   3.697
 9669TIP3   OH228883   9.226   4.012   2.358
 9669TIP3    H128884   9.193   3.992   2.446
 9669TIP3    H228885   9.147   4.048   2.313
 9670TIP3   OH228886   8.783   4.041   3.228
 9670TIP3    H128887   8.858   4.074   3.282
 9670TIP3    H228888   8.827   4.010   3.147
 9671TIP3   OH228889   8.759   4.022   2.748
 9671TIP3    H128890   8.801   4.062   2.669
 9671TIP3    H228891   8.698   4.095   2.771
 9672TIP3   OH228892   9.015   4.254   3.022
 9672TIP3    H128893   8.921   4.258   2.995
 9672TIP3    H228894   9.042   4.163   3.001
 9673TIP3   OH228895   9.263   4.276   2.692
 9673TIP3    H128896   9.340   4.293   2.636
 9673TIP3    H228897   9.191   4.285   2.625
 9674TIP3   OH228898   9.103   4.285   2.480
 9674TIP3    H128899   9.039   4.240   2.421
 9674TIP3    H228900   9.168   4.316   2.414
 9675TIP3   OH228901   9.199   5.072   3.858
 9675TIP3    H128902   9.280   5.102   3.903
 9675TIP3    H228903   9.136   5.076   3.932
 9676TIP3   OH228904   9.185   4.017   2.980
 9676TIP3    H128905   9.155   3.938   3.031
 9676TIP3    H228906   9.247   3.979   2.917
 9677TIP3   OH228907   9.336   4.836   2.491
 9677TIP3    H128908   9.287   4.751   2.494
 9677TIP3    H228909   9.364   4.849   2.583
 9678TIP3   OH228910   9.722   5.130   3.514
 9678TIP3    H128911   9.765   5.112   3.599
 9678TIP3    H228912   9.711   5.226   3.513
 9679TIP3   OH228913   9.068   4.835   3.175
 9679TIP3    H128914   9.100   4.812   3.085
 9679TIP3    H228915   9.111   4.768   3.230
 9680TIP3   OH228916   8.947   4.760   3.787
 9680TIP3    H128917   8.976   4.743   3.879
 9680TIP3    H228918   8.884   4.687   3.771
 9681TIP3   OH228919   9.645   4.827   3.826
 9681TIP3    H128920   9.564   4.790   3.785
 9681TIP3    H228921   9.709   4.757   3.803
 9682TIP3   OH228922   9.171   5.137   2.796
 9682TIP3    H128923   9.178   5.217   2.741
 9682TIP3    H228924   9.075   5.124   2.797
 9683TIP3   OH228925   8.735   4.444   2.497
 9683TIP3    H128926   8.782   4.527   2.516
 9683TIP3    H228927   8.658   4.451   2.558
 9684TIP3   OH228928   9.342   4.919   2.772
 9684TIP3    H128929   9.290   5.001   2.763
 9684TIP3    H228930   9.279   4.863   2.822
 9685TIP3   OH228931   9.440   5.480   3.267
 9685TIP3    H128932   9.479   5.554   3.215
 9685TIP3    H228933   9.517   5.450   3.319
 9686TIP3   OH228934   9.093   5.377   2.650
 9686TIP3    H128935   9.006   5.387   2.694
 9686TIP3    H228936   9.126   5.470   2.651
 9687TIP3   OH228937   9.164   4.263   3.800
 9687TIP3    H128938   9.067   4.263   3.809
 9687TIP3    H228939   9.191   4.196   3.865
 9688TIP3   OH228940   8.877   5.348   3.428
 9688TIP3    H128941   8.930   5.271   3.453
 9688TIP3    H228942   8.913   5.416   3.486
 9689TIP3   OH228943   9.171   4.989   2.106
 9689TIP3    H128944   9.191   4.898   2.079
 9689TIP3    H228945   9.158   4.977   2.203
 9690TIP3   OH228946   9.118   4.991   2.382
 9690TIP3    H128947   9.202   4.958   2.420
 9690TIP3    H228948   9.126   5.088   2.392
 9691TIP3   OH228949   8.851   4.689   2.581
 9691TIP3    H128950   8.787   4.736   2.637
 9691TIP3    H228951   8.871   4.758   2.515
 9692TIP3   OH228952   9.373   5.219   2.339
 9692TIP3    H128953   9.282   5.238   2.369
 9692TIP3    H228954   9.387   5.289   2.274
 9693TIP3   OH228955   9.108   5.269   2.393
 9693TIP3    H128956   9.083   5.341   2.331
 9693TIP3    H228957   9.100   5.314   2.480
 9694TIP3   OH228958   9.227   3.989   2.639
 9694TIP3    H128959   9.197   4.072   2.681
 9694TIP3    H228960   9.310   4.020   2.599
 9695TIP3   OH228961   8.841   4.905   2.389
 9695TIP3    H128962   8.911   4.972   2.400
 9695TIP3    H228963   8.886   4.848   2.322
 9696TIP3   OH228964   8.786   4.174   2.525
 9696TIP3    H128965   8.790   4.271   2.516
 9696TIP3    H228966   8.707   4.153   2.475
 9697TIP3   OH228967   9.160   3.895   3.398
 9697TIP3    H128968   9.138   3.862   3.308
 9697TIP3    H228969   9.160   3.814   3.452
 9698TIP3   OH228970   8.716   5.112   2.780
 9698TIP3    H128971   8.638   5.146   2.825
 9698TIP3    H228972   8.702   5.150   2.690
 9699TIP3   OH228973   8.870   5.652   3.848
 9699TIP3    H128974   8.956   5.653   3.895
 9699TIP3    H228975   8.852   5.557   3.845
 9700TIP3   OH228976   9.349   5.623   3.889
 9700TIP3    H128977   9.443   5.607   3.904
 9700TIP3    H228978   9.332   5.561   3.815
 9701TIP3   OH228979   9.320   5.203   2.022
 9701TIP3    H128980   9.270   5.127   2.059
 9701TIP3    H228981   9.412   5.169   2.031
 9702TIP3   OH228982   8.999   5.057   4.050
 9702TIP3    H128983   9.019   4.962   4.045
 9702TIP3    H228984   8.913   5.061   4.003
 9703TIP3   OH228985   8.971   4.712   2.244
 9703TIP3    H128986   9.031   4.681   2.315
 9703TIP3    H228987   9.035   4.716   2.169
 9704TIP3   OH228988   9.594   5.136   3.822
 9704TIP3    H128989   9.566   5.163   3.733
 9704TIP3    H228990   9.615   5.043   3.812
 9705TIP3   OH228991   9.120   4.788   4.027
 9705TIP3    H128992   9.200   4.738   4.003
 9705TIP3    H228993   9.146   4.823   4.115
 9706TIP3   OH228994   9.182   4.607   2.467
 9706TIP3    H128995   9.157   4.567   2.551
 9706TIP3    H228996   9.216   4.530   2.416
 9707TIP3   OH228997   9.430   4.671   3.706
 9707TIP3    H128998   9.354   4.734   3.710
 9707TIP3    H228999   9.475   4.707   3.626
 9708TIP3   OH229000   9.283   4.402   2.314
 9708TIP3    H129001   9.244   4.395   2.223
 9708TIP3    H229002   9.376   4.422   2.293
 9709TIP3   OH229003   9.540   4.465   3.847
 9709TIP3    H129004   9.570   4.386   3.797
 9709TIP3    H229005   9.496   4.518   3.777
 9710TIP3   OH229006   9.564   4.279   3.638
 9710TIP3    H129007   9.612   4.262   3.555
 9710TIP3    H229008   9.482   4.229   3.624
 9711TIP3   OH229009   9.552   4.797   3.511
 9711TIP3    H129010   9.616   4.768   3.443
 9711TIP3    H229011   9.508   4.872   3.466
 9712TIP3   OH229012   9.417   4.605   4.043
 9712TIP3    H129013   9.366   4.524   4.063
 9712TIP3    H229014   9.469   4.574   3.966
 9713TIP3   OH229015   9.293   4.365   4.101
 9713TIP3    H129016   9.307   4.282   4.053
 9713TIP3    H229017   9.328   4.343   4.190
 9714TIP3   OH229018   9.091   5.472   2.204
 9714TIP3    H129019   9.187   5.471   2.190
 9714TIP3    H229020   9.063   5.521   2.124
 9715TIP3   OH229021   8.574   4.851   2.426
 9715TIP3    H129022   8.668   4.876   2.411
 9715TIP3    H229023   8.570   4.763   2.383
 9716TIP3   OH229024   8.486   5.464   2.836
 9716TIP3    H129025   8.418   5.402   2.801
 9716TIP3    H229026   8.531   5.409   2.902
 9717TIP3   OH229027   8.622   5.320   3.023
 9717TIP3    H129028   8.614   5.243   3.081
 9717TIP3    H229029   8.675   5.380   3.079
 9718TIP3   OH229030   8.812   4.724   3.396
 9718TIP3    H129031   8.811   4.695   3.302
 9718TIP3    H229032   8.909   4.727   3.412
 9719TIP3   OH229033   9.025   4.412   4.069
 9719TIP3    H129034   9.123   4.406   4.068
 9719TIP3    H229035   9.004   4.327   4.112
 9720TIP3   OH229036   8.984   4.105   3.407
 9720TIP3    H129037   9.046   4.029   3.413
 9720TIP3    H229038   9.048   4.179   3.399
 9721TIP3   OH229039   8.793   4.379   3.474
 9721TIP3    H129040   8.842   4.367   3.390
 9721TIP3    H229041   8.826   4.464   3.503
 9722TIP3   OH229042   8.775   3.877   2.974
 9722TIP3    H129043   8.681   3.880   3.000
 9722TIP3    H229044   8.776   3.937   2.897
 9723TIP3   OH229045   8.992   3.963   3.790
 9723TIP3    H129046   8.942   3.958   3.873
 9723TIP3    H229047   8.924   4.000   3.729
 9724TIP3   OH229048   9.037   5.384   3.864
 9724TIP3    H129049   8.944   5.357   3.850
 9724TIP3    H229050   9.047   5.376   3.960
 9725TIP3   OH229051   9.211   5.420   3.413
 9725TIP3    H129052   9.166   5.497   3.373
 9725TIP3    H229053   9.298   5.431   3.369
 9726TIP3   OH229054   9.670   5.674   3.538
 9726TIP3    H129055   9.692   5.660   3.633
 9726TIP3    H229056   9.750   5.717   3.508
 9727TIP3   OH229057   8.891   5.675   3.437
 9727TIP3    H129058   8.803   5.710   3.413
 9727TIP3    H229059   8.901   5.712   3.526
 9728TIP3   OH229060   9.128   5.656   3.295
 9728TIP3    H129061   9.042   5.669   3.340
 9728TIP3    H229062   9.108   5.688   3.205
 9729TIP3   OH229063   9.537   5.687   3.090
 9729TIP3    H129064   9.470   5.707   3.023
 9729TIP3    H229065   9.551   5.774   3.131
 9730TIP3   OH229066   9.803   5.646   3.128
 9730TIP3    H129067   9.706   5.644   3.114
 9730TIP3    H229068   9.826   5.736   3.101
 9731TIP3   OH229069   8.801   5.469   3.183
 9731TIP3    H129070   8.829   5.446   3.274
 9731TIP3    H229071   8.874   5.427   3.132
 9732TIP3   OH229072   8.994   5.342   3.038
 9732TIP3    H129073   9.012   5.258   3.085
 9732TIP3    H229074   9.084   5.381   3.033
 9733TIP3   OH229075   9.257   5.443   3.040
 9733TIP3    H129076   9.284   5.351   3.025
 9733TIP3    H229077   9.302   5.460   3.124
 9734TIP3   OH229078   9.081   3.810   3.141
 9734TIP3    H129079   8.988   3.780   3.142
 9734TIP3    H229080   9.126   3.723   3.147
 9735TIP3   OH229081   8.870   3.670   2.789
 9735TIP3    H129082   8.901   3.731   2.719
 9735TIP3    H229083   8.843   3.733   2.858
 9736TIP3   OH229084   8.589   5.240   2.577
 9736TIP3    H129085   8.504   5.209   2.540
 9736TIP3    H229086   8.579   5.335   2.560
 9737TIP3   OH229087   8.984   3.834   2.564
 9737TIP3    H129088   9.027   3.771   2.503
 9737TIP3    H229089   9.060   3.883   2.600
 9738TIP3   OH229090   9.364   5.441   2.154
 9738TIP3    H129091   9.460   5.449   2.145
 9738TIP3    H229092   9.343   5.366   2.094
 9739TIP3   OH229093   9.260   4.076   4.018
 9739TIP3    H129094   9.231   4.009   4.082
 9739TIP3    H229095   9.355   4.082   4.044
 9740TIP3   OH229096   9.496   4.086   4.149
 9740TIP3    H129097   9.592   4.090   4.135
 9740TIP3    H229098   9.493   4.013   4.215
 9741TIP3   OH229099   8.666   5.269   2.214
 9741TIP3    H129100   8.667   5.297   2.307
 9741TIP3    H229101   8.755   5.228   2.203
 9742TIP3   OH229102   0.432   5.333   4.919
 9742TIP3    H129103   0.413   5.428   4.910
 9742TIP3    H229104   0.348   5.296   4.888
 9743TIP3   OH229105   0.426   5.333   5.294
 9743TIP3    H129106   0.454   5.313   5.386
 9743TIP3    H229107   0.391   5.247   5.265
 9744TIP3   OH229108   0.670   5.638   4.986
 9744TIP3    H129109   0.668   5.569   5.054
 9744TIP3    H229110   0.706   5.712   5.037
 9745TIP3   OH229111   0.320   6.105   4.992
 9745TIP3    H129112   0.367   6.030   4.950
 9745TIP3    H229113   0.310   6.074   5.083
 9746TIP3   OH229114   0.218   5.517   5.326
 9746TIP3    H129115   0.295   5.464   5.298
 9746TIP3    H229116   0.265   5.595   5.361
 9747TIP3   OH229117   1.242   4.888   5.346
 9747TIP3    H129118   1.262   4.971   5.393
 9747TIP3    H229119   1.264   4.913   5.255
 9748TIP3   OH229120   0.638   5.069   5.383
 9748TIP3    H129121   0.690   4.989   5.404
 9748TIP3    H229122   0.612   5.050   5.291
 9749TIP3   OH229123   0.012   4.725   5.354
 9749TIP3    H129124  -0.023   4.804   5.308
 9749TIP3    H229125  -0.025   4.654   5.296
 9750TIP3   OH229126   0.674   4.816   4.970
 9750TIP3    H129127   0.746   4.802   5.036
 9750TIP3    H229128   0.726   4.855   4.897
 9751TIP3   OH229129   0.057   5.133   5.262
 9751TIP3    H129130   0.151   5.104   5.264
 9751TIP3    H229131   0.014   5.059   5.217
 9752TIP3   OH229132   1.307   5.094   5.517
 9752TIP3    H129133   1.235   5.158   5.494
 9752TIP3    H229134   1.332   5.130   5.604
 9753TIP3   OH229135   0.326   5.560   4.788
 9753TIP3    H129136   0.285   5.541   4.702
 9753TIP3    H229137   0.285   5.645   4.811
 9754TIP3   OH229138   0.887   4.819   5.141
 9754TIP3    H129139   0.879   4.776   5.227
 9754TIP3    H229140   0.941   4.897   5.163
 9755TIP3   OH229141   0.746   5.888   5.149
 9755TIP3    H129142   0.656   5.876   5.187
 9755TIP3    H229143   0.737   5.975   5.106
 9756TIP3   OH229144   1.036   4.778   5.505
 9756TIP3    H129145   0.953   4.824   5.484
 9756TIP3    H229146   1.098   4.819   5.441
 9757TIP3   OH229147   0.333   4.427   5.489
 9757TIP3    H129148   0.330   4.331   5.509
 9757TIP3    H229149   0.263   4.460   5.547
 9758TIP3   OH229150   0.447   5.930   4.821
 9758TIP3    H129151   0.501   5.849   4.803
 9758TIP3    H229152   0.508   5.998   4.783
 9759TIP3   OH229153   0.592   5.715   4.731
 9759TIP3    H129154   0.554   5.635   4.694
 9759TIP3    H229155   0.627   5.682   4.817
 9760TIP3   OH229156   0.973   5.789   5.482
 9760TIP3    H129157   0.976   5.719   5.415
 9760TIP3    H229158   0.960   5.868   5.425
 9761TIP3   OH229159   0.260   5.186   4.745
 9761TIP3    H129160   0.183   5.241   4.720
 9761TIP3    H229161   0.315   5.191   4.665
 9762TIP3   OH229162   0.224   4.975   4.467
 9762TIP3    H129163   0.290   5.025   4.520
 9762TIP3    H229164   0.284   4.913   4.420
 9763TIP3   OH229165   0.610   5.272   4.722
 9763TIP3    H129166   0.557   5.298   4.801
 9763TIP3    H229167   0.695   5.247   4.765
 9764TIP3   OH229168  -0.013   5.235   5.504
 9764TIP3    H129169   0.022   5.201   5.418
 9764TIP3    H229170   0.042   5.314   5.517
 9765TIP3   OH229171   0.503   5.883   5.269
 9765TIP3    H129172   0.491   5.957   5.330
 9765TIP3    H229173   0.491   5.805   5.326
 9766TIP3   OH229174   0.454   5.132   4.548
 9766TIP3    H129175   0.513   5.190   4.602
 9766TIP3    H229176   0.480   5.158   4.456
 9767TIP3   OH229177   0.188   5.818   4.825
 9767TIP3    H129178   0.274   5.859   4.848
 9767TIP3    H229179   0.144   5.891   4.780
 9768TIP3   OH229180   0.966   4.374   4.593
 9768TIP3    H129181   0.887   4.394   4.647
 9768TIP3    H229182   0.980   4.459   4.547
 9769TIP3   OH229183   0.766   5.741   4.142
 9769TIP3    H129184   0.774   5.839   4.130
 9769TIP3    H229185   0.859   5.713   4.130
 9770TIP3   OH229186   1.211   6.140   5.537
 9770TIP3    H129187   1.210   6.043   5.549
 9770TIP3    H229188   1.128   6.164   5.584
 9771TIP3   OH229189   0.337   5.911   5.687
 9771TIP3    H129190   0.338   6.007   5.711
 9771TIP3    H229191   0.243   5.897   5.668
 9772TIP3   OH229192   0.100   6.040   4.647
 9772TIP3    H129193   0.069   6.020   4.556
 9772TIP3    H229194   0.080   6.134   4.656
 9773TIP3   OH229195   0.281   5.959   4.267
 9773TIP3    H129196   0.337   5.889   4.228
 9773TIP3    H229197   0.321   5.969   4.356
 9774TIP3   OH229198   0.343   6.002   4.534
 9774TIP3    H129199   0.261   6.003   4.586
 9774TIP3    H229200   0.405   5.966   4.599
 9775TIP3   OH229201   1.093   5.277   5.811
 9775TIP3    H129202   1.062   5.300   5.721
 9775TIP3    H229203   1.111   5.182   5.799
 9776TIP3   OH229204   0.087   4.508   5.628
 9776TIP3    H129205   0.013   4.475   5.575
 9776TIP3    H229206   0.089   4.601   5.603
 9777TIP3   OH229207   0.631   4.619   5.816
 9777TIP3    H129208   0.701   4.595   5.880
 9777TIP3    H229209   0.548   4.599   5.864
 9778TIP3   OH229210   0.864   5.039   5.728
 9778TIP3    H129211   0.824   5.047   5.817
 9778TIP3    H229212   0.859   5.130   5.694
 9779TIP3   OH229213   0.525   5.177   4.289
 9779TIP3    H129214   0.497   5.153   4.199
 9779TIP3    H229215   0.604   5.232   4.270
 9780TIP3   OH229216   0.240   4.558   4.592
 9780TIP3    H129217   0.213   4.556   4.686
 9780TIP3    H229218   0.205   4.472   4.563
 9781TIP3   OH229219   0.009   5.003   5.646
 9781TIP3    H129220  -0.025   5.042   5.727
 9781TIP3    H229221   0.004   5.080   5.586
 9782TIP3   OH229222  -0.095   4.894   5.158
 9782TIP3    H129223  -0.190   4.907   5.145
 9782TIP3    H229224  -0.071   4.854   5.073
 9783TIP3   OH229225   0.398   4.988   4.877
 9783TIP3    H129226   0.347   5.063   4.839
 9783TIP3    H229227   0.458   4.966   4.803
 9784TIP3   OH229228   0.578   5.273   5.969
 9784TIP3    H129229   0.559   5.199   6.031
 9784TIP3    H229230   0.673   5.288   5.987
 9785TIP3   OH229231   0.551   5.018   5.127
 9785TIP3    H129232   0.504   5.059   5.052
 9785TIP3    H229233   0.587   4.939   5.082
 9786TIP3   OH229234  -0.100   4.527   4.561
 9786TIP3    H129235  -0.107   4.527   4.658
 9786TIP3    H229236  -0.190   4.547   4.534
 9787TIP3   OH229237   0.524   5.265   5.538
 9787TIP3    H129238   0.585   5.207   5.487
 9787TIP3    H229239   0.543   5.233   5.628
 9788TIP3   OH229240   0.247   4.729   5.210
 9788TIP3    H129241   0.169   4.733   5.269
 9788TIP3    H229242   0.320   4.733   5.274
 9789TIP3   OH229243  -0.052   4.783   4.907
 9789TIP3    H129244   0.045   4.798   4.900
 9789TIP3    H229245  -0.088   4.826   4.829
 9790TIP3   OH229246   0.730   4.805   5.417
 9790TIP3    H129247   0.696   4.817   5.508
 9790TIP3    H229248   0.664   4.744   5.381
 9791TIP3   OH229249  -0.235   4.848   4.691
 9791TIP3    H129250  -0.272   4.758   4.679
 9791TIP3    H229251  -0.174   4.858   4.614
 9792TIP3   OH229252   0.898   6.497   5.636
 9792TIP3    H129253   0.899   6.516   5.540
 9792TIP3    H229254   0.981   6.540   5.665
 9793TIP3   OH229255   0.322   5.049   5.307
 9793TIP3    H129256   0.399   5.021   5.254
 9793TIP3    H229257   0.349   5.021   5.396
 9794TIP3   OH229258  -0.118   4.548   5.193
 9794TIP3    H129259  -0.184   4.477   5.207
 9794TIP3    H229260  -0.070   4.513   5.116
 9795TIP3   OH229261   0.299   4.944   5.618
 9795TIP3    H129262   0.215   4.992   5.618
 9795TIP3    H229263   0.362   5.007   5.659
 9796TIP3   OH229264   0.039   5.340   4.685
 9796TIP3    H129265  -0.037   5.278   4.682
 9796TIP3    H229266   0.029   5.379   4.775
 9797TIP3   OH229267   0.493   4.661   4.550
 9797TIP3    H129268   0.397   4.648   4.565
 9797TIP3    H229269   0.509   4.753   4.580
 9798TIP3   OH229270   0.419   5.647   5.706
 9798TIP3    H129271   0.470   5.646   5.788
 9798TIP3    H229272   0.394   5.741   5.699
 9799TIP3   OH229273   0.565   4.901   4.658
 9799TIP3    H129274   0.661   4.908   4.680
 9799TIP3    H229275   0.549   4.984   4.609
 9800TIP3   OH229276   0.189   5.487   4.512
 9800TIP3    H129277   0.145   5.575   4.522
 9800TIP3    H229278   0.134   5.433   4.572
 9801TIP3   OH229279   0.342   5.406   6.014
 9801TIP3    H129280   0.290   5.335   5.973
 9801TIP3    H229281   0.433   5.380   5.985
 9802TIP3   OH229282   0.599   5.929   5.590
 9802TIP3    H129283   0.504   5.917   5.606
 9802TIP3    H229284   0.625   5.979   5.670
 9803TIP3   OH229285   1.006   4.992   4.500
 9803TIP3    H129286   0.942   4.948   4.439
 9803TIP3    H229287   1.003   5.081   4.460
 9804TIP3   OH229288   1.221   5.857   5.578
 9804TIP3    H129289   1.124   5.846   5.572
 9804TIP3    H229290   1.248   5.822   5.490
 9805TIP3   OH229291   0.701   5.814   4.406
 9805TIP3    H129292   0.684   5.744   4.471
 9805TIP3    H229293   0.717   5.765   4.323
 9806TIP3   OH229294   0.677   5.460   5.223
 9806TIP3    H129295   0.596   5.410   5.245
 9806TIP3    H229296   0.744   5.390   5.217
 9807TIP3   OH229297   0.009   5.437   4.932
 9807TIP3    H129298   0.004   5.532   4.952
 9807TIP3    H229299  -0.025   5.398   5.013
 9808TIP3   OH229300   0.492   5.653   5.428
 9808TIP3    H129301   0.484   5.638   5.524
 9808TIP3    H229302   0.570   5.602   5.404
 9809TIP3   OH229303   0.460   5.537   4.309
 9809TIP3    H129304   0.512   5.514   4.389
 9809TIP3    H229305   0.370   5.515   4.340
 9810TIP3   OH229306   0.733   6.188   5.484
 9810TIP3    H129307   0.658   6.126   5.475
 9810TIP3    H229308   0.719   6.248   5.408
 9811TIP3   OH229309   0.800   6.017   4.130
 9811TIP3    H129310   0.838   6.089   4.078
 9811TIP3    H229311   0.720   6.063   4.163
 9812TIP3   OH229312   0.619   5.472   4.526
 9812TIP3    H129313   0.610   5.407   4.600
 9812TIP3    H229314   0.716   5.473   4.515
 9813TIP3   OH229315  -0.121   5.498   4.333
 9813TIP3    H129316  -0.105   5.411   4.291
 9813TIP3    H229317  -0.134   5.471   4.425
 9814TIP3   OH229318   0.652   4.857   5.675
 9814TIP3    H129319   0.733   4.900   5.708
 9814TIP3    H229320   0.645   4.778   5.732
 9815TIP3   OH229321   0.536   4.612   4.838
 9815TIP3    H129322   0.526   4.640   4.746
 9815TIP3    H229323   0.577   4.691   4.879
 9816TIP3   OH229324   0.047   5.714   4.538
 9816TIP3    H129325  -0.042   5.741   4.564
 9816TIP3    H229326   0.062   5.768   4.458
 9817TIP3   OH229327   0.222   4.788   4.942
 9817TIP3    H129328   0.288   4.858   4.922
 9817TIP3    H229329   0.235   4.778   5.039
 9818TIP3   OH229330   0.484   5.101   5.765
 9818TIP3    H129331   0.513   5.158   5.839
 9818TIP3    H229332   0.550   5.030   5.768
 9819TIP3   OH229333   0.372   4.517   5.046
 9819TIP3    H129334   0.370   4.590   5.111
 9819TIP3    H229335   0.433   4.555   4.979
 9820TIP3   OH229336  -0.113   4.525   4.842
 9820TIP3    H129337  -0.096   4.613   4.882
 9820TIP3    H229338  -0.021   4.489   4.846
 9821TIP3   OH229339   1.135   5.002   5.738
 9821TIP3    H129340   1.037   5.001   5.736
 9821TIP3    H229341   1.156   4.992   5.644
 9822TIP3   OH229342   0.791   5.190   5.111
 9822TIP3    H129343   0.715   5.141   5.143
 9822TIP3    H229344   0.864   5.157   5.168
 9823TIP3   OH229345   0.753   6.159   5.071
 9823TIP3    H129346   0.713   6.206   4.995
 9823TIP3    H229347   0.848   6.177   5.052
 9824TIP3   OH229348   0.031   5.715   4.245
 9824TIP3    H129349  -0.024   5.639   4.271
 9824TIP3    H229350   0.081   5.677   4.170
 9825TIP3   OH229351   0.648   6.060   5.830
 9825TIP3    H129352   0.643   5.984   5.893
 9825TIP3    H229353   0.731   6.104   5.857
 9826TIP3   OH229354   0.428   5.769   4.132
 9826TIP3    H129355   0.476   5.708   4.191
 9826TIP3    H229356   0.484   5.770   4.052
 9827TIP3   OH229357   0.276   5.681   6.018
 9827TIP3    H129358   0.229   5.666   5.935
 9827TIP3    H229359   0.311   5.591   6.034
 9828TIP3   OH229360   0.157   5.430   4.243
 9828TIP3    H129361   0.155   5.451   4.339
 9828TIP3    H229362   0.149   5.333   4.244
 9829TIP3   OH229363   0.753   5.689   5.633
 9829TIP3    H129364   0.833   5.721   5.586
 9829TIP3    H229365   0.691   5.761   5.611
 9830TIP3   OH229366  -0.152   5.143   4.667
 9830TIP3    H129367  -0.180   5.089   4.742
 9830TIP3    H229368  -0.119   5.075   4.605
 9831TIP3   OH229369   0.180   5.217   5.887
 9831TIP3    H129370   0.107   5.279   5.891
 9831TIP3    H229371   0.216   5.239   5.797
 9832TIP3   OH229372  -0.053   4.934   4.506
 9832TIP3    H129373  -0.077   4.945   4.411
 9832TIP3    H229374   0.044   4.945   4.500
 9833TIP3   OH229375   0.629   5.607   6.026
 9833TIP3    H129376   0.707   5.589   5.971
 9833TIP3    H229377   0.638   5.540   6.096
 9834TIP3   OH229378   0.766   5.271   4.166
 9834TIP3    H129379   0.743   5.225   4.083
 9834TIP3    H229380   0.735   5.362   4.143
 9835TIP3   OH229381   0.241   4.983   6.034
 9835TIP3    H129382   0.237   4.909   5.971
 9835TIP3    H229383   0.216   5.060   5.978
 9836TIP3   OH229384   0.227   4.774   5.822
 9836TIP3    H129385   0.269   4.823   5.747
 9836TIP3    H229386   0.134   4.785   5.801
 9837TIP3   OH229387   0.264   5.336   5.653
 9837TIP3    H129388   0.352   5.311   5.619
 9837TIP3    H229389   0.267   5.432   5.641
 9838TIP3   OH229390   0.850   5.290   6.084
 9838TIP3    H129391   0.900   5.207   6.086
 9838TIP3    H229392   0.912   5.349   6.038
 9839TIP3   OH229393   0.882   5.547   5.832
 9839TIP3    H129394   0.825   5.582   5.759
 9839TIP3    H229395   0.969   5.550   5.786
 9840TIP3   OH229396   0.370   4.548   5.892
 9840TIP3    H129397   0.320   4.629   5.869
 9840TIP3    H229398   0.301   4.479   5.885
 9841TIP3   OH229399   0.497   5.056   6.111
 9841TIP3    H129400   0.490   5.048   6.208
 9841TIP3    H229401   0.407   5.027   6.086
 9842TIP3   OH229402   0.735   5.004   5.964
 9842TIP3    H129403   0.660   5.004   6.027
 9842TIP3    H229404   0.809   4.973   6.021
 9843TIP3   OH229405   0.957   4.941   6.118
 9843TIP3    H129406   0.974   4.846   6.137
 9843TIP3    H229407   0.959   4.982   6.207
 9844TIP3   OH229408   0.464   4.558   6.150
 9844TIP3    H129409   0.533   4.490   6.146
 9844TIP3    H229410   0.426   4.550   6.060
 9845TIP3   OH229411   0.527   4.771   6.311
 9845TIP3    H129412   0.506   4.701   6.245
 9845TIP3    H229413   0.454   4.835   6.298
 9846TIP3   OH229414   1.002   6.258   5.024
 9846TIP3    H129415   1.034   6.282   5.113
 9846TIP3    H229416   1.073   6.291   4.967
 9847TIP3   OH229417   1.036   6.269   5.306
 9847TIP3    H129418   0.996   6.179   5.306
 9847TIP3    H229419   1.114   6.251   5.360
 9848TIP3   OH229420   1.083   5.948   5.880
 9848TIP3    H129421   1.010   5.954   5.944
 9848TIP3    H229422   1.124   6.036   5.887
 9849TIP3   OH229423   0.899   5.459   4.500
 9849TIP3    H129424   0.969   5.522   4.475
 9849TIP3    H229425   0.940   5.418   4.581
 9850TIP3   OH229426   1.025   5.326   4.702
 9850TIP3    H129427   0.962   5.285   4.765
 9850TIP3    H229428   1.094   5.363   4.761
 9851TIP3   OH229429   1.093   5.730   5.147
 9851TIP3    H129430   1.136   5.653   5.105
 9851TIP3    H229431   1.068   5.785   5.071
 9852TIP3   OH229432   0.914   6.017   5.332
 9852TIP3    H129433   0.841   6.052   5.385
 9852TIP3    H229434   0.867   5.966   5.263
 9853TIP3   OH229435   0.965   5.232   4.352
 9853TIP3    H129436   0.893   5.239   4.286
 9853TIP3    H229437   0.941   5.308   4.409
 9854TIP3   OH229438   0.835   4.905   4.307
 9854TIP3    H129439   0.794   4.949   4.232
 9854TIP3    H229440   0.808   4.812   4.292
 9855TIP3   OH229441   0.840   5.180   4.847
 9855TIP3    H129442   0.854   5.084   4.850
 9855TIP3    H229443   0.828   5.200   4.943
 9856TIP3   OH229444   1.129   5.608   5.716
 9856TIP3    H129445   1.195   5.537   5.701
 9856TIP3    H229446   1.148   5.669   5.644
 9857TIP3   OH229447   1.317   5.414   5.741
 9857TIP3    H129448   1.239   5.363   5.770
 9857TIP3    H229449   1.386   5.345   5.744
 9858TIP3   OH229450   0.782   4.637   4.289
 9858TIP3    H129451   0.861   4.614   4.343
 9858TIP3    H229452   0.712   4.582   4.327
 9859TIP3   OH229453   0.833   4.894   4.746
 9859TIP3    H129454   0.877   4.807   4.761
 9859TIP3    H229455   0.895   4.932   4.681
 9860TIP3   OH229456   1.000   5.086   5.254
 9860TIP3    H129457   1.088   5.106   5.215
 9860TIP3    H229458   1.005   5.143   5.333
 9861TIP3   OH229459   1.519   4.805   6.033
 9861TIP3    H129460   1.577   4.739   5.989
 9861TIP3    H229461   1.492   4.861   5.957
 9862TIP3   OH229462   0.947   4.646   4.784
 9862TIP3    H129463   0.997   4.633   4.867
 9862TIP3    H229464   0.887   4.568   4.785
 9863TIP3   OH229465   1.391   4.948   5.841
 9863TIP3    H129466   1.302   4.986   5.856
 9863TIP3    H229467   1.367   4.877   5.778
 9864TIP3   OH229468   1.027   4.587   4.412
 9864TIP3    H129469   1.074   4.513   4.369
 9864TIP3    H229470   1.095   4.657   4.413
 9865TIP3   OH229471   0.590   6.115   4.684
 9865TIP3    H129472   0.643   6.100   4.603
 9865TIP3    H229473   0.644   6.179   4.732
 9866TIP3   OH229474   0.346   6.173   5.763
 9866TIP3    H129475   0.372   6.203   5.852
 9866TIP3    H229476   0.395   6.236   5.706
 9867TIP3   OH229477   0.494   6.352   5.611
 9867TIP3    H129478   0.559   6.295   5.567
 9867TIP3    H229479   0.552   6.403   5.672
 9868TIP3   OH229480   1.290   4.710   5.715
 9868TIP3    H129481   1.199   4.709   5.680
 9868TIP3    H229482   1.318   4.617   5.700
 9869TIP3   OH229483   0.219   6.239   5.263
 9869TIP3    H129484   0.123   6.252   5.250
 9869TIP3    H229485   0.241   6.319   5.315
 9870TIP3   OH229486   0.477   6.164   5.350
 9870TIP3    H129487   0.389   6.175   5.311
 9870TIP3    H229488   0.528   6.233   5.304
 9871TIP3   OH229489   0.684   6.347   5.263
 9871TIP3    H129490   0.673   6.432   5.216
 9871TIP3    H229491   0.713   6.287   5.191
 9872TIP3   OH229492   0.491   4.622   5.325
 9872TIP3    H129493   0.452   4.552   5.380
 9872TIP3    H229494   0.569   4.579   5.286
 9873TIP3   OH229495   1.017   4.497   5.233
 9873TIP3    H129496   1.057   4.554   5.164
 9873TIP3    H229497   0.925   4.529   5.235
 9874TIP3   OH229498   1.113   4.606   5.000
 9874TIP3    H129499   1.188   4.555   4.961
 9874TIP3    H229500   1.147   4.697   4.987
 9875TIP3   OH229501   0.189   4.373   5.227
 9875TIP3    H129502   0.249   4.424   5.170
 9875TIP3    H229503   0.219   4.400   5.315
 9876TIP3   OH229504   0.727   4.512   5.216
 9876TIP3    H129505   0.736   4.477   5.127
 9876TIP3    H229506   0.717   4.429   5.269
 9877TIP3   OH229507   0.762   4.432   4.773
 9877TIP3    H129508   0.677   4.477   4.788
 9877TIP3    H229509   0.748   4.349   4.823
 9878TIP3   OH229510  -0.325   4.286   4.797
 9878TIP3    H129511  -0.321   4.281   4.700
 9878TIP3    H229512  -0.290   4.374   4.815
 9879TIP3   OH229513   0.163   4.535   4.859
 9879TIP3    H129514   0.224   4.491   4.921
 9879TIP3    H229515   0.182   4.628   4.883
 9880TIP3   OH229516   0.029   5.968   4.388
 9880TIP3    H129517   0.117   5.972   4.342
 9880TIP3    H229518  -0.023   5.929   4.315
 9881TIP3   OH229519   0.736   6.080   4.451
 9881TIP3    H129520   0.727   5.983   4.437
 9881TIP3    H229521   0.692   6.114   4.371
 9882TIP3   OH229522   0.197   4.591   6.349
 9882TIP3    H129523   0.282   4.580   6.303
 9882TIP3    H229524   0.209   4.530   6.423
 9883TIP3   OH229525   1.023   4.671   6.147
 9883TIP3    H129526   1.045   4.640   6.238
 9883TIP3    H229527   1.111   4.668   6.104
 9884TIP3   OH229528   0.963   6.226   5.642
 9884TIP3    H129529   0.885   6.194   5.593
 9884TIP3    H229530   0.947   6.322   5.640
 9885TIP3   OH229531   2.234   5.598   4.401
 9885TIP3    H129532   2.205   5.691   4.388
 9885TIP3    H229533   2.151   5.551   4.384
 9886TIP3   OH229534   2.237   5.588   4.792
 9886TIP3    H129535   2.204   5.578   4.885
 9886TIP3    H229536   2.188   5.515   4.751
 9887TIP3   OH229537   1.528   5.496   5.154
 9887TIP3    H129538   1.561   5.428   5.215
 9887TIP3    H229539   1.610   5.545   5.135
 9888TIP3   OH229540   2.472   5.898   4.466
 9888TIP3    H129541   2.456   5.829   4.532
 9888TIP3    H229542   2.496   5.973   4.523
 9889TIP3   OH229543   1.498   5.899   4.874
 9889TIP3    H129544   1.486   5.802   4.880
 9889TIP3    H229545   1.594   5.905   4.883
 9890TIP3   OH229546   1.207   5.104   4.661
 9890TIP3    H129547   1.166   5.190   4.680
 9890TIP3    H229548   1.131   5.054   4.628
 9891TIP3   OH229549   1.266   5.387   4.821
 9891TIP3    H129550   1.314   5.316   4.869
 9891TIP3    H229551   1.337   5.429   4.771
 9892TIP3   OH229552   2.119   6.361   4.481
 9892TIP3    H129553   2.169   6.288   4.439
 9892TIP3    H229554   2.111   6.330   4.572
 9893TIP3   OH229555   2.028   5.831   4.820
 9893TIP3    H129556   2.055   5.741   4.796
 9893TIP3    H229557   2.114   5.866   4.851
 9894TIP3   OH229558   3.047   5.142   4.824
 9894TIP3    H129559   3.065   5.225   4.872
 9894TIP3    H229560   3.060   5.169   4.732
 9895TIP3   OH229561   2.448   5.326   4.865
 9895TIP3    H129562   2.481   5.236   4.885
 9895TIP3    H229563   2.410   5.313   4.776
 9896TIP3   OH229564   1.775   4.983   4.832
 9896TIP3    H129565   1.755   5.058   4.772
 9896TIP3    H229566   1.724   4.912   4.788
 9897TIP3   OH229567   2.470   5.069   4.456
 9897TIP3    H129568   2.542   5.054   4.522
 9897TIP3    H229569   2.522   5.111   4.385
 9898TIP3   OH229570   1.411   5.187   4.939
 9898TIP3    H129571   1.493   5.169   4.989
 9898TIP3    H229572   1.426   5.131   4.860
 9899TIP3   OH229573   1.855   5.385   4.721
 9899TIP3    H129574   1.947   5.358   4.742
 9899TIP3    H229575   1.815   5.299   4.698
 9900TIP3   OH229576   3.110   5.348   5.005
 9900TIP3    H129577   3.026   5.395   4.984
 9900TIP3    H229578   3.134   5.388   5.090
 9901TIP3   OH229579   1.771   4.964   5.265
 9901TIP3    H129580   1.713   5.005   5.198
 9901TIP3    H229581   1.722   4.985   5.347
 9902TIP3   OH229582   2.135   5.828   4.266
 9902TIP3    H129583   2.075   5.792   4.200
 9902TIP3    H229584   2.085   5.909   4.293
 9903TIP3   OH229585   1.836   5.737   5.056
 9903TIP3    H129586   1.797   5.816   5.099
 9903TIP3    H229587   1.927   5.765   5.037
 9904TIP3   OH229588   2.685   5.074   4.625
 9904TIP3    H129589   2.662   5.030   4.708
 9904TIP3    H229590   2.734   5.152   4.656
 9905TIP3   OH229591   1.642   5.081   5.051
 9905TIP3    H129592   1.702   5.155   5.074
 9905TIP3    H229593   1.694   5.040   4.978
 9906TIP3   OH229594   1.704   5.946   5.168
 9906TIP3    H129595   1.677   6.032   5.129
 9906TIP3    H229596   1.625   5.927   5.222
 9907TIP3   OH229597   1.106   5.626   4.396
 9907TIP3    H129598   1.063   5.655   4.315
 9907TIP3    H229599   1.136   5.710   4.436
 9908TIP3   OH229600   2.544   6.140   4.634
 9908TIP3    H129601   2.456   6.130   4.677
 9908TIP3    H229602   2.534   6.228   4.592
 9909TIP3   OH229603   2.841   5.066   5.010
 9909TIP3    H129604   2.748   5.060   4.982
 9909TIP3    H229605   2.888   5.071   4.926
 9910TIP3   OH229606   2.127   4.688   4.974
 9910TIP3    H129607   2.120   4.595   5.000
 9910TIP3    H229608   2.052   4.727   5.025
 9911TIP3   OH229609   2.251   6.187   4.313
 9911TIP3    H129610   2.302   6.106   4.291
 9911TIP3    H229611   2.308   6.255   4.269
 9912TIP3   OH229612   2.394   5.967   4.210
 9912TIP3    H129613   2.324   5.900   4.196
 9912TIP3    H229614   2.429   5.938   4.297
 9913TIP3   OH229615   2.772   6.057   4.978
 9913TIP3    H129616   2.757   5.978   4.922
 9913TIP3    H229617   2.752   6.130   4.916
 9914TIP3   OH229618   2.057   5.444   4.233
 9914TIP3    H129619   1.976   5.496   4.214
 9914TIP3    H229620   2.104   5.447   4.148
 9915TIP3   OH229621   2.018   5.234   3.952
 9915TIP3    H129622   2.085   5.280   4.006
 9915TIP3    H229623   2.075   5.169   3.906
 9916TIP3   OH229624   2.966   5.692   4.823
 9916TIP3    H129625   2.882   5.743   4.831
 9916TIP3    H229626   2.992   5.716   4.732
 9917TIP3   OH229627   2.410   5.531   4.207
 9917TIP3    H129628   2.352   5.556   4.283
 9917TIP3    H229629   2.491   5.503   4.256
 9918TIP3   OH229630   2.663   5.578   5.120
 9918TIP3    H129631   2.647   5.663   5.164
 9918TIP3    H229632   2.571   5.560   5.087
 9919TIP3   OH229633   1.644   5.531   4.619
 9919TIP3    H129634   1.605   5.469   4.555
 9919TIP3    H229635   1.721   5.479   4.654
 9920TIP3   OH229636   1.776   5.951   4.766
 9920TIP3    H129637   1.752   5.888   4.698
 9920TIP3    H229638   1.863   5.915   4.795
 9921TIP3   OH229639   1.763   5.495   4.969
 9921TIP3    H129640   1.816   5.476   4.890
 9921TIP3    H229641   1.808   5.577   5.003
 9922TIP3   OH229642   2.305   6.137   4.755
 9922TIP3    H129643   2.289   6.215   4.811
 9922TIP3    H229644   2.290   6.063   4.817
 9923TIP3   OH229645   1.915   6.057   5.304
 9923TIP3    H129646   1.856   6.120   5.351
 9923TIP3    H229647   1.847   6.005   5.256
 9924TIP3   OH229648   2.253   5.387   4.035
 9924TIP3    H129649   2.309   5.447   4.088
 9924TIP3    H229650   2.279   5.413   3.943
 9925TIP3   OH229651   1.667   5.609   5.407
 9925TIP3    H129652   1.670   5.697   5.450
 9925TIP3    H229653   1.571   5.595   5.402
 9926TIP3   OH229654   1.993   6.068   4.302
 9926TIP3    H129655   2.065   6.124   4.335
 9926TIP3    H229656   1.926   6.133   4.275
 9927TIP3   OH229657   1.710   6.227   5.389
 9927TIP3    H129658   1.673   6.224   5.298
 9927TIP3    H229659   1.631   6.205   5.444
 9928TIP3   OH229660   2.764   4.631   4.081
 9928TIP3    H129661   2.683   4.648   4.134
 9928TIP3    H229662   2.774   4.715   4.034
 9929TIP3   OH229663   1.511   5.368   4.420
 9929TIP3    H129664   1.441   5.415   4.369
 9929TIP3    H229665   1.464   5.289   4.450
 9930TIP3   OH229666   2.563   6.004   3.627
 9930TIP3    H129667   2.550   6.101   3.627
 9930TIP3    H229668   2.646   6.000   3.579
 9931TIP3   OH229669   1.288   5.753   5.339
 9931TIP3    H129670   1.222   5.736   5.268
 9931TIP3    H229671   1.320   5.663   5.360
 9932TIP3   OH229672   1.142   5.960   4.953
 9932TIP3    H129673   1.235   5.934   4.958
 9932TIP3    H229674   1.136   6.026   5.024
 9933TIP3   OH229675   3.008   6.399   5.023
 9933TIP3    H129676   3.005   6.302   5.038
 9933TIP3    H229677   2.924   6.425   5.069
 9934TIP3   OH229678   2.109   6.184   5.156
 9934TIP3    H129679   2.113   6.277   5.190
 9934TIP3    H229680   2.039   6.147   5.214
 9935TIP3   OH229681   1.872   6.318   4.109
 9935TIP3    H129682   1.823   6.298   4.027
 9935TIP3    H229683   1.839   6.407   4.133
 9936TIP3   OH229684   1.311   6.165   4.495
 9936TIP3    H129685   1.359   6.155   4.579
 9936TIP3    H229686   1.250   6.090   4.502
 9937TIP3   OH229687   2.074   6.218   3.753
 9937TIP3    H129688   2.133   6.147   3.717
 9937TIP3    H229689   2.106   6.226   3.845
 9938TIP3   OH229690   2.123   6.262   4.023
 9938TIP3    H129691   2.034   6.273   4.064
 9938TIP3    H229692   2.172   6.222   4.097
 9939TIP3   OH229693   2.899   5.527   5.298
 9939TIP3    H129694   2.820   5.560   5.251
 9939TIP3    H229695   2.888   5.432   5.284
 9940TIP3   OH229696   1.487   5.939   5.328
 9940TIP3    H129697   1.538   5.922   5.410
 9940TIP3    H229698   1.416   5.872   5.335
 9941TIP3   OH229699   1.887   4.768   5.096
 9941TIP3    H129700   1.795   4.739   5.081
 9941TIP3    H229701   1.870   4.849   5.148
 9942TIP3   OH229702   2.429   4.881   5.325
 9942TIP3    H129703   2.463   4.803   5.375
 9942TIP3    H229704   2.333   4.867   5.339
 9943TIP3   OH229705   2.694   5.319   5.241
 9943TIP3    H129706   2.630   5.307   5.315
 9943TIP3    H229707   2.650   5.387   5.187
 9944TIP3   OH229708   2.330   5.435   3.777
 9944TIP3    H129709   2.294   5.407   3.690
 9944TIP3    H229710   2.390   5.506   3.752
 9945TIP3   OH229711   2.039   4.813   4.080
 9945TIP3    H129712   2.008   4.812   4.173
 9945TIP3    H229713   2.000   4.728   4.049
 9946TIP3   OH229714   1.817   5.275   5.122
 9946TIP3    H129715   1.772   5.300   5.205
 9946TIP3    H229716   1.811   5.358   5.069
 9947TIP3   OH229717   1.707   5.162   4.640
 9947TIP3    H129718   1.614   5.137   4.659
 9947TIP3    H229719   1.719   5.120   4.552
 9948TIP3   OH229720   2.198   5.249   4.367
 9948TIP3    H129721   2.142   5.321   4.329
 9948TIP3    H229722   2.250   5.221   4.290
 9949TIP3   OH229723   2.374   5.540   5.465
 9949TIP3    H129724   2.347   5.458   5.513
 9949TIP3    H229725   2.469   5.542   5.485
 9950TIP3   OH229726   2.361   5.280   4.607
 9950TIP3    H129727   2.294   5.310   4.542
 9950TIP3    H229728   2.386   5.195   4.565
 9951TIP3   OH229729   1.647   5.310   5.338
 9951TIP3    H129730   1.665   5.376   5.406
 9951TIP3    H229731   1.635   5.228   5.390
 9952TIP3   OH229732   1.691   4.782   4.045
 9952TIP3    H129733   1.687   4.781   4.143
 9952TIP3    H229734   1.613   4.837   4.025
 9953TIP3   OH229735   1.236   4.828   4.913
 9953TIP3    H129736   1.306   4.863   4.973
 9953TIP3    H229737   1.287   4.798   4.837
 9954TIP3   OH229738   1.210   4.810   4.434
 9954TIP3    H129739   1.258   4.851   4.359
 9954TIP3    H229740   1.152   4.884   4.459
 9955TIP3   OH229741   2.410   5.516   5.061
 9955TIP3    H129742   2.409   5.454   4.985
 9955TIP3    H229743   2.312   5.526   5.075
 9956TIP3   OH229744   2.030   4.982   4.702
 9956TIP3    H129745   1.948   4.983   4.756
 9956TIP3    H229746   2.097   4.992   4.771
 9957TIP3   OH229747   1.470   5.042   4.710
 9957TIP3    H129748   1.375   5.048   4.685
 9957TIP3    H229749   1.493   4.950   4.688
 9958TIP3   OH229750   1.741   5.034   4.398
 9958TIP3    H129751   1.835   5.054   4.382
 9958TIP3    H229752   1.695   5.063   4.316
 9959TIP3   OH229753   2.528   5.056   4.897
 9959TIP3    H129754   2.500   5.069   4.991
 9959TIP3    H229755   2.458   4.996   4.866
 9960TIP3   OH229756   1.577   5.070   4.178
 9960TIP3    H129757   1.503   5.028   4.129
 9960TIP3    H229758   1.629   5.106   4.103
 9961TIP3   OH229759   2.695   6.750   5.123
 9961TIP3    H129760   2.694   6.773   5.029
 9961TIP3    H229761   2.772   6.800   5.156
 9962TIP3   OH229762   1.652   5.860   5.546
 9962TIP3    H129763   1.732   5.891   5.592
 9962TIP3    H229764   1.587   5.861   5.619
 9963TIP3   OH229765   2.111   5.306   4.788
 9963TIP3    H129766   2.195   5.265   4.764
 9963TIP3    H229767   2.119   5.313   4.885
 9964TIP3   OH229768   1.637   4.802   4.674
 9964TIP3    H129769   1.609   4.722   4.723
 9964TIP3    H229770   1.702   4.767   4.612
 9965TIP3   OH229771   2.093   5.193   5.102
 9965TIP3    H129772   2.011   5.244   5.094
 9965TIP3    H229773   2.151   5.260   5.143
 9966TIP3   OH229774   1.833   5.601   4.184
 9966TIP3    H129775   1.760   5.537   4.174
 9966TIP3    H229776   1.815   5.636   4.275
 9967TIP3   OH229777   2.733   5.836   4.816
 9967TIP3    H129778   2.754   5.885   4.734
 9967TIP3    H229779   2.646   5.796   4.796
 9968TIP3   OH229780   2.288   4.918   4.036
 9968TIP3    H129781   2.192   4.900   4.053
 9968TIP3    H229782   2.300   5.010   4.069
 9969TIP3   OH229783   2.253   5.936   5.182
 9969TIP3    H129784   2.242   5.887   5.264
 9969TIP3    H229785   2.192   6.010   5.191
 9970TIP3   OH229786   2.361   5.158   4.146
 9970TIP3    H129787   2.456   5.166   4.167
 9970TIP3    H229788   2.342   5.240   4.097
 9971TIP3   OH229789   1.518   5.615   4.858
 9971TIP3    H129790   1.565   5.593   4.775
 9971TIP3    H229791   1.570   5.566   4.923
 9972TIP3   OH229792   1.975   5.750   4.003
 9972TIP3    H129793   1.929   5.837   4.012
 9972TIP3    H229794   1.922   5.695   4.064
 9973TIP3   OH229795   1.390   5.536   5.478
 9973TIP3    H129796   1.424   5.532   5.570
 9973TIP3    H229797   1.322   5.467   5.480
 9974TIP3   OH229798   2.124   5.656   5.495
 9974TIP3    H129799   2.063   5.594   5.450
 9974TIP3    H229800   2.211   5.621   5.466
 9975TIP3   OH229801   2.394   6.195   5.067
 9975TIP3    H129802   2.301   6.174   5.085
 9975TIP3    H229803   2.420   6.236   5.153
 9976TIP3   OH229804   2.802   5.243   3.987
 9976TIP3    H129805   2.739   5.199   3.924
 9976TIP3    H229806   2.807   5.330   3.945
 9977TIP3   OH229807   3.021   6.107   5.069
 9977TIP3    H129808   2.923   6.104   5.061
 9977TIP3    H229809   3.046   6.078   4.978
 9978TIP3   OH229810   2.508   6.068   3.898
 9978TIP3    H129811   2.469   6.008   3.965
 9978TIP3    H229812   2.508   6.015   3.817
 9979TIP3   OH229813   2.496   5.699   4.733
 9979TIP3    H129814   2.406   5.668   4.756
 9979TIP3    H229815   2.531   5.618   4.690
 9980TIP3   OH229816   1.620   5.922   4.475
 9980TIP3    H129817   1.621   6.008   4.431
 9980TIP3    H229818   1.528   5.913   4.501
 9981TIP3   OH229819   1.185   5.232   4.186
 9981TIP3    H129820   1.234   5.315   4.208
 9981TIP3    H229821   1.110   5.238   4.249
 9982TIP3   OH229822   1.769   5.695   4.428
 9982TIP3    H129823   1.729   5.782   4.447
 9982TIP3    H229824   1.734   5.643   4.504
 9983TIP3   OH229825   1.892   6.272   4.958
 9983TIP3    H129826   1.935   6.344   4.908
 9983TIP3    H229827   1.968   6.234   5.007
 9984TIP3   OH229828   1.543   6.167   4.337
 9984TIP3    H129829   1.458   6.172   4.384
 9984TIP3    H229830   1.573   6.260   4.342
 9985TIP3   OH229831   2.287   5.906   4.913
 9985TIP3    H129832   2.277   5.907   5.011
 9985TIP3    H229833   2.359   5.841   4.902
 9986TIP3   OH229834   2.251   5.796   3.795
 9986TIP3    H129835   2.304   5.770   3.875
 9986TIP3    H229836   2.162   5.773   3.826
 9987TIP3   OH229837   2.534   6.439   4.966
 9987TIP3    H129838   2.458   6.378   4.965
 9987TIP3    H229839   2.511   6.501   4.893
 9988TIP3   OH229840   2.593   6.275   3.617
 9988TIP3    H129841   2.632   6.346   3.563
 9988TIP3    H229842   2.514   6.324   3.650
 9989TIP3   OH229843   1.619   5.050   5.485
 9989TIP3    H129844   1.523   5.054   5.500
 9989TIP3    H229845   1.648   4.987   5.554
 9990TIP3   OH229846   2.414   5.722   4.004
 9990TIP3    H129847   2.400   5.665   4.082
 9990TIP3    H229848   2.511   5.729   4.005
 9991TIP3   OH229849   1.329   6.133   5.117
 9991TIP3    H129850   1.380   6.059   5.152
 9991TIP3    H229851   1.359   6.205   5.174
 9992TIP3   OH229852   1.624   5.778   3.795
 9992TIP3    H129853   1.637   5.685   3.767
 9992TIP3    H229854   1.606   5.767   3.890
 9993TIP3   OH229855   1.570   5.783   4.066
 9993TIP3    H129856   1.634   5.755   4.133
 9993TIP3    H229857   1.573   5.881   4.075
 9994TIP3   OH229858   1.303   5.476   4.270
 9994TIP3    H129859   1.239   5.521   4.330
 9994TIP3    H229860   1.319   5.548   4.206
 9995TIP3   OH229861   2.467   5.104   5.159
 9995TIP3    H129862   2.529   5.141   5.222
 9995TIP3    H229863   2.430   5.030   5.211
 9996TIP3   OH229864   2.336   4.865   4.323
 9996TIP3    H129865   2.319   4.895   4.232
 9996TIP3    H229866   2.373   4.945   4.365
 9997TIP3   OH229867   1.833   5.981   4.015
 9997TIP3    H129868   1.748   6.008   4.053
 9997TIP3    H229869   1.850   6.057   3.956
 9998TIP3   OH229870   2.023   5.043   4.430
 9998TIP3    H129871   2.088   5.116   4.416
 9998TIP3    H229872   2.026   5.035   4.528
 9999TIP3   OH229873   2.279   5.322   5.292
 9999TIP3    H129874   2.295   5.417   5.298
 9999TIP3    H229875   2.358   5.290   5.248
10000TIP3   OH229876   2.168   4.773   4.534
10000TIP3    H129877   2.163   4.845   4.600
10000TIP3    H229878   2.228   4.813   4.467
10001TIP3   OH229879   1.576   6.056   4.084
10001TIP3    H129880   1.545   6.126   4.021
10001TIP3    H229881   1.559   6.099   4.170
10002TIP3   OH229882   1.679   4.768   4.321
10002TIP3    H129883   1.675   4.858   4.359
10002TIP3    H229884   1.775   4.750   4.332
10003TIP3   OH229885   2.940   5.224   5.223
10003TIP3    H129886   2.845   5.249   5.229
10003TIP3    H229887   2.942   5.204   5.127
10004TIP3   OH229888   2.586   5.456   4.603
10004TIP3    H129889   2.506   5.403   4.621
10004TIP3    H229890   2.654   5.409   4.656
10005TIP3   OH229891   1.294   5.690   4.078
10005TIP3    H129892   1.356   5.764   4.088
10005TIP3    H229893   1.342   5.637   4.011
10006TIP3   OH229894   1.242   4.963   4.205
10006TIP3    H129895   1.242   5.060   4.203
10006TIP3    H229896   1.152   4.943   4.180
10007TIP3   OH229897   2.551   6.412   4.557
10007TIP3    H129898   2.508   6.459   4.482
10007TIP3    H229899   2.645   6.432   4.537
10008TIP3   OH229900   1.624   4.682   5.087
10008TIP3    H129901   1.594   4.647   5.000
10008TIP3    H229902   1.617   4.603   5.145
10009TIP3   OH229903   1.168   5.899   4.466
10009TIP3    H129904   1.097   5.932   4.524
10009TIP3    H229905   1.144   5.941   4.380
10010TIP3   OH229906   1.307   6.427   5.555
10010TIP3    H129907   1.400   6.437   5.586
10010TIP3    H229908   1.302   6.331   5.542
10011TIP3   OH229909   1.804   6.404   5.588
10011TIP3    H129910   1.899   6.387   5.592
10011TIP3    H229911   1.779   6.353   5.509
10012TIP3   OH229912   1.786   5.983   3.709
10012TIP3    H129913   1.728   5.914   3.749
10012TIP3    H229914   1.860   5.928   3.679
10013TIP3   OH229915   2.448   6.310   5.310
10013TIP3    H129916   2.435   6.242   5.380
10013TIP3    H229917   2.522   6.362   5.346
10014TIP3   OH229918   2.223   6.026   3.621
10014TIP3    H129919   2.265   5.958   3.676
10014TIP3    H229920   2.275   6.025   3.539
10015TIP3   OH229921   1.451   5.848   5.737
10015TIP3    H129922   1.469   5.752   5.738
10015TIP3    H229923   1.363   5.851   5.693
10016TIP3   OH229924   1.431   5.500   3.928
10016TIP3    H129925   1.483   5.467   4.002
10016TIP3    H229926   1.500   5.505   3.858
10017TIP3   OH229927   2.062   5.931   5.510
10017TIP3    H129928   2.017   5.947   5.424
10017TIP3    H229929   2.091   5.838   5.503
10018TIP3   OH229930   1.940   5.698   3.735
10018TIP3    H129931   1.939   5.712   3.832
10018TIP3    H229932   1.936   5.600   3.731
10019TIP3   OH229933   2.558   5.935   5.119
10019TIP3    H129934   2.621   5.994   5.073
10019TIP3    H229935   2.475   5.984   5.111
10020TIP3   OH229936   1.569   5.583   5.716
10020TIP3    H129937   1.644   5.526   5.694
10020TIP3    H229938   1.595   5.614   5.806
10021TIP3   OH229939   1.639   5.403   4.152
10021TIP3    H129940   1.611   5.367   4.238
10021TIP3    H229941   1.672   5.324   4.106
10022TIP3   OH229942   1.924   5.482   5.371
10022TIP3    H129943   1.839   5.532   5.373
10022TIP3    H229944   1.952   5.493   5.278
10023TIP3   OH229945   1.738   5.193   3.993
10023TIP3    H129946   1.711   5.196   3.899
10023TIP3    H229947   1.835   5.203   3.985
10024TIP3   OH229948   2.427   5.873   5.520
10024TIP3    H129949   2.499   5.844   5.463
10024TIP3    H229950   2.418   5.799   5.582
10025TIP3   OH229951   2.590   5.544   3.637
10025TIP3    H129952   2.557   5.486   3.566
10025TIP3    H229953   2.536   5.624   3.617
10026TIP3   OH229954   2.029   5.257   5.510
10026TIP3    H129955   2.033   5.177   5.453
10026TIP3    H229956   1.998   5.324   5.445
10027TIP3   OH229957   2.024   5.047   5.326
10027TIP3    H129958   2.058   5.089   5.243
10027TIP3    H229959   1.934   5.020   5.298
10028TIP3   OH229960   2.640   5.552   5.569
10028TIP3    H129961   2.686   5.468   5.577
10028TIP3    H229962   2.708   5.611   5.532
10029TIP3   OH229963   2.688   5.798   5.309
10029TIP3    H129964   2.626   5.848   5.250
10029TIP3    H229965   2.772   5.819   5.263
10030TIP3   OH229966   1.910   5.368   5.737
10030TIP3    H129967   1.840   5.301   5.749
10030TIP3    H229968   1.944   5.344   5.648
10031TIP3   OH229969   2.171   4.812   5.343
10031TIP3    H129970   2.110   4.888   5.351
10031TIP3    H229971   2.116   4.737   5.371
10032TIP3   OH229972   2.296   5.312   5.598
10032TIP3    H129973   2.271   5.299   5.691
10032TIP3    H229974   2.211   5.288   5.555
10033TIP3   OH229975   2.541   5.260   5.455
10033TIP3    H129976   2.450   5.267   5.491
10033TIP3    H229977   2.584   5.208   5.525
10034TIP3   OH229978   2.797   5.159   5.639
10034TIP3    H129979   2.771   5.082   5.696
10034TIP3    H229980   2.766   5.231   5.697
10035TIP3   OH229981   1.746   5.150   5.789
10035TIP3    H129982   1.755   5.061   5.751
10035TIP3    H229983   1.782   5.135   5.879
10036TIP3   OH229984   2.317   5.020   5.790
10036TIP3    H129985   2.298   4.967   5.711
10036TIP3    H229986   2.246   5.087   5.788
10037TIP3   OH229987   1.545   6.259   3.896
10037TIP3    H129988   1.640   6.257   3.877
10037TIP3    H229989   1.514   6.307   3.817
10038TIP3   OH229990   1.025   5.642   4.111
10038TIP3    H129991   1.120   5.664   4.101
10038TIP3    H229992   1.022   5.552   4.071
10039TIP3   OH229993   0.941   6.252   4.526
10039TIP3    H129994   0.872   6.190   4.493
10039TIP3    H229995   0.984   6.196   4.594
10040TIP3   OH229996   1.077   6.105   4.713
10040TIP3    H129997   1.070   6.031   4.776
10040TIP3    H229998   1.127   6.168   4.768
10041TIP3   OH229999   2.803   6.505   4.511
10041TIP3    H130000   2.827   6.536   4.600
10041TIP3    H230001   2.864   6.554   4.454
10042TIP3   OH230002   2.835   6.525   4.792
10042TIP3    H130003   2.789   6.438   4.790
10042TIP3    H230004   2.907   6.504   4.853
10043TIP3   OH230005   2.881   6.199   5.369
10043TIP3    H130006   2.805   6.209   5.430
10043TIP3    H230007   2.920   6.289   5.372
10044TIP3   OH230008   2.702   5.711   3.983
10044TIP3    H130009   2.758   5.790   3.977
10044TIP3    H230010   2.733   5.672   4.068
10045TIP3   OH230011   2.820   5.584   4.190
10045TIP3    H130012   2.757   5.539   4.251
10045TIP3    H230013   2.887   5.620   4.253
10046TIP3   OH230014   2.878   5.974   4.625
10046TIP3    H130015   2.931   5.912   4.572
10046TIP3    H230016   2.863   6.048   4.563
10047TIP3   OH230017   2.709   6.275   4.819
10047TIP3    H130018   2.639   6.316   4.873
10047TIP3    H230019   2.656   6.226   4.751
10048TIP3   OH230020   2.784   5.509   3.821
10048TIP3    H130021   2.704   5.491   3.765
10048TIP3    H230022   2.742   5.553   3.898
10049TIP3   OH230023   2.636   5.167   3.785
10049TIP3    H130024   2.582   5.197   3.711
10049TIP3    H230025   2.611   5.072   3.786
10050TIP3   OH230026   2.641   5.436   4.337
10050TIP3    H130027   2.644   5.339   4.337
10050TIP3    H230028   2.625   5.454   4.433
10051TIP3   OH230029   1.267   5.533   5.066
10051TIP3    H130030   1.271   5.495   4.977
10051TIP3    H230031   1.360   5.524   5.096
10052TIP3   OH230032   2.926   5.863   5.194
10052TIP3    H130033   3.001   5.800   5.185
10052TIP3    H230034   2.950   5.934   5.133
10053TIP3   OH230035   3.113   5.671   5.215
10053TIP3    H130036   3.037   5.621   5.252
10053TIP3    H230037   3.183   5.603   5.222
10054TIP3   OH230038   2.576   4.902   3.785
10054TIP3    H130039   2.652   4.868   3.836
10054TIP3    H230040   2.503   4.842   3.808
10055TIP3   OH230041   2.633   5.153   4.234
10055TIP3    H130042   2.671   5.064   4.252
10055TIP3    H230043   2.694   5.184   4.166
10056TIP3   OH230044   2.798   5.328   4.728
10056TIP3    H130045   2.884   5.357   4.692
10056TIP3    H230046   2.805   5.363   4.819
10057TIP3   OH230047   2.867   5.472   4.963
10057TIP3    H130048   2.789   5.506   5.012
10057TIP3    H230049   2.896   5.553   4.915
10058TIP3   OH230050   1.478   5.196   5.754
10058TIP3    H130051   1.576   5.191   5.756
10058TIP3    H230052   1.455   5.112   5.799
10059TIP3   OH230053   2.743   4.903   4.270
10059TIP3    H130054   2.789   4.889   4.355
10059TIP3    H230055   2.681   4.827   4.270
10060TIP3   OH230056   1.441   4.889   5.087
10060TIP3    H130057   1.505   4.817   5.102
10060TIP3    H230058   1.500   4.966   5.084
10061TIP3   OH230059   1.246   5.165   5.164
10061TIP3    H130060   1.300   5.166   5.082
10061TIP3    H230061   1.257   5.256   5.195
10062TIP3   OH230062   2.825   4.841   3.901
10062TIP3    H130063   2.865   4.766   3.852
10062TIP3    H230064   2.895   4.909   3.896
10063TIP3   OH230065   1.226   4.659   4.657
10063TIP3    H130066   1.136   4.668   4.692
10063TIP3    H230067   1.227   4.724   4.584
10064TIP3   OH230068   2.388   6.370   4.169
10064TIP3    H130069   2.441   6.358   4.089
10064TIP3    H230070   2.439   6.438   4.217
10065TIP3   OH230071   1.447   4.749   5.480
10065TIP3    H130072   1.397   4.745   5.563
10065TIP3    H230073   1.380   4.789   5.420
10066TIP3   OH230074   1.490   6.171   5.554
10066TIP3    H130075   1.399   6.141   5.538
10066TIP3    H230076   1.497   6.166   5.650
10067TIP3   OH230077   1.664   6.208   5.104
10067TIP3    H130078   1.617   6.284   5.064
10067TIP3    H230079   1.750   6.220   5.060
10068TIP3   OH230080   2.117   6.447   5.239
10068TIP3    H130081   2.155   6.449   5.329
10068TIP3    H230082   2.182   6.501   5.189
10069TIP3   OH230083   2.293   6.604   5.098
10069TIP3    H130084   2.364   6.549   5.062
10069TIP3    H230085   2.342   6.661   5.161
10070TIP3   OH230086   1.341   6.456   5.122
10070TIP3    H130087   1.252   6.494   5.112
10070TIP3    H230088   1.374   6.505   5.199
10071TIP3   OH230089   1.579   6.438   4.981
10071TIP3    H130090   1.495   6.453   5.029
10071TIP3    H230091   1.558   6.475   4.893
10072TIP3   OH230092   2.009   6.477   4.778
10072TIP3    H130093   1.934   6.497   4.719
10072TIP3    H230094   2.018   6.561   4.826
10073TIP3   OH230095   2.275   6.414   4.829
10073TIP3    H130096   2.179   6.429   4.812
10073TIP3    H230097   2.313   6.496   4.794
10074TIP3   OH230098   2.487   6.607   4.750
10074TIP3    H130099   2.470   6.691   4.701
10074TIP3    H230100   2.508   6.545   4.678
10075TIP3   OH230101   1.255   6.261   4.872
10075TIP3    H130102   1.281   6.237   4.964
10075TIP3    H230103   1.325   6.213   4.823
10076TIP3   OH230104   1.448   6.129   4.727
10076TIP3    H130105   1.463   6.044   4.776
10076TIP3    H230106   1.540   6.165   4.725
10077TIP3   OH230107   1.716   6.226   4.728
10077TIP3    H130108   1.746   6.132   4.720
10077TIP3    H230109   1.755   6.247   4.815
10078TIP3   OH230110   2.291   4.879   4.812
10078TIP3    H130111   2.245   4.820   4.874
10078TIP3    H230112   2.363   4.824   4.779
10079TIP3   OH230113   2.821   4.756   4.724
10079TIP3    H130114   2.851   4.812   4.650
10079TIP3    H230115   2.725   4.774   4.724
10080TIP3   OH230116   2.911   4.865   4.486
10080TIP3    H130117   2.984   4.815   4.445
10080TIP3    H230118   2.942   4.957   4.473
10081TIP3   OH230119   1.540   4.589   4.834
10081TIP3    H130120   1.449   4.554   4.837
10081TIP3    H230121   1.592   4.506   4.833
10082TIP3   OH230122   1.316   4.459   4.478
10082TIP3    H130123   1.354   4.519   4.411
10082TIP3    H230124   1.292   4.521   4.549
10083TIP3   OH230125   1.980   4.624   4.717
10083TIP3    H130126   2.041   4.678   4.664
10083TIP3    H230127   2.000   4.656   4.806
10084TIP3   OH230128   2.541   4.767   4.701
10084TIP3    H130129   2.523   4.732   4.613
10084TIP3    H230130   2.520   4.688   4.756
10085TIP3   OH230131   2.559   4.690   4.261
10085TIP3    H130132   2.473   4.735   4.275
10085TIP3    H230133   2.544   4.606   4.310
10086TIP3   OH230134   1.044   6.027   4.263
10086TIP3    H130135   0.958   5.996   4.228
10086TIP3    H230136   1.032   6.123   4.252
10087TIP3   OH230137   1.441   4.621   4.246
10087TIP3    H130138   1.493   4.559   4.191
10087TIP3    H230139   1.512   4.676   4.285
10088TIP3   OH230140   1.957   4.792   4.346
10088TIP3    H130141   2.016   4.748   4.409
10088TIP3    H230142   1.975   4.886   4.371
10089TIP3   OH230143   1.813   6.221   3.844
10089TIP3    H130144   1.902   6.243   3.809
10089TIP3    H230145   1.792   6.145   3.786
10090TIP3   OH230146   2.535   6.337   3.937
10090TIP3    H130147   2.527   6.240   3.924
10090TIP3    H230148   2.488   6.371   3.858
10091TIP3   OH230149   1.746   4.872   5.727
10091TIP3    H130150   1.715   4.799   5.784
10091TIP3    H230151   1.841   4.872   5.750
10092TIP3   OH230152   1.994   4.869   5.850
10092TIP3    H130153   2.073   4.832   5.807
10092TIP3    H230154   1.976   4.798   5.916
10093TIP3   OH230155   1.118   6.057   3.904
10093TIP3    H130156   1.115   6.084   3.997
10093TIP3    H230157   1.208   6.017   3.896
10094TIP3   OH230158   2.763   6.482   5.124
10094TIP3    H130159   2.683   6.448   5.080
10094TIP3    H230160   2.741   6.577   5.129
10095TIP3   OH230161   4.023   5.851   3.899
10095TIP3    H130162   3.999   5.944   3.879
10095TIP3    H230163   3.946   5.806   3.861
10096TIP3   OH230164   4.024   5.854   4.272
10096TIP3    H130165   4.053   5.821   4.359
10096TIP3    H230166   3.983   5.775   4.233
10097TIP3   OH230167   3.326   5.751   4.637
10097TIP3    H130168   3.357   5.683   4.701
10097TIP3    H230169   3.403   5.809   4.632
10098TIP3   OH230170   4.283   6.141   3.965
10098TIP3    H130171   4.254   6.083   4.036
10098TIP3    H230172   4.294   6.226   4.008
10099TIP3   OH230173   3.295   6.157   4.364
10099TIP3    H130174   3.286   6.059   4.368
10099TIP3    H230175   3.391   6.166   4.359
10100TIP3   OH230176   3.005   5.368   4.145
10100TIP3    H130177   2.954   5.448   4.166
10100TIP3    H230178   2.933   5.305   4.126
10101TIP3   OH230179   3.062   5.647   4.313
10101TIP3    H130180   3.109   5.573   4.357
10101TIP3    H230181   3.131   5.681   4.254
10102TIP3   OH230182   3.916   6.616   3.970
10102TIP3    H130183   3.965   6.546   3.921
10102TIP3    H230184   3.913   6.579   4.059
10103TIP3   OH230185   3.824   6.078   4.321
10103TIP3    H130186   3.862   6.003   4.273
10103TIP3    H230187   3.908   6.123   4.345
10104TIP3   OH230188   4.841   5.403   4.313
10104TIP3    H130189   4.865   5.486   4.357
10104TIP3    H230190   4.860   5.425   4.220
10105TIP3   OH230191   4.236   5.583   4.356
10105TIP3    H130192   4.277   5.496   4.375
10105TIP3    H230193   4.205   5.568   4.264
10106TIP3   OH230194   3.571   5.241   4.320
10106TIP3    H130195   3.551   5.314   4.257
10106TIP3    H230196   3.523   5.167   4.276
10107TIP3   OH230197   4.266   5.330   3.944
10107TIP3    H130198   4.340   5.314   4.007
10107TIP3    H230199   4.316   5.367   3.869
10108TIP3   OH230200   3.207   5.444   4.426
10108TIP3    H130201   3.289   5.424   4.474
10108TIP3    H230202   3.220   5.387   4.347
10109TIP3   OH230203   3.649   5.641   4.217
10109TIP3    H130204   3.743   5.615   4.232
10109TIP3    H230205   3.610   5.557   4.186
10110TIP3   OH230206   4.912   5.608   4.489
10110TIP3    H130207   4.828   5.653   4.466
10110TIP3    H230208   4.917   5.630   4.583
10111TIP3   OH230209   3.575   5.220   4.752
10111TIP3    H130210   3.515   5.258   4.684
10111TIP3    H230211   3.529   5.247   4.833
10112TIP3   OH230212   3.908   6.070   3.773
10112TIP3    H130213   3.898   6.060   3.678
10112TIP3    H230214   3.869   6.158   3.788
10113TIP3   OH230215   3.677   5.998   4.551
10113TIP3    H130216   3.613   6.063   4.589
10113TIP3    H230217   3.719   6.050   4.480
10114TIP3   OH230218   4.481   5.330   4.112
10114TIP3    H130219   4.467   5.284   4.196
10114TIP3    H230220   4.533   5.408   4.140
10115TIP3   OH230221   3.440   5.339   4.539
10115TIP3    H130222   3.503   5.412   4.562
10115TIP3    H230223   3.490   5.297   4.465
10116TIP3   OH230224   3.503   6.190   4.646
10116TIP3    H130225   3.478   6.277   4.607
10116TIP3    H230226   3.425   6.176   4.704
10117TIP3   OH230227   2.892   5.885   3.856
10117TIP3    H130228   2.862   5.966   3.811
10117TIP3    H230229   2.946   5.929   3.925
10118TIP3   OH230230   4.342   6.400   4.129
10118TIP3    H130231   4.250   6.390   4.165
10118TIP3    H230232   4.332   6.483   4.079
10119TIP3   OH230233   4.629   5.321   4.480
10119TIP3    H130234   4.538   5.339   4.450
10119TIP3    H230235   4.684   5.344   4.402
10120TIP3   OH230236   3.925   4.951   4.457
10120TIP3    H130237   3.919   4.856   4.477
10120TIP3    H230238   3.847   4.985   4.507
10121TIP3   OH230239   4.046   6.442   3.805
10121TIP3    H130240   4.096   6.364   3.775
10121TIP3    H230241   4.092   6.512   3.754
10122TIP3   OH230242   4.566   6.313   4.466
10122TIP3    H130243   4.554   6.235   4.406
10122TIP3    H230244   4.548   6.387   4.404
10123TIP3   OH230245   3.855   5.703   3.722
10123TIP3    H130246   3.777   5.758   3.698
10123TIP3    H230247   3.906   5.705   3.639
10124TIP3   OH230248   3.815   5.489   3.443
10124TIP3    H130249   3.883   5.539   3.491
10124TIP3    H230250   3.873   5.426   3.394
10125TIP3   OH230251   4.761   5.948   4.311
10125TIP3    H130252   4.678   6.000   4.316
10125TIP3    H230253   4.790   5.971   4.220
10126TIP3   OH230254   4.201   5.780   3.703
10126TIP3    H130255   4.149   5.812   3.780
10126TIP3    H230256   4.287   5.761   3.745
10127TIP3   OH230257   4.440   5.828   4.604
10127TIP3    H130258   4.436   5.912   4.653
10127TIP3    H230259   4.353   5.831   4.558
10128TIP3   OH230260   3.438   5.785   4.114
10128TIP3    H130261   3.401   5.725   4.046
10128TIP3    H230262   3.517   5.735   4.144
10129TIP3   OH230263   3.565   6.195   4.261
10129TIP3    H130264   3.547   6.153   4.176
10129TIP3    H230265   3.656   6.164   4.280
10130TIP3   OH230266   3.573   5.758   4.464
10130TIP3    H130267   3.608   5.738   4.375
10130TIP3    H230268   3.617   5.843   4.486
10131TIP3   OH230269   4.097   6.394   4.243
10131TIP3    H130270   4.083   6.474   4.297
10131TIP3    H230271   4.084   6.321   4.306
10132TIP3   OH230272   3.709   6.313   4.790
10132TIP3    H130273   3.650   6.376   4.836
10132TIP3    H230274   3.643   6.260   4.741
10133TIP3   OH230275   4.046   5.645   3.523
10133TIP3    H130276   4.104   5.705   3.575
10133TIP3    H230277   4.072   5.670   3.431
10134TIP3   OH230278   3.463   5.870   4.890
10134TIP3    H130279   3.468   5.957   4.934
10134TIP3    H230280   3.368   5.852   4.897
10135TIP3   OH230281   3.784   6.332   3.798
10135TIP3    H130282   3.865   6.383   3.815
10135TIP3    H230283   3.724   6.397   3.759
10136TIP3   OH230284   3.505   6.483   4.876
10136TIP3    H130285   3.469   6.480   4.785
10136TIP3    H230286   3.426   6.461   4.930
10137TIP3   OH230287   4.561   4.887   3.569
10137TIP3    H130288   4.480   4.906   3.620
10137TIP3    H230289   4.572   4.971   3.520
10138TIP3   OH230290   3.307   5.629   3.922
10138TIP3    H130291   3.250   5.683   3.867
10138TIP3    H230292   3.258   5.546   3.932
10139TIP3   OH230293   4.354   6.254   3.085
10139TIP3    H130294   4.357   6.349   3.107
10139TIP3    H230295   4.447   6.228   3.100
10140TIP3   OH230296   3.085   6.012   4.823
10140TIP3    H130297   3.016   5.990   4.756
10140TIP3    H230298   3.120   5.924   4.847
10141TIP3   OH230299   2.938   6.207   4.452
10141TIP3    H130300   3.034   6.202   4.449
10141TIP3    H230301   2.924   6.284   4.510
10142TIP3   OH230302   4.802   6.655   4.510
10142TIP3    H130303   4.801   6.559   4.523
10142TIP3    H230304   4.719   6.681   4.556
10143TIP3   OH230305   3.909   6.443   4.647
10143TIP3    H130306   3.909   6.536   4.679
10143TIP3    H230307   3.838   6.404   4.701
10144TIP3   OH230308   3.643   6.563   3.609
10144TIP3    H130309   3.624   6.550   3.514
10144TIP3    H230310   3.635   6.659   3.619
10145TIP3   OH230311   3.104   6.421   3.981
10145TIP3    H130312   3.157   6.413   4.064
10145TIP3    H230313   3.037   6.354   3.998
10146TIP3   OH230314   3.872   6.468   3.239
10146TIP3    H130315   3.933   6.399   3.204
10146TIP3    H230316   3.913   6.485   3.326
10147TIP3   OH230317   3.905   6.541   3.508
10147TIP3    H130318   3.839   6.515   3.574
10147TIP3    H230319   3.981   6.481   3.526
10148TIP3   OH230320   4.697   5.784   4.786
10148TIP3    H130321   4.614   5.806   4.740
10148TIP3    H230322   4.705   5.689   4.765
10149TIP3   OH230323   3.290   6.195   4.813
10149TIP3    H130324   3.338   6.179   4.897
10149TIP3    H230325   3.215   6.131   4.821
10150TIP3   OH230326   3.693   5.022   4.588
10150TIP3    H130327   3.603   4.986   4.573
10150TIP3    H230328   3.670   5.097   4.646
10151TIP3   OH230329   4.213   5.137   4.795
10151TIP3    H130330   4.283   5.099   4.850
10151TIP3    H230331   4.135   5.126   4.850
10152TIP3   OH230332   4.466   5.565   4.714
10152TIP3    H130333   4.416   5.560   4.798
10152TIP3    H230334   4.437   5.651   4.676
10153TIP3   OH230335   4.119   5.683   3.264
10153TIP3    H130336   4.092   5.665   3.172
10153TIP3    H230337   4.183   5.755   3.252
10154TIP3   OH230338   3.834   5.069   3.566
10154TIP3    H130339   3.803   5.067   3.659
10154TIP3    H230340   3.796   4.985   3.534
10155TIP3   OH230341   3.620   5.534   4.613
10155TIP3    H130342   3.570   5.555   4.695
10155TIP3    H230343   3.604   5.615   4.560
10156TIP3   OH230344   3.503   5.420   4.127
10156TIP3    H130345   3.411   5.393   4.145
10156TIP3    H230346   3.517   5.379   4.039
10157TIP3   OH230347   3.993   5.504   3.854
10157TIP3    H130348   3.940   5.578   3.815
10157TIP3    H230349   4.049   5.479   3.778
10158TIP3   OH230350   4.170   5.785   4.943
10158TIP3    H130351   4.148   5.713   5.005
10158TIP3    H230352   4.264   5.800   4.965
10159TIP3   OH230353   4.153   5.536   4.096
10159TIP3    H130354   4.094   5.570   4.025
10159TIP3    H230355   4.183   5.454   4.053
10160TIP3   OH230356   3.439   5.566   4.822
10160TIP3    H130357   3.462   5.631   4.890
10160TIP3    H230358   3.428   5.484   4.875
10161TIP3   OH230359   3.490   5.040   3.533
10161TIP3    H130360   3.483   5.037   3.630
10161TIP3    H230361   3.408   5.088   3.509
10162TIP3   OH230362   3.033   5.092   4.398
10162TIP3    H130363   3.108   5.118   4.455
10162TIP3    H230364   3.075   5.048   4.323
10163TIP3   OH230365   3.010   5.062   3.926
10163TIP3    H130366   3.055   5.101   3.848
10163TIP3    H230367   2.949   5.135   3.948
10164TIP3   OH230368   4.163   5.783   4.520
10164TIP3    H130369   4.195   5.710   4.461
10164TIP3    H230370   4.133   5.730   4.597
10165TIP3   OH230371   3.828   5.243   4.191
10165TIP3    H130372   3.746   5.241   4.245
10165TIP3    H230373   3.897   5.244   4.260
10166TIP3   OH230374   3.267   5.297   4.198
10166TIP3    H130375   3.172   5.303   4.171
10166TIP3    H230376   3.290   5.205   4.177
10167TIP3   OH230377   3.536   5.295   3.884
10167TIP3    H130378   3.632   5.309   3.868
10167TIP3    H230379   3.494   5.321   3.800
10168TIP3   OH230380   4.323   5.319   4.390
10168TIP3    H130381   4.289   5.330   4.482
10168TIP3    H230382   4.259   5.256   4.354
10169TIP3   OH230383   3.365   5.332   3.662
10169TIP3    H130384   3.304   5.280   3.607
10169TIP3    H230385   3.423   5.369   3.592
10170TIP3   OH230386   4.490   7.006   4.610
10170TIP3    H130387   4.489   7.030   4.516
10170TIP3    H230388   4.568   7.056   4.642
10171TIP3   OH230389   3.451   6.115   5.033
10171TIP3    H130390   3.529   6.148   5.081
10171TIP3    H230391   3.385   6.117   5.105
10172TIP3   OH230392   3.914   5.569   4.287
10172TIP3    H130393   3.987   5.530   4.238
10172TIP3    H230394   3.923   5.529   4.376
10173TIP3   OH230395   3.437   5.059   4.163
10173TIP3    H130396   3.406   4.979   4.209
10173TIP3    H230397   3.494   5.022   4.094
10174TIP3   OH230398   3.893   5.470   4.567
10174TIP3    H130399   3.802   5.499   4.589
10174TIP3    H230400   3.949   5.524   4.627
10175TIP3   OH230401   3.627   5.857   3.671
10175TIP3    H130402   3.551   5.796   3.662
10175TIP3    H230403   3.612   5.893   3.762
10176TIP3   OH230404   4.529   6.094   4.303
10176TIP3    H130405   4.552   6.142   4.221
10176TIP3    H230406   4.443   6.053   4.279
10177TIP3   OH230407   4.086   5.173   3.529
10177TIP3    H130408   3.989   5.158   3.539
10177TIP3    H230409   4.098   5.267   3.555
10178TIP3   OH230410   4.028   6.176   4.670
10178TIP3    H130411   4.047   6.154   4.762
10178TIP3    H230412   3.989   6.265   4.676
10179TIP3   OH230413   4.157   5.417   3.634
10179TIP3    H130414   4.253   5.425   3.652
10179TIP3    H230415   4.137   5.498   3.584
10180TIP3   OH230416   3.315   5.874   4.349
10180TIP3    H130417   3.359   5.850   4.265
10180TIP3    H230418   3.359   5.816   4.413
10181TIP3   OH230419   3.770   6.006   3.486
10181TIP3    H130420   3.726   6.093   3.497
10181TIP3    H230421   3.721   5.952   3.551
10182TIP3   OH230422   3.200   5.799   4.960
10182TIP3    H130423   3.218   5.786   5.055
10182TIP3    H230424   3.127   5.736   4.944
10183TIP3   OH230425   3.925   5.912   4.983
10183TIP3    H130426   3.867   5.857   4.928
10183TIP3    H230427   4.013   5.881   4.954
10184TIP3   OH230428   4.189   6.435   4.565
10184TIP3    H130429   4.092   6.434   4.576
10184TIP3    H230430   4.216   6.487   4.643
10185TIP3   OH230431   4.601   5.506   3.473
10185TIP3    H130432   4.538   5.461   3.412
10185TIP3    H230433   4.595   5.595   3.433
10186TIP3   OH230434   4.815   6.363   4.555
10186TIP3    H130435   4.717   6.359   4.546
10186TIP3    H230436   4.841   6.334   4.465
10187TIP3   OH230437   4.293   5.955   4.227
10187TIP3    H130438   4.200   5.928   4.237
10187TIP3    H230439   4.328   5.879   4.177
10188TIP3   OH230440   3.420   6.182   3.974
10188TIP3    H130441   3.428   6.263   3.920
10188TIP3    H230442   3.324   6.174   3.981
10189TIP3   OH230443   3.557   5.948   3.917
10189TIP3    H130444   3.527   6.039   3.934
10189TIP3    H230445   3.524   5.901   3.996
10190TIP3   OH230446   3.689   6.528   4.443
10190TIP3    H130447   3.729   6.600   4.391
10190TIP3    H230448   3.766   6.494   4.492
10191TIP3   OH230449   3.341   6.421   3.827
10191TIP3    H130450   3.255   6.431   3.871
10191TIP3    H230451   3.374   6.514   3.828
10192TIP3   OH230452   4.080   6.162   4.400
10192TIP3    H130453   4.072   6.159   4.498
10192TIP3    H230454   4.159   6.108   4.386
10193TIP3   OH230455   4.042   6.038   3.277
10193TIP3    H130456   4.104   6.022   3.353
10193TIP3    H230457   3.958   6.032   3.324
10194TIP3   OH230458   4.327   6.698   4.453
10194TIP3    H130459   4.249   6.640   4.444
10194TIP3    H230460   4.312   6.762   4.380
10195TIP3   OH230461   4.394   6.530   3.111
10195TIP3    H130462   4.419   6.604   3.054
10195TIP3    H230463   4.316   6.571   3.155
10196TIP3   OH230464   3.406   5.316   4.966
10196TIP3    H130465   3.309   5.320   4.975
10196TIP3    H230466   3.425   5.232   5.012
10197TIP3   OH230467   4.202   5.960   3.484
10197TIP3    H130468   4.202   5.916   3.571
10197TIP3    H230469   4.289   6.002   3.483
10198TIP3   OH230470   3.129   6.391   4.601
10198TIP3    H130471   3.180   6.315   4.634
10198TIP3    H230472   3.154   6.459   4.666
10199TIP3   OH230473   3.416   6.037   3.283
10199TIP3    H130474   3.437   5.947   3.253
10199TIP3    H230475   3.400   6.022   3.378
10200TIP3   OH230476   3.363   6.037   3.558
10200TIP3    H130477   3.439   6.015   3.614
10200TIP3    H230478   3.365   6.135   3.561
10201TIP3   OH230479   4.248   5.371   4.651
10201TIP3    H130480   4.330   5.404   4.689
10201TIP3    H230481   4.231   5.290   4.702
10202TIP3   OH230482   4.128   5.124   3.812
10202TIP3    H130483   4.114   5.149   3.719
10202TIP3    H230484   4.167   5.206   3.850
10203TIP3   OH230485   3.627   6.236   3.504
10203TIP3    H130486   3.542   6.269   3.539
10203TIP3    H230487   3.652   6.309   3.445
10204TIP3   OH230488   3.817   5.300   3.917
10204TIP3    H130489   3.883   5.371   3.898
10204TIP3    H230490   3.824   5.294   4.015
10205TIP3   OH230491   4.087   5.620   4.726
10205TIP3    H130492   4.107   5.674   4.805
10205TIP3    H230493   4.143   5.542   4.739
10206TIP3   OH230494   3.965   5.031   4.021
10206TIP3    H130495   3.959   5.106   4.082
10206TIP3    H230496   4.024   5.068   3.952
10207TIP3   OH230497   3.366   6.311   3.570
10207TIP3    H130498   3.341   6.382   3.506
10207TIP3    H230499   3.357   6.357   3.656
10208TIP3   OH230500   3.474   5.025   3.809
10208TIP3    H130501   3.473   5.116   3.847
10208TIP3    H230502   3.570   5.006   3.818
10209TIP3   OH230503   4.731   5.514   4.700
10209TIP3    H130504   4.635   5.516   4.717
10209TIP3    H230505   4.729   5.470   4.613
10210TIP3   OH230506   4.380   5.715   4.095
10210TIP3    H130507   4.303   5.656   4.107
10210TIP3    H230508   4.451   5.667   4.143
10211TIP3   OH230509   3.070   5.942   3.561
10211TIP3    H130510   3.130   6.016   3.579
10211TIP3    H230511   3.127   5.890   3.502
10212TIP3   OH230512   3.034   5.213   3.702
10212TIP3    H130513   3.038   5.307   3.684
10212TIP3    H230514   2.953   5.183   3.661
10213TIP3   OH230515   4.346   6.670   4.044
10213TIP3    H130516   4.303   6.720   3.971
10213TIP3    H230517   4.440   6.688   4.022
10214TIP3   OH230518   3.424   4.940   4.571
10214TIP3    H130519   3.393   4.909   4.484
10214TIP3    H230520   3.414   4.860   4.627
10215TIP3   OH230521   2.961   6.145   3.955
10215TIP3    H130522   2.892   6.187   4.009
10215TIP3    H230523   2.949   6.193   3.871
10216TIP3   OH230524   3.118   6.697   5.021
10216TIP3    H130525   3.202   6.696   5.070
10216TIP3    H230526   3.094   6.602   5.023
10217TIP3   OH230527   3.604   6.666   5.066
10217TIP3    H130528   3.698   6.644   5.074
10217TIP3    H230529   3.578   6.608   4.992
10218TIP3   OH230530   3.582   6.241   3.196
10218TIP3    H130531   3.526   6.170   3.236
10218TIP3    H230532   3.659   6.190   3.167
10219TIP3   OH230533   4.240   6.570   4.800
10219TIP3    H130534   4.231   6.499   4.869
10219TIP3    H230535   4.318   6.620   4.831
10220TIP3   OH230536   4.021   6.279   3.104
10220TIP3    H130537   4.071   6.239   3.178
10220TIP3    H230538   4.090   6.284   3.035
10221TIP3   OH230539   3.251   6.104   5.223
10221TIP3    H130540   3.264   6.008   5.227
10221TIP3    H230541   3.161   6.109   5.182
10222TIP3   OH230542   3.223   5.751   3.420
10222TIP3    H130543   3.285   5.726   3.490
10222TIP3    H230544   3.286   5.758   3.345
10223TIP3   OH230545   3.859   6.188   4.996
10223TIP3    H130546   3.816   6.204   4.910
10223TIP3    H230547   3.889   6.095   4.989
10224TIP3   OH230548   3.723   5.951   3.220
10224TIP3    H130549   3.736   5.968   3.316
10224TIP3    H230550   3.728   5.854   3.218
10225TIP3   OH230551   4.351   6.196   4.603
10225TIP3    H130552   4.423   6.242   4.557
10225TIP3    H230553   4.278   6.259   4.591
10226TIP3   OH230554   3.368   5.834   5.207
10226TIP3    H130555   3.448   5.785   5.185
10226TIP3    H230556   3.391   5.871   5.295
10227TIP3   OH230557   3.425   5.656   3.639
10227TIP3    H130558   3.419   5.612   3.725
10227TIP3    H230559   3.466   5.587   3.584
10228TIP3   OH230560   3.704   5.724   4.870
10228TIP3    H130561   3.626   5.784   4.872
10228TIP3    H230562   3.751   5.755   4.789
10229TIP3   OH230563   3.535   5.452   3.482
10229TIP3    H130564   3.508   5.453   3.388
10229TIP3    H230565   3.632   5.460   3.474
10230TIP3   OH230566   4.219   6.125   5.002
10230TIP3    H130567   4.300   6.105   4.954
10230TIP3    H230568   4.220   6.057   5.072
10231TIP3   OH230569   4.368   5.785   3.133
10231TIP3    H130570   4.332   5.739   3.055
10231TIP3    H230571   4.331   5.876   3.117
10232TIP3   OH230572   3.823   5.508   4.998
10232TIP3    H130573   3.828   5.430   4.938
10232TIP3    H230574   3.784   5.575   4.938
10233TIP3   OH230575   3.834   5.313   4.804
10233TIP3    H130576   3.857   5.333   4.712
10233TIP3    H230577   3.749   5.266   4.794
10234TIP3   OH230578   3.859   5.835   4.675
10234TIP3    H130579   3.940   5.839   4.623
10234TIP3    H230580   3.803   5.903   4.631
10235TIP3   OH230581   4.437   5.800   5.054
10235TIP3    H130582   4.485   5.725   5.095
10235TIP3    H230583   4.509   5.856   5.023
10236TIP3   OH230584   4.482   6.053   4.790
10236TIP3    H130585   4.422   6.106   4.732
10236TIP3    H230586   4.568   6.074   4.749
10237TIP3   OH230587   3.705   5.622   5.225
10237TIP3    H130588   3.628   5.564   5.233
10237TIP3    H230589   3.739   5.599   5.136
10238TIP3   OH230590   4.090   5.564   5.080
10238TIP3    H130591   4.084   5.561   5.177
10238TIP3    H230592   3.997   5.541   5.056
10239TIP3   OH230593   4.331   5.509   4.944
10239TIP3    H130594   4.250   5.521   4.997
10239TIP3    H230595   4.394   5.478   5.010
10240TIP3   OH230596   3.537   5.398   5.277
10240TIP3    H130597   3.592   5.340   5.223
10240TIP3    H230598   3.577   5.388   5.366
10241TIP3   OH230599   4.094   5.261   5.280
10241TIP3    H130600   4.104   5.238   5.187
10241TIP3    H230601   4.037   5.342   5.278
10242TIP3   OH230602   3.341   6.513   3.381
10242TIP3    H130603   3.438   6.512   3.366
10242TIP3    H230604   3.313   6.563   3.302
10243TIP3   OH230605   2.738   6.509   4.012
10243TIP3    H130606   2.668   6.448   3.979
10243TIP3    H230607   2.780   6.452   4.081
10244TIP3   OH230608   2.876   6.361   4.197
10244TIP3    H130609   2.862   6.289   4.261
10244TIP3    H230610   2.923   6.424   4.254
10245TIP3   OH230611   4.599   6.760   3.999
10245TIP3    H130612   4.626   6.794   4.086
10245TIP3    H230613   4.658   6.808   3.938
10246TIP3   OH230614   4.633   6.782   4.281
10246TIP3    H130615   4.586   6.696   4.275
10246TIP3    H230616   4.704   6.758   4.342
10247TIP3   OH230617   4.676   6.458   4.854
10247TIP3    H130618   4.602   6.466   4.918
10247TIP3    H230619   4.717   6.547   4.859
10248TIP3   OH230620   4.500   5.967   3.472
10248TIP3    H130621   4.565   6.036   3.449
10248TIP3    H230622   4.538   5.930   3.554
10249TIP3   OH230623   4.622   5.836   3.679
10249TIP3    H130624   4.554   5.796   3.737
10249TIP3    H230625   4.682   5.880   3.744
10250TIP3   OH230626   4.675   6.231   4.114
10250TIP3    H130627   4.725   6.167   4.059
10250TIP3    H230628   4.659   6.304   4.051
10251TIP3   OH230629   4.507   6.533   4.308
10251TIP3    H130630   4.435   6.574   4.359
10251TIP3    H230631   4.457   6.484   4.239
10252TIP3   OH230632   4.558   5.743   3.325
10252TIP3    H130633   4.487   5.749   3.257
10252TIP3    H230634   4.533   5.820   3.381
10253TIP3   OH230635   4.433   5.417   3.279
10253TIP3    H130636   4.384   5.464   3.211
10253TIP3    H230637   4.403   5.324   3.265
10254TIP3   OH230638   4.437   5.694   3.827
10254TIP3    H130639   4.442   5.597   3.824
10254TIP3    H230640   4.422   5.711   3.923
10255TIP3   OH230641   3.061   5.767   4.569
10255TIP3    H130642   3.061   5.740   4.476
10255TIP3    H230643   3.158   5.770   4.587
10256TIP3   OH230644   4.723   6.119   4.681
10256TIP3    H130645   4.797   6.055   4.672
10256TIP3    H230646   4.748   6.190   4.620
10257TIP3   OH230647   4.910   5.927   4.701
10257TIP3    H130648   4.834   5.877   4.739
10257TIP3    H230649   4.981   5.862   4.715
10258TIP3   OH230650   4.373   5.150   3.263
10258TIP3    H130651   4.448   5.124   3.322
10258TIP3    H230652   4.299   5.095   3.294
10259TIP3   OH230653   4.428   5.410   3.723
10259TIP3    H130654   4.471   5.322   3.737
10259TIP3    H230655   4.486   5.446   3.654
10260TIP3   OH230656   4.593   5.585   4.216
10260TIP3    H130657   4.679   5.613   4.176
10260TIP3    H230658   4.605   5.623   4.305
10261TIP3   OH230659   4.660   5.729   4.449
10261TIP3    H130660   4.582   5.762   4.496
10261TIP3    H230661   4.691   5.810   4.403
10262TIP3   OH230662   3.267   5.446   5.239
10262TIP3    H130663   3.365   5.439   5.235
10262TIP3    H230664   3.249   5.399   5.321
10263TIP3   OH230665   5.160   5.326   4.992
10263TIP3    H130666   5.125   5.235   4.993
10263TIP3    H230667   5.090   5.374   4.943
10264TIP3   OH230668   4.540   5.159   3.757
10264TIP3    H130669   4.587   5.144   3.842
10264TIP3    H230670   4.479   5.083   3.756
10265TIP3   OH230671   3.240   5.147   4.573
10265TIP3    H130672   3.303   5.073   4.586
10265TIP3    H230673   3.301   5.223   4.571
10266TIP3   OH230674   3.046   5.422   4.654
10266TIP3    H130675   3.093   5.414   4.569
10266TIP3    H230676   3.070   5.511   4.682
10267TIP3   OH230677   4.986   5.465   4.826
10267TIP3    H130678   4.893   5.487   4.849
10267TIP3    H230679   4.971   5.406   4.752
10268TIP3   OH230680   4.621   5.098   3.390
10268TIP3    H130681   4.662   5.025   3.339
10268TIP3    H230682   4.687   5.169   3.382
10269TIP3   OH230683   3.024   4.923   4.155
10269TIP3    H130684   2.930   4.921   4.181
10269TIP3    H230685   3.023   4.980   4.075
10270TIP3   OH230686   4.171   6.642   3.664
10270TIP3    H130687   4.185   6.573   3.594
10270TIP3    H230688   4.259   6.679   3.673
10271TIP3   OH230689   3.233   5.020   4.986
10271TIP3    H130690   3.165   4.976   5.037
10271TIP3    H230691   3.180   5.059   4.914
10272TIP3   OH230692   3.286   6.427   5.045
10272TIP3    H130693   3.193   6.403   5.027
10272TIP3    H230694   3.291   6.414   5.140
10273TIP3   OH230695   3.462   6.461   4.591
10273TIP3    H130696   3.413   6.536   4.553
10273TIP3    H230697   3.548   6.477   4.546
10274TIP3   OH230698   3.910   6.709   4.729
10274TIP3    H130699   3.951   6.710   4.817
10274TIP3    H230700   3.976   6.759   4.676
10275TIP3   OH230701   4.088   6.859   4.586
10275TIP3    H130702   4.159   6.808   4.545
10275TIP3    H230703   4.139   6.917   4.647
10276TIP3   OH230704   3.140   6.722   4.612
10276TIP3    H130705   3.051   6.757   4.590
10276TIP3    H230706   3.147   6.751   4.704
10277TIP3   OH230707   3.376   6.699   4.471
10277TIP3    H130708   3.290   6.713   4.517
10277TIP3    H230709   3.356   6.733   4.382
10278TIP3   OH230710   3.802   6.729   4.270
10278TIP3    H130711   3.734   6.750   4.203
10278TIP3    H230712   3.815   6.817   4.312
10279TIP3   OH230713   4.070   6.670   4.321
10279TIP3    H130714   3.975   6.684   4.301
10279TIP3    H230715   4.111   6.746   4.277
10280TIP3   OH230716   4.283   6.863   4.237
10280TIP3    H130717   4.265   6.947   4.188
10280TIP3    H230718   4.304   6.802   4.163
10281TIP3   OH230719   3.052   6.516   4.358
10281TIP3    H130720   3.077   6.491   4.450
10281TIP3    H230721   3.124   6.472   4.309
10282TIP3   OH230722   3.244   6.385   4.213
10282TIP3    H130723   3.260   6.302   4.263
10282TIP3    H230724   3.334   6.424   4.210
10283TIP3   OH230725   3.508   6.483   4.217
10283TIP3    H130726   3.542   6.393   4.203
10283TIP3    H230727   3.551   6.504   4.302
10284TIP3   OH230728   4.086   5.138   4.302
10284TIP3    H130729   4.039   5.071   4.356
10284TIP3    H230730   4.158   5.087   4.261
10285TIP3   OH230731   4.615   5.016   4.212
10285TIP3    H130732   4.647   5.070   4.137
10285TIP3    H230733   4.519   5.034   4.210
10286TIP3   OH230734   4.706   5.119   3.975
10286TIP3    H130735   4.779   5.069   3.932
10286TIP3    H230736   4.738   5.211   3.961
10287TIP3   OH230737   3.336   4.847   4.323
10287TIP3    H130738   3.244   4.813   4.323
10287TIP3    H230739   3.386   4.763   4.320
10288TIP3   OH230740   3.119   4.715   3.969
10288TIP3    H130741   3.151   4.774   3.898
10288TIP3    H230742   3.091   4.778   4.038
10289TIP3   OH230743   3.776   4.881   4.202
10289TIP3    H130744   3.837   4.931   4.146
10289TIP3    H230745   3.797   4.917   4.290
10290TIP3   OH230746   4.332   5.025   4.188
10290TIP3    H130747   4.323   4.990   4.098
10290TIP3    H230748   4.314   4.944   4.242
10291TIP3   OH230749   4.356   4.947   3.748
10291TIP3    H130750   4.269   4.990   3.759
10291TIP3    H230751   4.340   4.862   3.796
10292TIP3   OH230752   2.835   6.280   3.753
10292TIP3    H130753   2.747   6.259   3.717
10292TIP3    H230754   2.834   6.376   3.741
10293TIP3   OH230755   3.238   4.878   3.733
10293TIP3    H130756   3.287   4.814   3.678
10293TIP3    H230757   3.311   4.931   3.771
10294TIP3   OH230758   3.752   5.049   3.833
10294TIP3    H130759   3.812   5.003   3.894
10294TIP3    H230760   3.772   5.142   3.858
10295TIP3   OH230761   3.613   6.478   3.334
10295TIP3    H130762   3.704   6.497   3.302
10295TIP3    H230763   3.591   6.403   3.274
10296TIP3   OH230764   3.791   5.153   5.345
10296TIP3    H130765   3.887   5.140   5.332
10296TIP3    H230766   3.771   5.081   5.409
10297TIP3   OH230767   2.912   6.304   3.392
10297TIP3    H130768   2.916   6.345   3.480
10297TIP3    H230769   3.004   6.270   3.380
10298TIP3   OH230770   4.558   6.739   4.612
10298TIP3    H130771   4.478   6.706   4.566
10298TIP3    H230772   4.537   6.834   4.616
10299TIP3   OH230773   5.822   6.108   3.382
10299TIP3    H130774   5.795   6.201   3.362
10299TIP3    H230775   5.744   6.061   3.347
10300TIP3   OH230776   5.821   6.109   3.757
10300TIP3    H130777   5.849   6.077   3.845
10300TIP3    H230778   5.777   6.031   3.720
10301TIP3   OH230779   5.122   6.008   4.125
10301TIP3    H130780   5.155   5.941   4.187
10301TIP3    H230781   5.200   6.064   4.113
10302TIP3   OH230782   6.063   6.409   3.441
10302TIP3    H130783   6.052   6.342   3.510
10302TIP3    H230784   6.092   6.486   3.493
10303TIP3   OH230785   5.092   6.415   3.854
10303TIP3    H130786   5.082   6.318   3.856
10303TIP3    H230787   5.188   6.423   3.845
10304TIP3   OH230788   4.799   5.620   3.638
10304TIP3    H130789   4.750   5.703   3.652
10304TIP3    H230790   4.728   5.565   3.600
10305TIP3   OH230791   4.861   5.908   3.807
10305TIP3    H130792   4.910   5.831   3.844
10305TIP3    H230793   4.916   5.932   3.731
10306TIP3   OH230794   5.710   6.873   3.457
10306TIP3    H130795   5.758   6.803   3.407
10306TIP3    H230796   5.710   6.836   3.546
10307TIP3   OH230797   5.620   6.334   3.809
10307TIP3    H130798   5.657   6.260   3.759
10307TIP3    H230799   5.704   6.379   3.832
10308TIP3   OH230800   6.639   5.658   3.802
10308TIP3    H130801   6.663   5.742   3.847
10308TIP3    H230802   6.655   5.681   3.709
10309TIP3   OH230803   6.032   5.840   3.843
10309TIP3    H130804   6.075   5.753   3.861
10309TIP3    H230805   6.001   5.826   3.752
10310TIP3   OH230806   5.368   5.497   3.806
10310TIP3    H130807   5.347   5.570   3.745
10310TIP3    H230808   5.319   5.424   3.762
10311TIP3   OH230809   6.063   5.586   3.431
10311TIP3    H130810   6.136   5.571   3.494
10311TIP3    H230811   6.112   5.623   3.356
10312TIP3   OH230812   5.004   5.699   3.914
10312TIP3    H130813   5.087   5.678   3.960
10312TIP3    H230814   5.015   5.643   3.834
10313TIP3   OH230815   5.444   5.898   3.705
10313TIP3    H130816   5.538   5.872   3.720
10313TIP3    H230817   5.405   5.813   3.673
10314TIP3   OH230818   6.711   5.867   3.970
10314TIP3    H130819   6.626   5.912   3.950
10314TIP3    H230820   6.707   5.873   4.067
10315TIP3   OH230821   5.361   5.467   4.244
10315TIP3    H130822   5.313   5.512   4.173
10315TIP3    H230823   5.315   5.502   4.323
10316TIP3   OH230824   5.712   6.328   3.253
10316TIP3    H130825   5.674   6.310   3.166
10316TIP3    H230826   5.672   6.415   3.273
10317TIP3   OH230827   5.474   6.254   4.040
10317TIP3    H130828   5.410   6.318   4.076
10317TIP3    H230829   5.516   6.305   3.968
10318TIP3   OH230830   6.277   5.587   3.600
10318TIP3    H130831   6.267   5.541   3.684
10318TIP3    H230832   6.329   5.665   3.626
10319TIP3   OH230833   5.239   5.595   4.026
10319TIP3    H130834   5.302   5.667   4.049
10319TIP3    H230835   5.288   5.552   3.953
10320TIP3   OH230836   5.300   6.447   4.134
10320TIP3    H130837   5.274   6.531   4.092
10320TIP3    H230838   5.221   6.432   4.191
10321TIP3   OH230839   4.703   6.139   3.370
10321TIP3    H130840   4.652   6.162   3.289
10321TIP3    H230841   4.726   6.227   3.406
10322TIP3   OH230842   6.135   6.653   3.611
10322TIP3    H130843   6.044   6.646   3.648
10322TIP3    H230844   6.129   6.738   3.564
10323TIP3   OH230845   6.424   5.568   3.963
10323TIP3    H130846   6.335   5.595   3.935
10323TIP3    H230847   6.481   5.598   3.890
10324TIP3   OH230848   5.723   5.205   3.950
10324TIP3    H130849   5.706   5.110   3.961
10324TIP3    H230850   5.645   5.243   3.996
10325TIP3   OH230851   5.838   6.703   3.285
10325TIP3    H130852   5.888   6.621   3.262
10325TIP3    H230853   5.898   6.769   3.243
10326TIP3   OH230854   5.976   6.487   3.191
10326TIP3    H130855   5.948   6.407   3.143
10326TIP3    H230856   6.013   6.450   3.274
10327TIP3   OH230857   6.361   6.568   3.954
10327TIP3    H130858   6.352   6.492   3.893
10327TIP3    H230859   6.345   6.644   3.893
10328TIP3   OH230860   5.652   5.960   3.209
10328TIP3    H130861   5.572   6.013   3.187
10328TIP3    H230862   5.700   5.961   3.124
10329TIP3   OH230863   5.612   5.745   2.928
10329TIP3    H130864   5.680   5.795   2.977
10329TIP3    H230865   5.669   5.682   2.880
10330TIP3   OH230866   6.557   6.204   3.796
10330TIP3    H130867   6.475   6.257   3.801
10330TIP3    H230868   6.588   6.228   3.706
10331TIP3   OH230869   5.998   6.042   3.183
10331TIP3    H130870   5.945   6.069   3.261
10331TIP3    H230871   6.083   6.018   3.227
10332TIP3   OH230872   6.237   6.083   4.093
10332TIP3    H130873   6.235   6.168   4.140
10332TIP3    H230874   6.152   6.088   4.045
10333TIP3   OH230875   5.232   6.043   3.598
10333TIP3    H130876   5.191   5.985   3.530
10333TIP3    H230877   5.309   5.990   3.626
10334TIP3   OH230878   5.361   6.452   3.748
10334TIP3    H130879   5.341   6.409   3.664
10334TIP3    H230880   5.452   6.420   3.766
10335TIP3   OH230881   5.371   6.013   3.954
10335TIP3    H130882   5.402   5.993   3.863
10335TIP3    H230883   5.413   6.099   3.973
10336TIP3   OH230884   5.892   6.652   3.729
10336TIP3    H130885   5.880   6.731   3.784
10336TIP3    H230886   5.880   6.578   3.793
10337TIP3   OH230887   5.506   6.569   4.278
10337TIP3    H130888   5.447   6.633   4.324
10337TIP3    H230889   5.439   6.517   4.229
10338TIP3   OH230890   5.842   5.901   3.008
10338TIP3    H130891   5.900   5.960   3.060
10338TIP3    H230892   5.868   5.926   2.916
10339TIP3   OH230893   5.258   6.127   4.378
10339TIP3    H130894   5.262   6.214   4.422
10339TIP3    H230895   5.162   6.110   4.383
10340TIP3   OH230896   5.582   6.585   3.285
10340TIP3    H130897   5.662   6.638   3.303
10340TIP3    H230898   5.522   6.648   3.245
10341TIP3   OH230899   5.301   6.740   4.362
10341TIP3    H130900   5.265   6.734   4.271
10341TIP3    H230901   5.222   6.718   4.417
10342TIP3   OH230902   6.357   5.144   3.055
10342TIP3    H130903   6.276   5.164   3.107
10342TIP3    H230904   6.370   5.227   3.006
10343TIP3   OH230905   5.099   5.884   3.403
10343TIP3    H130906   5.035   5.932   3.345
10343TIP3    H230907   5.053   5.801   3.417
10344TIP3   OH230908   6.155   6.512   2.605
10344TIP3    H130909   6.163   6.610   2.592
10344TIP3    H230910   6.249   6.485   2.594
10345TIP3   OH230911   4.880   6.269   4.310
10345TIP3    H130912   4.814   6.248   4.241
10345TIP3    H230913   4.916   6.180   4.333
10346TIP3   OH230914   4.734   6.461   3.944
10346TIP3    H130915   4.829   6.456   3.933
10346TIP3    H230916   4.723   6.542   3.996
10347TIP3   OH230917   6.600   6.912   3.999
10347TIP3    H130918   6.597   6.815   4.010
10347TIP3    H230919   6.516   6.937   4.043
10348TIP3   OH230920   5.705   6.702   4.134
10348TIP3    H130921   5.703   6.794   4.166
10348TIP3    H230922   5.634   6.662   4.189
10349TIP3   OH230923   5.461   6.827   3.087
10349TIP3    H130924   5.419   6.809   3.000
10349TIP3    H230925   5.432   6.918   3.105
10350TIP3   OH230926   4.902   6.679   3.467
10350TIP3    H130927   4.949   6.668   3.553
10350TIP3    H230928   4.845   6.600   3.468
10351TIP3   OH230929   5.666   6.727   2.726
10351TIP3    H130930   5.726   6.659   2.689
10351TIP3    H230931   5.703   6.738   2.816
10352TIP3   OH230932   5.715   6.778   2.997
10352TIP3    H130933   5.628   6.785   3.042
10352TIP3    H230934   5.769   6.737   3.065
10353TIP3   OH230935   6.490   6.041   4.281
10353TIP3    H130936   6.415   6.061   4.222
10353TIP3    H230937   6.510   5.948   4.254
10354TIP3   OH230938   5.086   6.452   4.301
10354TIP3    H130939   5.135   6.435   4.384
10354TIP3    H230940   5.011   6.388   4.308
10355TIP3   OH230941   5.491   5.278   4.076
10355TIP3    H130942   5.399   5.249   4.063
10355TIP3    H230943   5.474   5.352   4.138
10356TIP3   OH230944   6.009   5.397   4.288
10356TIP3    H130945   6.079   5.358   4.343
10356TIP3    H230946   5.927   5.374   4.333
10357TIP3   OH230947   6.250   5.815   4.187
10357TIP3    H130948   6.213   5.818   4.278
10357TIP3    H230949   6.238   5.906   4.155
10358TIP3   OH230950   5.916   5.948   2.751
10358TIP3    H130951   5.885   5.924   2.661
10358TIP3    H230952   5.995   6.001   2.728
10359TIP3   OH230953   5.630   5.325   3.053
10359TIP3    H130954   5.599   5.324   3.145
10359TIP3    H230955   5.592   5.241   3.021
10360TIP3   OH230956   5.417   5.788   4.102
10360TIP3    H130957   5.364   5.810   4.181
10360TIP3    H230958   5.403   5.869   4.047
10361TIP3   OH230959   5.300   5.677   3.614
10361TIP3    H130960   5.207   5.652   3.632
10361TIP3    H230961   5.313   5.636   3.526
10362TIP3   OH230962   5.790   5.762   3.341
10362TIP3    H130963   5.736   5.834   3.302
10362TIP3    H230964   5.845   5.735   3.265
10363TIP3   OH230965   5.969   6.022   4.438
10363TIP3    H130966   5.952   6.015   4.532
10363TIP3    H230967   6.060   6.056   4.438
10364TIP3   OH230968   5.950   5.793   3.583
10364TIP3    H130969   5.890   5.826   3.513
10364TIP3    H230970   5.980   5.710   3.540
10365TIP3   OH230971   5.236   5.823   4.310
10365TIP3    H130972   5.250   5.889   4.379
10365TIP3    H230973   5.223   5.741   4.361
10366TIP3   OH230974   5.284   5.296   3.020
10366TIP3    H130975   5.278   5.294   3.118
10366TIP3    H230976   5.206   5.349   2.997
10367TIP3   OH230977   4.829   5.343   3.891
10367TIP3    H130978   4.905   5.375   3.944
10367TIP3    H230979   4.869   5.312   3.809
10368TIP3   OH230980   4.805   5.324   3.409
10368TIP3    H130981   4.850   5.364   3.332
10368TIP3    H230982   4.743   5.397   3.432
10369TIP3   OH230983   5.958   6.037   4.011
10369TIP3    H130984   5.990   5.966   3.951
10369TIP3    H230985   5.923   5.984   4.085
10370TIP3   OH230986   5.625   5.495   3.679
10370TIP3    H130987   5.541   5.496   3.729
10370TIP3    H230988   5.690   5.506   3.750
10371TIP3   OH230989   5.061   5.555   3.686
10371TIP3    H130990   4.967   5.563   3.659
10371TIP3    H230991   5.084   5.463   3.661
10372TIP3   OH230992   5.334   5.550   3.372
10372TIP3    H130993   5.427   5.568   3.351
10372TIP3    H230994   5.286   5.575   3.290
10373TIP3   OH230995   6.115   5.576   3.879
10373TIP3    H130996   6.077   5.588   3.968
10373TIP3    H230997   6.052   5.513   3.840
10374TIP3   OH230998   5.171   5.582   3.153
10374TIP3    H130999   5.097   5.541   3.104
10374TIP3    H231000   5.222   5.619   3.078
10375TIP3   OH231001   6.287   7.264   4.096
10375TIP3    H131002   6.286   7.286   4.001
10375TIP3    H231003   6.365   7.313   4.127
10376TIP3   OH231004   5.247   6.372   4.521
10376TIP3    H131005   5.326   6.404   4.568
10376TIP3    H231006   5.181   6.374   4.593
10377TIP3   OH231007   5.709   5.827   3.773
10377TIP3    H131008   5.785   5.784   3.730
10377TIP3    H231009   5.714   5.790   3.864
10378TIP3   OH231010   5.235   5.316   3.650
10378TIP3    H131011   5.202   5.235   3.695
10378TIP3    H231012   5.286   5.280   3.576
10379TIP3   OH231013   5.693   5.739   4.039
10379TIP3    H131014   5.602   5.743   4.073
10379TIP3    H231015   5.744   5.775   4.114
10380TIP3   OH231016   5.425   6.115   3.159
10380TIP3    H131017   5.351   6.050   3.148
10380TIP3    H231018   5.407   6.149   3.250
10381TIP3   OH231019   6.326   6.351   3.790
10381TIP3    H131020   6.351   6.399   3.708
10381TIP3    H231021   6.239   6.311   3.765
10382TIP3   OH231022   5.883   5.428   3.019
10382TIP3    H131023   5.786   5.414   3.026
10382TIP3    H231024   5.895   5.522   3.042
10383TIP3   OH231025   5.823   6.432   4.158
10383TIP3    H131026   5.845   6.414   4.250
10383TIP3    H231027   5.786   6.522   4.161
10384TIP3   OH231028   5.953   5.673   3.122
10384TIP3    H131029   6.049   5.681   3.138
10384TIP3    H231030   5.934   5.753   3.069
10385TIP3   OH231031   5.117   6.137   3.837
10385TIP3    H131032   5.153   6.109   3.750
10385TIP3    H231033   5.154   6.071   3.896
10386TIP3   OH231034   5.569   6.264   2.978
10386TIP3    H131035   5.523   6.351   2.985
10386TIP3    H231036   5.515   6.209   3.039
10387TIP3   OH231037   4.996   6.055   4.447
10387TIP3    H131038   5.013   6.043   4.542
10387TIP3    H231039   4.924   5.991   4.431
10388TIP3   OH231040   5.721   6.165   4.471
10388TIP3    H131041   5.656   6.116   4.418
10388TIP3    H231042   5.803   6.141   4.424
10389TIP3   OH231043   5.984   6.688   4.053
10389TIP3    H131044   5.888   6.691   4.063
10389TIP3    H231045   6.013   6.742   4.130
10390TIP3   OH231046   6.396   5.763   2.960
10390TIP3    H131047   6.333   5.718   2.899
10390TIP3    H231048   6.392   5.852   2.919
10391TIP3   OH231049   6.612   6.619   4.043
10391TIP3    H131050   6.514   6.615   4.034
10391TIP3    H231051   6.638   6.591   3.953
10392TIP3   OH231052   6.080   6.582   2.865
10392TIP3    H131053   6.077   6.507   2.925
10392TIP3    H231054   6.108   6.543   2.780
10393TIP3   OH231055   6.089   6.212   3.712
10393TIP3    H131056   5.996   6.186   3.722
10393TIP3    H231057   6.124   6.134   3.664
10394TIP3   OH231058   5.215   6.439   3.461
10394TIP3    H131059   5.219   6.521   3.407
10394TIP3    H231060   5.120   6.424   3.466
10395TIP3   OH231061   4.778   5.745   3.160
10395TIP3    H131062   4.825   5.829   3.181
10395TIP3    H231063   4.701   5.751   3.221
10396TIP3   OH231064   5.357   6.207   3.406
10396TIP3    H131065   5.323   6.297   3.423
10396TIP3    H231066   5.319   6.157   3.481
10397TIP3   OH231067   5.485   6.785   3.930
10397TIP3    H131068   5.527   6.856   3.877
10397TIP3    H231069   5.562   6.751   3.978
10398TIP3   OH231070   5.138   6.678   3.314
10398TIP3    H131071   5.051   6.687   3.358
10398TIP3    H231072   5.168   6.771   3.315
10399TIP3   OH231073   5.876   6.419   3.887
10399TIP3    H131074   5.869   6.416   3.985
10399TIP3    H231075   5.956   6.367   3.872
10400TIP3   OH231076   5.846   6.304   2.771
10400TIP3    H131077   5.900   6.284   2.851
10400TIP3    H231078   5.757   6.285   2.806
10401TIP3   OH231079   6.123   6.955   3.939
10401TIP3    H131080   6.044   6.898   3.928
10401TIP3    H231081   6.110   7.019   3.866
10402TIP3   OH231082   6.183   6.784   2.587
10402TIP3    H131083   6.246   6.854   2.564
10402TIP3    H231084   6.107   6.840   2.614
10403TIP3   OH231085   5.207   5.569   4.462
10403TIP3    H131086   5.110   5.574   4.470
10403TIP3    H231087   5.230   5.496   4.521
10404TIP3   OH231088   6.007   6.246   2.991
10404TIP3    H131089   6.000   6.178   3.060
10404TIP3    H231090   6.104   6.245   2.975
10405TIP3   OH231091   4.927   6.652   4.090
10405TIP3    H131092   4.973   6.569   4.111
10405TIP3    H231093   4.958   6.708   4.162
10406TIP3   OH231094   5.214   6.292   2.768
10406TIP3    H131095   5.232   6.200   2.740
10406TIP3    H231096   5.197   6.279   2.864
10407TIP3   OH231097   5.163   6.296   3.041
10407TIP3    H131098   5.232   6.270   3.103
10407TIP3    H231099   5.166   6.394   3.048
10408TIP3   OH231100   4.898   5.991   3.244
10408TIP3    H131101   4.832   6.035   3.301
10408TIP3    H231102   4.912   6.061   3.177
10409TIP3   OH231103   6.040   5.634   4.142
10409TIP3    H131104   6.128   5.669   4.163
10409TIP3    H231105   6.035   5.551   4.194
10410TIP3   OH231106   5.925   5.379   3.299
10410TIP3    H131107   5.910   5.404   3.206
10410TIP3    H231108   5.963   5.462   3.336
10411TIP3   OH231109   5.426   6.494   2.991
10411TIP3    H131110   5.339   6.524   3.026
10411TIP3    H231111   5.445   6.565   2.928
10412TIP3   OH231112   5.617   5.555   3.404
10412TIP3    H131113   5.681   5.627   3.385
10412TIP3    H231114   5.620   5.551   3.502
10413TIP3   OH231115   5.879   5.868   4.221
10413TIP3    H131116   5.911   5.922   4.297
10413TIP3    H231117   5.946   5.798   4.213
10414TIP3   OH231118   5.761   5.288   3.509
10414TIP3    H131119   5.749   5.365   3.567
10414TIP3    H231120   5.821   5.325   3.440
10415TIP3   OH231121   5.167   6.569   3.057
10415TIP3    H131122   5.138   6.639   2.994
10415TIP3    H231123   5.152   6.614   3.143
10416TIP3   OH231124   5.271   5.281   3.297
10416TIP3    H131125   5.267   5.373   3.331
10416TIP3    H231126   5.367   5.264   3.305
10417TIP3   OH231127   6.523   5.792   4.168
10417TIP3    H131128   6.430   5.778   4.194
10417TIP3    H231129   6.530   5.723   4.101
10418TIP3   OH231130   6.176   5.971   3.582
10418TIP3    H131131   6.100   5.912   3.594
10418TIP3    H231132   6.248   5.924   3.630
10419TIP3   OH231133   4.888   6.202   3.052
10419TIP3    H131134   4.950   6.277   3.060
10419TIP3    H231135   4.935   6.150   2.983
10420TIP3   OH231136   4.833   5.476   3.181
10420TIP3    H131137   4.832   5.574   3.178
10420TIP3    H231138   4.745   5.454   3.150
10421TIP3   OH231139   6.142   6.925   3.532
10421TIP3    H131140   6.100   6.972   3.457
10421TIP3    H231141   6.237   6.945   3.512
10422TIP3   OH231142   5.221   5.196   4.057
10422TIP3    H131143   5.190   5.167   3.969
10422TIP3    H231144   5.206   5.117   4.112
10423TIP3   OH231145   4.764   6.421   3.443
10423TIP3    H131146   4.684   6.444   3.493
10423TIP3    H231147   4.740   6.456   3.354
10424TIP3   OH231148   4.916   6.956   4.505
10424TIP3    H131149   4.999   6.958   4.558
10424TIP3    H231150   4.895   6.861   4.508
10425TIP3   OH231151   5.397   6.923   4.554
10425TIP3    H131152   5.490   6.903   4.566
10425TIP3    H231153   5.374   6.863   4.479
10426TIP3   OH231154   5.378   6.497   2.684
10426TIP3    H131155   5.323   6.425   2.721
10426TIP3    H231156   5.454   6.446   2.650
10427TIP3   OH231157   6.036   6.826   4.287
10427TIP3    H131158   6.029   6.756   4.356
10427TIP3    H231159   6.113   6.877   4.317
10428TIP3   OH231160   5.813   6.537   2.592
10428TIP3    H131161   5.868   6.483   2.652
10428TIP3    H231162   5.870   6.543   2.513
10429TIP3   OH231163   5.045   6.361   4.710
10429TIP3    H131164   5.062   6.265   4.712
10429TIP3    H231165   4.957   6.365   4.667
10430TIP3   OH231166   5.022   6.013   2.901
10430TIP3    H131167   5.076   5.981   2.975
10430TIP3    H231168   5.091   6.018   2.831
10431TIP3   OH231169   5.656   6.444   4.483
10431TIP3    H131170   5.612   6.462   4.397
10431TIP3    H231171   5.685   6.351   4.474
10432TIP3   OH231172   5.526   6.209   2.709
10432TIP3    H131173   5.532   6.224   2.806
10432TIP3    H231174   5.526   6.111   2.706
10433TIP3   OH231175   6.147   6.452   4.090
10433TIP3    H131176   6.220   6.497   4.044
10433TIP3    H231177   6.075   6.518   4.077
10434TIP3   OH231178   5.160   6.098   4.693
10434TIP3    H131179   5.226   6.029   4.680
10434TIP3    H231180   5.184   6.132   4.782
10435TIP3   OH231181   5.232   5.915   3.127
10435TIP3    H131182   5.204   5.874   3.210
10435TIP3    H231183   5.267   5.839   3.076
10436TIP3   OH231184   5.500   5.993   4.378
10436TIP3    H131185   5.418   6.047   4.365
10436TIP3    H231186   5.544   6.003   4.292
10437TIP3   OH231187   5.331   5.706   2.967
10437TIP3    H131188   5.303   5.709   2.873
10437TIP3    H231189   5.428   5.716   2.959
10438TIP3   OH231190   6.011   6.374   4.485
10438TIP3    H131191   6.097   6.370   4.442
10438TIP3    H231192   6.023   6.317   4.563
10439TIP3   OH231193   6.154   6.040   2.628
10439TIP3    H131194   6.133   5.995   2.544
10439TIP3    H231195   6.125   6.132   2.604
10440TIP3   OH231196   5.660   6.097   4.167
10440TIP3    H131197   5.734   6.096   4.105
10440TIP3    H231198   5.599   6.160   4.124
10441TIP3   OH231199   6.240   6.060   4.546
10441TIP3    H131200   6.295   5.982   4.559
10441TIP3    H231201   6.302   6.122   4.505
10442TIP3   OH231202   6.277   6.308   4.276
10442TIP3    H131203   6.219   6.362   4.217
10442TIP3    H231204   6.364   6.329   4.236
10443TIP3   OH231205   5.515   5.870   4.670
10443TIP3    H131206   5.430   5.831   4.698
10443TIP3    H231207   5.490   5.916   4.585
10444TIP3   OH231208   6.142   5.770   4.432
10444TIP3    H131209   6.060   5.765   4.481
10444TIP3    H231210   6.207   5.730   4.491
10445TIP3   OH231211   5.349   5.666   4.755
10445TIP3    H131212   5.336   5.573   4.726
10445TIP3    H231213   5.372   5.652   4.849
10446TIP3   OH231214   5.138   6.771   2.870
10446TIP3    H131215   5.233   6.769   2.851
10446TIP3    H231216   5.107   6.819   2.791
10447TIP3   OH231217   4.621   6.153   3.091
10447TIP3    H131218   4.716   6.175   3.077
10447TIP3    H231219   4.615   6.065   3.047
10448TIP3   OH231220   4.521   6.760   3.497
10448TIP3    H131221   4.464   6.694   3.456
10448TIP3    H231222   4.570   6.706   3.564
10449TIP3   OH231223   4.665   6.624   3.686
10449TIP3    H131224   4.655   6.545   3.742
10449TIP3    H231225   4.716   6.682   3.745
10450TIP3   OH231226   6.392   7.020   3.487
10450TIP3    H131227   6.427   7.058   3.569
10450TIP3    H231228   6.456   7.054   3.421
10451TIP3   OH231229   6.424   7.041   3.772
10451TIP3    H131230   6.384   6.952   3.762
10451TIP3    H231231   6.503   7.018   3.823
10452TIP3   OH231232   6.472   6.714   4.342
10452TIP3    H131233   6.398   6.723   4.405
10452TIP3    H231234   6.512   6.803   4.345
10453TIP3   OH231235   6.287   6.229   2.961
10453TIP3    H131236   6.354   6.295   2.933
10453TIP3    H231237   6.332   6.190   3.039
10454TIP3   OH231238   6.416   6.094   3.163
10454TIP3    H131239   6.350   6.054   3.224
10454TIP3    H231240   6.480   6.135   3.225
10455TIP3   OH231241   6.467   6.485   3.598
10455TIP3    H131242   6.521   6.424   3.544
10455TIP3    H231243   6.462   6.563   3.540
10456TIP3   OH231244   6.302   6.786   3.795
10456TIP3    H131245   6.231   6.831   3.844
10456TIP3    H231246   6.253   6.739   3.725
10457TIP3   OH231247   6.353   6.001   2.813
10457TIP3    H131248   6.282   6.007   2.745
10457TIP3    H231249   6.329   6.080   2.867
10458TIP3   OH231250   6.225   5.675   2.769
10458TIP3    H131251   6.186   5.721   2.694
10458TIP3    H231252   6.197   5.582   2.753
10459TIP3   OH231253   6.229   5.951   3.313
10459TIP3    H131254   6.239   5.854   3.309
10459TIP3    H231255   6.217   5.967   3.409
10460TIP3   OH231256   4.857   6.022   4.060
10460TIP3    H131257   4.855   5.995   3.965
10460TIP3    H231258   4.954   6.026   4.075
10461TIP3   OH231259   6.518   6.375   4.169
10461TIP3    H131260   6.592   6.311   4.160
10461TIP3    H231261   6.544   6.446   4.108
10462TIP3   OH231262   6.703   6.182   4.191
10462TIP3    H131263   6.630   6.131   4.231
10462TIP3    H231264   6.776   6.116   4.199
10463TIP3   OH231265   6.170   5.408   2.752
10463TIP3    H131266   6.245   5.381   2.809
10463TIP3    H231267   6.096   5.351   2.782
10464TIP3   OH231268   6.225   5.667   3.209
10464TIP3    H131269   6.267   5.579   3.223
10464TIP3    H231270   6.283   5.702   3.139
10465TIP3   OH231271   6.390   5.840   3.702
10465TIP3    H131272   6.475   5.869   3.661
10465TIP3    H231273   6.401   5.880   3.791
10466TIP3   OH231274   6.454   5.986   3.930
10466TIP3    H131275   6.378   6.020   3.981
10466TIP3    H231276   6.487   6.068   3.887
10467TIP3   OH231277   5.075   5.714   4.736
10467TIP3    H131278   5.172   5.705   4.733
10467TIP3    H231279   5.050   5.632   4.782
10468TIP3   OH231280   6.336   5.416   3.245
10468TIP3    H131281   6.383   5.401   3.329
10468TIP3    H231282   6.275   5.340   3.244
10469TIP3   OH231283   5.037   5.404   4.064
10469TIP3    H131284   5.101   5.331   4.075
10469TIP3    H231285   5.098   5.480   4.059
10470TIP3   OH231286   4.841   5.678   4.140
10470TIP3    H131287   4.888   5.670   4.055
10470TIP3    H231288   4.865   5.768   4.166
10471TIP3   OH231289   6.418   5.353   2.878
10471TIP3    H131290   6.459   5.282   2.825
10471TIP3    H231291   6.483   5.426   2.869
10472TIP3   OH231292   4.820   5.181   3.638
10472TIP3    H131293   4.727   5.180   3.664
10472TIP3    H231294   4.819   5.240   3.559
10473TIP3   OH231295   5.978   6.886   3.145
10473TIP3    H131296   6.026   6.866   3.061
10473TIP3    H231297   6.038   6.950   3.185
10474TIP3   OH231298   5.010   5.237   4.459
10474TIP3    H131299   4.958   5.254   4.537
10474TIP3    H231300   4.965   5.294   4.393
10475TIP3   OH231301   5.081   6.686   4.529
10475TIP3    H131302   4.989   6.658   4.515
10475TIP3    H231303   5.092   6.672   4.624
10476TIP3   OH231304   5.258   6.718   4.078
10476TIP3    H131305   5.209   6.792   4.037
10476TIP3    H231306   5.344   6.733   4.033
10477TIP3   OH231307   5.700   6.973   4.217
10477TIP3    H131308   5.744   6.968   4.305
10477TIP3    H231309   5.768   7.018   4.164
10478TIP3   OH231310   5.883   7.116   4.072
10478TIP3    H131311   5.954   7.065   4.030
10478TIP3    H231312   5.935   7.173   4.133
10479TIP3   OH231313   4.940   6.990   4.101
10479TIP3    H131314   4.851   7.022   4.074
10479TIP3    H231315   4.927   6.982   4.196
10480TIP3   OH231316   5.173   6.958   3.958
10480TIP3    H131317   5.087   6.972   4.003
10480TIP3    H231318   5.151   6.988   3.867
10481TIP3   OH231319   5.598   6.986   3.757
10481TIP3    H131320   5.531   7.006   3.689
10481TIP3    H231321   5.612   7.075   3.796
10482TIP3   OH231322   5.866   6.926   3.808
10482TIP3    H131323   5.773   6.942   3.787
10482TIP3    H231324   5.910   7.000   3.764
10483TIP3   OH231325   6.073   7.118   3.723
10483TIP3    H131326   6.060   7.203   3.676
10483TIP3    H231327   6.101   7.058   3.650
10484TIP3   OH231328   4.848   6.773   3.848
10484TIP3    H131329   4.875   6.745   3.938
10484TIP3    H231330   4.919   6.729   3.795
10485TIP3   OH231331   5.039   6.643   3.702
10485TIP3    H131332   5.056   6.558   3.749
10485TIP3    H231333   5.130   6.680   3.697
10486TIP3   OH231334   5.305   6.740   3.704
10486TIP3    H131335   5.337   6.649   3.688
10486TIP3    H231336   5.350   6.759   3.789
10487TIP3   OH231337   5.888   5.397   3.796
10487TIP3    H131338   5.837   5.328   3.843
10487TIP3    H231339   5.955   5.345   3.748
10488TIP3   OH231340   6.410   5.272   3.698
10488TIP3    H131341   6.444   5.326   3.624
10488TIP3    H231342   6.315   5.292   3.696
10489TIP3   OH231343   6.502   5.374   3.462
10489TIP3    H131344   6.575   5.325   3.419
10489TIP3    H231345   6.534   5.467   3.448
10490TIP3   OH231346   5.132   5.104   3.810
10490TIP3    H131347   5.039   5.071   3.809
10490TIP3    H231348   5.181   5.019   3.806
10491TIP3   OH231349   4.918   4.972   3.456
10491TIP3    H131350   4.947   5.031   3.385
10491TIP3    H231351   4.887   5.036   3.523
10492TIP3   OH231352   5.575   5.134   3.689
10492TIP3    H131353   5.633   5.187   3.632
10492TIP3    H231354   5.586   5.178   3.774
10493TIP3   OH231355   6.127   5.280   3.675
10493TIP3    H131356   6.118   5.248   3.585
10493TIP3    H231357   6.109   5.198   3.728
10494TIP3   OH231358   6.152   5.203   3.235
10494TIP3    H131359   6.065   5.247   3.245
10494TIP3    H231360   6.135   5.119   3.283
10495TIP3   OH231361   4.635   6.543   3.240
10495TIP3    H131362   4.551   6.507   3.205
10495TIP3    H231363   4.623   6.636   3.216
10496TIP3   OH231364   5.033   5.133   3.221
10496TIP3    H131365   5.083   5.071   3.164
10496TIP3    H231366   5.105   5.188   3.258
10497TIP3   OH231367   5.548   5.305   3.320
10497TIP3    H131368   5.609   5.260   3.381
10497TIP3    H231369   5.568   5.399   3.344
10498TIP3   OH231370   5.407   6.735   2.820
10498TIP3    H131371   5.496   6.755   2.784
10498TIP3    H231372   5.385   6.659   2.761
10499TIP3   OH231373   6.119   6.848   2.912
10499TIP3    H131374   6.113   6.751   2.895
10499TIP3    H231375   6.085   6.882   2.827
10500TIP3   OH231376   5.341   5.399   4.705
10500TIP3    H131377   5.293   5.327   4.749
10500TIP3    H231378   5.433   5.381   4.732
10501TIP3   OH231379   5.611   5.375   4.810
10501TIP3    H131380   5.704   5.353   4.825
10501TIP3    H231381   5.571   5.331   4.890
10502TIP3   OH231382   4.710   6.571   2.876
10502TIP3    H131383   4.705   6.597   2.969
10502TIP3    H231384   4.800   6.531   2.870
10503TIP3   OH231385   6.353   6.995   4.101
10503TIP3    H131386   6.274   6.963   4.052
10503TIP3    H231387   6.334   7.091   4.101
10504TIP3   OH231388   7.618   6.365   2.866
10504TIP3    H131389   7.592   6.458   2.848
10504TIP3    H231390   7.539   6.319   2.833
10505TIP3   OH231391   7.610   6.368   3.246
10505TIP3    H131392   7.646   6.341   3.332
10505TIP3    H231393   7.572   6.286   3.212
10506TIP3   OH231394   6.918   6.264   3.613
10506TIP3    H131395   6.953   6.199   3.676
10506TIP3    H231396   6.995   6.322   3.601
10507TIP3   OH231397   7.855   6.664   2.931
10507TIP3    H131398   7.852   6.592   2.995
10507TIP3    H231399   7.859   6.741   2.989
10508TIP3   OH231400   6.888   6.666   3.347
10508TIP3    H131401   6.881   6.568   3.345
10508TIP3    H231402   6.983   6.678   3.332
10509TIP3   OH231403   6.594   5.874   3.126
10509TIP3    H131404   6.548   5.959   3.138
10509TIP3    H231405   6.523   5.822   3.084
10510TIP3   OH231406   6.654   6.163   3.292
10510TIP3    H131407   6.705   6.088   3.329
10510TIP3    H231408   6.713   6.195   3.223
10511TIP3   OH231409   7.510   7.135   2.943
10511TIP3    H131410   7.558   7.061   2.898
10511TIP3    H231411   7.499   7.101   3.032
10512TIP3   OH231412   7.413   6.587   3.294
10512TIP3    H131413   7.457   6.514   3.249
10512TIP3    H231414   7.490   6.642   3.317
10513TIP3   OH231415   8.428   5.911   3.293
10513TIP3    H131416   8.455   5.995   3.336
10513TIP3    H231417   8.449   5.932   3.200
10514TIP3   OH231418   7.827   6.091   3.330
10514TIP3    H131419   7.872   6.006   3.346
10514TIP3    H231420   7.798   6.080   3.238
10515TIP3   OH231421   7.165   5.753   3.295
10515TIP3    H131422   7.145   5.826   3.233
10515TIP3    H231423   7.116   5.680   3.249
10516TIP3   OH231424   7.858   5.843   2.918
10516TIP3    H131425   7.932   5.829   2.981
10516TIP3    H231426   7.907   5.880   2.842
10517TIP3   OH231427   6.799   5.956   3.401
10517TIP3    H131428   6.883   5.936   3.447
10517TIP3    H231429   6.811   5.901   3.320
10518TIP3   OH231430   7.241   6.153   3.191
10518TIP3    H131431   7.335   6.127   3.204
10518TIP3    H231432   7.201   6.069   3.159
10519TIP3   OH231433   8.499   6.117   3.465
10519TIP3    H131434   8.418   6.168   3.444
10519TIP3    H231435   8.519   6.149   3.554
10520TIP3   OH231436   7.163   5.737   3.728
10520TIP3    H131437   7.105   5.775   3.660
10520TIP3    H231438   7.111   5.756   3.808
10521TIP3   OH231439   7.515   6.589   2.734
10521TIP3    H131440   7.468   6.565   2.653
10521TIP3    H231441   7.470   6.673   2.757
10522TIP3   OH231442   7.267   6.510   3.527
10522TIP3    H131443   7.204   6.576   3.564
10522TIP3    H231444   7.311   6.562   3.457
10523TIP3   OH231445   8.072   5.845   3.086
10523TIP3    H131446   8.064   5.797   3.170
10523TIP3    H231447   8.127   5.922   3.112
10524TIP3   OH231448   7.033   5.851   3.513
10524TIP3    H131449   7.094   5.926   3.534
10524TIP3    H231450   7.082   5.811   3.437
10525TIP3   OH231451   7.096   6.704   3.621
10525TIP3    H131452   7.072   6.788   3.577
10525TIP3    H231453   7.016   6.692   3.677
10526TIP3   OH231454   6.492   6.397   2.857
10526TIP3    H131455   6.452   6.420   2.771
10526TIP3    H231456   6.518   6.487   2.888
10527TIP3   OH231457   8.222   5.811   3.459
10527TIP3    H131458   8.135   5.842   3.430
10527TIP3    H231459   8.281   5.843   3.388
10528TIP3   OH231460   7.523   5.458   3.442
10528TIP3    H131461   7.506   5.363   3.454
10528TIP3    H231462   7.444   5.496   3.486
10529TIP3   OH231463   7.637   6.959   2.773
10529TIP3    H131464   7.686   6.878   2.750
10529TIP3    H231465   7.694   7.026   2.728
10530TIP3   OH231466   7.779   6.744   2.674
10530TIP3    H131467   7.733   6.667   2.639
10530TIP3    H231468   7.813   6.707   2.759
10531TIP3   OH231469   8.173   6.826   3.436
10531TIP3    H131470   8.147   6.745   3.387
10531TIP3    H231471   8.113   6.889   3.390
10532TIP3   OH231472   7.448   6.216   2.696
10532TIP3    H131473   7.367   6.268   2.676
10532TIP3    H231474   7.494   6.217   2.610
10533TIP3   OH231475   7.409   6.000   2.417
10533TIP3    H131476   7.477   6.051   2.465
10533TIP3    H231477   7.466   5.938   2.368
10534TIP3   OH231478   8.355   6.458   3.284
10534TIP3    H131479   8.271   6.510   3.289
10534TIP3    H231480   8.383   6.484   3.193
10535TIP3   OH231481   7.795   6.300   2.669
10535TIP3    H131482   7.740   6.326   2.747
10535TIP3    H231483   7.879   6.275   2.714
10536TIP3   OH231484   8.031   6.342   3.579
10536TIP3    H131485   8.028   6.429   3.622
10536TIP3    H231486   7.945   6.345   3.531
10537TIP3   OH231487   7.027   6.298   3.086
10537TIP3    H131488   6.986   6.242   3.017
10537TIP3    H231489   7.106   6.246   3.111
10538TIP3   OH231490   7.153   6.706   3.236
10538TIP3    H131491   7.134   6.668   3.148
10538TIP3    H231492   7.244   6.674   3.253
10539TIP3   OH231493   7.167   6.269   3.439
10539TIP3    H131494   7.199   6.253   3.348
10539TIP3    H231495   7.208   6.356   3.461
10540TIP3   OH231496   7.296   6.822   3.777
10540TIP3    H131497   7.235   6.889   3.814
10540TIP3    H231498   7.235   6.772   3.720
10541TIP3   OH231499   7.640   6.156   2.495
10541TIP3    H131500   7.697   6.217   2.547
10541TIP3    H231501   7.665   6.182   2.403
10542TIP3   OH231502   7.057   6.380   3.866
10542TIP3    H131503   7.062   6.469   3.908
10542TIP3    H231504   6.961   6.365   3.869
10543TIP3   OH231505   7.381   6.836   2.771
10543TIP3    H131506   7.453   6.898   2.792
10543TIP3    H231507   7.314   6.894   2.732
10544TIP3   OH231508   7.096   7.000   3.850
10544TIP3    H131509   7.063   6.996   3.758
10544TIP3    H231510   7.016   6.975   3.901
10545TIP3   OH231511   8.153   5.401   2.542
10545TIP3    H131512   8.072   5.421   2.594
10545TIP3    H231513   8.165   5.484   2.492
10546TIP3   OH231514   6.895   6.140   2.890
10546TIP3    H131515   6.833   6.191   2.833
10546TIP3    H231516   6.846   6.058   2.900
10547TIP3   OH231517   7.951   6.767   2.091
10547TIP3    H131518   7.960   6.864   2.076
10547TIP3    H231519   8.044   6.737   2.078
10548TIP3   OH231520   6.675   6.525   3.798
10548TIP3    H131521   6.613   6.504   3.726
10548TIP3    H231522   6.712   6.438   3.821
10549TIP3   OH231523   6.532   6.713   3.440
10549TIP3    H131524   6.626   6.712   3.417
10549TIP3    H231525   6.523   6.799   3.483
10550TIP3   OH231526   8.395   7.172   3.488
10550TIP3    H131527   8.390   7.074   3.486
10550TIP3    H231528   8.307   7.193   3.527
10551TIP3   OH231529   7.479   6.956   3.614
10551TIP3    H131530   7.498   7.045   3.649
10551TIP3    H231531   7.422   6.918   3.684
10552TIP3   OH231532   7.265   7.089   2.569
10552TIP3    H131533   7.212   7.062   2.491
10552TIP3    H231534   7.225   7.175   2.593
10553TIP3   OH231535   7.468   6.989   2.214
10553TIP3    H131536   7.524   6.916   2.178
10553TIP3    H231537   7.496   6.991   2.308
10554TIP3   OH231538   7.515   7.035   2.484
10554TIP3    H131539   7.425   7.047   2.521
10554TIP3    H231540   7.558   6.988   2.557
10555TIP3   OH231541   8.284   6.300   3.760
10555TIP3    H131542   8.206   6.318   3.705
10555TIP3    H231543   8.297   6.204   3.747
10556TIP3   OH231544   6.882   6.708   3.789
10556TIP3    H131545   6.932   6.690   3.871
10556TIP3    H231546   6.807   6.645   3.795
10557TIP3   OH231547   7.280   5.533   3.565
10557TIP3    H131548   7.189   5.504   3.541
10557TIP3    H231549   7.259   5.617   3.608
10558TIP3   OH231550   7.811   5.646   3.766
10558TIP3    H131551   7.879   5.620   3.830
10558TIP3    H231552   7.727   5.625   3.813
10559TIP3   OH231553   8.054   6.077   3.680
10559TIP3    H131554   8.005   6.074   3.766
10559TIP3    H231555   8.030   6.164   3.645
10560TIP3   OH231556   7.715   6.205   2.239
10560TIP3    H131557   7.680   6.180   2.151
10560TIP3    H231558   7.791   6.260   2.214
10561TIP3   OH231559   7.428   5.581   2.540
10561TIP3    H131560   7.394   5.581   2.632
10561TIP3    H231561   7.387   5.498   2.508
10562TIP3   OH231562   7.212   6.046   3.587
10562TIP3    H131563   7.161   6.069   3.668
10562TIP3    H231564   7.198   6.128   3.533
10563TIP3   OH231565   7.098   5.931   3.102
10563TIP3    H131566   7.004   5.909   3.118
10563TIP3    H231567   7.110   5.893   3.013
10564TIP3   OH231568   7.586   6.018   2.828
10564TIP3    H131569   7.532   6.091   2.789
10564TIP3    H231570   7.640   5.992   2.752
10565TIP3   OH231571   7.762   6.299   3.918
10565TIP3    H131572   7.740   6.226   3.979
10565TIP3    H231573   7.857   6.311   3.937
10566TIP3   OH231574   7.743   6.048   3.071
10566TIP3    H131575   7.686   6.083   2.999
10566TIP3    H231576   7.774   5.966   3.026
10567TIP3   OH231577   7.033   6.078   3.797
10567TIP3    H131578   7.054   6.144   3.864
10567TIP3    H231579   7.018   5.997   3.850
10568TIP3   OH231580   7.081   5.552   2.508
10568TIP3    H131581   7.072   5.552   2.605
10568TIP3    H231582   7.004   5.606   2.482
10569TIP3   OH231583   6.624   5.598   3.379
10569TIP3    H131584   6.700   5.632   3.431
10569TIP3    H231585   6.664   5.571   3.295
10570TIP3   OH231586   6.600   5.581   2.898
10570TIP3    H131587   6.644   5.621   2.819
10570TIP3    H231588   6.539   5.654   2.920
10571TIP3   OH231589   7.755   6.292   3.493
10571TIP3    H131590   7.787   6.220   3.435
10571TIP3    H231591   7.723   6.241   3.570
10572TIP3   OH231592   7.421   5.750   3.165
10572TIP3    H131593   7.338   5.753   3.215
10572TIP3    H231594   7.487   5.763   3.235
10573TIP3   OH231595   6.857   5.811   3.174
10573TIP3    H131596   6.762   5.819   3.146
10573TIP3    H231597   6.880   5.720   3.146
10574TIP3   OH231598   7.130   5.807   2.859
10574TIP3    H131599   7.223   5.826   2.837
10574TIP3    H231600   7.082   5.832   2.777
10575TIP3   OH231601   7.916   5.829   3.365
10575TIP3    H131602   7.879   5.842   3.455
10575TIP3    H231603   7.849   5.769   3.327
10576TIP3   OH231604   6.968   5.837   2.640
10576TIP3    H131605   6.895   5.796   2.590
10576TIP3    H231606   7.020   5.876   2.566
10577TIP3   OH231607   8.085   7.519   3.584
10577TIP3    H131608   8.078   7.539   3.488
10577TIP3    H231609   8.164   7.570   3.609
10578TIP3   OH231610   7.042   6.627   4.007
10578TIP3    H131611   7.122   6.661   4.052
10578TIP3    H231612   6.977   6.631   4.081
10579TIP3   OH231613   7.507   6.078   3.258
10579TIP3    H131614   7.583   6.045   3.207
10579TIP3    H231615   7.524   6.043   3.346
10580TIP3   OH231616   7.033   5.572   3.137
10580TIP3    H131617   7.000   5.490   3.179
10580TIP3    H231618   7.081   5.539   3.060
10581TIP3   OH231619   7.483   5.974   3.560
10581TIP3    H131620   7.394   6.015   3.565
10581TIP3    H231621   7.540   6.039   3.604
10582TIP3   OH231622   7.223   6.370   2.648
10582TIP3    H131623   7.148   6.308   2.635
10582TIP3    H231624   7.203   6.405   2.738
10583TIP3   OH231625   8.126   6.602   3.280
10583TIP3    H131626   8.145   6.658   3.202
10583TIP3    H231627   8.033   6.575   3.262
10584TIP3   OH231628   7.680   5.684   2.506
10584TIP3    H131629   7.582   5.670   2.513
10584TIP3    H231630   7.691   5.779   2.528
10585TIP3   OH231631   7.600   6.677   3.659
10585TIP3    H131632   7.632   6.693   3.748
10585TIP3    H231633   7.587   6.767   3.624
10586TIP3   OH231634   7.749   5.929   2.609
10586TIP3    H131635   7.845   5.938   2.625
10586TIP3    H231636   7.729   6.009   2.557
10587TIP3   OH231637   6.909   6.387   3.324
10587TIP3    H131638   6.948   6.365   3.236
10587TIP3    H231639   6.955   6.325   3.382
10588TIP3   OH231640   7.367   6.522   2.470
10588TIP3    H131641   7.320   6.609   2.476
10588TIP3    H231642   7.310   6.467   2.528
10589TIP3   OH231643   6.791   6.313   3.935
10589TIP3    H131644   6.813   6.300   4.029
10589TIP3    H231645   6.722   6.246   3.920
10590TIP3   OH231646   7.516   6.423   3.958
10590TIP3    H131647   7.456   6.372   3.901
10590TIP3    H231648   7.603   6.394   3.924
10591TIP3   OH231649   8.192   6.019   2.447
10591TIP3    H131650   8.129   5.974   2.385
10591TIP3    H231651   8.187   6.108   2.406
10592TIP3   OH231652   8.413   6.883   3.528
10592TIP3    H131653   8.317   6.872   3.510
10592TIP3    H231654   8.445   6.851   3.441
10593TIP3   OH231655   7.893   6.841   2.356
10593TIP3    H131656   7.863   6.772   2.418
10593TIP3    H231657   7.901   6.793   2.272
10594TIP3   OH231658   7.895   6.466   3.188
10594TIP3    H131659   7.801   6.452   3.211
10594TIP3    H231660   7.918   6.382   3.143
10595TIP3   OH231661   7.011   6.694   2.949
10595TIP3    H131662   7.012   6.781   2.903
10595TIP3    H231663   6.915   6.681   2.953
10596TIP3   OH231664   6.578   6.001   2.649
10596TIP3    H131665   6.623   6.087   2.666
10596TIP3    H231666   6.499   6.010   2.708
10597TIP3   OH231667   7.154   6.464   2.894
10597TIP3    H131668   7.118   6.554   2.908
10597TIP3    H231669   7.115   6.416   2.969
10598TIP3   OH231670   7.283   7.038   3.419
10598TIP3    H131671   7.326   7.108   3.366
10598TIP3    H231672   7.359   7.004   3.470
10599TIP3   OH231673   6.945   6.934   2.825
10599TIP3    H131674   6.849   6.927   2.805
10599TIP3    H231675   6.959   7.030   2.812
10600TIP3   OH231676   7.643   6.567   2.255
10600TIP3    H131677   7.693   6.542   2.335
10600TIP3    H231678   7.553   6.542   2.281
10601TIP3   OH231679   7.922   7.210   3.431
10601TIP3    H131680   7.852   7.143   3.416
10601TIP3    H231681   7.900   7.272   3.358
10602TIP3   OH231682   7.986   7.043   2.078
10602TIP3    H131683   8.021   7.109   2.015
10602TIP3    H231684   7.908   7.091   2.109
10603TIP3   OH231685   7.004   5.817   3.944
10603TIP3    H131686   6.909   5.831   3.960
10603TIP3    H231687   7.030   5.760   4.018
10604TIP3   OH231688   7.803   6.501   2.473
10604TIP3    H131689   7.793   6.435   2.545
10604TIP3    H231690   7.900   6.500   2.462
10605TIP3   OH231691   6.717   6.907   3.580
10605TIP3    H131692   6.771   6.829   3.599
10605TIP3    H231693   6.757   6.972   3.640
10606TIP3   OH231694   7.017   6.549   2.255
10606TIP3    H131695   7.023   6.457   2.224
10606TIP3    H231696   6.996   6.536   2.350
10607TIP3   OH231697   6.963   6.553   2.526
10607TIP3    H131698   7.024   6.531   2.597
10607TIP3    H231699   6.961   6.651   2.531
10608TIP3   OH231700   6.694   6.249   2.733
10608TIP3    H131701   6.628   6.295   2.790
10608TIP3    H231702   6.707   6.317   2.664
10609TIP3   OH231703   7.840   5.883   3.623
10609TIP3    H131704   7.920   5.922   3.661
10609TIP3    H231705   7.825   5.803   3.678
10610TIP3   OH231706   7.721   5.636   2.786
10610TIP3    H131707   7.705   5.660   2.693
10610TIP3    H231708   7.759   5.718   2.823
10611TIP3   OH231709   7.225   6.754   2.482
10611TIP3    H131710   7.138   6.781   2.517
10611TIP3    H231711   7.233   6.814   2.406
10612TIP3   OH231712   7.414   5.811   2.890
10612TIP3    H131713   7.477   5.884   2.871
10612TIP3    H231714   7.417   5.808   2.988
10613TIP3   OH231715   7.677   6.132   3.702
10613TIP3    H131716   7.697   6.190   3.778
10613TIP3    H231717   7.738   6.057   3.715
10614TIP3   OH231718   7.558   5.544   2.996
10614TIP3    H131719   7.544   5.622   3.052
10614TIP3    H231720   7.617   5.582   2.926
10615TIP3   OH231721   6.963   6.826   2.540
10615TIP3    H131722   6.934   6.894   2.474
10615TIP3    H231723   6.916   6.858   2.619
10616TIP3   OH231724   7.066   5.538   2.786
10616TIP3    H131725   7.063   5.631   2.817
10616TIP3    H231726   7.163   5.522   2.792
10617TIP3   OH231727   8.321   6.033   3.682
10617TIP3    H131728   8.223   6.030   3.685
10617TIP3    H231729   8.336   6.002   3.591
10618TIP3   OH231730   7.972   6.222   3.065
10618TIP3    H131731   7.896   6.163   3.080
10618TIP3    H231732   8.043   6.178   3.115
10619TIP3   OH231733   6.680   6.457   2.543
10619TIP3    H131734   6.727   6.542   2.551
10619TIP3    H231735   6.733   6.415   2.473
10620TIP3   OH231736   6.628   5.731   2.672
10620TIP3    H131737   6.630   5.829   2.667
10620TIP3    H231738   6.545   5.712   2.628
10621TIP3   OH231739   7.936   7.206   3.025
10621TIP3    H131740   7.898   7.241   2.943
10621TIP3    H231741   8.031   7.202   3.002
10622TIP3   OH231742   7.016   5.453   3.544
10622TIP3    H131743   6.984   5.424   3.456
10622TIP3    H231744   7.003   5.372   3.598
10623TIP3   OH231745   6.547   6.665   2.910
10623TIP3    H131746   6.497   6.726   2.966
10623TIP3    H231747   6.588   6.730   2.849
10624TIP3   OH231748   6.710   7.209   3.998
10624TIP3    H131749   6.796   7.208   4.043
10624TIP3    H231750   6.688   7.114   3.994
10625TIP3   OH231751   7.196   7.178   4.042
10625TIP3    H131752   7.291   7.157   4.046
10625TIP3    H231753   7.169   7.123   3.966
10626TIP3   OH231754   7.180   6.754   2.177
10626TIP3    H131755   7.122   6.681   2.209
10626TIP3    H231756   7.248   6.702   2.130
10627TIP3   OH231757   7.815   7.111   3.793
10627TIP3    H131758   7.810   7.021   3.831
10627TIP3    H231759   7.908   7.135   3.805
10628TIP3   OH231760   7.617   6.799   2.083
10628TIP3    H131761   7.657   6.727   2.135
10628TIP3    H231762   7.665   6.793   1.998
10629TIP3   OH231763   6.841   6.617   4.198
10629TIP3    H131764   6.858   6.521   4.199
10629TIP3    H231765   6.753   6.621   4.154
10630TIP3   OH231766   6.819   6.270   2.387
10630TIP3    H131767   6.875   6.240   2.460
10630TIP3    H231768   6.885   6.275   2.315
10631TIP3   OH231769   7.452   6.700   3.971
10631TIP3    H131770   7.409   6.721   3.885
10631TIP3    H231771   7.479   6.607   3.959
10632TIP3   OH231772   7.333   6.465   2.199
10632TIP3    H131773   7.328   6.480   2.296
10632TIP3    H231774   7.325   6.368   2.194
10633TIP3   OH231775   7.944   6.711   3.592
10633TIP3    H131776   7.995   6.760   3.525
10633TIP3    H231777   7.857   6.724   3.551
10634TIP3   OH231778   6.957   6.348   4.180
10634TIP3    H131779   7.035   6.295   4.158
10634TIP3    H231780   6.983   6.384   4.268
10635TIP3   OH231781   7.031   6.171   2.614
10635TIP3    H131782   7.000   6.130   2.696
10635TIP3    H231783   7.063   6.095   2.562
10636TIP3   OH231784   7.298   6.236   3.841
10636TIP3    H131785   7.220   6.296   3.845
10636TIP3    H231786   7.343   6.268   3.760
10637TIP3   OH231787   7.126   5.961   2.455
10637TIP3    H131788   7.098   5.967   2.361
10637TIP3    H231789   7.223   5.973   2.446
10638TIP3   OH231790   7.829   6.638   3.983
10638TIP3    H131791   7.881   6.601   3.910
10638TIP3    H231792   7.816   6.561   4.041
10639TIP3   OH231793   7.954   6.298   2.113
10639TIP3    H131794   7.928   6.251   2.031
10639TIP3    H231795   7.922   6.388   2.090
10640TIP3   OH231796   7.422   6.023   3.966
10640TIP3    H131797   7.418   5.945   3.908
10640TIP3    H231798   7.378   6.092   3.910
10641TIP3   OH231799   7.424   5.805   3.776
10641TIP3    H131800   7.451   5.851   3.694
10641TIP3    H231801   7.330   5.784   3.757
10642TIP3   OH231802   7.452   6.346   3.645
10642TIP3    H131803   7.536   6.363   3.598
10642TIP3    H231804   7.395   6.416   3.607
10643TIP3   OH231805   8.036   6.315   4.029
10643TIP3    H131806   8.085   6.232   4.042
10643TIP3    H231807   8.099   6.367   3.976
10644TIP3   OH231808   8.071   6.563   3.776
10644TIP3    H131809   8.017   6.621   3.717
10644TIP3    H231810   8.160   6.587   3.742
10645TIP3   OH231811   7.301   6.136   4.198
10645TIP3    H131812   7.227   6.073   4.210
10645TIP3    H231813   7.331   6.114   4.107
10646TIP3   OH231814   7.557   5.575   3.858
10646TIP3    H131815   7.515   5.660   3.832
10646TIP3    H231816   7.486   5.512   3.831
10647TIP3   OH231817   7.682   6.076   4.057
10647TIP3    H131818   7.666   6.076   4.153
10647TIP3    H231819   7.591   6.057   4.025
10648TIP3   OH231820   7.919   6.028   3.910
10648TIP3    H131821   7.844   6.033   3.972
10648TIP3    H231822   7.993   5.999   3.969
10649TIP3   OH231823   8.144   5.966   4.063
10649TIP3    H131824   8.161   5.872   4.084
10649TIP3    H231825   8.145   6.009   4.152
10650TIP3   OH231826   7.133   5.920   4.248
10650TIP3    H131827   7.143   5.830   4.211
10650TIP3    H231828   7.169   5.908   4.338
10651TIP3   OH231829   7.683   5.777   4.249
10651TIP3    H131830   7.686   5.766   4.153
10651TIP3    H231831   7.627   5.858   4.258
10652TIP3   OH231832   6.936   7.031   2.354
10652TIP3    H131833   7.031   7.029   2.332
10652TIP3    H231834   6.901   7.073   2.273
10653TIP3   OH231835   6.414   6.405   2.578
10653TIP3    H131836   6.507   6.432   2.564
10653TIP3    H231837   6.411   6.319   2.532
10654TIP3   OH231838   6.317   7.026   2.991
10654TIP3    H131839   6.258   6.959   2.952
10654TIP3    H231840   6.369   6.969   3.053
10655TIP3   OH231841   6.456   6.880   3.175
10655TIP3    H131842   6.456   6.800   3.230
10655TIP3    H231843   6.517   6.937   3.225
10656TIP3   OH231844   8.196   7.275   2.968
10656TIP3    H131845   8.215   7.304   3.059
10656TIP3    H231846   8.261   7.323   2.916
10657TIP3   OH231847   8.225   7.302   3.251
10657TIP3    H131848   8.173   7.218   3.245
10657TIP3    H231849   8.299   7.270   3.304
10658TIP3   OH231850   8.084   6.484   2.448
10658TIP3    H131851   8.154   6.548   2.422
10658TIP3    H231852   8.126   6.444   2.528
10659TIP3   OH231853   8.212   6.352   2.651
10659TIP3    H131854   8.146   6.310   2.711
10659TIP3    H231855   8.276   6.391   2.714
10660TIP3   OH231856   8.267   6.745   3.086
10660TIP3    H131857   8.317   6.680   3.034
10660TIP3    H231858   8.257   6.819   3.023
10661TIP3   OH231859   8.100   7.065   3.271
10661TIP3    H131860   8.033   7.094   3.336
10661TIP3    H231861   8.045   6.996   3.229
10662TIP3   OH231862   8.150   6.259   2.300
10662TIP3    H131863   8.079   6.263   2.232
10662TIP3    H231864   8.123   6.335   2.355
10663TIP3   OH231865   8.024   5.931   2.253
10663TIP3    H131866   7.978   5.976   2.181
10663TIP3    H231867   7.995   5.838   2.240
10664TIP3   OH231868   8.027   6.207   2.798
10664TIP3    H131869   8.035   6.110   2.794
10664TIP3    H231870   8.013   6.224   2.894
10665TIP3   OH231871   6.653   6.278   3.546
10665TIP3    H131872   6.651   6.253   3.452
10665TIP3    H231873   6.751   6.283   3.561
10666TIP3   OH231874   8.315   6.642   3.674
10666TIP3    H131875   8.387   6.576   3.666
10666TIP3    H231876   8.331   6.698   3.597
10667TIP3   OH231877   8.500   6.444   3.689
10667TIP3    H131878   8.424   6.389   3.716
10667TIP3    H231879   8.572   6.377   3.694
10668TIP3   OH231880   7.966   5.665   2.239
10668TIP3    H131881   8.041   5.637   2.295
10668TIP3    H231882   7.892   5.608   2.268
10669TIP3   OH231883   8.022   5.924   2.696
10669TIP3    H131884   8.063   5.835   2.710
10669TIP3    H231885   8.080   5.958   2.626
10670TIP3   OH231886   8.186   6.098   3.191
10670TIP3    H131887   8.271   6.126   3.150
10670TIP3    H231888   8.198   6.138   3.279
10671TIP3   OH231889   8.252   6.244   3.425
10671TIP3    H131890   8.172   6.279   3.469
10671TIP3    H231891   8.283   6.323   3.376
10672TIP3   OH231892   6.864   5.964   4.222
10672TIP3    H131893   6.961   5.957   4.223
10672TIP3    H231894   6.837   5.892   4.280
10673TIP3   OH231895   8.700   5.828   3.978
10673TIP3    H131896   8.761   5.765   3.935
10673TIP3    H231897   8.676   5.888   3.904
10674TIP3   OH231898   8.132   5.673   2.732
10674TIP3    H131899   8.180   5.658   2.816
10674TIP3    H231900   8.071   5.597   2.730
10675TIP3   OH231901   6.832   5.660   3.552
10675TIP3    H131902   6.897   5.588   3.560
10675TIP3    H231903   6.891   5.737   3.546
10676TIP3   OH231904   6.636   5.934   3.626
10676TIP3    H131905   6.684   5.929   3.541
10676TIP3    H231906   6.660   6.023   3.655
10677TIP3   OH231907   8.576   5.975   3.786
10677TIP3    H131908   8.487   6.013   3.801
10677TIP3    H231909   8.553   5.903   3.725
10678TIP3   OH231910   8.213   5.610   2.364
10678TIP3    H131911   8.255   5.538   2.313
10678TIP3    H231912   8.280   5.682   2.356
10679TIP3   OH231913   6.617   5.437   3.125
10679TIP3    H131914   6.523   5.437   3.150
10679TIP3    H231915   6.617   5.496   3.047
10680TIP3   OH231916   7.775   7.141   2.630
10680TIP3    H131917   7.831   7.124   2.552
10680TIP3    H231918   7.829   7.203   2.682
10681TIP3   OH231919   6.818   5.498   3.944
10681TIP3    H131920   6.777   5.530   4.025
10681TIP3    H231921   6.765   5.547   3.878
10682TIP3   OH231922   6.878   6.943   4.019
10682TIP3    H131923   6.786   6.915   3.999
10682TIP3    H231924   6.883   6.927   4.114
10683TIP3   OH231925   7.055   6.977   3.567
10683TIP3    H131926   7.007   7.050   3.524
10683TIP3    H231927   7.142   6.990   3.522
10684TIP3   OH231928   7.500   7.224   3.707
10684TIP3    H131929   7.548   7.224   3.792
10684TIP3    H231930   7.566   7.269   3.649
10685TIP3   OH231931   7.673   7.377   3.560
10685TIP3    H131932   7.731   7.318   3.508
10685TIP3    H231933   7.737   7.425   3.616
10686TIP3   OH231934   8.473   5.737   3.662
10686TIP3    H131935   8.383   5.736   3.625
10686TIP3    H231936   8.502   5.644   3.647
10687TIP3   OH231937   6.733   7.236   3.587
10687TIP3    H131938   6.645   7.269   3.561
10687TIP3    H231939   6.737   7.265   3.678
10688TIP3   OH231940   6.970   7.215   3.445
10688TIP3    H131941   6.883   7.226   3.490
10688TIP3    H231942   6.949   7.243   3.354
10689TIP3   OH231943   7.393   7.242   3.239
10689TIP3    H131944   7.320   7.265   3.178
10689TIP3    H231945   7.409   7.327   3.283
10690TIP3   OH231946   7.663   7.217   3.308
10690TIP3    H131947   7.573   7.197   3.278
10690TIP3    H231948   7.698   7.273   3.237
10691TIP3   OH231949   7.887   7.388   3.217
10691TIP3    H131950   7.862   7.464   3.160
10691TIP3    H231951   7.903   7.318   3.149
10692TIP3   OH231952   6.637   7.030   3.337
10692TIP3    H131953   6.669   7.004   3.426
10692TIP3    H231954   6.709   6.989   3.282
10693TIP3   OH231955   6.836   6.909   3.206
10693TIP3    H131956   6.856   6.818   3.236
10693TIP3    H231957   6.922   6.941   3.176
10694TIP3   OH231958   7.110   7.003   3.187
10694TIP3    H131959   7.134   6.910   3.172
10694TIP3    H231960   7.148   7.016   3.276
10695TIP3   OH231961   7.684   5.653   3.283
10695TIP3    H131962   7.636   5.584   3.332
10695TIP3    H231963   7.750   5.603   3.233
10696TIP3   OH231964   8.204   5.531   3.187
10696TIP3    H131965   8.241   5.583   3.113
10696TIP3    H231966   8.109   5.550   3.179
10697TIP3   OH231967   8.298   5.631   2.950
10697TIP3    H131968   8.370   5.580   2.908
10697TIP3    H231969   8.331   5.723   2.935
10698TIP3   OH231970   6.928   5.360   3.299
10698TIP3    H131971   6.835   5.328   3.296
10698TIP3    H231972   6.977   5.275   3.293
10699TIP3   OH231973   6.716   5.228   2.943
10699TIP3    H131974   6.745   5.286   2.871
10699TIP3    H231975   6.683   5.293   3.009
10700TIP3   OH231976   7.372   5.390   3.176
10700TIP3    H131977   7.428   5.442   3.117
10700TIP3    H231978   7.386   5.434   3.261
10701TIP3   OH231979   7.921   5.538   3.161
10701TIP3    H131980   7.915   5.506   3.070
10701TIP3    H231981   7.905   5.455   3.213
10702TIP3   OH231982   7.948   5.460   2.722
10702TIP3    H131983   7.861   5.504   2.732
10702TIP3    H231984   7.931   5.376   2.769
10703TIP3   OH231985   6.830   5.387   2.711
10703TIP3    H131986   6.880   5.328   2.651
10703TIP3    H231987   6.901   5.444   2.746
10704TIP3   OH231988   7.344   5.562   2.807
10704TIP3    H131989   7.406   5.518   2.867
10704TIP3    H231990   7.363   5.655   2.830
10705TIP3   OH231991   7.204   6.994   2.302
10705TIP3    H131992   7.292   7.015   2.265
10705TIP3    H231993   7.182   6.917   2.246
10706TIP3   OH231994   7.926   7.108   2.397
10706TIP3    H131995   7.918   7.009   2.388
10706TIP3    H231996   7.880   7.138   2.317
10707TIP3   OH231997   7.132   5.648   4.182
10707TIP3    H131998   7.091   5.587   4.245
10707TIP3    H231999   7.227   5.641   4.207
10708TIP3   OH232000   7.382   5.631   4.299
10708TIP3    H132001   7.477   5.644   4.298
10708TIP3    H232002   7.370   5.574   4.378
10709TIP3   OH232003   6.516   6.834   2.377
10709TIP3    H132004   6.524   6.857   2.471
10709TIP3    H232005   6.602   6.790   2.360
10710TIP3   OH232006   8.207   5.696   4.094
10710TIP3    H132007   8.230   5.667   4.185
10710TIP3    H232008   8.295   5.695   4.050
10711TIP3   OH232009   8.143   7.250   3.592
10711TIP3    H132010   8.067   7.217   3.538
10711TIP3    H232011   8.127   7.346   3.584
10712TIP3   OH232012   9.421   6.614   2.341
10712TIP3    H132013   9.402   6.709   2.330
10712TIP3    H232014   9.335   6.575   2.319
10713TIP3   OH232015   9.366   6.623   2.743
10713TIP3    H132016   9.432   6.607   2.813
10713TIP3    H232017   9.370   6.542   2.692
10714TIP3   OH232018   8.714   6.522   3.101
10714TIP3    H132019   8.747   6.455   3.163
10714TIP3    H232020   8.794   6.575   3.086
10715TIP3   OH232021   8.683   6.927   2.825
10715TIP3    H132022   8.675   6.830   2.828
10715TIP3    H232023   8.780   6.936   2.820
10716TIP3   OH232024   8.390   6.132   2.611
10716TIP3    H132025   8.343   6.216   2.625
10716TIP3    H232026   8.319   6.078   2.573
10717TIP3   OH232027   8.451   6.419   2.778
10717TIP3    H132028   8.500   6.343   2.817
10717TIP3    H232029   8.512   6.448   2.709
10718TIP3   OH232030   9.295   7.375   2.441
10718TIP3    H132031   9.340   7.294   2.412
10718TIP3    H232032   9.293   7.360   2.537
10719TIP3   OH232033   9.208   6.849   2.783
10719TIP3    H132034   9.250   6.766   2.751
10719TIP3    H232035   9.291   6.899   2.802
10720TIP3   OH232036   9.627   6.377   2.813
10720TIP3    H132037   9.631   6.282   2.835
10720TIP3    H232038   9.607   6.370   2.718
10721TIP3   OH232039   8.958   6.010   2.782
10721TIP3    H132040   8.941   6.083   2.719
10721TIP3    H232041   8.911   5.937   2.736
10722TIP3   OH232042   9.645   6.097   2.422
10722TIP3    H132043   9.717   6.065   2.478
10722TIP3    H232044   9.693   6.156   2.362
10723TIP3   OH232045   8.595   6.212   2.887
10723TIP3    H132046   8.679   6.193   2.934
10723TIP3    H232047   8.607   6.157   2.807
10724TIP3   OH232048   9.037   6.410   2.678
10724TIP3    H132049   9.131   6.385   2.692
10724TIP3    H232050   8.999   6.325   2.647
10725TIP3   OH232051   8.958   5.993   3.215
10725TIP3    H132052   8.899   6.031   3.146
10725TIP3    H232053   8.906   6.014   3.295
10726TIP3   OH232054   9.313   6.852   2.221
10726TIP3    H132055   9.262   6.822   2.145
10726TIP3    H232056   9.266   6.935   2.244
10727TIP3   OH232057   9.065   6.767   3.013
10727TIP3    H132058   9.002   6.834   3.048
10727TIP3    H232059   9.111   6.817   2.942
10728TIP3   OH232060   8.828   6.108   3.000
10728TIP3    H132061   8.890   6.182   3.021
10728TIP3    H232062   8.877   6.067   2.924
10729TIP3   OH232063   8.891   6.961   3.107
10729TIP3    H132064   8.868   7.047   3.066
10729TIP3    H232065   8.812   6.949   3.163
10730TIP3   OH232066   8.290   6.651   2.343
10730TIP3    H132067   8.247   6.676   2.260
10730TIP3    H232068   8.319   6.736   2.380
10731TIP3   OH232069   9.312   5.715   2.924
10731TIP3    H132070   9.305   5.618   2.937
10731TIP3    H232071   9.233   5.745   2.973
10732TIP3   OH232072   9.430   7.215   2.244
10732TIP3    H132073   9.503   7.156   2.269
10732TIP3    H232074   9.473   7.303   2.243
10733TIP3   OH232075   9.237   6.469   2.175
10733TIP3    H132076   9.156   6.523   2.164
10733TIP3    H232077   9.280   6.481   2.090
10734TIP3   OH232078   9.202   6.261   1.897
10734TIP3    H132079   9.263   6.298   1.963
10734TIP3    H232080   9.259   6.193   1.856
10735TIP3   OH232081   8.826   6.556   2.572
10735TIP3    H132082   8.786   6.497   2.504
10735TIP3    H232083   8.903   6.503   2.601
10736TIP3   OH232084   8.954   6.966   2.721
10736TIP3    H132085   8.938   6.917   2.640
10736TIP3    H232086   9.046   6.937   2.743
10737TIP3   OH232087   8.960   6.528   2.925
10737TIP3    H132088   8.997   6.507   2.837
10737TIP3    H232089   9.005   6.612   2.947
10738TIP3   OH232090   9.448   7.166   2.690
10738TIP3    H132091   9.473   7.248   2.737
10738TIP3    H232092   9.467   7.097   2.756
10739TIP3   OH232093   9.096   7.080   3.257
10739TIP3    H132094   9.037   7.147   3.298
10739TIP3    H232095   9.032   7.029   3.203
10740TIP3   OH232096   9.448   6.421   1.988
10740TIP3    H132097   9.488   6.482   2.051
10740TIP3    H232098   9.472   6.461   1.903
10741TIP3   OH232099   8.853   6.639   3.353
10741TIP3    H132100   8.856   6.727   3.396
10741TIP3    H232101   8.757   6.623   3.354
10742TIP3   OH232102   9.170   7.095   2.254
10742TIP3    H132103   9.246   7.150   2.280
10742TIP3    H232104   9.107   7.161   2.221
10743TIP3   OH232105   8.892   7.255   3.335
10743TIP3    H132106   8.860   7.251   3.243
10743TIP3    H232107   8.812   7.230   3.387
10744TIP3   OH232108   8.692   6.397   2.374
10744TIP3    H132109   8.626   6.443   2.318
10744TIP3    H232110   8.649   6.313   2.391
10745TIP3   OH232111   8.475   6.784   3.284
10745TIP3    H132112   8.405   6.764   3.219
10745TIP3    H232113   8.507   6.694   3.308
10746TIP3   OH232114   8.326   6.974   2.915
10746TIP3    H132115   8.423   6.970   2.909
10746TIP3    H232116   8.313   7.052   2.971
10747TIP3   OH232117   9.288   7.214   3.102
10747TIP3    H132118   9.293   7.305   3.138
10747TIP3    H232119   9.224   7.172   3.163
10748TIP3   OH232120   9.052   7.348   2.056
10748TIP3    H132121   9.006   7.325   1.973
10748TIP3    H232122   9.018   7.436   2.077
10749TIP3   OH232123   8.495   7.193   2.442
10749TIP3    H132124   8.544   7.182   2.527
10749TIP3    H232125   8.440   7.112   2.445
10750TIP3   OH232126   9.265   7.242   1.714
10750TIP3    H132127   9.336   7.182   1.688
10750TIP3    H232128   9.290   7.261   1.807
10751TIP3   OH232129   9.303   7.287   1.980
10751TIP3    H132130   9.213   7.300   2.018
10751TIP3    H232131   9.348   7.245   2.056
10752TIP3   OH232132   8.677   6.967   3.276
10752TIP3    H132133   8.728   6.947   3.357
10752TIP3    H232134   8.605   6.901   3.280
10753TIP3   OH232135   9.076   5.787   3.056
10753TIP3    H132136   8.986   5.758   3.032
10753TIP3    H232137   9.054   5.873   3.098
10754TIP3   OH232138   9.602   5.905   3.256
10754TIP3    H132139   9.650   5.884   3.336
10754TIP3    H232140   9.510   5.885   3.284
10755TIP3   OH232141   9.229   5.840   2.028
10755TIP3    H132142   9.198   5.840   2.121
10755TIP3    H232143   9.187   5.757   1.997
10756TIP3   OH232144   9.007   6.304   3.073
10756TIP3    H132145   8.958   6.327   3.154
10756TIP3    H232146   8.992   6.385   3.019
10757TIP3   OH232147   8.892   6.188   2.589
10757TIP3    H132148   8.799   6.163   2.606
10757TIP3    H232149   8.906   6.148   2.501
10758TIP3   OH232150   9.375   6.269   2.308
10758TIP3    H132151   9.324   6.346   2.273
10758TIP3    H232152   9.439   6.252   2.237
10759TIP3   OH232153   9.560   6.557   3.404
10759TIP3    H132154   9.533   6.484   3.465
10759TIP3    H232155   9.654   6.566   3.425
10760TIP3   OH232156   9.518   6.303   2.571
10760TIP3    H132157   9.492   6.353   2.492
10760TIP3    H232158   9.558   6.225   2.528
10761TIP3   OH232159   8.827   6.335   3.284
10761TIP3    H132160   8.857   6.398   3.351
10761TIP3    H232161   8.817   6.253   3.337
10762TIP3   OH232162   8.878   5.810   1.993
10762TIP3    H132163   8.873   5.807   2.090
10762TIP3    H232164   8.798   5.861   1.971
10763TIP3   OH232165   8.420   5.855   2.865
10763TIP3    H132166   8.496   5.888   2.918
10763TIP3    H232167   8.461   5.824   2.783
10764TIP3   OH232168   8.396   5.837   2.383
10764TIP3    H132169   8.442   5.877   2.306
10764TIP3    H232170   8.335   5.910   2.406
10765TIP3   OH232171   9.526   6.562   2.980
10765TIP3    H132172   9.578   6.503   2.921
10765TIP3    H232173   9.514   6.503   3.057
10766TIP3   OH232174   9.216   6.006   2.651
10766TIP3    H132175   9.135   6.009   2.704
10766TIP3    H232176   9.283   6.028   2.717
10767TIP3   OH232177   8.653   6.067   2.660
10767TIP3    H132178   8.559   6.074   2.633
10767TIP3    H232179   8.678   5.976   2.635
10768TIP3   OH232180   8.923   6.062   2.348
10768TIP3    H132181   9.018   6.078   2.332
10768TIP3    H232182   8.880   6.089   2.263
10769TIP3   OH232183   9.624   6.108   2.850
10769TIP3    H132184   9.621   6.108   2.948
10769TIP3    H232185   9.575   6.026   2.826
10770TIP3   OH232186   8.761   6.098   2.126
10770TIP3    H132187   8.688   6.054   2.079
10770TIP3    H232188   8.813   6.132   2.050
10771TIP3   OH232189   8.834   6.887   3.497
10771TIP3    H132190   8.918   6.916   3.538
10771TIP3    H232191   8.775   6.890   3.573
10772TIP3   OH232192   9.297   6.321   2.741
10772TIP3    H132193   9.377   6.305   2.687
10772TIP3    H232194   9.327   6.296   2.830
10773TIP3   OH232195   8.826   5.829   2.623
10773TIP3    H132196   8.796   5.748   2.668
10773TIP3    H232197   8.886   5.795   2.555
10774TIP3   OH232198   9.280   6.229   3.051
10774TIP3    H132199   9.192   6.271   3.050
10774TIP3    H232200   9.337   6.297   3.092
10775TIP3   OH232201   9.015   6.627   2.134
10775TIP3    H132202   8.942   6.562   2.123
10775TIP3    H232203   8.997   6.661   2.225
10776TIP3   OH232204   9.469   5.961   1.971
10776TIP3    H132205   9.381   5.932   2.006
10776TIP3    H232206   9.488   6.042   2.023
10777TIP3   OH232207   9.405   6.939   3.137
10777TIP3    H132208   9.432   6.933   3.229
10777TIP3    H232209   9.390   7.034   3.125
10778TIP3   OH232210   9.565   6.191   2.083
10778TIP3    H132211   9.652   6.221   2.112
10778TIP3    H232212   9.532   6.269   2.034
10779TIP3   OH232213   8.706   6.647   2.809
10779TIP3    H132214   8.746   6.622   2.723
10779TIP3    H232215   8.751   6.586   2.870
10780TIP3   OH232216   9.156   6.774   1.953
10780TIP3    H132217   9.113   6.863   1.960
10780TIP3    H232218   9.101   6.721   2.014
10781TIP3   OH232219   8.585   6.572   3.424
10781TIP3    H132220   8.608   6.554   3.517
10781TIP3    H232221   8.517   6.505   3.406
10782TIP3   OH232222   9.312   6.680   3.444
10782TIP3    H132223   9.255   6.628   3.386
10782TIP3    H232224   9.401   6.652   3.413
10783TIP3   OH232225   9.573   7.186   3.043
10783TIP3    H132226   9.482   7.209   3.023
10783TIP3    H232227   9.599   7.259   3.101
10784TIP3   OH232228   8.807   6.951   2.430
10784TIP3    H132229   8.810   7.034   2.380
10784TIP3    H232230   8.712   6.939   2.443
10785TIP3   OH232231   8.371   6.258   2.135
10785TIP3    H132232   8.418   6.341   2.156
10785TIP3    H232233   8.294   6.264   2.196
10786TIP3   OH232234   8.949   6.720   2.377
10786TIP3    H132235   8.914   6.809   2.396
10786TIP3    H232236   8.916   6.670   2.454
10787TIP3   OH232237   9.078   7.297   2.903
10787TIP3    H132238   9.121   7.368   2.851
10787TIP3    H232239   9.155   7.261   2.951
10788TIP3   OH232240   8.728   7.193   2.286
10788TIP3    H132241   8.643   7.200   2.332
10788TIP3    H232242   8.760   7.286   2.291
10789TIP3   OH232243   9.464   6.934   2.862
10789TIP3    H132244   9.459   6.935   2.959
10789TIP3    H232245   9.543   6.880   2.846
10790TIP3   OH232246   8.802   6.077   3.433
10790TIP3    H132247   8.706   6.080   3.445
10790TIP3    H232248   8.829   6.015   3.502
10791TIP3   OH232249   8.517   7.163   3.062
10791TIP3    H132250   8.568   7.085   3.090
10791TIP3    H232251   8.550   7.229   3.124
10792TIP3   OH232252   8.808   6.804   1.743
10792TIP3    H132253   8.821   6.712   1.714
10792TIP3    H232254   8.790   6.792   1.838
10793TIP3   OH232255   8.754   6.809   2.015
10793TIP3    H132256   8.822   6.782   2.079
10793TIP3    H232257   8.758   6.907   2.022
10794TIP3   OH232258   8.490   6.504   2.218
10794TIP3    H132259   8.424   6.548   2.275
10794TIP3    H232260   8.505   6.574   2.152
10795TIP3   OH232261   9.656   6.143   3.132
10795TIP3    H132262   9.698   6.187   3.208
10795TIP3    H232263   9.624   6.060   3.173
10796TIP3   OH232264   9.482   5.917   2.276
10796TIP3    H132265   9.516   5.913   2.185
10796TIP3    H232266   9.547   5.976   2.319
10797TIP3   OH232267   9.018   7.008   1.964
10797TIP3    H132268   8.932   7.036   2.000
10797TIP3    H232269   9.034   7.079   1.899
10798TIP3   OH232270   9.200   6.070   2.379
10798TIP3    H132271   9.270   6.137   2.358
10798TIP3    H232272   9.209   6.063   2.476
10799TIP3   OH232273   9.474   6.387   3.189
10799TIP3    H132274   9.491   6.447   3.264
10799TIP3    H232275   9.538   6.316   3.204
10800TIP3   OH232276   9.351   5.802   2.487
10800TIP3    H132277   9.336   5.881   2.541
10800TIP3    H232278   9.406   5.840   2.414
10801TIP3   OH232279   8.760   7.082   2.031
10801TIP3    H132280   8.731   7.152   1.968
10801TIP3    H232281   8.744   7.126   2.117
10802TIP3   OH232282   8.864   5.795   2.269
10802TIP3    H132283   8.861   5.885   2.306
10802TIP3    H232284   8.959   5.776   2.279
10803TIP3   OH232285   8.479   6.716   2.025
10803TIP3    H132286   8.543   6.789   2.033
10803TIP3    H232287   8.525   6.662   1.958
10804TIP3   OH232288   8.426   5.988   2.155
10804TIP3    H132289   8.424   6.086   2.152
10804TIP3    H232290   8.338   5.966   2.121
10805TIP3   OH232291   8.811   5.709   3.034
10805TIP3    H132292   8.781   5.677   2.946
10805TIP3    H232293   8.801   5.629   3.089
10806TIP3   OH232294   8.357   6.934   2.418
10806TIP3    H132295   8.278   6.958   2.467
10806TIP3    H232296   8.334   6.968   2.328
10807TIP3   OH232297   8.505   7.467   3.488
10807TIP3    H132298   8.593   7.465   3.531
10807TIP3    H232299   8.486   7.372   3.480
10808TIP3   OH232300   8.988   7.434   3.531
10808TIP3    H132301   9.084   7.421   3.536
10808TIP3    H232302   8.967   7.378   3.453
10809TIP3   OH232303   8.970   7.009   1.660
10809TIP3    H132304   8.912   6.940   1.698
10809TIP3    H232305   9.042   6.955   1.626
10810TIP3   OH232306   9.617   7.350   3.273
10810TIP3    H132307   9.612   7.271   3.331
10810TIP3    H232308   9.711   7.370   3.269
10811TIP3   OH232309   8.631   6.867   3.694
10811TIP3    H132310   8.658   6.773   3.682
10811TIP3    H232311   8.551   6.871   3.637
10812TIP3   OH232312   8.615   6.527   1.875
10812TIP3    H132313   8.668   6.493   1.949
10812TIP3    H232314   8.683   6.532   1.805
10813TIP3   OH232315   9.245   6.957   3.459
10813TIP3    H132316   9.206   6.976   3.371
10813TIP3    H232317   9.276   6.864   3.449
10814TIP3   OH232318   9.120   6.724   1.682
10814TIP3    H132319   9.131   6.741   1.778
10814TIP3    H232320   9.114   6.626   1.683
10815TIP3   OH232321   8.756   6.607   3.665
10815TIP3    H132322   8.832   6.554   3.639
10815TIP3    H232323   8.785   6.640   3.753
10816TIP3   OH232324   8.824   6.428   2.100
10816TIP3    H132325   8.796   6.389   2.185
10816TIP3    H232326   8.857   6.350   2.051
10817TIP3   OH232327   9.091   6.492   3.325
10817TIP3    H132328   9.016   6.554   3.330
10817TIP3    H232329   9.140   6.525   3.246
10818TIP3   OH232330   8.922   6.220   1.939
10818TIP3    H132331   8.893   6.222   1.846
10818TIP3    H232332   9.018   6.232   1.930
10819TIP3   OH232333   9.603   6.895   3.471
10819TIP3    H132334   9.673   6.872   3.409
10819TIP3    H232335   9.604   6.821   3.535
10820TIP3   OH232336   9.215   6.281   3.455
10820TIP3    H132337   9.215   6.201   3.400
10820TIP3    H232338   9.173   6.347   3.396
10821TIP3   OH232339   9.217   6.064   3.264
10821TIP3    H132340   9.244   6.111   3.182
10821TIP3    H232341   9.123   6.043   3.244
10822TIP3   OH232342   9.251   6.603   3.133
10822TIP3    H132343   9.331   6.609   3.079
10822TIP3    H232344   9.195   6.672   3.091
10823TIP3   OH232345   9.836   6.575   3.514
10823TIP3    H132346   9.868   6.485   3.535
10823TIP3    H232347   9.919   6.621   3.498
10824TIP3   OH232348   9.086   6.398   3.680
10824TIP3    H132349   9.021   6.326   3.693
10824TIP3    H232350   9.126   6.372   3.595
10825TIP3   OH232351   9.349   5.832   3.322
10825TIP3    H132352   9.299   5.914   3.303
10825TIP3    H232353   9.279   5.764   3.312
10826TIP3   OH232354   9.479   6.338   3.541
10826TIP3    H132355   9.469   6.325   3.637
10826TIP3    H232356   9.387   6.313   3.513
10827TIP3   OH232357   9.710   6.260   3.390
10827TIP3    H132358   9.632   6.280   3.445
10827TIP3    H232359   9.778   6.245   3.458
10828TIP3   OH232360   9.922   6.211   3.570
10828TIP3    H132361   9.958   6.133   3.613
10828TIP3    H232362   9.921   6.275   3.645
10829TIP3   OH232363   8.931   6.176   3.736
10829TIP3    H132364   8.941   6.086   3.698
10829TIP3    H232365   8.967   6.162   3.826
10830TIP3   OH232366   9.444   5.844   3.580
10830TIP3    H132367   9.512   5.774   3.577
10830TIP3    H232368   9.403   5.834   3.492
10831TIP3   OH232369   9.511   6.059   3.739
10831TIP3    H132370   9.487   5.986   3.678
10831TIP3    H232371   9.433   6.118   3.733
10832TIP3   OH232372   8.730   7.285   1.845
10832TIP3    H132373   8.825   7.283   1.824
10832TIP3    H232374   8.697   7.330   1.766
10833TIP3   OH232375   8.211   6.667   2.061
10833TIP3    H132376   8.306   6.688   2.048
10833TIP3    H232377   8.205   6.578   2.019
10834TIP3   OH232378   8.123   7.284   2.468
10834TIP3    H132379   8.057   7.218   2.437
10834TIP3    H232380   8.169   7.230   2.537
10835TIP3   OH232381   8.257   7.142   2.659
10835TIP3    H132382   8.245   7.063   2.714
10835TIP3    H232383   8.309   7.197   2.720
10836TIP3   OH232384   8.449   6.536   3.032
10836TIP3    H132385   8.448   6.509   2.938
10836TIP3    H232386   8.546   6.541   3.048
10837TIP3   OH232387   8.663   6.226   3.705
10837TIP3    H132388   8.761   6.220   3.706
10837TIP3    H232389   8.640   6.142   3.749
10838TIP3   OH232390   8.627   5.917   3.040
10838TIP3    H132391   8.690   5.843   3.049
10838TIP3    H232392   8.688   5.993   3.033
10839TIP3   OH232393   8.432   6.191   3.113
10839TIP3    H132394   8.480   6.183   3.029
10839TIP3    H232395   8.458   6.280   3.140
10840TIP3   OH232396   8.412   5.695   2.612
10840TIP3    H132397   8.318   5.694   2.637
10840TIP3    H232398   8.412   5.753   2.533
10841TIP3   OH232399   8.633   5.774   3.428
10841TIP3    H132400   8.582   5.771   3.510
10841TIP3    H232401   8.567   5.813   3.366
10842TIP3   OH232402   8.673   7.200   3.503
10842TIP3    H132403   8.581   7.171   3.488
10842TIP3    H232404   8.683   7.188   3.598
10843TIP3   OH232405   8.851   7.233   3.051
10843TIP3    H132406   8.805   7.308   3.011
10843TIP3    H232407   8.938   7.246   3.008
10844TIP3   OH232408   9.290   7.475   3.198
10844TIP3    H132409   9.339   7.482   3.282
10844TIP3    H232410   9.353   7.521   3.137
10845TIP3   OH232411   9.454   7.621   3.037
10845TIP3    H132412   9.534   7.601   2.985
10845TIP3    H232413   9.495   7.674   3.109
10846TIP3   OH232414   8.527   7.493   3.072
10846TIP3    H132415   8.438   7.528   3.051
10846TIP3    H232416   8.536   7.522   3.163
10847TIP3   OH232417   8.763   7.467   2.931
10847TIP3    H132418   8.677   7.481   2.976
10847TIP3    H232419   8.744   7.501   2.841
10848TIP3   OH232420   9.188   7.497   2.725
10848TIP3    H132421   9.116   7.524   2.665
10848TIP3    H232422   9.205   7.581   2.774
10849TIP3   OH232423   9.457   7.430   2.775
10849TIP3    H132424   9.365   7.456   2.760
10849TIP3    H232425   9.506   7.504   2.736
10850TIP3   OH232426   8.443   7.288   2.819
10850TIP3    H132427   8.467   7.260   2.910
10850TIP3    H232428   8.514   7.241   2.769
10851TIP3   OH232429   8.633   7.155   2.674
10851TIP3    H132430   8.649   7.071   2.723
10851TIP3    H232431   8.724   7.192   2.672
10852TIP3   OH232432   8.898   7.251   2.680
10852TIP3    H132433   8.932   7.161   2.667
10852TIP3    H232434   8.944   7.273   2.764
10853TIP3   OH232435   9.479   5.879   2.764
10853TIP3    H132436   9.420   5.820   2.815
10853TIP3    H232437   9.504   5.822   2.690
10854TIP3   OH232438   8.724   5.617   2.785
10854TIP3    H132439   8.632   5.584   2.783
10854TIP3    H232440   8.774   5.533   2.781
10855TIP3   OH232441   8.508   5.485   2.430
10855TIP3    H132442   8.540   5.543   2.358
10855TIP3    H232443   8.479   5.549   2.497
10856TIP3   OH232444   9.160   5.652   2.663
10856TIP3    H132445   9.222   5.695   2.601
10856TIP3    H232446   9.189   5.688   2.748
10857TIP3   OH232447   8.228   7.050   2.212
10857TIP3    H132448   8.144   7.016   2.176
10857TIP3    H232449   8.218   7.144   2.189
10858TIP3   OH232450   8.626   5.647   2.194
10858TIP3    H132451   8.676   5.584   2.139
10858TIP3    H232452   8.698   5.701   2.232
10859TIP3   OH232453   9.141   5.819   2.292
10859TIP3    H132454   9.202   5.772   2.352
10859TIP3    H232455   9.162   5.912   2.318
10860TIP3   OH232456   8.999   7.249   1.792
10860TIP3    H132457   9.086   7.272   1.753
10860TIP3    H232458   8.975   7.174   1.732
10861TIP3   OH232459   8.931   5.895   3.673
10861TIP3    H132460   8.900   5.825   3.733
10861TIP3    H232461   9.026   5.898   3.698
10862TIP3   OH232462   9.179   5.893   3.793
10862TIP3    H132463   9.266   5.873   3.755
10862TIP3    H232464   9.171   5.821   3.859
10863TIP3   OH232465   8.306   7.083   1.852
10863TIP3    H132466   8.306   7.107   1.945
10863TIP3    H232467   8.394   7.041   1.840
10864TIP3   OH232468   0.371   7.454   4.599
10864TIP3    H132469   0.422   7.398   4.660
10864TIP3    H232470   0.394   7.543   4.629
10865TIP3   OH232471   0.878   6.703   4.981
10865TIP3    H132472   0.909   6.784   5.026
10865TIP3    H232473   0.897   6.725   4.888
10866TIP3   OH232474   0.357   6.879   5.010
10866TIP3    H132475   0.386   6.788   5.030
10866TIP3    H232476   0.327   6.866   4.919
10867TIP3   OH232477   0.307   6.631   4.612
10867TIP3    H132478   0.385   6.615   4.670
10867TIP3    H232479   0.352   6.664   4.532
10868TIP3   OH232480   0.956   6.907   5.148
10868TIP3    H132481   0.873   6.955   5.130
10868TIP3    H232482   0.969   6.927   5.242
10869TIP3   OH232483   0.527   6.632   4.774
10869TIP3    H132484   0.508   6.591   4.860
10869TIP3    H232485   0.582   6.708   4.799
10870TIP3   OH232486   0.681   6.600   5.151
10870TIP3    H132487   0.594   6.638   5.131
10870TIP3    H232488   0.736   6.631   5.076
10871TIP3   OH232489   0.241   7.530   4.348
10871TIP3    H132490   0.188   7.456   4.316
10871TIP3    H232491   0.288   7.492   4.424
10872TIP3   OH232492   0.622   7.620   5.138
10872TIP3    H132493   0.593   7.537   5.095
10872TIP3    H232494   0.598   7.686   5.070
10873TIP3   OH232495   0.823   7.237   4.970
10873TIP3    H132496   0.738   7.287   4.981
10873TIP3    H232497   0.847   7.266   4.880
10874TIP3   OH232498   0.262   7.098   4.348
10874TIP3    H132499   0.196   7.117   4.419
10874TIP3    H232500   0.336   7.060   4.399
10875TIP3   OH232501   0.504   7.147   5.248
10875TIP3    H132502   0.495   7.219   5.314
10875TIP3    H232503   0.415   7.145   5.211
10876TIP3   OH232504   0.160   6.910   4.171
10876TIP3    H132505   0.160   6.982   4.236
10876TIP3    H232506   0.124   6.955   4.093
10877TIP3   OH232507   0.605   6.188   4.231
10877TIP3    H132508   0.525   6.208   4.284
10877TIP3    H232509   0.618   6.273   4.183
10878TIP3   OH232510   0.405   7.557   3.778
10878TIP3    H132511   0.417   7.654   3.770
10878TIP3    H232512   0.497   7.526   3.766
10879TIP3   OH232513   0.854   7.950   5.163
10879TIP3    H132514   0.859   7.855   5.182
10879TIP3    H232515   0.762   7.971   5.189
10880TIP3   OH232516   0.739   7.089   5.447
10880TIP3    H132517   0.659   7.101   5.394
10880TIP3    H232518   0.754   6.994   5.439
10881TIP3   OH232519   0.281   6.430   5.455
10881TIP3    H132520   0.353   6.393   5.511
10881TIP3    H232521   0.202   6.401   5.502
10882TIP3   OH232522   0.535   6.876   5.350
10882TIP3    H132523   0.496   6.869   5.440
10882TIP3    H232524   0.478   6.947   5.313
10883TIP3   OH232525   0.153   7.025   3.909
10883TIP3    H132526   0.139   6.966   3.832
10883TIP3    H232527   0.248   7.044   3.902
10884TIP3   OH232528   0.210   6.841   4.766
10884TIP3    H132529   0.131   6.865   4.713
10884TIP3    H232530   0.235   6.757   4.721
10885TIP3   OH232531   0.379   6.606   5.029
10885TIP3    H132532   0.377   6.609   5.128
10885TIP3    H232533   0.306   6.544   5.012
10886TIP3   OH232534   0.599   7.382   4.968
10886TIP3    H132535   0.618   7.437   4.888
10886TIP3    H232536   0.501   7.386   4.970
10887TIP3   OH232537   0.092   6.473   4.191
10887TIP3    H132538   0.013   6.530   4.194
10887TIP3    H232539   0.159   6.543   4.208
10888TIP3   OH232540   0.234   6.678   4.283
10888TIP3    H132541   0.318   6.716   4.316
10888TIP3    H232542   0.192   6.759   4.246
10889TIP3   OH232543   0.646   6.806   4.136
10889TIP3    H132544   0.582   6.761   4.075
10889TIP3    H232545   0.640   6.895   4.096
10890TIP3   OH232546   0.870   7.668   5.222
10890TIP3    H132547   0.771   7.662   5.214
10890TIP3    H232548   0.894   7.636   5.132
10891TIP3   OH232549   0.339   7.631   4.045
10891TIP3    H132550   0.317   7.567   4.115
10891TIP3    H232551   0.358   7.576   3.968
10892TIP3   OH232552   0.337   7.259   4.865
10892TIP3    H132553   0.263   7.217   4.909
10892TIP3    H232554   0.383   7.181   4.826
10893TIP3   OH232555   0.435   7.836   3.768
10893TIP3    H132556   0.487   7.906   3.725
10893TIP3    H232557   0.346   7.874   3.757
10894TIP3   OH232558   0.252   7.294   4.152
10894TIP3    H132559   0.239   7.223   4.219
10894TIP3    H232560   0.350   7.290   4.145
10895TIP3   OH232561   0.377   6.637   5.294
10895TIP3    H132562   0.417   6.715   5.337
10895TIP3    H232563   0.361   6.575   5.368
10896TIP3   OH232564   0.186   6.414   4.464
10896TIP3    H132565   0.156   6.456   4.381
10896TIP3    H232566   0.208   6.493   4.518
10897TIP3   OH232567   0.792   6.816   5.367
10897TIP3    H132568   0.694   6.826   5.365
10897TIP3    H232569   0.804   6.774   5.281
10898TIP3   OH232570   0.428   7.020   4.753
10898TIP3    H132571   0.353   6.958   4.756
10898TIP3    H232572   0.498   6.972   4.803
10899TIP3   OH232573   0.457   7.906   4.703
10899TIP3    H132574   0.375   7.956   4.688
10899TIP3    H232575   0.525   7.968   4.668
10900TIP3   OH232576   0.404   7.091   3.802
10900TIP3    H132577   0.385   7.037   3.722
10900TIP3    H232578   0.378   7.179   3.768
10901TIP3   OH232579   0.501   7.098   5.716
10901TIP3    H132580   0.562   7.023   5.717
10901TIP3    H232581   0.560   7.173   5.703
10902TIP3   OH232582   0.531   7.350   5.436
10902TIP3    H132583   0.474   7.415   5.395
10902TIP3    H232584   0.619   7.372   5.398
10903TIP3   OH232585   0.418   6.838   5.583
10903TIP3    H132586   0.336   6.815   5.628
10903TIP3    H232587   0.485   6.809   5.649
10904TIP3   OH232588   0.589   6.751   5.769
10904TIP3    H132589   0.615   6.657   5.784
10904TIP3    H232590   0.594   6.792   5.857
10905TIP3   OH232591   0.654   8.085   4.655
10905TIP3    H132592   0.678   8.117   4.743
10905TIP3    H232593   0.724   8.124   4.600
10906TIP3   OH232594   0.679   8.089   4.936
10906TIP3    H132595   0.645   7.998   4.928
10906TIP3    H232596   0.751   8.075   4.998
10907TIP3   OH232597   0.715   7.767   5.509
10907TIP3    H132598   0.655   7.763   5.584
10907TIP3    H232599   0.760   7.853   5.521
10908TIP3   OH232600   0.537   7.276   4.136
10908TIP3    H132601   0.610   7.336   4.113
10908TIP3    H232602   0.573   7.233   4.217
10909TIP3   OH232603   0.663   7.142   4.340
10909TIP3    H132604   0.598   7.096   4.398
10909TIP3    H232605   0.727   7.178   4.405
10910TIP3   OH232606   0.701   7.529   4.759
10910TIP3    H132607   0.766   7.468   4.720
10910TIP3    H232608   0.715   7.610   4.707
10911TIP3   OH232609   0.526   7.814   4.960
10911TIP3    H132610   0.477   7.885   5.002
10911TIP3    H232611   0.505   7.830   4.864
10912TIP3   OH232612   0.603   7.049   3.989
10912TIP3    H132613   0.530   7.052   3.924
10912TIP3    H232614   0.576   7.123   4.047
10913TIP3   OH232615   0.481   6.720   3.937
10913TIP3    H132616   0.431   6.758   3.864
10913TIP3    H232617   0.451   6.626   3.933
10914TIP3   OH232618   0.486   6.992   4.487
10914TIP3    H132619   0.490   6.895   4.480
10914TIP3    H232620   0.473   7.006   4.584
10915TIP3   OH232621   0.771   7.423   5.342
10915TIP3    H132622   0.843   7.355   5.335
10915TIP3    H232623   0.800   7.490   5.279
10916TIP3   OH232624   0.954   7.228   5.365
10916TIP3    H132625   0.880   7.176   5.402
10916TIP3    H232626   1.028   7.165   5.380
10917TIP3   OH232627   0.418   6.455   3.933
10917TIP3    H132628   0.496   6.426   3.985
10917TIP3    H232629   0.348   6.394   3.960
10918TIP3   OH232630   0.488   6.718   4.396
10918TIP3    H132631   0.524   6.628   4.408
10918TIP3    H232632   0.538   6.746   4.318
10919TIP3   OH232633   0.638   6.887   4.874
10919TIP3    H132634   0.725   6.914   4.838
10919TIP3    H232635   0.647   6.922   4.965
10920TIP3   OH232636   0.710   7.026   5.108
10920TIP3    H132637   0.633   7.063   5.157
10920TIP3    H232638   0.744   7.105   5.063
10921TIP3   OH232639   1.154   6.618   5.672
10921TIP3    H132640   1.212   6.549   5.631
10921TIP3    H232641   1.133   6.674   5.595
10922TIP3   OH232642   0.586   6.461   4.420
10922TIP3    H132643   0.632   6.445   4.505
10922TIP3    H232644   0.523   6.386   4.418
10923TIP3   OH232645   1.036   6.763   5.475
10923TIP3    H132646   0.945   6.799   5.483
10923TIP3    H232647   1.018   6.688   5.416
10924TIP3   OH232648   0.666   6.399   4.052
10924TIP3    H132649   0.707   6.325   4.003
10924TIP3    H232650   0.733   6.469   4.045
10925TIP3   OH232651   0.927   6.522   5.352
10925TIP3    H132652   0.836   6.516   5.317
10925TIP3    H232653   0.958   6.429   5.338
10926TIP3   OH232654   0.176   6.412   4.991
10926TIP3    H132655   0.160   6.330   5.039
10926TIP3    H232656   0.249   6.384   4.931
10927TIP3   OH232657   0.658   6.318   4.873
10927TIP3    H132658   0.695   6.372   4.800
10927TIP3    H232659   0.563   6.340   4.867
10928TIP3   OH232660   0.751   6.421   4.637
10928TIP3    H132661   0.825   6.370   4.598
10928TIP3    H232662   0.784   6.513   4.624
10929TIP3   OH232663   0.381   6.319   4.841
10929TIP3    H132664   0.386   6.283   4.751
10929TIP3    H232665   0.367   6.237   4.894
10930TIP3   OH232666   0.402   6.249   4.409
10930TIP3    H132667   0.318   6.297   4.425
10930TIP3    H232668   0.385   6.165   4.457
10931TIP3   OH232669   0.376   7.900   4.072
10931TIP3    H132670   0.369   7.802   4.085
10931TIP3    H232671   0.335   7.907   3.985
10932TIP3   OH232672   0.664   6.488   5.786
10932TIP3    H132673   0.686   6.451   5.875
10932TIP3    H232674   0.750   6.482   5.740
10933TIP3   OH232675   0.601   8.031   5.215
10933TIP3    H132676   0.524   7.984   5.249
10933TIP3    H232677   0.602   8.106   5.276
10934TIP3   OH232678   1.867   7.411   4.043
10934TIP3    H132679   1.840   7.503   4.025
10934TIP3    H232680   1.789   7.363   4.012
10935TIP3   OH232681   1.869   7.410   4.419
10935TIP3    H132682   1.895   7.382   4.509
10935TIP3    H232683   1.823   7.331   4.386
10936TIP3   OH232684   1.166   7.311   4.789
10936TIP3    H132685   1.196   7.280   4.875
10936TIP3    H232686   1.241   7.367   4.763
10937TIP3   OH232687   2.109   7.712   4.104
10937TIP3    H132688   2.094   7.643   4.170
10937TIP3    H232689   2.135   7.788   4.158
10938TIP3   OH232690   1.130   7.714   4.509
10938TIP3    H132691   1.127   7.616   4.515
10938TIP3    H232692   1.226   7.729   4.512
10939TIP3   OH232693   0.844   6.923   4.301
10939TIP3    H132694   0.793   7.005   4.313
10939TIP3    H232695   0.774   6.864   4.268
10940TIP3   OH232696   0.903   7.208   4.470
10940TIP3    H132697   0.952   7.132   4.508
10940TIP3    H232698   0.961   7.234   4.398
10941TIP3   OH232699   1.755   8.177   4.117
10941TIP3    H132700   1.805   8.103   4.077
10941TIP3    H232701   1.743   8.146   4.208
10942TIP3   OH232702   1.665   7.633   4.471
10942TIP3    H132703   1.705   7.560   4.423
10942TIP3    H232704   1.746   7.681   4.496
10943TIP3   OH232705   2.676   6.959   4.468
10943TIP3    H132706   2.705   7.040   4.514
10943TIP3    H232707   2.698   6.980   4.376
10944TIP3   OH232708   2.074   7.139   4.507
10944TIP3    H132709   2.118   7.054   4.526
10944TIP3    H232710   2.046   7.125   4.415
10945TIP3   OH232711   1.412   6.799   4.475
10945TIP3    H132712   1.391   6.870   4.410
10945TIP3    H232713   1.365   6.724   4.432
10946TIP3   OH232714   2.107   6.888   4.094
10946TIP3    H132715   2.180   6.872   4.158
10946TIP3    H232716   2.158   6.925   4.019
10947TIP3   OH232717   1.049   7.001   4.576
10947TIP3    H132718   1.128   6.975   4.627
10947TIP3    H232719   1.059   6.944   4.498
10948TIP3   OH232720   1.490   7.198   4.365
10948TIP3    H132721   1.583   7.171   4.380
10948TIP3    H232722   1.450   7.114   4.334
10949TIP3   OH232723   2.750   7.165   4.638
10949TIP3    H132724   2.666   7.213   4.620
10949TIP3    H232725   2.761   7.184   4.732
10950TIP3   OH232726   1.763   7.634   3.912
10950TIP3    H132727   1.715   7.609   3.832
10950TIP3    H232728   1.719   7.719   3.934
10951TIP3   OH232729   1.510   7.562   4.708
10951TIP3    H132730   1.461   7.630   4.757
10951TIP3    H232731   1.553   7.616   4.639
10952TIP3   OH232732   2.321   6.889   4.262
10952TIP3    H132733   2.312   6.840   4.344
10952TIP3    H232734   2.375   6.966   4.290
10953TIP3   OH232735   1.286   6.911   4.692
10953TIP3    H132736   1.333   6.995   4.685
10953TIP3    H232737   1.334   6.858   4.624
10954TIP3   OH232738   0.745   7.440   4.034
10954TIP3    H132739   0.701   7.468   3.952
10954TIP3    H232740   0.774   7.526   4.072
10955TIP3   OH232741   2.183   7.955   4.273
10955TIP3    H132742   2.094   7.946   4.315
10955TIP3    H232743   2.173   8.041   4.228
10956TIP3   OH232744   2.470   6.860   4.635
10956TIP3    H132745   2.382   6.890   4.606
10956TIP3    H232746   2.528   6.891   4.562
10957TIP3   OH232747   1.769   6.500   4.615
10957TIP3    H132748   1.760   6.404   4.635
10957TIP3    H232749   1.692   6.535   4.666
10958TIP3   OH232750   1.887   8.002   3.951
10958TIP3    H132751   1.936   7.921   3.927
10958TIP3    H232752   1.944   8.069   3.907
10959TIP3   OH232753   2.027   7.787   3.850
10959TIP3    H132754   1.982   7.709   3.815
10959TIP3    H232755   2.061   7.753   3.936
10960TIP3   OH232756   2.408   7.871   4.616
10960TIP3    H132757   2.395   7.793   4.558
10960TIP3    H232758   2.389   7.945   4.554
10961TIP3   OH232759   1.697   7.262   3.872
10961TIP3    H132760   1.616   7.313   3.850
10961TIP3    H232761   1.743   7.261   3.787
10962TIP3   OH232762   1.656   7.047   3.591
10962TIP3    H132763   1.725   7.096   3.640
10962TIP3    H232764   1.712   6.983   3.544
10963TIP3   OH232765   2.602   7.506   4.460
10963TIP3    H132766   2.519   7.558   4.467
10963TIP3    H232767   2.630   7.529   4.369
10964TIP3   OH232768   2.044   7.345   3.846
10964TIP3    H132769   1.989   7.371   3.924
10964TIP3    H232770   2.128   7.319   3.891
10965TIP3   OH232771   2.281   7.387   4.755
10965TIP3    H132772   2.278   7.470   4.806
10965TIP3    H232773   2.194   7.391   4.709
10966TIP3   OH232774   1.277   7.344   4.261
10966TIP3    H132775   1.236   7.286   4.194
10966TIP3    H232776   1.354   7.291   4.290
10967TIP3   OH232777   1.403   7.753   4.407
10967TIP3    H132778   1.390   7.701   4.327
10967TIP3    H232779   1.495   7.730   4.432
10968TIP3   OH232780   1.415   7.313   4.618
10968TIP3    H132781   1.451   7.293   4.529
10968TIP3    H232782   1.457   7.398   4.640
10969TIP3   OH232783   1.943   7.952   4.394
10969TIP3    H132784   1.920   8.030   4.446
10969TIP3    H232785   1.924   7.878   4.456
10970TIP3   OH232786   1.888   7.202   3.671
10970TIP3    H132787   1.946   7.262   3.725
10970TIP3    H232788   1.913   7.228   3.580
10971TIP3   OH232789   1.303   7.425   5.034
10971TIP3    H132790   1.313   7.513   5.077
10971TIP3    H232791   1.209   7.408   5.055
10972TIP3   OH232792   1.629   7.884   3.942
10972TIP3    H132793   1.704   7.939   3.970
10972TIP3    H232794   1.565   7.948   3.911
10973TIP3   OH232795   2.401   6.445   3.719
10973TIP3    H132796   2.320   6.464   3.771
10973TIP3    H232797   2.413   6.529   3.670
10974TIP3   OH232798   1.144   7.185   4.066
10974TIP3    H132799   1.078   7.231   4.009
10974TIP3    H232800   1.101   7.101   4.081
10975TIP3   OH232801   2.199   7.813   3.266
10975TIP3    H132802   2.207   7.910   3.253
10975TIP3    H232803   2.292   7.784   3.254
10976TIP3   OH232804   0.917   7.559   4.979
10976TIP3    H132805   0.861   7.536   4.904
10976TIP3    H232806   0.958   7.473   5.004
10977TIP3   OH232807   0.783   7.760   4.614
10977TIP3    H132808   0.878   7.753   4.599
10977TIP3    H232809   0.778   7.843   4.665
10978TIP3   OH232810   2.643   8.213   4.660
10978TIP3    H132811   2.642   8.116   4.673
10978TIP3    H232812   2.560   8.237   4.706
10979TIP3   OH232813   1.761   7.999   4.807
10979TIP3    H132814   1.752   8.092   4.834
10979TIP3    H232815   1.673   7.966   4.839
10980TIP3   OH232816   1.508   8.131   3.747
10980TIP3    H132817   1.462   8.112   3.664
10980TIP3    H232818   1.476   8.220   3.771
10981TIP3   OH232819   0.947   7.980   4.131
10981TIP3    H132820   0.998   7.971   4.215
10981TIP3    H232821   0.887   7.904   4.140
10982TIP3   OH232822   1.711   8.030   3.389
10982TIP3    H132823   1.770   7.961   3.354
10982TIP3    H232824   1.745   8.039   3.481
10983TIP3   OH232825   1.760   8.078   3.660
10983TIP3    H132826   1.672   8.088   3.702
10983TIP3    H232827   1.811   8.036   3.732
10984TIP3   OH232828   2.535   7.347   4.935
10984TIP3    H132829   2.453   7.360   4.884
10984TIP3    H232830   2.550   7.251   4.926
10985TIP3   OH232831   1.103   7.768   4.961
10985TIP3    H132832   1.187   7.754   5.008
10985TIP3    H232833   1.055   7.684   4.975
10986TIP3   OH232834   1.528   6.575   4.741
10986TIP3    H132835   1.436   6.545   4.725
10986TIP3    H232836   1.514   6.669   4.757
10987TIP3   OH232837   2.061   6.694   4.941
10987TIP3    H132838   2.128   6.666   5.008
10987TIP3    H232839   1.976   6.674   4.986
10988TIP3   OH232840   2.304   7.122   4.858
10988TIP3    H132841   2.256   7.117   4.944
10988TIP3    H232842   2.278   7.209   4.825
10989TIP3   OH232843   1.961   7.252   3.414
10989TIP3    H132844   1.929   7.225   3.326
10989TIP3    H232845   2.041   7.303   3.391
10990TIP3   OH232846   1.676   6.627   3.716
10990TIP3    H132847   1.644   6.625   3.809
10990TIP3    H232848   1.637   6.543   3.684
10991TIP3   OH232849   1.345   6.977   4.279
10991TIP3    H132850   1.252   6.951   4.296
10991TIP3    H232851   1.358   6.936   4.190
10992TIP3   OH232852   1.836   7.065   4.006
10992TIP3    H132853   1.781   7.136   3.965
10992TIP3    H232854   1.889   7.036   3.929
10993TIP3   OH232855   2.011   7.345   5.092
10993TIP3    H132856   1.989   7.272   5.154
10993TIP3    H232857   2.105   7.359   5.113
10994TIP3   OH232858   1.992   7.094   4.246
10994TIP3    H132859   1.935   7.125   4.174
10994TIP3    H232860   2.025   7.011   4.205
10995TIP3   OH232861   1.330   6.598   3.683
10995TIP3    H132862   1.323   6.595   3.781
10995TIP3    H232863   1.250   6.649   3.661
10996TIP3   OH232864   0.875   6.646   4.554
10996TIP3    H132865   0.952   6.677   4.605
10996TIP3    H232866   0.914   6.609   4.473
10997TIP3   OH232867   0.850   6.625   4.073
10997TIP3    H132868   0.895   6.665   3.995
10997TIP3    H232869   0.788   6.697   4.095
10998TIP3   OH232870   2.003   7.340   4.671
10998TIP3    H132871   2.035   7.268   4.613
10998TIP3    H232872   1.975   7.288   4.749
10999TIP3   OH232873   1.670   6.803   4.340
10999TIP3    H132874   1.588   6.799   4.393
10999TIP3    H232875   1.738   6.797   4.409
11000TIP3   OH232876   1.107   6.856   4.348
11000TIP3    H132877   1.012   6.863   4.323
11000TIP3    H232878   1.129   6.763   4.327
11001TIP3   OH232879   1.378   6.853   4.036
11001TIP3    H132880   1.472   6.869   4.015
11001TIP3    H232881   1.331   6.877   3.953
11002TIP3   OH232882   2.163   6.877   4.542
11002TIP3    H132883   2.128   6.887   4.634
11002TIP3    H232884   2.100   6.813   4.505
11003TIP3   OH232885   1.215   6.886   3.817
11003TIP3    H132886   1.141   6.842   3.770
11003TIP3    H232887   1.266   6.920   3.741
11004TIP3   OH232888   2.332   8.565   4.760
11004TIP3    H132889   2.330   8.586   4.665
11004TIP3    H232890   2.410   8.614   4.790
11005TIP3   OH232891   1.290   7.664   5.179
11005TIP3    H132892   1.367   7.712   5.213
11005TIP3    H232893   1.227   7.675   5.253
11006TIP3   OH232894   1.758   7.127   4.436
11006TIP3    H132895   1.827   7.090   4.378
11006TIP3    H232896   1.777   7.084   4.521
11007TIP3   OH232897   1.282   6.617   4.316
11007TIP3    H132898   1.247   6.537   4.362
11007TIP3    H232899   1.334   6.578   4.245
11008TIP3   OH232900   1.720   7.029   4.744
11008TIP3    H132901   1.663   7.107   4.738
11008TIP3    H232902   1.797   7.064   4.791
11009TIP3   OH232903   1.469   7.416   3.822
11009TIP3    H132904   1.396   7.351   3.812
11009TIP3    H232905   1.452   7.450   3.914
11010TIP3   OH232906   2.370   7.652   4.454
11010TIP3    H132907   2.394   7.701   4.371
11010TIP3    H232908   2.284   7.611   4.430
11011TIP3   OH232909   1.927   6.731   3.679
11011TIP3    H132910   1.830   6.714   3.690
11011TIP3    H232911   1.937   6.824   3.706
11012TIP3   OH232912   1.871   7.738   4.820
11012TIP3    H132913   1.884   7.719   4.913
11012TIP3    H232914   1.824   7.824   4.824
11013TIP3   OH232915   1.997   6.974   3.786
11013TIP3    H132916   2.093   6.981   3.803
11013TIP3    H232917   1.979   7.055   3.733
11014TIP3   OH232918   1.161   7.434   4.501
11014TIP3    H132919   1.199   7.410   4.414
11014TIP3    H232920   1.202   7.368   4.559
11015TIP3   OH232921   1.613   7.565   3.641
11015TIP3    H132922   1.567   7.652   3.649
11015TIP3    H232923   1.559   7.510   3.702
11016TIP3   OH232924   1.045   7.353   5.111
11016TIP3    H132925   1.065   7.343   5.206
11016TIP3    H232926   0.975   7.287   5.098
11017TIP3   OH232927   1.767   7.467   5.131
11017TIP3    H132928   1.717   7.426   5.058
11017TIP3    H232929   1.858   7.440   5.108
11018TIP3   OH232930   2.030   7.995   4.715
11018TIP3    H132931   1.934   7.988   4.728
11018TIP3    H232932   2.055   8.046   4.795
11019TIP3   OH232933   2.440   7.063   3.624
11019TIP3    H132934   2.377   7.018   3.563
11019TIP3    H232935   2.437   7.152   3.582
11020TIP3   OH232936   2.658   7.923   4.705
11020TIP3    H132937   2.559   7.917   4.697
11020TIP3    H232938   2.683   7.892   4.615
11021TIP3   OH232939   2.138   7.884   3.531
11021TIP3    H132940   2.114   7.815   3.594
11021TIP3    H232941   2.150   7.836   3.448
11022TIP3   OH232942   2.136   7.513   4.373
11022TIP3    H132943   2.042   7.488   4.386
11022TIP3    H232944   2.169   7.434   4.327
11023TIP3   OH232945   1.259   7.736   4.114
11023TIP3    H132946   1.262   7.822   4.068
11023TIP3    H232947   1.166   7.729   4.137
11024TIP3   OH232948   0.824   7.046   3.826
11024TIP3    H132949   0.871   7.129   3.847
11024TIP3    H232950   0.747   7.052   3.887
11025TIP3   OH232951   1.405   7.507   4.069
11025TIP3    H132952   1.366   7.596   4.084
11025TIP3    H232953   1.367   7.458   4.144
11026TIP3   OH232954   1.535   8.077   4.558
11026TIP3    H132955   1.583   8.161   4.549
11026TIP3    H232956   1.557   8.047   4.647
11027TIP3   OH232957   1.181   7.981   3.975
11027TIP3    H132958   1.096   7.988   4.022
11027TIP3    H232959   1.213   8.073   3.980
11028TIP3   OH232960   1.921   7.718   4.551
11028TIP3    H132961   1.911   7.720   4.649
11028TIP3    H232962   2.002   7.666   4.541
11029TIP3   OH232963   1.891   7.610   3.433
11029TIP3    H132964   1.945   7.586   3.512
11029TIP3    H232965   1.803   7.586   3.465
11030TIP3   OH232966   2.169   8.255   4.603
11030TIP3    H132967   2.091   8.196   4.596
11030TIP3    H232968   2.151   8.318   4.530
11031TIP3   OH232969   2.233   8.088   3.254
11031TIP3    H132970   2.272   8.160   3.202
11031TIP3    H232971   2.153   8.134   3.287
11032TIP3   OH232972   1.263   6.899   5.110
11032TIP3    H132973   1.169   6.880   5.127
11032TIP3    H232974   1.307   6.821   5.149
11033TIP3   OH232975   2.052   7.545   3.649
11033TIP3    H132976   2.042   7.480   3.722
11033TIP3    H232977   2.149   7.544   3.638
11034TIP3   OH232978   0.976   7.946   4.757
11034TIP3    H132979   1.023   7.869   4.795
11034TIP3    H232980   1.016   8.016   4.810
11035TIP3   OH232981   1.260   7.593   3.432
11035TIP3    H132982   1.275   7.501   3.404
11035TIP3    H232983   1.242   7.581   3.528
11036TIP3   OH232984   1.206   7.597   3.705
11036TIP3    H132985   1.274   7.570   3.768
11036TIP3    H232986   1.210   7.695   3.713
11037TIP3   OH232987   0.942   7.292   3.908
11037TIP3    H132988   0.877   7.336   3.966
11037TIP3    H232989   0.958   7.362   3.842
11038TIP3   OH232990   2.086   6.930   4.801
11038TIP3    H132991   2.168   6.965   4.840
11038TIP3    H232992   2.071   6.848   4.854
11039TIP3   OH232993   1.970   6.681   3.962
11039TIP3    H132994   1.955   6.707   3.869
11039TIP3    H232995   2.008   6.763   4.000
11040TIP3   OH232996   1.470   7.795   3.653
11040TIP3    H132997   1.384   7.824   3.690
11040TIP3    H232998   1.488   7.869   3.593
11041TIP3   OH232999   1.661   6.858   4.067
11041TIP3    H133000   1.726   6.930   4.050
11041TIP3    H233001   1.664   6.851   4.165
11042TIP3   OH233002   1.929   7.176   4.878
11042TIP3    H133003   1.950   7.231   4.956
11042TIP3    H233004   1.989   7.100   4.891
11043TIP3   OH233005   1.806   6.589   4.171
11043TIP3    H133006   1.801   6.665   4.232
11043TIP3    H233007   1.865   6.626   4.102
11044TIP3   OH233008   1.212   7.871   3.721
11044TIP3    H133009   1.182   7.941   3.658
11044TIP3    H233010   1.197   7.914   3.807
11045TIP3   OH233011   1.315   6.583   3.959
11045TIP3    H133012   1.312   6.673   3.996
11045TIP3    H233013   1.411   6.565   3.969
11046TIP3   OH233014   2.570   7.079   4.853
11046TIP3    H133015   2.473   7.078   4.863
11046TIP3    H233016   2.578   7.034   4.768
11047TIP3   OH233017   2.220   7.272   4.244
11047TIP3    H133018   2.144   7.213   4.257
11047TIP3    H233019   2.292   7.226   4.292
11048TIP3   OH233020   0.930   7.505   3.714
11048TIP3    H133021   0.995   7.577   3.725
11048TIP3    H233022   0.978   7.451   3.648
11049TIP3   OH233023   0.879   6.777   3.844
11049TIP3    H133024   0.875   6.874   3.842
11049TIP3    H233025   0.792   6.752   3.812
11050TIP3   OH233026   2.188   8.228   4.196
11050TIP3    H133027   2.145   8.274   4.120
11050TIP3    H233028   2.282   8.246   4.174
11051TIP3   OH233029   1.265   6.497   4.724
11051TIP3    H133030   1.232   6.463   4.638
11051TIP3    H233031   1.255   6.419   4.782
11052TIP3   OH233032   0.805   7.714   4.106
11052TIP3    H133033   0.731   7.747   4.157
11052TIP3    H233034   0.787   7.754   4.018
11053TIP3   OH233035   0.955   8.246   5.181
11053TIP3    H133036   1.046   8.241   5.217
11053TIP3    H233037   0.940   8.151   5.168
11054TIP3   OH233038   1.443   8.219   5.212
11054TIP3    H133039   1.537   8.197   5.224
11054TIP3    H233040   1.422   8.163   5.135
11055TIP3   OH233041   1.423   7.798   3.347
11055TIP3    H133042   1.367   7.727   3.386
11055TIP3    H233043   1.498   7.744   3.316
11056TIP3   OH233044   2.081   8.130   4.951
11056TIP3    H133045   2.071   8.057   5.017
11056TIP3    H233046   2.160   8.177   4.984
11057TIP3   OH233047   1.860   7.839   3.257
11057TIP3    H133048   1.906   7.776   3.315
11057TIP3    H233049   1.917   7.840   3.177
11058TIP3   OH233050   1.092   7.666   5.380
11058TIP3    H133051   1.114   7.571   5.378
11058TIP3    H233052   1.007   7.667   5.330
11059TIP3   OH233053   1.067   7.316   3.565
11059TIP3    H133054   1.120   7.280   3.639
11059TIP3    H233055   1.135   7.320   3.495
11060TIP3   OH233056   1.692   7.746   5.144
11060TIP3    H133057   1.642   7.758   5.061
11060TIP3    H233058   1.726   7.654   5.138
11061TIP3   OH233059   1.574   7.511   3.372
11061TIP3    H133060   1.577   7.526   3.469
11061TIP3    H233061   1.573   7.413   3.369
11062TIP3   OH233062   2.192   7.752   4.752
11062TIP3    H133063   2.263   7.802   4.708
11062TIP3    H233064   2.117   7.814   4.743
11063TIP3   OH233065   1.205   7.396   5.356
11063TIP3    H133066   1.277   7.335   5.336
11063TIP3    H233067   1.231   7.428   5.445
11064TIP3   OH233068   1.277   7.216   3.790
11064TIP3    H133069   1.249   7.176   3.874
11064TIP3    H233070   1.311   7.140   3.740
11065TIP3   OH233071   1.515   7.235   5.001
11065TIP3    H133072   1.450   7.307   5.017
11065TIP3    H233073   1.575   7.282   4.939
11066TIP3   OH233074   1.375   7.009   3.630
11066TIP3    H133075   1.348   7.010   3.536
11066TIP3    H233076   1.472   7.017   3.622
11067TIP3   OH233077   2.059   7.681   5.153
11067TIP3    H133078   2.140   7.662   5.104
11067TIP3    H233079   2.061   7.614   5.223
11068TIP3   OH233080   2.200   7.343   3.290
11068TIP3    H133081   2.177   7.295   3.208
11068TIP3    H233082   2.168   7.433   3.266
11069TIP3   OH233083   1.692   7.390   4.831
11069TIP3    H133084   1.774   7.400   4.781
11069TIP3    H233085   1.635   7.458   4.789
11070TIP3   OH233086   2.280   7.360   5.205
11070TIP3    H133087   2.327   7.276   5.222
11070TIP3    H233088   2.352   7.416   5.172
11071TIP3   OH233089   2.322   7.611   4.942
11071TIP3    H133090   2.264   7.664   4.882
11071TIP3    H233091   2.409   7.631   4.900
11072TIP3   OH233092   1.540   7.188   5.376
11072TIP3    H133093   1.474   7.116   5.388
11072TIP3    H233094   1.563   7.182   5.283
11073TIP3   OH233095   1.792   6.622   4.998
11073TIP3    H133096   1.734   6.693   5.030
11073TIP3    H233097   1.730   6.547   4.998
11074TIP3   OH233098   1.933   7.129   5.238
11074TIP3    H133099   1.942   7.126   5.335
11074TIP3    H233100   1.853   7.076   5.228
11075TIP3   OH233101   2.171   7.074   5.088
11075TIP3    H133102   2.096   7.073   5.151
11075TIP3    H233103   2.244   7.041   5.144
11076TIP3   OH233104   2.400   7.013   5.239
11076TIP3    H133105   2.410   6.917   5.260
11076TIP3    H233106   2.393   7.053   5.328
11077TIP3   OH233107   1.394   6.956   5.414
11077TIP3    H133108   1.436   6.883   5.365
11077TIP3    H233109   1.424   6.938   5.506
11078TIP3   OH233110   1.925   6.646   5.254
11078TIP3    H133111   1.979   6.565   5.253
11078TIP3    H233112   1.847   6.619   5.203
11079TIP3   OH233113   1.964   6.850   5.430
11079TIP3    H133114   1.950   6.777   5.365
11079TIP3    H233115   1.880   6.898   5.425
11080TIP3   OH233116   1.182   8.073   3.532
11080TIP3    H133117   1.278   8.070   3.514
11080TIP3    H233118   1.152   8.121   3.453
11081TIP3   OH233119   0.662   7.455   3.749
11081TIP3    H133120   0.757   7.478   3.738
11081TIP3    H233121   0.660   7.365   3.709
11082TIP3   OH233122   0.584   8.063   4.158
11082TIP3    H133123   0.512   8.003   4.126
11082TIP3    H233124   0.624   8.009   4.229
11083TIP3   OH233125   0.713   7.922   4.352
11083TIP3    H133126   0.704   7.847   4.412
11083TIP3    H233127   0.765   7.983   4.408
11084TIP3   OH233128   2.440   8.320   4.149
11084TIP3    H133129   2.467   8.353   4.236
11084TIP3    H233130   2.501   8.366   4.089
11085TIP3   OH233131   2.472   8.341   4.432
11085TIP3    H133132   2.426   8.254   4.426
11085TIP3    H233133   2.545   8.315   4.490
11086TIP3   OH233134   2.517   8.017   5.004
11086TIP3    H133135   2.443   8.023   5.068
11086TIP3    H233136   2.557   8.106   5.010
11087TIP3   OH233137   2.333   7.530   3.625
11087TIP3    H133138   2.402   7.593   3.598
11087TIP3    H233139   2.374   7.489   3.705
11088TIP3   OH233140   2.460   7.397   3.828
11088TIP3    H133141   2.394   7.354   3.888
11088TIP3    H233142   2.524   7.436   3.891
11089TIP3   OH233143   2.514   7.788   4.262
11089TIP3    H133144   2.567   7.725   4.210
11089TIP3    H233145   2.502   7.862   4.200
11090TIP3   OH233146   2.347   8.090   4.456
11090TIP3    H133147   2.275   8.130   4.509
11090TIP3    H233148   2.296   8.040   4.388
11091TIP3   OH233149   2.398   7.304   3.476
11091TIP3    H133150   2.327   7.308   3.409
11091TIP3    H233151   2.372   7.380   3.532
11092TIP3   OH233152   2.270   6.977   3.431
11092TIP3    H133153   2.228   7.018   3.355
11092TIP3    H233154   2.243   6.883   3.419
11093TIP3   OH233155   2.275   7.252   3.975
11093TIP3    H133156   2.283   7.155   3.972
11093TIP3    H233157   2.262   7.268   4.071
11094TIP3   OH233158   0.901   7.334   4.720
11094TIP3    H133159   0.898   7.301   4.628
11094TIP3    H233160   0.998   7.332   4.736
11095TIP3   OH233161   2.564   7.677   4.832
11095TIP3    H133162   2.636   7.612   4.823
11095TIP3    H233163   2.591   7.747   4.770
11096TIP3   OH233164   2.751   7.486   4.852
11096TIP3    H133165   2.676   7.435   4.890
11096TIP3    H233166   2.823   7.420   4.865
11097TIP3   OH233167   2.214   6.711   3.417
11097TIP3    H133168   2.289   6.682   3.472
11097TIP3    H233169   2.141   6.653   3.445
11098TIP3   OH233170   2.270   6.968   3.872
11098TIP3    H133171   2.311   6.879   3.887
11098TIP3    H233172   2.329   7.002   3.802
11099TIP3   OH233173   2.433   7.144   4.365
11099TIP3    H133174   2.519   7.171   4.326
11099TIP3    H233175   2.446   7.181   4.455
11100TIP3   OH233176   2.500   7.287   4.598
11100TIP3    H133177   2.422   7.321   4.647
11100TIP3    H233178   2.532   7.368   4.554
11101TIP3   OH233179   1.124   7.017   5.403
11101TIP3    H133180   1.220   7.003   5.396
11101TIP3    H233181   1.097   6.931   5.441
11102TIP3   OH233182   2.954   6.879   5.154
11102TIP3    H133183   3.010   6.811   5.111
11102TIP3    H233184   2.927   6.934   5.078
11103TIP3   OH233185   2.380   6.718   3.908
11103TIP3    H133186   2.428   6.702   3.992
11103TIP3    H233187   2.319   6.641   3.907
11104TIP3   OH233188   1.085   6.710   4.723
11104TIP3    H133189   1.144   6.632   4.736
11104TIP3    H233190   1.149   6.782   4.736
11105TIP3   OH233191   0.884   6.978   4.801
11105TIP3    H133192   0.933   6.972   4.717
11105TIP3    H233193   0.912   7.065   4.834
11106TIP3   OH233194   2.826   7.020   4.960
11106TIP3    H133195   2.739   7.057   4.984
11106TIP3    H233196   2.797   6.947   4.902
11107TIP3   OH233197   2.462   6.655   3.540
11107TIP3    H133198   2.503   6.583   3.489
11107TIP3    H233199   2.529   6.726   3.533
11108TIP3   OH233200   0.865   6.484   4.303
11108TIP3    H133201   0.771   6.482   4.328
11108TIP3    H233202   0.863   6.542   4.223
11109TIP3   OH233203   2.024   8.185   3.807
11109TIP3    H133204   2.076   8.169   3.725
11109TIP3    H233205   2.078   8.252   3.852
11110TIP3   OH233206   1.087   6.571   5.121
11110TIP3    H133207   1.036   6.557   5.202
11110TIP3    H233208   1.017   6.603   5.060
11111TIP3   OH233209   1.117   8.008   5.230
11111TIP3    H133210   1.052   7.961   5.175
11111TIP3    H233211   1.119   7.954   5.309
11112TIP3   OH233212   1.751   8.272   4.880
11112TIP3    H133213   1.794   8.268   4.967
11112TIP3    H233214   1.819   8.318   4.827
11113TIP3   OH233215   1.930   8.419   4.734
11113TIP3    H133216   2.000   8.364   4.695
11113TIP3    H233217   1.982   8.475   4.796
11114TIP3   OH233218   2.723   6.781   4.836
11114TIP3    H133219   2.630   6.774   4.807
11114TIP3    H233220   2.752   6.688   4.825
11115TIP3   OH233221   0.982   8.276   4.756
11115TIP3    H133222   0.894   8.316   4.738
11115TIP3    H233223   0.991   8.293   4.850
11116TIP3   OH233224   1.225   8.284   4.618
11116TIP3    H133225   1.141   8.270   4.667
11116TIP3    H233226   1.194   8.298   4.527
11117TIP3   OH233227   1.655   8.302   4.406
11117TIP3    H133228   1.574   8.313   4.352
11117TIP3    H233229   1.658   8.386   4.455
11118TIP3   OH233230   1.912   8.229   4.470
11118TIP3    H133231   1.817   8.241   4.451
11118TIP3    H233232   1.949   8.307   4.427
11119TIP3   OH233233   2.127   8.423   4.388
11119TIP3    H133234   2.107   8.505   4.338
11119TIP3    H233235   2.146   8.360   4.315
11120TIP3   OH233236   0.897   8.072   4.510
11120TIP3    H133237   0.925   8.049   4.601
11120TIP3    H233238   0.969   8.028   4.459
11121TIP3   OH233239   1.086   7.943   4.361
11121TIP3    H133240   1.101   7.859   4.411
11121TIP3    H233241   1.177   7.982   4.363
11122TIP3   OH233242   1.347   8.039   4.367
11122TIP3    H133243   1.380   7.948   4.357
11122TIP3    H233244   1.398   8.063   4.448
11123TIP3   OH233245   1.923   6.694   4.453
11123TIP3    H133246   1.882   6.627   4.510
11123TIP3    H233247   1.996   6.645   4.412
11124TIP3   OH233248   2.453   6.574   4.360
11124TIP3    H133249   2.488   6.628   4.286
11124TIP3    H233250   2.357   6.593   4.356
11125TIP3   OH233251   2.547   6.677   4.124
11125TIP3    H133252   2.621   6.627   4.084
11125TIP3    H233253   2.580   6.769   4.110
11126TIP3   OH233254   1.177   6.405   4.473
11126TIP3    H133255   1.085   6.371   4.474
11126TIP3    H233256   1.227   6.320   4.471
11127TIP3   OH233257   0.960   6.273   4.119
11127TIP3    H133258   0.991   6.333   4.048
11127TIP3    H233259   0.931   6.337   4.187
11128TIP3   OH233260   1.617   6.440   4.352
11128TIP3    H133261   1.680   6.490   4.298
11128TIP3    H233262   1.640   6.470   4.442
11129TIP3   OH233263   2.171   6.583   4.338
11129TIP3    H133264   2.162   6.547   4.250
11129TIP3    H233265   2.155   6.503   4.394
11130TIP3   OH233266   2.197   6.504   3.899
11130TIP3    H133267   2.110   6.547   3.910
11130TIP3    H233268   2.181   6.420   3.947
11131TIP3   OH233269   0.682   7.841   3.901
11131TIP3    H133270   0.596   7.811   3.868
11131TIP3    H233271   0.670   7.937   3.892
11132TIP3   OH233272   1.078   6.435   3.883
11132TIP3    H133273   1.128   6.372   3.828
11132TIP3    H233274   1.150   6.489   3.922
11133TIP3   OH233275   1.593   6.607   3.982
11133TIP3    H133276   1.651   6.561   4.045
11133TIP3    H233277   1.614   6.700   4.008
11134TIP3   OH233278   1.451   8.036   3.481
11134TIP3    H133279   1.540   8.057   3.446
11134TIP3    H233280   1.429   7.959   3.423
11135TIP3   OH233281   2.171   8.151   3.574
11135TIP3    H133282   2.162   8.054   3.561
11135TIP3    H233283   2.126   8.184   3.494
11136TIP3   OH233284   0.756   7.871   3.542
11136TIP3    H133285   0.758   7.897   3.635
11136TIP3    H233286   0.844   7.830   3.529
11137TIP3   OH233287   2.457   6.742   5.274
11137TIP3    H133288   2.477   6.712   5.365
11137TIP3    H233289   2.545   6.736   5.231
11138TIP3   OH233290   2.398   8.296   4.763
11138TIP3    H133291   2.319   8.262   4.717
11138TIP3    H233292   2.376   8.392   4.766
11139TIP3   OH233293   3.663   7.668   3.531
11139TIP3    H133294   3.635   7.760   3.510
11139TIP3    H233295   3.587   7.619   3.498
11140TIP3   OH233296   3.661   7.668   3.910
11140TIP3    H133297   3.691   7.636   3.996
11140TIP3    H233298   3.620   7.589   3.871
11141TIP3   OH233299   2.962   7.564   4.275
11141TIP3    H133300   2.994   7.497   4.339
11141TIP3    H233301   3.040   7.621   4.268
11142TIP3   OH233302   3.904   7.969   3.591
11142TIP3    H133303   3.891   7.898   3.655
11142TIP3    H233304   3.932   8.043   3.647
11143TIP3   OH233305   2.932   7.973   4.003
11143TIP3    H133306   2.923   7.875   4.005
11143TIP3    H233307   3.029   7.980   3.997
11144TIP3   OH233308   2.639   7.178   3.788
11144TIP3    H133309   2.590   7.262   3.801
11144TIP3    H233310   2.569   7.122   3.752
11145TIP3   OH233311   2.700   7.464   3.955
11145TIP3    H133312   2.748   7.388   3.994
11145TIP3    H233313   2.758   7.489   3.882
11146TIP3   OH233314   3.553   8.433   3.607
11146TIP3    H133315   3.601   8.362   3.559
11146TIP3    H233316   3.546   8.395   3.696
11147TIP3   OH233317   3.461   7.893   3.958
11147TIP3    H133318   3.497   7.816   3.911
11147TIP3    H233319   3.546   7.937   3.981
11148TIP3   OH233320   4.475   7.214   3.956
11148TIP3    H133321   4.502   7.298   3.998
11148TIP3    H233322   4.494   7.233   3.862
11149TIP3   OH233323   3.873   7.397   3.993
11149TIP3    H133324   3.916   7.311   4.012
11149TIP3    H233325   3.843   7.382   3.901
11150TIP3   OH233326   3.208   7.055   3.958
11150TIP3    H133327   3.189   7.127   3.895
11150TIP3    H233328   3.161   6.981   3.913
11151TIP3   OH233329   3.903   7.146   3.580
11151TIP3    H133330   3.975   7.129   3.645
11151TIP3    H233331   3.955   7.180   3.505
11152TIP3   OH233332   2.844   7.258   4.063
11152TIP3    H133333   2.927   7.237   4.111
11152TIP3    H233334   2.856   7.201   3.984
11153TIP3   OH233335   3.286   7.455   3.855
11153TIP3    H133336   3.379   7.429   3.869
11153TIP3    H233337   3.246   7.371   3.823
11154TIP3   OH233338   4.549   7.424   4.124
11154TIP3    H133339   4.465   7.470   4.105
11154TIP3    H233340   4.556   7.440   4.220
11155TIP3   OH233341   3.208   7.038   4.391
11155TIP3    H133342   3.147   7.075   4.324
11155TIP3    H233343   3.156   7.055   4.472
11156TIP3   OH233344   3.557   7.890   3.400
11156TIP3    H133345   3.513   7.865   3.318
11156TIP3    H233346   3.513   7.974   3.421
11157TIP3   OH233347   3.314   7.813   4.188
11157TIP3    H133348   3.250   7.877   4.226
11157TIP3    H233349   3.355   7.866   4.117
11158TIP3   OH233350   4.115   7.148   3.749
11158TIP3    H133351   4.114   7.090   3.826
11158TIP3    H233352   4.171   7.221   3.778
11159TIP3   OH233353   3.077   7.153   4.176
11159TIP3    H133354   3.140   7.226   4.198
11159TIP3    H233355   3.126   7.112   4.101
11160TIP3   OH233356   3.140   8.005   4.284
11160TIP3    H133357   3.114   8.090   4.244
11160TIP3    H233358   3.062   7.990   4.342
11161TIP3   OH233359   2.539   7.696   3.520
11161TIP3    H133360   2.496   7.722   3.437
11161TIP3    H233361   2.567   7.782   3.557
11162TIP3   OH233362   3.977   8.212   3.762
11162TIP3    H133363   3.887   8.203   3.800
11162TIP3    H233364   3.969   8.297   3.715
11163TIP3   OH233365   4.266   7.119   4.125
11163TIP3    H133366   4.177   7.143   4.093
11163TIP3    H233367   4.323   7.144   4.049
11164TIP3   OH233368   3.566   6.759   4.103
11164TIP3    H133369   3.554   6.664   4.120
11164TIP3    H233370   3.488   6.795   4.150
11165TIP3   OH233371   3.681   8.260   3.437
11165TIP3    H133372   3.730   8.178   3.414
11165TIP3    H233373   3.740   8.326   3.393
11166TIP3   OH233374   3.821   8.045   3.338
11166TIP3    H133375   3.783   7.966   3.298
11166TIP3    H233376   3.856   8.010   3.423
11167TIP3   OH233377   4.202   8.128   4.103
11167TIP3    H133378   4.192   8.049   4.045
11167TIP3    H233379   4.187   8.201   4.040
11168TIP3   OH233380   3.494   7.520   3.359
11168TIP3    H133381   3.413   7.570   3.336
11168TIP3    H233382   3.540   7.516   3.274
11169TIP3   OH233383   3.452   7.303   3.079
11169TIP3    H133384   3.522   7.352   3.127
11169TIP3    H233385   3.508   7.238   3.031
11170TIP3   OH233386   4.398   7.762   3.948
11170TIP3    H133387   4.315   7.815   3.953
11170TIP3    H233388   4.426   7.785   3.857
11171TIP3   OH233389   3.840   7.602   3.333
11171TIP3    H133390   3.786   7.627   3.411
11171TIP3    H233391   3.924   7.575   3.377
11172TIP3   OH233392   4.077   7.643   4.241
11172TIP3    H133393   4.073   7.727   4.291
11172TIP3    H233394   3.990   7.645   4.196
11173TIP3   OH233395   3.074   7.601   3.748
11173TIP3    H133396   3.031   7.543   3.681
11173TIP3    H233397   3.150   7.547   3.776
11174TIP3   OH233398   3.203   8.012   3.897
11174TIP3    H133399   3.181   7.966   3.815
11174TIP3    H233400   3.294   7.979   3.915
11175TIP3   OH233401   3.212   7.571   4.103
11175TIP3    H133402   3.244   7.551   4.013
11175TIP3    H233403   3.254   7.657   4.123
11176TIP3   OH233404   3.735   8.210   3.880
11176TIP3    H133405   3.721   8.288   3.936
11176TIP3    H233406   3.722   8.135   3.942
11177TIP3   OH233407   3.346   8.129   4.426
11177TIP3    H133408   3.287   8.191   4.473
11177TIP3    H233409   3.280   8.075   4.378
11178TIP3   OH233410   3.683   7.460   3.158
11178TIP3    H133411   3.742   7.518   3.211
11178TIP3    H233412   3.709   7.485   3.066
11179TIP3   OH233413   3.100   7.687   4.525
11179TIP3    H133414   3.104   7.772   4.573
11179TIP3    H233415   3.005   7.666   4.534
11180TIP3   OH233416   3.424   8.141   3.433
11180TIP3    H133417   3.501   8.197   3.455
11180TIP3    H233418   3.362   8.204   3.395
11181TIP3   OH233419   3.141   8.300   4.514
11181TIP3    H133420   3.107   8.294   4.422
11181TIP3    H233421   3.062   8.276   4.567
11182TIP3   OH233422   4.200   6.704   3.196
11182TIP3    H133423   4.130   6.708   3.263
11182TIP3    H233424   4.200   6.794   3.159
11183TIP3   OH233425   2.939   7.443   3.555
11183TIP3    H133426   2.874   7.488   3.496
11183TIP3    H233427   2.898   7.357   3.567
11184TIP3   OH233428   3.995   8.069   2.754
11184TIP3    H133429   4.004   8.166   2.740
11184TIP3    H233430   4.088   8.040   2.741
11185TIP3   OH233431   2.722   7.827   4.460
11185TIP3    H133432   2.656   7.804   4.391
11185TIP3    H233433   2.758   7.739   4.486
11186TIP3   OH233434   2.574   8.019   4.093
11186TIP3    H133435   2.670   8.014   4.085
11186TIP3    H233436   2.564   8.099   4.147
11187TIP3   OH233437   4.438   8.469   4.146
11187TIP3    H133438   4.438   8.373   4.160
11187TIP3    H233439   4.355   8.493   4.193
11188TIP3   OH233440   3.546   8.258   4.284
11188TIP3    H133441   3.545   8.350   4.316
11188TIP3    H233442   3.474   8.218   4.337
11189TIP3   OH233443   3.305   8.387   3.235
11189TIP3    H133444   3.259   8.367   3.151
11189TIP3    H233445   3.272   8.476   3.256
11190TIP3   OH233446   2.743   8.236   3.618
11190TIP3    H133447   2.791   8.226   3.703
11190TIP3    H233448   2.683   8.160   3.622
11191TIP3   OH233449   3.508   8.287   2.876
11191TIP3    H133450   3.567   8.217   2.840
11191TIP3    H233451   3.542   8.295   2.968
11192TIP3   OH233452   3.557   8.335   3.147
11192TIP3    H133453   3.468   8.345   3.189
11192TIP3    H233454   3.606   8.291   3.218
11193TIP3   OH233455   4.330   7.603   4.422
11193TIP3    H133456   4.249   7.616   4.370
11193TIP3    H233457   4.345   7.507   4.412
11194TIP3   OH233458   2.926   8.011   4.452
11194TIP3    H133459   2.976   7.991   4.534
11194TIP3    H233460   2.853   7.946   4.458
11195TIP3   OH233461   3.325   6.834   4.232
11195TIP3    H133462   3.236   6.803   4.207
11195TIP3    H233463   3.301   6.917   4.277
11196TIP3   OH233464   3.858   6.950   4.427
11196TIP3    H133465   3.926   6.922   4.492
11196TIP3    H233466   3.774   6.928   4.472
11197TIP3   OH233467   4.102   7.379   4.348
11197TIP3    H133468   4.052   7.374   4.432
11197TIP3    H233469   4.074   7.465   4.311
11198TIP3   OH233470   3.758   7.511   2.902
11198TIP3    H133471   3.725   7.482   2.815
11198TIP3    H233472   3.839   7.559   2.877
11199TIP3   OH233473   3.471   6.885   3.203
11199TIP3    H133474   3.440   6.882   3.296
11199TIP3    H233475   3.435   6.800   3.172
11200TIP3   OH233476   3.257   7.348   4.252
11200TIP3    H133477   3.206   7.369   4.333
11200TIP3    H233478   3.241   7.429   4.198
11201TIP3   OH233479   3.141   7.235   3.766
11201TIP3    H133480   3.048   7.208   3.782
11201TIP3    H233481   3.155   7.194   3.677
11202TIP3   OH233482   3.632   7.322   3.493
11202TIP3    H133483   3.578   7.392   3.451
11202TIP3    H233484   3.686   7.291   3.417
11203TIP3   OH233485   3.806   7.602   4.582
11203TIP3    H133486   3.783   7.528   4.642
11203TIP3    H233487   3.900   7.613   4.602
11204TIP3   OH233488   3.790   7.351   3.732
11204TIP3    H133489   3.730   7.380   3.660
11204TIP3    H233490   3.823   7.268   3.692
11205TIP3   OH233491   3.076   7.378   4.461
11205TIP3    H133492   3.101   7.440   4.531
11205TIP3    H233493   3.063   7.295   4.511
11206TIP3   OH233494   3.125   6.854   3.170
11206TIP3    H133495   3.119   6.852   3.267
11206TIP3    H233496   3.046   6.906   3.148
11207TIP3   OH233497   2.669   6.902   4.039
11207TIP3    H133498   2.745   6.933   4.094
11207TIP3    H233499   2.711   6.868   3.959
11208TIP3   OH233500   2.645   6.881   3.560
11208TIP3    H133501   2.690   6.921   3.483
11208TIP3    H233502   2.584   6.954   3.583
11209TIP3   OH233503   3.801   7.598   4.157
11209TIP3    H133504   3.833   7.525   4.098
11209TIP3    H233505   3.772   7.546   4.234
11210TIP3   OH233506   3.466   7.061   3.828
11210TIP3    H133507   3.384   7.056   3.881
11210TIP3    H233508   3.535   7.056   3.897
11211TIP3   OH233509   2.903   7.112   3.836
11211TIP3    H133510   2.808   7.119   3.809
11211TIP3    H233511   2.927   7.021   3.812
11212TIP3   OH233512   3.173   7.110   3.523
11212TIP3    H133513   3.268   7.124   3.504
11212TIP3    H233514   3.128   7.134   3.439
11213TIP3   OH233515   3.960   7.134   4.030
11213TIP3    H133516   3.922   7.144   4.120
11213TIP3    H233517   3.899   7.070   3.990
11214TIP3   OH233518   3.010   7.143   3.302
11214TIP3    H133519   2.938   7.099   3.254
11214TIP3    H233520   3.063   7.178   3.228
11215TIP3   OH233521   4.127   8.823   4.246
11215TIP3    H133522   4.127   8.842   4.151
11215TIP3    H233523   4.208   8.869   4.276
11216TIP3   OH233524   3.087   7.933   4.670
11216TIP3    H133525   3.166   7.962   4.718
11216TIP3    H233526   3.022   7.929   4.743
11217TIP3   OH233527   3.552   7.385   3.925
11217TIP3    H133528   3.622   7.343   3.873
11217TIP3    H233529   3.563   7.343   4.012
11218TIP3   OH233530   3.075   6.874   3.800
11218TIP3    H133531   3.044   6.793   3.846
11218TIP3    H233532   3.132   6.838   3.730
11219TIP3   OH233533   3.528   7.279   4.215
11219TIP3    H133534   3.439   7.316   4.229
11219TIP3    H233535   3.586   7.340   4.266
11220TIP3   OH233536   3.264   7.674   3.309
11220TIP3    H133537   3.192   7.608   3.298
11220TIP3    H233538   3.248   7.706   3.401
11221TIP3   OH233539   4.166   7.909   3.940
11221TIP3    H133540   4.190   7.957   3.858
11221TIP3    H233541   4.081   7.867   3.916
11222TIP3   OH233542   3.723   6.988   3.166
11222TIP3    H133543   3.626   6.971   3.177
11222TIP3    H233544   3.733   7.081   3.194
11223TIP3   OH233545   3.669   7.993   4.306
11223TIP3    H133546   3.683   7.965   4.397
11223TIP3    H233547   3.625   8.079   4.315
11224TIP3   OH233548   3.793   7.232   3.274
11224TIP3    H133549   3.890   7.237   3.290
11224TIP3    H233550   3.776   7.311   3.219
11225TIP3   OH233551   2.957   7.695   3.987
11225TIP3    H133552   2.995   7.666   3.901
11225TIP3    H233553   2.994   7.629   4.048
11226TIP3   OH233554   3.410   7.823   3.129
11226TIP3    H133555   3.363   7.909   3.137
11226TIP3    H233556   3.356   7.767   3.189
11227TIP3   OH233557   2.836   7.615   4.598
11227TIP3    H133558   2.857   7.601   4.693
11227TIP3    H233559   2.767   7.548   4.583
11228TIP3   OH233560   3.561   7.729   4.618
11228TIP3    H133561   3.502   7.669   4.568
11228TIP3    H233562   3.649   7.695   4.591
11229TIP3   OH233563   3.826   8.255   4.199
11229TIP3    H133564   3.730   8.248   4.212
11229TIP3    H233565   3.852   8.304   4.280
11230TIP3   OH233566   4.237   7.320   3.110
11230TIP3    H133567   4.174   7.274   3.050
11230TIP3    H233568   4.233   7.408   3.068
11231TIP3   OH233569   4.453   8.179   4.192
11231TIP3    H133570   4.355   8.174   4.184
11231TIP3    H233571   4.479   8.149   4.102
11232TIP3   OH233572   3.935   8.141   3.019
11232TIP3    H133573   3.910   8.070   3.080
11232TIP3    H233574   3.947   8.094   2.934
11233TIP3   OH233575   3.931   7.770   3.860
11233TIP3    H133576   3.838   7.744   3.872
11233TIP3    H233577   3.966   7.691   3.815
11234TIP3   OH233578   3.056   7.997   3.610
11234TIP3    H133579   3.059   8.079   3.557
11234TIP3    H233580   2.961   7.982   3.618
11235TIP3   OH233581   2.620   7.303   3.312
11235TIP3    H133582   2.667   7.386   3.332
11235TIP3    H233583   2.543   7.309   3.373
11236TIP3   OH233584   3.199   7.765   3.556
11236TIP3    H133585   3.163   7.854   3.574
11236TIP3    H233586   3.162   7.715   3.630
11237TIP3   OH233587   3.326   8.342   4.081
11237TIP3    H133588   3.366   8.414   4.028
11237TIP3    H233589   3.403   8.308   4.129
11238TIP3   OH233590   2.978   8.236   3.464
11238TIP3    H133591   2.892   8.244   3.508
11238TIP3    H233592   3.009   8.329   3.466
11239TIP3   OH233593   3.718   7.977   4.037
11239TIP3    H133594   3.710   7.975   4.135
11239TIP3    H233595   3.796   7.921   4.023
11240TIP3   OH233596   3.688   7.868   2.920
11240TIP3    H133597   3.741   7.844   2.999
11240TIP3    H233598   3.599   7.841   2.950
11241TIP3   OH233599   3.964   8.514   4.092
11241TIP3    H133600   3.887   8.453   4.084
11241TIP3    H233601   3.947   8.575   4.017
11242TIP3   OH233602   4.029   8.345   2.741
11242TIP3    H133603   4.068   8.417   2.688
11242TIP3    H233604   3.949   8.391   2.773
11243TIP3   OH233605   3.050   7.121   4.608
11243TIP3    H133606   2.954   7.126   4.622
11243TIP3    H233607   3.077   7.060   4.678
11244TIP3   OH233608   3.848   7.804   3.139
11244TIP3    H133609   3.838   7.737   3.209
11244TIP3    H233610   3.945   7.802   3.125
11245TIP3   OH233611   2.766   8.207   4.239
11245TIP3    H133612   2.815   8.128   4.267
11245TIP3    H233613   2.796   8.271   4.305
11246TIP3   OH233614   3.057   7.850   2.919
11246TIP3    H133615   3.071   7.758   2.889
11246TIP3    H233616   3.038   7.836   3.014
11247TIP3   OH233617   3.002   7.854   3.192
11247TIP3    H133618   3.072   7.826   3.253
11247TIP3    H233619   3.007   7.952   3.199
11248TIP3   OH233620   2.738   7.548   3.395
11248TIP3    H133621   2.673   7.593   3.452
11248TIP3    H233622   2.753   7.618   3.328
11249TIP3   OH233623   3.883   7.187   4.289
11249TIP3    H133624   3.965   7.221   4.327
11249TIP3    H233625   3.868   7.105   4.341
11250TIP3   OH233626   3.757   6.942   3.450
11250TIP3    H133627   3.751   6.964   3.356
11250TIP3    H233628   3.802   7.021   3.487
11251TIP3   OH233629   3.267   8.053   3.142
11251TIP3    H133630   3.180   8.081   3.177
11251TIP3    H233631   3.283   8.122   3.076
11252TIP3   OH233632   3.455   7.115   3.554
11252TIP3    H133633   3.522   7.185   3.536
11252TIP3    H233634   3.461   7.108   3.652
11253TIP3   OH233635   3.724   7.436   4.363
11253TIP3    H133636   3.743   7.488   4.443
11253TIP3    H233637   3.780   7.357   4.376
11254TIP3   OH233638   3.601   6.846   3.658
11254TIP3    H133639   3.598   6.922   3.719
11254TIP3    H233640   3.661   6.882   3.588
11255TIP3   OH233641   3.009   8.127   3.207
11255TIP3    H133642   2.979   8.197   3.144
11255TIP3    H233643   2.993   8.171   3.294
11256TIP3   OH233644   3.111   6.840   3.446
11256TIP3    H133645   3.109   6.930   3.483
11256TIP3    H233646   3.207   6.821   3.455
11257TIP3   OH233647   4.368   7.335   4.338
11257TIP3    H133648   4.270   7.335   4.350
11257TIP3    H233649   4.372   7.290   4.252
11258TIP3   OH233650   4.016   7.530   3.732
11258TIP3    H133651   3.941   7.469   3.743
11258TIP3    H233652   4.088   7.482   3.779
11259TIP3   OH233653   2.727   7.760   3.202
11259TIP3    H133654   2.791   7.833   3.210
11259TIP3    H233655   2.774   7.706   3.135
11260TIP3   OH233656   2.674   7.033   3.334
11260TIP3    H133657   2.673   7.131   3.329
11260TIP3    H233658   2.589   7.010   3.295
11261TIP3   OH233659   3.983   8.485   3.683
11261TIP3    H133660   3.941   8.532   3.607
11261TIP3    H233661   4.078   8.503   3.662
11262TIP3   OH233662   3.060   6.754   4.210
11262TIP3    H133663   3.029   6.721   4.123
11262TIP3    H233664   3.051   6.675   4.267
11263TIP3   OH233665   2.603   7.974   3.592
11263TIP3    H133666   2.526   8.004   3.644
11263TIP3    H233667   2.581   8.012   3.504
11264TIP3   OH233668   2.754   8.510   4.661
11264TIP3    H133669   2.840   8.507   4.706
11264TIP3    H233670   2.731   8.416   4.658
11265TIP3   OH233671   3.242   8.482   4.702
11265TIP3    H133672   3.335   8.455   4.711
11265TIP3    H233673   3.214   8.423   4.629
11266TIP3   OH233674   3.220   8.054   2.835
11266TIP3    H133675   3.163   7.983   2.872
11266TIP3    H233676   3.294   8.001   2.801
11267TIP3   OH233677   3.876   8.385   4.439
11267TIP3    H133678   3.867   8.314   4.505
11267TIP3    H233679   3.955   8.433   4.469
11268TIP3   OH233680   3.657   8.097   2.744
11268TIP3    H133681   3.701   8.032   2.801
11268TIP3    H233682   3.712   8.096   2.664
11269TIP3   OH233683   2.887   7.920   4.861
11269TIP3    H133684   2.904   7.824   4.865
11269TIP3    H233685   2.799   7.921   4.818
11270TIP3   OH233686   2.863   7.572   3.052
11270TIP3    H133687   2.917   7.537   3.125
11270TIP3    H233688   2.931   7.576   2.981
11271TIP3   OH233689   3.495   8.003   4.633
11271TIP3    H133690   3.452   8.016   4.547
11271TIP3    H233691   3.526   7.910   4.628
11272TIP3   OH233692   3.370   7.768   2.860
11272TIP3    H133693   3.373   7.782   2.956
11272TIP3    H233694   3.370   7.670   2.855
11273TIP3   OH233695   3.988   8.009   4.240
11273TIP3    H133696   4.060   8.057   4.195
11273TIP3    H233697   3.914   8.071   4.228
11274TIP3   OH233698   3.006   7.653   4.841
11274TIP3    H133699   3.077   7.590   4.824
11274TIP3    H233700   3.029   7.685   4.930
11275TIP3   OH233701   3.074   7.473   3.277
11275TIP3    H133702   3.047   7.430   3.360
11275TIP3    H233703   3.108   7.397   3.225
11276TIP3   OH233704   3.341   7.539   4.505
11276TIP3    H133705   3.263   7.598   4.508
11276TIP3    H233706   3.388   7.572   4.425
11277TIP3   OH233707   3.171   7.266   3.117
11277TIP3    H133708   3.145   7.267   3.023
11277TIP3    H233709   3.269   7.273   3.109
11278TIP3   OH233710   3.858   7.941   4.639
11278TIP3    H133711   3.938   7.918   4.590
11278TIP3    H233712   3.855   7.872   4.708
11279TIP3   OH233713   3.996   7.600   2.777
11279TIP3    H133714   3.974   7.551   2.695
11279TIP3    H233715   3.964   7.690   2.752
11280TIP3   OH233716   3.464   7.325   4.632
11280TIP3    H133717   3.463   7.244   4.577
11280TIP3    H233718   3.420   7.390   4.573
11281TIP3   OH233719   3.466   7.112   4.437
11281TIP3    H133720   3.493   7.152   4.352
11281TIP3    H233721   3.372   7.089   4.419
11282TIP3   OH233722   3.497   7.650   4.311
11282TIP3    H133723   3.577   7.653   4.257
11282TIP3    H233724   3.440   7.717   4.267
11283TIP3   OH233725   4.078   7.616   4.694
11283TIP3    H133726   4.124   7.532   4.703
11283TIP3    H233727   4.148   7.673   4.658
11284TIP3   OH233728   4.118   7.868   4.430
11284TIP3    H133729   4.060   7.921   4.369
11284TIP3    H233730   4.206   7.887   4.388
11285TIP3   OH233731   3.341   7.441   4.859
11285TIP3    H133732   3.272   7.373   4.874
11285TIP3    H233733   3.376   7.414   4.772
11286TIP3   OH233734   3.599   6.877   4.503
11286TIP3    H133735   3.550   6.959   4.481
11286TIP3    H233736   3.529   6.809   4.491
11287TIP3   OH233737   3.724   7.383   4.720
11287TIP3    H133738   3.714   7.371   4.816
11287TIP3    H233739   3.634   7.357   4.691
11288TIP3   OH233740   3.965   7.331   4.575
11288TIP3    H133741   3.888   7.331   4.636
11288TIP3    H233742   4.037   7.299   4.633
11289TIP3   OH233743   4.195   7.270   4.727
11289TIP3    H133744   4.206   7.175   4.747
11289TIP3    H233745   4.189   7.310   4.817
11290TIP3   OH233746   3.182   7.220   4.911
11290TIP3    H133747   3.188   7.129   4.876
11290TIP3    H233748   3.217   7.207   5.002
11291TIP3   OH233749   3.695   6.887   4.760
11291TIP3    H133750   3.762   6.816   4.755
11291TIP3    H233751   3.654   6.879   4.671
11292TIP3   OH233752   3.759   7.101   4.920
11292TIP3    H133753   3.736   7.030   4.856
11292TIP3    H233754   3.681   7.161   4.913
11293TIP3   OH233755   2.979   8.330   3.020
11293TIP3    H133756   3.074   8.328   3.000
11293TIP3    H233757   2.947   8.377   2.941
11294TIP3   OH233758   2.459   7.711   3.238
11294TIP3    H133759   2.554   7.733   3.225
11294TIP3    H233760   2.454   7.622   3.196
11295TIP3   OH233761   2.373   8.324   3.650
11295TIP3    H133762   2.305   8.262   3.615
11295TIP3    H233763   2.417   8.267   3.716
11296TIP3   OH233764   2.509   8.179   3.837
11296TIP3    H133765   2.498   8.103   3.896
11296TIP3    H233766   2.559   8.239   3.895
11297TIP3   OH233767   4.234   8.579   3.636
11297TIP3    H133768   4.265   8.610   3.722
11297TIP3    H233769   4.298   8.619   3.575
11298TIP3   OH233770   4.268   8.598   3.920
11298TIP3    H133771   4.223   8.511   3.913
11298TIP3    H233772   4.343   8.572   3.976
11299TIP3   OH233773   4.312   8.274   4.490
11299TIP3    H133774   4.239   8.280   4.555
11299TIP3    H233775   4.353   8.362   4.497
11300TIP3   OH233776   4.128   7.787   3.112
11300TIP3    H133777   4.198   7.849   3.085
11300TIP3    H233778   4.170   7.746   3.191
11301TIP3   OH233779   4.255   7.655   3.315
11301TIP3    H133780   4.191   7.610   3.374
11301TIP3    H233781   4.320   7.692   3.378
11302TIP3   OH233782   4.309   8.044   3.748
11302TIP3    H133783   4.363   7.980   3.697
11302TIP3    H233784   4.300   8.118   3.685
11303TIP3   OH233785   4.143   8.347   3.943
11303TIP3    H133786   4.071   8.385   3.996
11303TIP3    H233787   4.094   8.297   3.874
11304TIP3   OH233788   4.195   7.561   2.963
11304TIP3    H133789   4.123   7.564   2.896
11304TIP3    H233790   4.168   7.637   3.018
11305TIP3   OH233791   4.065   7.234   2.918
11305TIP3    H133792   4.024   7.273   2.840
11305TIP3    H233793   4.040   7.140   2.909
11306TIP3   OH233794   4.071   7.508   3.462
11306TIP3    H133795   4.079   7.411   3.457
11306TIP3    H233796   4.058   7.523   3.559
11307TIP3   OH233797   2.698   7.583   4.208
11307TIP3    H133798   2.696   7.554   4.114
11307TIP3    H233799   2.795   7.584   4.225
11308TIP3   OH233800   4.360   7.934   4.319
11308TIP3    H133801   4.432   7.868   4.310
11308TIP3    H233802   4.388   8.003   4.257
11309TIP3   OH233803   4.547   7.742   4.339
11309TIP3    H133804   4.472   7.691   4.376
11309TIP3    H233805   4.619   7.677   4.353
11310TIP3   OH233806   4.009   6.969   2.904
11310TIP3    H133807   4.086   6.940   2.957
11310TIP3    H233808   3.938   6.909   2.933
11311TIP3   OH233809   4.066   7.225   3.358
11311TIP3    H133810   4.107   7.136   3.375
11311TIP3    H233811   4.126   7.257   3.288
11312TIP3   OH233812   4.230   7.402   3.852
11312TIP3    H133813   4.317   7.428   3.813
11312TIP3    H233814   4.243   7.437   3.942
11313TIP3   OH233815   4.297   7.543   4.086
11313TIP3    H133816   4.219   7.577   4.134
11313TIP3    H233817   4.329   7.624   4.040
11314TIP3   OH233818   2.915   7.272   4.885
11314TIP3    H133819   3.013   7.263   4.886
11314TIP3    H233820   2.889   7.187   4.926
11315TIP3   OH233821   4.747   7.132   4.641
11315TIP3    H133822   4.805   7.066   4.598
11315TIP3    H233823   4.720   7.189   4.566
11316TIP3   OH233824   4.177   6.976   3.396
11316TIP3    H133825   4.222   6.957   3.481
11316TIP3    H233826   4.116   6.899   3.391
11317TIP3   OH233827   2.876   6.962   4.214
11317TIP3    H133828   2.938   6.887   4.225
11317TIP3    H233829   2.937   7.037   4.209
11318TIP3   OH233830   2.680   7.236   4.288
11318TIP3    H133831   2.729   7.228   4.204
11318TIP3    H233832   2.709   7.323   4.319
11319TIP3   OH233833   4.624   7.275   4.446
11319TIP3    H133834   4.539   7.315   4.473
11319TIP3    H233835   4.591   7.204   4.388
11320TIP3   OH233836   4.258   6.919   3.021
11320TIP3    H133837   4.296   6.839   2.979
11320TIP3    H233838   4.330   6.984   3.014
11321TIP3   OH233839   2.661   6.738   3.788
11321TIP3    H133840   2.567   6.738   3.815
11321TIP3    H233841   2.661   6.797   3.710
11322TIP3   OH233842   3.821   8.442   3.295
11322TIP3    H133843   3.871   8.424   3.212
11322TIP3    H233844   3.878   8.508   3.337
11323TIP3   OH233845   2.882   6.820   4.603
11323TIP3    H133846   2.832   6.813   4.686
11323TIP3    H233847   2.814   6.858   4.544
11324TIP3   OH233848   2.922   8.248   4.683
11324TIP3    H133849   2.831   8.217   4.663
11324TIP3    H233850   2.930   8.224   4.776
11325TIP3   OH233851   3.099   8.277   4.229
11325TIP3    H133852   3.050   8.351   4.190
11325TIP3    H233853   3.185   8.291   4.184
11326TIP3   OH233854   3.547   8.524   4.367
11326TIP3    H133855   3.589   8.524   4.455
11326TIP3    H233856   3.613   8.573   4.314
11327TIP3   OH233857   3.725   8.674   4.223
11327TIP3    H133858   3.794   8.621   4.181
11327TIP3    H233859   3.778   8.730   4.283
11328TIP3   OH233860   4.519   7.038   4.324
11328TIP3    H133861   4.427   7.033   4.292
11328TIP3    H233862   4.547   6.944   4.312
11329TIP3   OH233863   2.778   8.539   4.249
11329TIP3    H133864   2.689   8.572   4.225
11329TIP3    H233865   2.781   8.562   4.342
11330TIP3   OH233866   3.014   8.515   4.108
11330TIP3    H133867   2.928   8.528   4.154
11330TIP3    H233868   2.993   8.547   4.018
11331TIP3   OH233869   3.440   8.545   3.906
11331TIP3    H133870   3.370   8.564   3.840
11331TIP3    H233871   3.451   8.633   3.947
11332TIP3   OH233872   3.707   8.486   3.958
11332TIP3    H133873   3.612   8.499   3.937
11332TIP3    H233874   3.748   8.561   3.913
11333TIP3   OH233875   3.919   8.679   3.874
11333TIP3    H133876   3.902   8.761   3.824
11333TIP3    H233877   3.942   8.616   3.801
11334TIP3   OH233878   2.689   8.331   3.997
11334TIP3    H133879   2.715   8.304   4.088
11334TIP3    H233880   2.760   8.286   3.946
11335TIP3   OH233881   2.881   8.201   3.852
11335TIP3    H133882   2.897   8.116   3.900
11335TIP3    H233883   2.971   8.238   3.847
11336TIP3   OH233884   3.147   8.297   3.853
11336TIP3    H133885   3.178   8.206   3.840
11336TIP3    H233886   3.189   8.317   3.939
11337TIP3   OH233887   3.723   6.952   3.941
11337TIP3    H133888   3.681   6.882   3.994
11337TIP3    H233889   3.794   6.904   3.895
11338TIP3   OH233890   4.250   6.851   3.862
11338TIP3    H133891   4.285   6.886   3.778
11338TIP3    H233892   4.155   6.844   3.841
11339TIP3   OH233893   4.344   6.934   3.615
11339TIP3    H133894   4.414   6.883   3.571
11339TIP3    H233895   4.376   7.026   3.599
11340TIP3   OH233896   2.973   6.662   3.961
11340TIP3    H133897   2.881   6.628   3.961
11340TIP3    H233898   3.024   6.578   3.957
11341TIP3   OH233899   2.757   6.529   3.605
11341TIP3    H133900   2.788   6.588   3.534
11341TIP3    H233901   2.728   6.593   3.673
11342TIP3   OH233902   3.411   6.697   3.840
11342TIP3    H133903   3.473   6.740   3.780
11342TIP3    H233904   3.439   6.732   3.926
11343TIP3   OH233905   3.964   6.838   3.823
11343TIP3    H133906   3.971   6.800   3.734
11343TIP3    H233907   3.950   6.757   3.877
11344TIP3   OH233908   3.997   6.766   3.384
11344TIP3    H133909   3.906   6.799   3.391
11344TIP3    H233910   3.987   6.681   3.433
11345TIP3   OH233911   2.477   8.099   3.389
11345TIP3    H133912   2.392   8.066   3.353
11345TIP3    H233913   2.464   8.194   3.374
11346TIP3   OH233914   2.875   6.690   3.372
11346TIP3    H133915   2.925   6.629   3.315
11346TIP3    H233916   2.947   6.745   3.409
11347TIP3   OH233917   3.388   6.864   3.470
11347TIP3    H133918   3.449   6.816   3.529
11347TIP3    H233919   3.411   6.956   3.496
11348TIP3   OH233920   3.248   8.293   2.968
11348TIP3    H133921   3.336   8.314   2.933
11348TIP3    H233922   3.225   8.217   2.910
11349TIP3   OH233923   3.966   8.407   3.062
11349TIP3    H133924   3.958   8.310   3.048
11349TIP3    H233925   3.922   8.440   2.981
11350TIP3   OH233926   3.180   6.943   4.851
11350TIP3    H133927   3.147   6.872   4.908
11350TIP3    H233928   3.275   6.944   4.877
11351TIP3   OH233929   3.429   6.940   4.970
11351TIP3    H133930   3.513   6.912   4.931
11351TIP3    H233931   3.415   6.870   5.038
11352TIP3   OH233932   2.552   8.128   3.027
11352TIP3    H133933   2.551   8.155   3.121
11352TIP3    H233934   2.641   8.087   3.018
11353TIP3   OH233935   4.253   6.999   4.759
11353TIP3    H133936   4.273   6.968   4.849
11353TIP3    H233937   4.341   6.994   4.716
11354TIP3   OH233938   4.193   8.554   4.251
11354TIP3    H133939   4.115   8.520   4.203
11354TIP3    H233940   4.172   8.649   4.253
11355TIP3   OH233941   5.459   7.923   3.019
11355TIP3    H133942   5.433   8.015   3.000
11355TIP3    H233943   5.381   7.876   2.983
11356TIP3   OH233944   5.452   7.924   3.396
11356TIP3    H133945   5.486   7.894   3.483
11356TIP3    H233946   5.415   7.843   3.359
11357TIP3   OH233947   4.758   7.823   3.762
11357TIP3    H133948   4.791   7.756   3.825
11357TIP3    H233949   4.837   7.877   3.750
11358TIP3   OH233950   5.698   8.224   3.074
11358TIP3    H133951   5.692   8.158   3.145
11358TIP3    H233952   5.726   8.304   3.124
11359TIP3   OH233953   4.728   8.229   3.490
11359TIP3    H133954   4.720   8.131   3.492
11359TIP3    H233955   4.825   8.237   3.483
11360TIP3   OH233956   4.435   7.436   3.275
11360TIP3    H133957   4.385   7.518   3.286
11360TIP3    H233958   4.367   7.378   3.239
11361TIP3   OH233959   4.496   7.721   3.443
11361TIP3    H133960   4.544   7.644   3.481
11361TIP3    H233961   4.554   7.745   3.369
11362TIP3   OH233962   5.350   8.689   3.096
11362TIP3    H133963   5.396   8.618   3.046
11362TIP3    H233964   5.352   8.652   3.185
11363TIP3   OH233965   5.257   8.149   3.445
11363TIP3    H133966   5.295   8.073   3.399
11363TIP3    H233967   5.340   8.195   3.469
11364TIP3   OH233968   6.267   7.470   3.442
11364TIP3    H133969   6.297   7.553   3.485
11364TIP3    H233970   6.291   7.487   3.349
11365TIP3   OH233971   5.666   7.652   3.481
11365TIP3    H133972   5.712   7.568   3.499
11365TIP3    H233973   5.639   7.638   3.388
11366TIP3   OH233974   5.004   7.311   3.445
11366TIP3    H133975   4.985   7.384   3.382
11366TIP3    H233976   4.958   7.237   3.400
11367TIP3   OH233977   5.698   7.402   3.067
11367TIP3    H133978   5.771   7.387   3.132
11367TIP3    H233979   5.750   7.437   2.992
11368TIP3   OH233980   4.641   7.514   3.551
11368TIP3    H133981   4.724   7.492   3.597
11368TIP3    H233982   4.651   7.458   3.471
11369TIP3   OH233983   5.081   7.711   3.343
11369TIP3    H133984   5.175   7.686   3.355
11369TIP3    H233985   5.042   7.628   3.310
11370TIP3   OH233986   6.342   7.677   3.614
11370TIP3    H133987   6.260   7.726   3.593
11370TIP3    H233988   6.357   7.704   3.705
11371TIP3   OH233989   5.002   7.297   3.880
11371TIP3    H133990   4.945   7.331   3.809
11371TIP3    H233991   4.946   7.315   3.958
11372TIP3   OH233992   5.353   8.145   2.887
11372TIP3    H133993   5.309   8.121   2.804
11372TIP3    H233994   5.309   8.230   2.909
11373TIP3   OH233995   5.110   8.068   3.676
11373TIP3    H133996   5.047   8.134   3.713
11373TIP3    H233997   5.154   8.120   3.605
11374TIP3   OH233998   5.909   7.406   3.237
11374TIP3    H133999   5.913   7.349   3.315
11374TIP3    H234000   5.969   7.479   3.261
11375TIP3   OH234001   4.874   7.409   3.663
11375TIP3    H134002   4.936   7.482   3.684
11375TIP3    H234003   4.921   7.368   3.587
11376TIP3   OH234004   4.936   8.262   3.771
11376TIP3    H134005   4.911   8.347   3.730
11376TIP3    H234006   4.857   8.248   3.828
11377TIP3   OH234007   4.335   7.952   3.007
11377TIP3    H134008   4.292   7.978   2.923
11377TIP3    H234009   4.363   8.038   3.043
11378TIP3   OH234010   5.757   8.450   3.222
11378TIP3    H134011   5.674   8.452   3.274
11378TIP3    H234012   5.774   8.545   3.210
11379TIP3   OH234013   6.062   7.371   3.610
11379TIP3    H134014   5.975   7.401   3.579
11379TIP3    H234015   6.122   7.401   3.538
11380TIP3   OH234016   5.363   7.015   3.591
11380TIP3    H134017   5.351   6.919   3.607
11380TIP3    H234018   5.283   7.050   3.636
11381TIP3   OH234019   5.472   8.518   2.918
11381TIP3    H134020   5.524   8.436   2.901
11381TIP3    H234021   5.534   8.583   2.877
11382TIP3   OH234022   5.617   8.303   2.825
11382TIP3    H134023   5.580   8.222   2.787
11382TIP3    H234024   5.652   8.269   2.910
11383TIP3   OH234025   5.289   7.777   2.846
11383TIP3    H134026   5.209   7.827   2.821
11383TIP3    H234027   5.337   7.773   2.761
11384TIP3   OH234028   5.249   7.560   2.565
11384TIP3    H134029   5.318   7.609   2.614
11384TIP3    H234030   5.304   7.495   2.518
11385TIP3   OH234031   6.198   8.016   3.435
11385TIP3    H134032   6.114   8.067   3.440
11385TIP3    H234033   6.227   8.042   3.344
11386TIP3   OH234034   5.636   7.859   2.820
11386TIP3    H134035   5.583   7.884   2.899
11386TIP3    H234036   5.720   7.832   2.863
11387TIP3   OH234037   5.873   7.898   3.730
11387TIP3    H134038   5.871   7.983   3.778
11387TIP3    H234039   5.788   7.905   3.681
11388TIP3   OH234040   4.869   7.858   3.236
11388TIP3    H134041   4.827   7.800   3.169
11388TIP3    H234042   4.946   7.804   3.264
11389TIP3   OH234043   4.999   8.268   3.385
11389TIP3    H134044   4.979   8.222   3.302
11389TIP3    H234045   5.089   8.236   3.404
11390TIP3   OH234046   5.006   7.828   3.590
11390TIP3    H134047   5.039   7.808   3.500
11390TIP3    H234048   5.050   7.914   3.610
11391TIP3   OH234049   5.528   8.464   3.365
11391TIP3    H134050   5.519   8.547   3.416
11391TIP3    H234051   5.517   8.394   3.432
11392TIP3   OH234052   5.142   8.386   3.914
11392TIP3    H134053   5.083   8.448   3.961
11392TIP3    H234054   5.077   8.331   3.866
11393TIP3   OH234055   5.478   7.717   2.645
11393TIP3    H134056   5.538   7.775   2.698
11393TIP3    H234057   5.504   7.742   2.553
11394TIP3   OH234058   4.895   7.943   4.013
11394TIP3    H134059   4.900   8.028   4.060
11394TIP3    H234060   4.799   7.924   4.021
11395TIP3   OH234061   5.218   8.398   2.921
11395TIP3    H134062   5.299   8.450   2.939
11395TIP3    H234063   5.159   8.464   2.883
11396TIP3   OH234064   4.937   8.557   4.000
11396TIP3    H134065   4.903   8.551   3.908
11396TIP3    H234066   4.858   8.534   4.053
11397TIP3   OH234067   5.993   6.962   2.692
11397TIP3    H134068   5.913   6.981   2.744
11397TIP3    H234069   6.003   7.044   2.640
11398TIP3   OH234070   4.735   7.700   3.043
11398TIP3    H134071   4.671   7.744   2.983
11398TIP3    H234072   4.694   7.613   3.053
11399TIP3   OH234073   5.792   8.326   2.241
11399TIP3    H134074   5.801   8.423   2.227
11399TIP3    H234075   5.884   8.296   2.227
11400TIP3   OH234076   4.517   8.083   3.947
11400TIP3    H134077   4.453   8.060   3.877
11400TIP3    H234078   4.554   7.996   3.972
11401TIP3   OH234079   4.371   8.276   3.581
11401TIP3    H134080   4.466   8.267   3.570
11401TIP3    H234081   4.364   8.355   3.636
11402TIP3   OH234082   5.339   8.517   3.768
11402TIP3    H134083   5.340   8.608   3.802
11402TIP3    H234084   5.271   8.475   3.825
11403TIP3   OH234085   5.099   8.643   2.721
11403TIP3    H134086   5.054   8.622   2.638
11403TIP3    H234087   5.067   8.733   2.742
11404TIP3   OH234088   4.539   8.493   3.105
11404TIP3    H134089   4.587   8.482   3.190
11404TIP3    H234090   4.481   8.415   3.108
11405TIP3   OH234091   5.304   8.544   2.364
11405TIP3    H134092   5.363   8.474   2.327
11405TIP3    H234093   5.338   8.551   2.455
11406TIP3   OH234094   5.353   8.592   2.635
11406TIP3    H134095   5.265   8.600   2.677
11406TIP3    H234096   5.404   8.548   2.705
11407TIP3   OH234097   6.126   7.859   3.910
11407TIP3    H134098   6.047   7.873   3.855
11407TIP3    H234099   6.142   7.764   3.899
11408TIP3   OH234100   4.721   8.268   3.940
11408TIP3    H134101   4.773   8.248   4.021
11408TIP3    H234102   4.649   8.203   3.946
11409TIP3   OH234103   5.122   7.090   3.718
11409TIP3    H134104   5.032   7.058   3.694
11409TIP3    H234105   5.097   7.175   3.758
11410TIP3   OH234106   5.655   7.207   3.915
11410TIP3    H134107   5.725   7.177   3.977
11410TIP3    H234108   5.573   7.180   3.961
11411TIP3   OH234109   5.894   7.633   3.829
11411TIP3    H134110   5.848   7.630   3.916
11411TIP3    H234111   5.873   7.722   3.796
11412TIP3   OH234112   5.553   7.768   2.389
11412TIP3    H134113   5.521   7.739   2.301
11412TIP3    H234114   5.635   7.814   2.364
11413TIP3   OH234115   5.266   7.142   2.690
11413TIP3    H134116   5.235   7.139   2.782
11413TIP3    H234117   5.230   7.057   2.658
11414TIP3   OH234118   5.053   7.605   3.737
11414TIP3    H134119   5.002   7.626   3.818
11414TIP3    H234120   5.037   7.686   3.683
11415TIP3   OH234121   4.937   7.491   3.253
11415TIP3    H134122   4.844   7.464   3.269
11415TIP3    H234123   4.951   7.451   3.164
11416TIP3   OH234124   5.427   7.577   2.979
11416TIP3    H134125   5.374   7.649   2.938
11416TIP3    H234126   5.482   7.548   2.904
11417TIP3   OH234127   5.604   7.856   4.066
11417TIP3    H134128   5.592   7.781   4.127
11417TIP3    H234129   5.698   7.877   4.083
11418TIP3   OH234130   5.584   7.607   3.220
11418TIP3    H134131   5.527   7.638   3.147
11418TIP3    H234132   5.618   7.525   3.179
11419TIP3   OH234133   4.873   7.637   3.946
11419TIP3    H134134   4.894   7.703   4.014
11419TIP3    H234135   4.857   7.557   3.999
11420TIP3   OH234136   4.922   7.111   2.657
11420TIP3    H134137   4.915   7.108   2.754
11420TIP3    H234138   4.842   7.162   2.634
11421TIP3   OH234139   4.464   7.161   3.528
11421TIP3    H134140   4.543   7.188   3.579
11421TIP3    H234141   4.500   7.124   3.446
11422TIP3   OH234142   4.444   7.138   3.048
11422TIP3    H134143   4.488   7.178   2.969
11422TIP3    H234144   4.381   7.210   3.070
11423TIP3   OH234145   5.591   7.853   3.643
11423TIP3    H134146   5.625   7.781   3.585
11423TIP3    H234147   5.565   7.800   3.722
11424TIP3   OH234148   5.262   7.315   3.314
11424TIP3    H134149   5.180   7.312   3.368
11424TIP3    H234150   5.331   7.314   3.383
11425TIP3   OH234151   4.698   7.368   3.324
11425TIP3    H134152   4.604   7.375   3.297
11425TIP3    H234153   4.722   7.277   3.299
11426TIP3   OH234154   4.970   7.367   3.010
11426TIP3    H134155   5.064   7.381   2.990
11426TIP3    H234156   4.924   7.390   2.926
11427TIP3   OH234157   5.756   7.390   3.519
11427TIP3    H134158   5.717   7.401   3.608
11427TIP3    H234159   5.695   7.328   3.477
11428TIP3   OH234160   4.806   7.400   2.790
11428TIP3    H134161   4.734   7.355   2.742
11428TIP3    H234162   4.859   7.434   2.714
11429TIP3   OH234163   5.907   9.118   3.735
11429TIP3    H134164   5.920   9.080   3.647
11429TIP3    H234165   5.999   9.125   3.767
11430TIP3   OH234166   4.883   8.189   4.157
11430TIP3    H134167   4.963   8.218   4.204
11430TIP3    H234168   4.819   8.186   4.231
11431TIP3   OH234169   5.349   7.639   3.409
11431TIP3    H134170   5.421   7.603   3.355
11431TIP3    H234171   5.366   7.599   3.495
11432TIP3   OH234172   4.874   7.130   3.288
11432TIP3    H134173   4.841   7.049   3.332
11432TIP3    H234174   4.925   7.094   3.214
11433TIP3   OH234175   5.323   7.527   3.719
11433TIP3    H134176   5.235   7.570   3.719
11433TIP3    H234177   5.382   7.595   3.758
11434TIP3   OH234178   5.060   7.931   2.795
11434TIP3    H134179   4.988   7.864   2.785
11434TIP3    H234180   5.044   7.963   2.887
11435TIP3   OH234181   5.965   8.154   3.434
11435TIP3    H134182   5.990   8.218   3.364
11435TIP3    H234183   5.876   8.125   3.405
11436TIP3   OH234184   5.520   7.243   2.656
11436TIP3    H134185   5.423   7.228   2.664
11436TIP3    H234186   5.531   7.337   2.680
11437TIP3   OH234187   5.456   8.242   3.796
11437TIP3    H134188   5.484   8.227   3.887
11437TIP3    H234189   5.427   8.334   3.797
11438TIP3   OH234190   5.590   7.488   2.760
11438TIP3    H134191   5.686   7.493   2.776
11438TIP3    H234192   5.573   7.567   2.706
11439TIP3   OH234193   4.753   7.951   3.473
11439TIP3    H134194   4.790   7.924   3.387
11439TIP3    H234195   4.792   7.886   3.533
11440TIP3   OH234196   5.206   8.079   2.615
11440TIP3    H134197   5.159   8.165   2.624
11440TIP3    H234198   5.152   8.023   2.675
11441TIP3   OH234199   4.631   7.872   4.085
11441TIP3    H134200   4.652   7.859   4.180
11441TIP3    H234201   4.562   7.805   4.070
11442TIP3   OH234202   5.359   7.983   4.106
11442TIP3    H134203   5.300   7.931   4.049
11442TIP3    H234204   5.447   7.953   4.074
11443TIP3   OH234205   5.621   8.496   3.699
11443TIP3    H134206   5.524   8.506   3.699
11443TIP3    H234207   5.646   8.558   3.770
11444TIP3   OH234208   6.032   7.577   2.598
11444TIP3    H134209   5.969   7.531   2.538
11444TIP3    H234210   6.028   7.665   2.555
11445TIP3   OH234211   5.729   8.398   2.505
11445TIP3    H134212   5.707   8.327   2.568
11445TIP3    H234213   5.742   8.350   2.421
11446TIP3   OH234214   5.721   8.027   3.348
11446TIP3    H134215   5.628   7.999   3.356
11446TIP3    H234216   5.760   7.950   3.302
11447TIP3   OH234217   4.852   8.254   3.098
11447TIP3    H134218   4.856   8.335   3.044
11447TIP3    H234219   4.757   8.238   3.103
11448TIP3   OH234220   4.416   7.560   2.798
11448TIP3    H134221   4.463   7.642   2.819
11448TIP3    H234222   4.339   7.566   2.860
11449TIP3   OH234223   4.994   8.021   3.042
11449TIP3    H134224   4.960   8.111   3.061
11449TIP3    H234225   4.958   7.971   3.117
11450TIP3   OH234226   5.122   8.599   3.568
11450TIP3    H134227   5.165   8.669   3.515
11450TIP3    H234228   5.199   8.563   3.616
11451TIP3   OH234229   4.773   8.493   2.949
11451TIP3    H134230   4.687   8.500   2.995
11451TIP3    H234231   4.804   8.587   2.953
11452TIP3   OH234232   5.512   8.233   3.525
11452TIP3    H134233   5.506   8.227   3.622
11452TIP3    H234234   5.592   8.182   3.506
11453TIP3   OH234235   5.484   8.125   2.407
11453TIP3    H134236   5.538   8.101   2.486
11453TIP3    H234237   5.396   8.098   2.438
11454TIP3   OH234238   5.730   8.803   3.602
11454TIP3    H134239   5.729   8.708   3.585
11454TIP3    H234240   5.744   8.840   3.513
11455TIP3   OH234241   5.826   8.602   2.228
11455TIP3    H134242   5.866   8.674   2.177
11455TIP3    H234243   5.746   8.647   2.259
11456TIP3   OH234244   4.843   7.377   4.096
11456TIP3    H134245   4.747   7.390   4.106
11456TIP3    H234246   4.858   7.305   4.159
11457TIP3   OH234247   5.644   8.060   2.624
11457TIP3    H134248   5.634   7.993   2.695
11457TIP3    H234249   5.741   8.058   2.612
11458TIP3   OH234250   4.561   8.464   3.728
11458TIP3    H134251   4.611   8.384   3.751
11458TIP3    H234252   4.595   8.527   3.792
11459TIP3   OH234253   4.852   8.107   2.406
11459TIP3    H134254   4.867   8.016   2.376
11459TIP3    H234255   4.834   8.092   2.501
11460TIP3   OH234256   4.798   8.111   2.680
11460TIP3    H134257   4.869   8.082   2.738
11460TIP3    H234258   4.804   8.208   2.687
11461TIP3   OH234259   4.535   7.805   2.881
11461TIP3    H134260   4.469   7.849   2.939
11461TIP3    H234261   4.550   7.875   2.815
11462TIP3   OH234262   5.677   7.446   3.778
11462TIP3    H134263   5.762   7.481   3.809
11462TIP3    H234264   5.668   7.363   3.830
11463TIP3   OH234265   5.557   7.196   2.937
11463TIP3    H134266   5.547   7.219   2.843
11463TIP3    H234267   5.600   7.277   2.973
11464TIP3   OH234268   5.063   8.309   2.629
11464TIP3    H134269   4.976   8.339   2.664
11464TIP3    H234270   5.079   8.377   2.562
11465TIP3   OH234271   5.252   7.371   3.040
11465TIP3    H134272   5.318   7.442   3.022
11465TIP3    H234273   5.257   7.365   3.138
11466TIP3   OH234274   5.520   7.690   3.852
11466TIP3    H134275   5.545   7.746   3.928
11466TIP3    H234276   5.580   7.614   3.860
11467TIP3   OH234277   5.397   7.102   3.145
11467TIP3    H134278   5.392   7.178   3.205
11467TIP3    H234279   5.457   7.138   3.075
11468TIP3   OH234280   4.805   8.385   2.694
11468TIP3    H134281   4.775   8.454   2.631
11468TIP3    H234282   4.789   8.428   2.780
11469TIP3   OH234283   4.907   7.096   2.934
11469TIP3    H134284   4.905   7.187   2.969
11469TIP3    H234285   5.003   7.078   2.942
11470TIP3   OH234286   6.162   7.592   3.830
11470TIP3    H134287   6.064   7.589   3.835
11470TIP3    H234288   6.175   7.555   3.741
11471TIP3   OH234289   5.812   7.786   3.218
11471TIP3    H134290   5.738   7.724   3.230
11471TIP3    H234291   5.885   7.740   3.265
11472TIP3   OH234292   4.524   8.018   2.688
11472TIP3    H134293   4.590   8.088   2.697
11472TIP3    H234294   4.569   7.962   2.621
11473TIP3   OH234295   4.471   7.290   2.821
11473TIP3    H134296   4.468   7.387   2.815
11473TIP3    H234297   4.386   7.265   2.782
11474TIP3   OH234298   5.782   8.744   3.173
11474TIP3    H134299   5.738   8.788   3.097
11474TIP3    H234300   5.875   8.762   3.149
11475TIP3   OH234301   4.857   7.010   3.697
11475TIP3    H134302   4.825   6.978   3.610
11475TIP3    H234303   4.846   6.931   3.753
11476TIP3   OH234304   4.400   8.234   3.080
11476TIP3    H134305   4.321   8.261   3.129
11476TIP3    H234306   4.379   8.269   2.991
11477TIP3   OH234307   4.550   8.767   4.149
11477TIP3    H134308   4.637   8.764   4.194
11477TIP3    H234309   4.529   8.672   4.145
11478TIP3   OH234310   5.036   8.738   4.189
11478TIP3    H134311   5.129   8.715   4.200
11478TIP3    H234312   5.011   8.680   4.115
11479TIP3   OH234313   5.017   8.311   2.323
11479TIP3    H134314   4.960   8.240   2.360
11479TIP3    H234315   5.091   8.258   2.288
11480TIP3   OH234316   5.663   8.646   3.929
11480TIP3    H134317   5.662   8.572   3.994
11480TIP3    H234318   5.747   8.691   3.949
11481TIP3   OH234319   5.453   8.353   2.231
11481TIP3    H134320   5.497   8.289   2.289
11481TIP3    H234321   5.509   8.353   2.151
11482TIP3   OH234322   4.682   8.177   4.348
11482TIP3    H134323   4.702   8.082   4.352
11482TIP3    H234324   4.594   8.177   4.304
11483TIP3   OH234325   4.659   7.829   2.540
11483TIP3    H134326   4.713   7.793   2.612
11483TIP3    H234327   4.727   7.833   2.468
11484TIP3   OH234328   5.290   8.258   4.121
11484TIP3    H134329   5.251   8.274   4.033
11484TIP3    H234330   5.323   8.166   4.114
11485TIP3   OH234331   5.165   8.025   2.346
11485TIP3    H134332   5.170   8.038   2.443
11485TIP3    H234333   5.166   7.926   2.342
11486TIP3   OH234334   5.788   8.271   3.723
11486TIP3    H134335   5.849   8.305   3.656
11486TIP3    H234336   5.717   8.337   3.717
11487TIP3   OH234337   4.800   7.914   4.328
11487TIP3    H134338   4.861   7.840   4.321
11487TIP3    H234339   4.821   7.944   4.419
11488TIP3   OH234340   4.869   7.730   2.764
11488TIP3    H134341   4.843   7.686   2.846
11488TIP3    H234342   4.905   7.654   2.712
11489TIP3   OH234343   5.135   7.804   4.010
11489TIP3    H134344   5.056   7.861   4.000
11489TIP3    H234345   5.182   7.820   3.925
11490TIP3   OH234346   4.968   7.523   2.604
11490TIP3    H134347   4.941   7.523   2.510
11490TIP3    H234348   5.065   7.530   2.596
11491TIP3   OH234349   5.651   8.193   4.124
11491TIP3    H134350   5.734   8.177   4.077
11491TIP3    H234351   5.655   8.128   4.197
11492TIP3   OH234352   5.791   7.857   2.264
11492TIP3    H134353   5.770   7.808   2.182
11492TIP3    H234354   5.759   7.946   2.238
11493TIP3   OH234355   5.259   7.365   3.941
11493TIP3    H134356   5.292   7.413   3.862
11493TIP3    H234357   5.167   7.346   3.912
11494TIP3   OH234358   5.292   7.904   3.800
11494TIP3    H134359   5.373   7.911   3.748
11494TIP3    H234360   5.236   7.972   3.757
11495TIP3   OH234361   5.874   7.873   4.179
11495TIP3    H134362   5.923   7.790   4.191
11495TIP3    H234363   5.943   7.932   4.144
11496TIP3   OH234364   5.914   8.126   3.913
11496TIP3    H134365   5.858   8.180   3.853
11496TIP3    H234366   6.003   8.146   3.875
11497TIP3   OH234367   5.161   7.680   4.314
11497TIP3    H134368   5.076   7.646   4.346
11497TIP3    H234369   5.136   7.731   4.234
11498TIP3   OH234370   5.393   7.129   3.986
11498TIP3    H134371   5.346   7.209   3.953
11498TIP3    H234372   5.326   7.059   3.972
11499TIP3   OH234373   5.525   7.633   4.209
11499TIP3    H134374   5.546   7.641   4.303
11499TIP3    H234375   5.432   7.658   4.204
11500TIP3   OH234376   5.764   7.587   4.061
11500TIP3    H134377   5.689   7.584   4.123
11500TIP3    H234378   5.838   7.556   4.117
11501TIP3   OH234379   5.987   7.525   4.214
11501TIP3    H134380   6.002   7.430   4.234
11501TIP3    H234381   5.984   7.567   4.303
11502TIP3   OH234382   4.991   7.465   4.386
11502TIP3    H134383   4.975   7.369   4.377
11502TIP3    H234384   5.021   7.469   4.480
11503TIP3   OH234385   5.483   7.162   4.238
11503TIP3    H134386   5.549   7.091   4.252
11503TIP3    H234387   5.452   7.136   4.148
11504TIP3   OH234388   5.567   7.356   4.409
11504TIP3    H134389   5.543   7.284   4.347
11504TIP3    H234390   5.489   7.413   4.410
11505TIP3   OH234391   4.775   8.589   2.508
11505TIP3    H134392   4.870   8.585   2.487
11505TIP3    H234393   4.743   8.634   2.427
11506TIP3   OH234394   4.256   7.968   2.725
11506TIP3    H134395   4.350   7.990   2.711
11506TIP3    H234396   4.250   7.879   2.683
11507TIP3   OH234397   4.168   8.581   3.137
11507TIP3    H134398   4.101   8.518   3.102
11507TIP3    H234399   4.213   8.525   3.203
11508TIP3   OH234400   4.304   8.436   3.324
11508TIP3    H134401   4.295   8.359   3.382
11508TIP3    H234402   4.356   8.495   3.382
11509TIP3   OH234403   6.030   8.842   3.119
11509TIP3    H134404   6.060   8.863   3.209
11509TIP3    H234405   6.103   8.875   3.064
11510TIP3   OH234406   6.060   8.862   3.396
11510TIP3    H134407   6.007   8.781   3.397
11510TIP3    H234408   6.125   8.833   3.466
11511TIP3   OH234409   6.115   8.522   3.990
11511TIP3    H134410   6.037   8.539   4.046
11511TIP3    H234411   6.149   8.612   3.974
11512TIP3   OH234412   5.924   8.044   2.599
11512TIP3    H134413   5.995   8.106   2.573
11512TIP3    H234414   5.965   8.003   2.679
11513TIP3   OH234415   6.051   7.912   2.802
11513TIP3    H134416   5.987   7.868   2.862
11513TIP3    H234417   6.117   7.949   2.864
11514TIP3   OH234418   6.102   8.298   3.240
11514TIP3    H134419   6.159   8.238   3.188
11514TIP3    H234420   6.084   8.369   3.176
11515TIP3   OH234421   5.991   7.819   2.450
11515TIP3    H134422   5.919   7.821   2.383
11515TIP3    H234423   5.964   7.894   2.506
11516TIP3   OH234424   5.859   7.493   2.406
11516TIP3    H134425   5.821   7.528   2.324
11516TIP3    H234426   5.835   7.398   2.398
11517TIP3   OH234427   5.866   7.765   2.949
11517TIP3    H134428   5.876   7.669   2.945
11517TIP3    H234429   5.854   7.781   3.045
11518TIP3   OH234430   4.494   7.840   3.695
11518TIP3    H134431   4.492   7.810   3.602
11518TIP3    H234432   4.591   7.842   3.712
11519TIP3   OH234433   6.155   8.197   3.801
11519TIP3    H134434   6.228   8.132   3.792
11519TIP3    H234435   6.163   8.250   3.720
11520TIP3   OH234436   6.340   8.000   3.826
11520TIP3    H134437   6.266   7.949   3.865
11520TIP3    H234438   6.413   7.936   3.839
11521TIP3   OH234439   5.804   7.228   2.393
11521TIP3    H134440   5.886   7.197   2.438
11521TIP3    H234441   5.738   7.163   2.420
11522TIP3   OH234442   5.862   7.481   2.845
11522TIP3    H134443   5.902   7.393   2.861
11522TIP3    H234444   5.922   7.514   2.776
11523TIP3   OH234445   6.026   7.660   3.339
11523TIP3    H134446   6.112   7.685   3.299
11523TIP3    H234447   6.040   7.696   3.429
11524TIP3   OH234448   6.093   7.801   3.574
11524TIP3    H134449   6.014   7.836   3.619
11524TIP3    H234450   6.126   7.880   3.526
11525TIP3   OH234451   4.714   7.529   4.370
11525TIP3    H134452   4.812   7.523   4.372
11525TIP3    H234453   4.689   7.445   4.412
11526TIP3   OH234454   6.545   7.390   4.129
11526TIP3    H134455   6.603   7.324   4.085
11526TIP3    H234456   6.518   7.446   4.053
11527TIP3   OH234457   5.969   7.232   2.884
11527TIP3    H134458   6.021   7.216   2.966
11527TIP3    H234459   5.912   7.153   2.882
11528TIP3   OH234460   4.673   7.218   3.703
11528TIP3    H134461   4.735   7.143   3.712
11528TIP3    H234462   4.735   7.293   3.696
11529TIP3   OH234463   4.477   7.493   3.777
11529TIP3    H134464   4.524   7.483   3.692
11529TIP3    H234465   4.506   7.581   3.803
11530TIP3   OH234466   6.418   7.533   3.936
11530TIP3    H134467   6.329   7.570   3.955
11530TIP3    H234468   6.392   7.461   3.875
11531TIP3   OH234469   6.052   7.172   2.507
11531TIP3    H134470   6.105   7.095   2.479
11531TIP3    H234471   6.122   7.240   2.508
11532TIP3   OH234472   4.458   7.003   3.281
11532TIP3    H134473   4.363   6.994   3.302
11532TIP3    H234474   4.457   7.056   3.199
11533TIP3   OH234475   5.615   8.704   2.780
11533TIP3    H134476   5.666   8.682   2.699
11533TIP3    H234477   5.676   8.761   2.828
11534TIP3   OH234478   4.680   7.081   4.094
11534TIP3    H134479   4.626   7.071   4.174
11534TIP3    H234480   4.613   7.116   4.032
11535TIP3   OH234481   4.717   8.506   4.169
11535TIP3    H134482   4.627   8.473   4.150
11535TIP3    H234483   4.729   8.481   4.261
11536TIP3   OH234484   4.895   8.534   3.715
11536TIP3    H134485   4.848   8.609   3.675
11536TIP3    H234486   4.982   8.546   3.672
11537TIP3   OH234487   5.343   8.782   3.854
11537TIP3    H134488   5.387   8.781   3.942
11537TIP3    H234489   5.409   8.830   3.800
11538TIP3   OH234490   5.515   8.936   3.707
11538TIP3    H134491   5.585   8.881   3.665
11538TIP3    H234492   5.570   8.987   3.770
11539TIP3   OH234493   6.314   7.295   3.812
11539TIP3    H134494   6.223   7.290   3.777
11539TIP3    H234495   6.344   7.202   3.799
11540TIP3   OH234496   4.574   8.795   3.735
11540TIP3    H134497   4.485   8.830   3.712
11540TIP3    H234498   4.578   8.817   3.828
11541TIP3   OH234499   4.810   8.772   3.595
11541TIP3    H134500   4.724   8.785   3.640
11541TIP3    H234501   4.790   8.803   3.505
11542TIP3   OH234502   5.230   8.804   3.393
11542TIP3    H134503   5.162   8.825   3.327
11542TIP3    H234504   5.244   8.891   3.436
11543TIP3   OH234505   5.494   8.732   3.432
11543TIP3    H134506   5.401   8.759   3.414
11543TIP3    H234507   5.544   8.812   3.411
11544TIP3   OH234508   5.721   8.941   3.358
11544TIP3    H134509   5.701   9.020   3.304
11544TIP3    H234510   5.740   8.873   3.289
11545TIP3   OH234511   4.484   8.587   3.485
11545TIP3    H134512   4.512   8.561   3.575
11545TIP3    H234513   4.556   8.543   3.433
11546TIP3   OH234514   4.677   8.458   3.339
11546TIP3    H134515   4.693   8.373   3.386
11546TIP3    H234516   4.767   8.494   3.334
11547TIP3   OH234517   4.943   8.554   3.341
11547TIP3    H134518   4.975   8.463   3.326
11547TIP3    H234519   4.987   8.574   3.426
11548TIP3   OH234520   5.519   7.209   3.428
11548TIP3    H134521   5.477   7.138   3.480
11548TIP3    H234522   5.591   7.162   3.383
11549TIP3   OH234523   6.044   7.093   3.340
11549TIP3    H134524   6.082   7.141   3.264
11549TIP3    H234525   5.948   7.108   3.328
11550TIP3   OH234526   6.135   7.194   3.103
11550TIP3    H134527   6.206   7.139   3.063
11550TIP3    H234528   6.171   7.284   3.086
11551TIP3   OH234529   4.768   6.918   3.449
11551TIP3    H134530   4.676   6.886   3.443
11551TIP3    H234531   4.817   6.833   3.445
11552TIP3   OH234532   4.561   6.787   3.094
11552TIP3    H134533   4.586   6.846   3.021
11552TIP3    H234534   4.524   6.849   3.159
11553TIP3   OH234535   5.210   6.952   3.326
11553TIP3    H134536   5.270   7.001   3.267
11553TIP3    H234537   5.234   6.988   3.412
11554TIP3   OH234538   5.759   7.096   3.312
11554TIP3    H134539   5.760   7.061   3.222
11554TIP3    H234540   5.745   7.014   3.365
11555TIP3   OH234541   5.788   7.018   2.873
11555TIP3    H134542   5.700   7.058   2.882
11555TIP3    H234543   5.775   6.933   2.919
11556TIP3   OH234544   4.272   8.355   2.875
11556TIP3    H134545   4.188   8.322   2.840
11556TIP3    H234546   4.259   8.450   2.859
11557TIP3   OH234547   4.670   6.949   2.857
11557TIP3    H134548   4.720   6.885   2.802
11557TIP3    H234549   4.743   7.002   2.895
11558TIP3   OH234550   5.184   7.121   2.957
11558TIP3    H134551   5.245   7.074   3.016
11558TIP3    H234552   5.206   7.213   2.982
11559TIP3   OH234553   5.043   8.550   2.454
11559TIP3    H134554   5.133   8.569   2.420
11559TIP3    H234555   5.022   8.473   2.397
11560TIP3   OH234556   5.762   8.664   2.549
11560TIP3    H134557   5.754   8.566   2.536
11560TIP3    H234558   5.719   8.696   2.467
11561TIP3   OH234559   4.998   7.191   4.358
11561TIP3    H134560   4.938   7.130   4.405
11561TIP3    H234561   5.081   7.145   4.373
11562TIP3   OH234562   4.350   8.387   2.514
11562TIP3    H134563   4.348   8.410   2.608
11562TIP3    H234564   4.438   8.344   2.504
11563TIP3   OH234565   6.049   7.255   4.245
11563TIP3    H134566   6.069   7.225   4.336
11563TIP3    H234567   6.137   7.251   4.202
11564TIP3   OH234568   7.257   8.183   2.504
11564TIP3    H134569   7.229   8.275   2.486
11564TIP3    H234570   7.178   8.134   2.475
11565TIP3   OH234571   7.255   8.179   2.881
11565TIP3    H134572   7.284   8.151   2.970
11565TIP3    H234573   7.211   8.099   2.849
11566TIP3   OH234574   6.556   8.076   3.245
11566TIP3    H134575   6.587   8.010   3.310
11566TIP3    H234576   6.629   8.139   3.246
11567TIP3   OH234577   7.496   8.482   2.564
11567TIP3    H134578   7.483   8.414   2.632
11567TIP3    H234579   7.524   8.558   2.618
11568TIP3   OH234580   6.524   8.487   2.972
11568TIP3    H134581   6.514   8.389   2.978
11568TIP3    H234582   6.621   8.494   2.973
11569TIP3   OH234583   6.233   7.694   2.761
11569TIP3    H134584   6.180   7.775   2.773
11569TIP3    H234585   6.165   7.634   2.727
11570TIP3   OH234586   6.293   7.977   2.927
11570TIP3    H134587   6.339   7.900   2.967
11570TIP3    H234588   6.352   7.999   2.854
11571TIP3   OH234589   7.145   8.945   2.579
11571TIP3    H134590   7.194   8.873   2.534
11571TIP3    H234591   7.140   8.913   2.670
11572TIP3   OH234592   7.054   8.406   2.930
11572TIP3    H134593   7.090   8.330   2.884
11572TIP3    H234594   7.138   8.450   2.955
11573TIP3   OH234595   8.065   7.730   2.927
11573TIP3    H134596   8.093   7.809   2.976
11573TIP3    H234597   8.089   7.754   2.836
11574TIP3   OH234598   7.470   7.911   2.965
11574TIP3    H134599   7.507   7.823   2.986
11574TIP3    H234600   7.434   7.896   2.876
11575TIP3   OH234601   6.802   7.567   2.930
11575TIP3    H134602   6.779   7.638   2.867
11575TIP3    H234603   6.756   7.491   2.887
11576TIP3   OH234604   7.494   7.657   2.557
11576TIP3    H134605   7.567   7.641   2.620
11576TIP3    H234606   7.542   7.699   2.483
11577TIP3   OH234607   6.436   7.771   3.037
11577TIP3    H134608   6.519   7.749   3.084
11577TIP3    H234609   6.447   7.713   2.958
11578TIP3   OH234610   6.879   7.969   2.825
11578TIP3    H134611   6.971   7.941   2.843
11578TIP3    H234612   6.837   7.884   2.797
11579TIP3   OH234613   8.138   7.935   3.098
11579TIP3    H134614   8.054   7.982   3.080
11579TIP3    H234615   8.149   7.954   3.192
11580TIP3   OH234616   6.800   7.552   3.365
11580TIP3    H134617   6.739   7.587   3.297
11580TIP3    H234618   6.748   7.570   3.446
11581TIP3   OH234619   7.154   8.407   2.370
11581TIP3    H134620   7.099   8.377   2.297
11581TIP3    H234621   7.109   8.490   2.395
11582TIP3   OH234622   6.907   8.326   3.163
11582TIP3    H134623   6.841   8.389   3.201
11582TIP3    H234624   6.947   8.380   3.092
11583TIP3   OH234625   7.714   7.661   2.720
11583TIP3    H134626   7.697   7.608   2.799
11583TIP3    H234627   7.761   7.738   2.756
11584TIP3   OH234628   6.670   7.666   3.149
11584TIP3    H134629   6.733   7.738   3.171
11584TIP3    H234630   6.718   7.624   3.074
11585TIP3   OH234631   6.732   8.517   3.256
11585TIP3    H134632   6.707   8.604   3.219
11585TIP3    H234633   6.655   8.503   3.315
11586TIP3   OH234634   6.132   8.209   2.494
11586TIP3    H134635   6.088   8.236   2.411
11586TIP3    H234636   6.161   8.295   2.531
11587TIP3   OH234637   7.567   8.720   2.733
11587TIP3    H134638   7.478   8.712   2.775
11587TIP3    H234639   7.557   8.807   2.689
11588TIP3   OH234640   7.857   7.638   3.096
11588TIP3    H134641   7.768   7.660   3.065
11588TIP3    H234642   7.914   7.663   3.021
11589TIP3   OH234643   7.157   7.273   3.076
11589TIP3    H134644   7.147   7.177   3.094
11589TIP3    H234645   7.078   7.308   3.122
11590TIP3   OH234646   7.274   8.772   2.408
11590TIP3    H134647   7.325   8.691   2.386
11590TIP3    H234648   7.332   8.840   2.366
11591TIP3   OH234649   7.417   8.556   2.310
11591TIP3    H134650   7.363   8.480   2.283
11591TIP3    H234651   7.452   8.524   2.396
11592TIP3   OH234652   7.795   8.640   3.077
11592TIP3    H134653   7.784   8.563   3.017
11592TIP3    H234654   7.777   8.715   3.016
11593TIP3   OH234655   7.087   8.033   2.333
11593TIP3    H134656   7.002   8.080   2.315
11593TIP3    H234657   7.124   8.027   2.243
11594TIP3   OH234658   7.046   7.810   2.070
11594TIP3    H134659   7.123   7.855   2.107
11594TIP3    H234660   7.089   7.753   2.005
11595TIP3   OH234661   7.991   8.275   2.920
11595TIP3    H134662   7.908   8.328   2.927
11595TIP3    H234663   8.019   8.299   2.829
11596TIP3   OH234664   7.434   8.114   2.310
11596TIP3    H134665   7.378   8.141   2.387
11596TIP3    H234666   7.517   8.089   2.356
11597TIP3   OH234667   7.669   8.157   3.214
11597TIP3    H134668   7.665   8.241   3.262
11597TIP3    H234669   7.582   8.158   3.170
11598TIP3   OH234670   6.667   8.115   2.720
11598TIP3    H134671   6.624   8.056   2.654
11598TIP3    H234672   6.743   8.060   2.749
11599TIP3   OH234673   6.798   8.528   2.869
11599TIP3    H134674   6.775   8.477   2.790
11599TIP3    H234675   6.888   8.494   2.889
11600TIP3   OH234676   6.809   8.083   3.076
11600TIP3    H134677   6.838   8.066   2.984
11600TIP3    H234678   6.847   8.170   3.096
11601TIP3   OH234679   7.326   8.721   2.853
11601TIP3    H134680   7.313   8.802   2.906
11601TIP3    H234681   7.313   8.649   2.918
11602TIP3   OH234682   6.938   8.641   3.401
11602TIP3    H134683   6.878   8.704   3.447
11602TIP3    H234684   6.872   8.588   3.352
11603TIP3   OH234685   7.286   7.978   2.129
11603TIP3    H134686   7.336   8.027   2.199
11603TIP3    H234687   7.303   8.034   2.053
11604TIP3   OH234688   6.691   8.198   3.499
11604TIP3    H134689   6.696   8.284   3.544
11604TIP3    H234690   6.595   8.182   3.505
11605TIP3   OH234691   7.017   8.653   2.404
11605TIP3    H134692   7.093   8.708   2.429
11605TIP3    H234693   6.953   8.718   2.372
11606TIP3   OH234694   6.731   8.812   3.488
11606TIP3    H134695   6.699   8.806   3.396
11606TIP3    H234696   6.650   8.789   3.539
11607TIP3   OH234697   7.791   7.234   2.177
11607TIP3    H134698   7.716   7.236   2.240
11607TIP3    H234699   7.744   7.235   2.092
11608TIP3   OH234700   6.532   7.957   2.527
11608TIP3    H134701   6.465   7.999   2.470
11608TIP3    H234702   6.494   7.870   2.541
11609TIP3   OH234703   7.587   8.578   1.726
11609TIP3    H134704   7.588   8.675   1.707
11609TIP3    H234705   7.680   8.554   1.709
11610TIP3   OH234706   6.332   8.338   3.412
11610TIP3    H134707   6.246   8.320   3.370
11610TIP3    H234708   6.351   8.255   3.461
11611TIP3   OH234709   6.168   8.539   3.057
11611TIP3    H134710   6.263   8.522   3.058
11611TIP3    H234711   6.160   8.607   3.125
11612TIP3   OH234712   8.030   8.978   3.119
11612TIP3    H134713   8.026   8.883   3.136
11612TIP3    H234714   7.948   9.008   3.164
11613TIP3   OH234715   7.138   8.771   3.257
11613TIP3    H134716   7.138   8.863   3.289
11613TIP3    H234717   7.066   8.732   3.312
11614TIP3   OH234718   6.897   8.901   2.208
11614TIP3    H134719   6.850   8.882   2.125
11614TIP3    H234720   6.864   8.990   2.232
11615TIP3   OH234721   6.336   8.749   2.591
11615TIP3    H134722   6.384   8.740   2.677
11615TIP3    H234723   6.277   8.671   2.596
11616TIP3   OH234724   7.101   8.800   1.850
11616TIP3    H134725   7.159   8.729   1.815
11616TIP3    H234726   7.133   8.809   1.942
11617TIP3   OH234727   7.148   8.845   2.121
11617TIP3    H134728   7.060   8.856   2.164
11617TIP3    H234729   7.200   8.807   2.193
11618TIP3   OH234730   7.923   8.116   3.396
11618TIP3    H134731   7.843   8.131   3.343
11618TIP3    H234732   7.937   8.020   3.383
11619TIP3   OH234733   6.523   8.527   3.425
11619TIP3    H134734   6.568   8.505   3.509
11619TIP3    H234735   6.446   8.467   3.427
11620TIP3   OH234736   6.917   7.348   3.205
11620TIP3    H134737   6.829   7.313   3.179
11620TIP3    H234738   6.890   7.429   3.251
11621TIP3   OH234739   7.450   7.465   3.400
11621TIP3    H134740   7.519   7.431   3.460
11621TIP3    H234741   7.367   7.439   3.446
11622TIP3   OH234742   7.695   7.893   3.322
11622TIP3    H134743   7.643   7.888   3.405
11622TIP3    H234744   7.665   7.978   3.283
11623TIP3   OH234745   7.066   7.396   2.177
11623TIP3    H134746   7.031   7.393   2.268
11623TIP3    H234747   7.026   7.314   2.142
11624TIP3   OH234748   6.851   7.861   3.226
11624TIP3    H134749   6.798   7.881   3.306
11624TIP3    H234750   6.834   7.941   3.172
11625TIP3   OH234751   6.732   7.749   2.739
11625TIP3    H134752   6.640   7.720   2.757
11625TIP3    H234753   6.746   7.708   2.651
11626TIP3   OH234754   7.226   7.837   2.469
11626TIP3    H134755   7.170   7.906   2.428
11626TIP3    H234756   7.276   7.804   2.391
11627TIP3   OH234757   7.397   8.115   3.556
11627TIP3    H134758   7.373   8.041   3.616
11627TIP3    H234759   7.492   8.124   3.575
11628TIP3   OH234760   7.384   7.865   2.706
11628TIP3    H134761   7.322   7.894   2.636
11628TIP3    H234762   7.412   7.780   2.666
11629TIP3   OH234763   6.670   7.891   3.434
11629TIP3    H134764   6.690   7.956   3.504
11629TIP3    H234765   6.657   7.809   3.485
11630TIP3   OH234766   6.721   7.372   2.144
11630TIP3    H134767   6.714   7.364   2.241
11630TIP3    H234768   6.635   7.412   2.122
11631TIP3   OH234769   6.258   7.420   3.018
11631TIP3    H134770   6.340   7.443   3.066
11631TIP3    H234771   6.289   7.380   2.935
11632TIP3   OH234772   6.237   7.394   2.534
11632TIP3    H134773   6.285   7.432   2.457
11632TIP3    H234774   6.178   7.468   2.556
11633TIP3   OH234775   7.395   8.111   3.130
11633TIP3    H134776   7.426   8.038   3.071
11633TIP3    H234777   7.364   8.059   3.207
11634TIP3   OH234778   7.061   7.577   2.802
11634TIP3    H134779   6.976   7.568   2.850
11634TIP3    H234780   7.125   7.568   2.874
11635TIP3   OH234781   6.496   7.624   2.809
11635TIP3    H134782   6.401   7.630   2.783
11635TIP3    H234783   6.518   7.531   2.787
11636TIP3   OH234784   6.767   7.627   2.497
11636TIP3    H134785   6.861   7.636   2.472
11636TIP3    H234786   6.719   7.647   2.413
11637TIP3   OH234787   7.550   7.646   3.000
11637TIP3    H134788   7.516   7.657   3.092
11637TIP3    H234789   7.485   7.581   2.966
11638TIP3   OH234790   6.601   7.660   2.278
11638TIP3    H134791   6.528   7.612   2.235
11638TIP3    H234792   6.652   7.689   2.200
11639TIP3   OH234793   7.701   9.328   3.209
11639TIP3    H134794   7.707   9.357   3.117
11639TIP3    H234795   7.784   9.368   3.243
11640TIP3   OH234796   6.682   8.442   3.644
11640TIP3    H134797   6.760   8.476   3.693
11640TIP3    H234798   6.615   8.444   3.715
11641TIP3   OH234799   7.146   7.901   2.901
11641TIP3    H134800   7.211   7.851   2.850
11641TIP3    H234801   7.151   7.858   2.988
11642TIP3   OH234802   6.671   7.382   2.775
11642TIP3    H134803   6.638   7.301   2.819
11642TIP3    H234804   6.722   7.344   2.702
11643TIP3   OH234805   7.121   7.795   3.184
11643TIP3    H134806   7.030   7.828   3.201
11643TIP3    H234807   7.177   7.854   3.239
11644TIP3   OH234808   6.859   8.186   2.282
11644TIP3    H134809   6.786   8.120   2.272
11644TIP3    H234810   6.840   8.220   2.374
11645TIP3   OH234811   7.760   8.421   2.913
11645TIP3    H134812   7.782   8.470   2.831
11645TIP3    H234813   7.673   8.382   2.890
11646TIP3   OH234814   7.313   7.501   2.145
11646TIP3    H134815   7.217   7.478   2.153
11646TIP3    H234816   7.316   7.596   2.169
11647TIP3   OH234817   7.259   8.505   3.280
11647TIP3    H134818   7.274   8.480   3.372
11647TIP3    H234819   7.219   8.593   3.287
11648TIP3   OH234820   7.383   7.747   2.249
11648TIP3    H134821   7.478   7.753   2.267
11648TIP3    H234822   7.366   7.825   2.192
11649TIP3   OH234823   6.551   8.209   2.960
11649TIP3    H134824   6.589   8.178   2.876
11649TIP3    H234825   6.582   8.142   3.023
11650TIP3   OH234826   6.999   8.335   2.098
11650TIP3    H134827   6.954   8.422   2.108
11650TIP3    H234828   6.947   8.280   2.161
11651TIP3   OH234829   6.425   8.129   3.575
11651TIP3    H134830   6.445   8.111   3.669
11651TIP3    H234831   6.357   8.062   3.554
11652TIP3   OH234832   7.152   8.241   3.593
11652TIP3    H134833   7.092   8.183   3.543
11652TIP3    H234834   7.240   8.208   3.564
11653TIP3   OH234835   7.418   8.760   3.176
11653TIP3    H134836   7.322   8.761   3.187
11653TIP3    H234837   7.446   8.814   3.253
11654TIP3   OH234838   7.824   7.796   2.090
11654TIP3    H134839   7.755   7.783   2.020
11654TIP3    H234840   7.857   7.881   2.056
11655TIP3   OH234841   8.044   8.688   3.167
11655TIP3    H134842   7.946   8.686   3.160
11655TIP3    H234843   8.068   8.660   3.076
11656TIP3   OH234844   7.515   8.652   1.987
11656TIP3    H134845   7.507   8.585   2.056
11656TIP3    H234846   7.540   8.602   1.907
11657TIP3   OH234847   7.523   8.284   2.833
11657TIP3    H134848   7.430   8.257   2.846
11657TIP3    H234849   7.557   8.204   2.788
11658TIP3   OH234850   6.648   8.508   2.579
11658TIP3    H134851   6.649   8.592   2.530
11658TIP3    H234852   6.554   8.496   2.595
11659TIP3   OH234853   6.210   7.818   2.284
11659TIP3    H134854   6.259   7.899   2.307
11659TIP3    H234855   6.134   7.822   2.346
11660TIP3   OH234856   6.794   8.279   2.528
11660TIP3    H134857   6.755   8.367   2.546
11660TIP3    H234858   6.756   8.227   2.602
11661TIP3   OH234859   6.919   8.856   3.053
11661TIP3    H134860   6.960   8.928   3.002
11661TIP3    H234861   6.995   8.822   3.103
11662TIP3   OH234862   6.570   8.750   2.436
11662TIP3    H134863   6.484   8.757   2.482
11662TIP3    H234864   6.601   8.843   2.440
11663TIP3   OH234865   7.309   8.489   3.011
11663TIP3    H134866   7.301   8.488   3.109
11663TIP3    H234867   7.390   8.436   2.999
11664TIP3   OH234868   7.277   8.365   1.895
11664TIP3    H134869   7.332   8.348   1.975
11664TIP3    H234870   7.188   8.359   1.933
11665TIP3   OH234871   7.557   9.022   3.060
11665TIP3    H134872   7.477   8.968   3.051
11665TIP3    H234873   7.543   9.091   2.991
11666TIP3   OH234874   7.603   8.854   1.701
11666TIP3    H134875   7.649   8.923   1.651
11666TIP3    H234876   7.530   8.906   1.740
11667TIP3   OH234877   6.642   7.635   3.583
11667TIP3    H134878   6.546   7.638   3.594
11667TIP3    H234879   6.669   7.571   3.650
11668TIP3   OH234880   7.439   8.305   2.107
11668TIP3    H134881   7.433   8.249   2.186
11668TIP3    H234882   7.537   8.312   2.098
11669TIP3   OH234883   6.361   8.720   3.211
11669TIP3    H134884   6.402   8.639   3.243
11669TIP3    H234885   6.378   8.779   3.286
11670TIP3   OH234886   6.659   8.359   1.892
11670TIP3    H134887   6.657   8.266   1.863
11670TIP3    H234888   6.635   8.351   1.987
11671TIP3   OH234889   6.596   8.368   2.162
11671TIP3    H134890   6.659   8.338   2.229
11671TIP3    H234891   6.600   8.465   2.172
11672TIP3   OH234892   6.331   8.062   2.368
11672TIP3    H134893   6.265   8.105   2.427
11672TIP3    H234894   6.344   8.133   2.303
11673TIP3   OH234895   7.477   7.700   3.261
11673TIP3    H134896   7.560   7.731   3.301
11673TIP3    H234897   7.460   7.618   3.312
11674TIP3   OH234898   7.360   7.450   2.423
11674TIP3    H134899   7.340   7.473   2.330
11674TIP3    H234900   7.393   7.534   2.460
11675TIP3   OH234901   6.860   8.566   2.112
11675TIP3    H134902   6.774   8.593   2.151
11675TIP3    H234903   6.876   8.642   2.054
11676TIP3   OH234904   7.052   7.628   2.529
11676TIP3    H134905   7.116   7.701   2.514
11676TIP3    H234906   7.052   7.622   2.627
11677TIP3   OH234907   7.317   7.949   3.335
11677TIP3    H134908   7.334   8.001   3.416
11677TIP3    H234909   7.371   7.869   3.349
11678TIP3   OH234910   7.197   7.361   2.636
11678TIP3    H134911   7.186   7.440   2.691
11678TIP3    H234912   7.255   7.395   2.564
11679TIP3   OH234913   6.602   8.640   2.181
11679TIP3    H134914   6.572   8.710   2.119
11679TIP3    H234915   6.585   8.684   2.268
11680TIP3   OH234916   6.703   7.354   2.419
11680TIP3    H134917   6.704   7.443   2.459
11680TIP3    H234918   6.798   7.330   2.429
11681TIP3   OH234919   7.961   7.849   3.314
11681TIP3    H134920   7.863   7.849   3.324
11681TIP3    H234921   7.967   7.799   3.231
11682TIP3   OH234922   7.609   8.043   2.704
11682TIP3    H134923   7.532   7.985   2.719
11682TIP3    H234924   7.679   7.996   2.754
11683TIP3   OH234925   6.320   8.273   2.175
11683TIP3    H134926   6.382   8.347   2.184
11683TIP3    H234927   6.368   8.221   2.108
11684TIP3   OH234928   6.270   7.549   2.307
11684TIP3    H134929   6.261   7.646   2.301
11684TIP3    H234930   6.186   7.518   2.270
11685TIP3   OH234931   7.550   8.986   2.654
11685TIP3    H134932   7.510   9.035   2.580
11685TIP3    H234933   7.644   9.008   2.636
11686TIP3   OH234934   6.651   7.266   3.183
11686TIP3    H134935   6.625   7.228   3.096
11686TIP3    H234936   6.642   7.188   3.241
11687TIP3   OH234937   6.196   8.488   2.565
11687TIP3    H134938   6.121   8.516   2.619
11687TIP3    H234939   6.171   8.526   2.478
11688TIP3   OH234940   6.347   9.028   3.632
11688TIP3    H134941   6.433   9.020   3.679
11688TIP3    H234942   6.320   8.934   3.630
11689TIP3   OH234943   6.832   8.994   3.677
11689TIP3    H134944   6.926   8.972   3.685
11689TIP3    H234945   6.806   8.935   3.604
11690TIP3   OH234946   6.812   8.570   1.806
11690TIP3    H134947   6.758   8.498   1.846
11690TIP3    H234948   6.886   8.519   1.769
11691TIP3   OH234949   7.469   8.897   3.410
11691TIP3    H134950   7.461   8.828   3.479
11691TIP3    H234951   7.546   8.949   3.441
11692TIP3   OH234952   7.248   8.607   1.717
11692TIP3    H134953   7.306   8.555   1.774
11692TIP3    H234954   7.300   8.612   1.634
11693TIP3   OH234955   6.479   8.432   3.833
11693TIP3    H134956   6.495   8.336   3.832
11693TIP3    H234957   6.387   8.437   3.803
11694TIP3   OH234958   6.459   8.086   2.022
11694TIP3    H134959   6.507   8.048   2.098
11694TIP3    H234960   6.531   8.088   1.956
11695TIP3   OH234961   7.088   8.516   3.607
11695TIP3    H134962   7.044   8.531   3.521
11695TIP3    H234963   7.117   8.423   3.600
11696TIP3   OH234964   6.975   8.266   1.834
11696TIP3    H134965   6.976   8.294   1.928
11696TIP3    H234966   6.914   8.191   1.838
11697TIP3   OH234967   7.581   8.522   3.213
11697TIP3    H134968   7.653   8.571   3.169
11697TIP3    H234969   7.508   8.586   3.203
11698TIP3   OH234970   6.596   8.165   3.817
11698TIP3    H134971   6.670   8.107   3.796
11698TIP3    H234972   6.622   8.198   3.906
11699TIP3   OH234973   6.668   7.987   2.251
11699TIP3    H134974   6.637   7.945   2.334
11699TIP3    H234975   6.700   7.910   2.201
11700TIP3   OH234976   6.934   8.054   3.481
11700TIP3    H134977   6.855   8.111   3.483
11700TIP3    H234978   6.979   8.085   3.399
11701TIP3   OH234979   6.763   7.781   2.091
11701TIP3    H134980   6.739   7.774   1.997
11701TIP3    H234981   6.861   7.787   2.085
11702TIP3   OH234982   7.449   8.454   3.613
11702TIP3    H134983   7.529   8.433   3.563
11702TIP3    H234984   7.447   8.383   3.680
11703TIP3   OH234985   7.595   8.112   1.752
11703TIP3    H134986   7.578   8.065   1.670
11703TIP3    H234987   7.559   8.201   1.730
11704TIP3   OH234988   7.058   7.839   3.605
11704TIP3    H134989   7.056   7.758   3.549
11704TIP3    H234990   7.013   7.904   3.547
11705TIP3   OH234991   7.058   7.627   3.411
11705TIP3    H134992   7.085   7.664   3.324
11705TIP3    H234993   6.965   7.602   3.393
11706TIP3   OH234994   7.090   8.164   3.285
11706TIP3    H134995   7.169   8.168   3.230
11706TIP3    H234996   7.032   8.230   3.242
11707TIP3   OH234997   7.679   8.128   3.678
11707TIP3    H134998   7.719   8.041   3.661
11707TIP3    H234999   7.741   8.188   3.633
11708TIP3   OH235000   7.710   8.381   3.403
11708TIP3    H135001   7.651   8.434   3.344
11708TIP3    H235002   7.797   8.400   3.362
11709TIP3   OH235003   6.935   7.953   3.834
11709TIP3    H135004   6.865   7.886   3.847
11709TIP3    H235005   6.969   7.929   3.745
11710TIP3   OH235006   7.191   7.391   3.478
11710TIP3    H135007   7.142   7.473   3.454
11710TIP3    H235008   7.123   7.323   3.465
11711TIP3   OH235009   7.316   7.896   3.694
11711TIP3    H135010   7.301   7.883   3.790
11711TIP3    H235011   7.227   7.870   3.661
11712TIP3   OH235012   7.560   7.851   3.552
11712TIP3    H135013   7.480   7.845   3.608
11712TIP3    H235014   7.628   7.810   3.608
11713TIP3   OH235015   7.793   7.787   3.705
11713TIP3    H135016   7.800   7.689   3.718
11713TIP3    H235017   7.784   7.820   3.796
11714TIP3   OH235018   6.773   7.734   3.885
11714TIP3    H135019   6.779   7.644   3.848
11714TIP3    H235020   6.808   7.719   3.975
11715TIP3   OH235021   7.286   7.400   3.735
11715TIP3    H135022   7.354   7.331   3.730
11715TIP3    H235023   7.246   7.393   3.646
11716TIP3   OH235024   7.352   7.615   3.892
11716TIP3    H135025   7.330   7.543   3.829
11716TIP3    H235026   7.274   7.673   3.885
11717TIP3   OH235027   6.570   8.842   1.993
11717TIP3    H135028   6.666   8.842   1.974
11717TIP3    H235029   6.539   8.890   1.914
11718TIP3   OH235030   6.051   8.225   2.210
11718TIP3    H135031   6.146   8.246   2.198
11718TIP3    H235032   6.046   8.136   2.169
11719TIP3   OH235033   5.963   8.837   2.625
11719TIP3    H135034   5.897   8.773   2.591
11719TIP3    H235035   6.009   8.781   2.692
11720TIP3   OH235036   6.101   8.692   2.812
11720TIP3    H135037   6.094   8.615   2.871
11720TIP3    H235038   6.151   8.752   2.869
11721TIP3   OH235039   7.787   9.093   2.606
11721TIP3    H135040   7.822   9.111   2.695
11721TIP3    H235041   7.856   9.137   2.554
11722TIP3   OH235042   7.863   9.105   2.882
11722TIP3    H135043   7.820   9.017   2.886
11722TIP3    H235044   7.938   9.088   2.941
11723TIP3   OH235045   7.907   8.785   3.466
11723TIP3    H135046   7.831   8.794   3.527
11723TIP3    H235047   7.946   8.874   3.469
11724TIP3   OH235048   7.720   8.301   2.087
11724TIP3    H135049   7.791   8.362   2.059
11724TIP3    H235050   7.763   8.259   2.165
11725TIP3   OH235051   7.849   8.164   2.288
11725TIP3    H135052   7.783   8.125   2.350
11725TIP3    H235053   7.913   8.206   2.347
11726TIP3   OH235054   7.901   8.557   2.721
11726TIP3    H135055   7.955   8.496   2.666
11726TIP3    H235056   7.891   8.634   2.662
11727TIP3   OH235057   7.734   8.857   2.917
11727TIP3    H135058   7.665   8.902   2.969
11727TIP3    H235059   7.681   8.809   2.850
11728TIP3   OH235060   7.788   8.070   1.941
11728TIP3    H135061   7.717   8.075   1.873
11728TIP3    H235062   7.762   8.148   1.995
11729TIP3   OH235063   7.648   7.749   1.894
11729TIP3    H135064   7.637   7.783   1.804
11729TIP3    H235065   7.624   7.655   1.883
11730TIP3   OH235066   7.665   8.021   2.438
11730TIP3    H135067   7.666   7.924   2.441
11730TIP3    H235068   7.650   8.043   2.533
11731TIP3   OH235069   6.290   8.092   3.182
11731TIP3    H135070   6.289   8.065   3.088
11731TIP3    H235071   6.386   8.098   3.199
11732TIP3   OH235072   7.951   8.446   3.293
11732TIP3    H135073   8.025   8.382   3.284
11732TIP3    H235074   7.977   8.517   3.233
11733TIP3   OH235075   8.139   8.255   3.312
11733TIP3    H135076   8.064   8.205   3.351
11733TIP3    H235077   8.211   8.190   3.325
11734TIP3   OH235078   7.610   7.477   1.912
11734TIP3    H135079   7.661   7.399   1.886
11734TIP3    H235080   7.519   7.441   1.910
11735TIP3   OH235081   7.653   7.742   2.337
11735TIP3    H135082   7.697   7.656   2.357
11735TIP3    H235083   7.713   7.782   2.273
11736TIP3   OH235084   7.822   7.913   2.825
11736TIP3    H135085   7.909   7.941   2.787
11736TIP3    H235086   7.833   7.949   2.916
11737TIP3   OH235087   7.888   8.057   3.059
11737TIP3    H135088   7.810   8.090   3.107
11737TIP3    H235089   7.920   8.138   3.014
11738TIP3   OH235090   6.505   7.785   3.859
11738TIP3    H135091   6.603   7.778   3.857
11738TIP3    H235092   6.482   7.700   3.900
11739TIP3   OH235093   8.341   7.648   3.617
11739TIP3    H135094   8.399   7.581   3.574
11739TIP3    H235095   8.314   7.703   3.541
11740TIP3   OH235096   7.775   7.492   2.349
11740TIP3    H135097   7.823   7.478   2.434
11740TIP3    H235098   7.711   7.417   2.356
11741TIP3   OH235099   6.469   7.475   3.193
11741TIP3    H135100   6.530   7.398   3.198
11741TIP3    H235101   6.532   7.548   3.184
11742TIP3   OH235102   6.272   7.750   3.263
11742TIP3    H135103   6.321   7.740   3.179
11742TIP3    H235104   6.299   7.839   3.289
11743TIP3   OH235105   8.212   7.788   3.423
11743TIP3    H135106   8.122   7.826   3.434
11743TIP3    H235107   8.191   7.715   3.362
11744TIP3   OH235108   6.254   7.276   2.778
11744TIP3    H135109   6.161   7.253   2.787
11744TIP3    H235110   6.258   7.312   2.686
11745TIP3   OH235111   7.411   8.957   2.268
11745TIP3    H135112   7.463   8.939   2.186
11745TIP3    H235113   7.468   9.018   2.315
11746TIP3   OH235114   6.475   7.336   3.580
11746TIP3    H135115   6.422   7.329   3.661
11746TIP3    H235116   6.409   7.370   3.517
11747TIP3   OH235117   6.504   8.756   3.653
11747TIP3    H135118   6.417   8.713   3.629
11747TIP3    H235119   6.507   8.738   3.747
11748TIP3   OH235120   6.694   8.789   3.203
11748TIP3    H135121   6.642   8.862   3.165
11748TIP3    H235122   6.779   8.806   3.157
11749TIP3   OH235123   7.139   9.037   3.339
11749TIP3    H135124   7.181   9.038   3.428
11749TIP3    H235125   7.206   9.087   3.287
11750TIP3   OH235126   7.318   9.187   3.196
11750TIP3    H135127   7.391   9.137   3.157
11750TIP3    H235128   7.367   9.246   3.258
11751TIP3   OH235129   8.111   7.550   3.299
11751TIP3    H135130   8.018   7.538   3.269
11751TIP3    H235131   8.144   7.458   3.286
11752TIP3   OH235132   6.371   9.056   3.220
11752TIP3    H135133   6.282   9.091   3.200
11752TIP3    H235134   6.374   9.067   3.315
11753TIP3   OH235135   6.607   9.028   3.081
11753TIP3    H135136   6.521   9.041   3.127
11753TIP3    H235137   6.585   9.060   2.991
11754TIP3   OH235138   7.033   9.059   2.878
11754TIP3    H135139   6.962   9.079   2.814
11754TIP3    H235140   7.045   9.145   2.922
11755TIP3   OH235141   7.300   8.995   2.931
11755TIP3    H135142   7.206   9.013   2.911
11755TIP3    H235143   7.343   9.072   2.890
11756TIP3   OH235144   7.504   9.189   2.846
11756TIP3    H135145   7.496   9.275   2.800
11756TIP3    H235146   7.527   9.129   2.773
11757TIP3   OH235147   6.281   8.844   2.972
11757TIP3    H135148   6.309   8.816   3.062
11757TIP3    H235149   6.351   8.799   2.920
11758TIP3   OH235150   6.473   8.714   2.824
11758TIP3    H135151   6.487   8.630   2.874
11758TIP3    H235152   6.564   8.751   2.822
11759TIP3   OH235153   6.740   8.810   2.827
11759TIP3    H135154   6.771   8.718   2.816
11759TIP3    H235155   6.781   8.831   2.912
11760TIP3   OH235156   7.317   7.466   2.918
11760TIP3    H135157   7.270   7.399   2.971
11760TIP3    H235158   7.382   7.413   2.870
11761TIP3   OH235159   7.841   7.347   2.812
11761TIP3    H135160   7.869   7.403   2.737
11761TIP3    H235161   7.744   7.360   2.813
11762TIP3   OH235162   7.930   7.453   2.573
11762TIP3    H135163   8.005   7.395   2.548
11762TIP3    H235164   7.971   7.541   2.566
11763TIP3   OH235165   6.573   7.160   2.937
11763TIP3    H135166   6.479   7.132   2.934
11763TIP3    H235167   6.613   7.082   2.892
11764TIP3   OH235168   6.308   7.050   2.557
11764TIP3    H135169   6.378   7.092   2.504
11764TIP3    H235170   6.329   7.080   2.646
11765TIP3   OH235171   7.004   7.217   2.807
11765TIP3    H135172   7.074   7.263   2.758
11765TIP3    H235173   7.026   7.238   2.899
11766TIP3   OH235174   7.562   7.353   2.795
11766TIP3    H135175   7.548   7.313   2.708
11766TIP3    H235176   7.546   7.275   2.854
11767TIP3   OH235177   7.589   7.277   2.360
11767TIP3    H135178   7.499   7.315   2.369
11767TIP3    H235179   7.575   7.192   2.408
11768TIP3   OH235180   6.069   8.612   2.361
11768TIP3    H135181   5.985   8.578   2.326
11768TIP3    H235182   6.056   8.707   2.348
11769TIP3   OH235183   6.469   7.213   2.335
11769TIP3    H135184   6.516   7.140   2.289
11769TIP3    H235185   6.543   7.259   2.379
11770TIP3   OH235186   6.981   7.378   2.441
11770TIP3    H135187   7.032   7.325   2.504
11770TIP3    H235188   7.007   7.469   2.471
11771TIP3   OH235189   6.840   8.806   1.943
11771TIP3    H135190   6.929   8.827   1.907
11771TIP3    H235191   6.818   8.731   1.884
11772TIP3   OH235192   7.551   8.916   2.034
11772TIP3    H135193   7.541   8.819   2.020
11772TIP3    H235194   7.512   8.951   1.952
11773TIP3   OH235195   6.772   7.457   3.827
11773TIP3    H135196   6.740   7.385   3.883
11773TIP3    H235197   6.867   7.457   3.850
11774TIP3   OH235198   7.022   7.454   3.944
11774TIP3    H135199   7.105   7.426   3.901
11774TIP3    H235200   7.010   7.382   4.010
11775TIP3   OH235201   6.145   8.643   2.002
11775TIP3    H135202   6.143   8.666   2.096
11775TIP3    H235203   6.233   8.601   1.991
11776TIP3   OH235204   7.847   7.517   3.732
11776TIP3    H135205   7.866   7.482   3.821
11776TIP3    H235206   7.933   7.508   3.687
11777TIP3   OH235207   7.787   9.066   3.222
11777TIP3    H135208   7.707   9.034   3.176
11777TIP3    H235209   7.769   9.162   3.221
11778TIP3   OH235210   8.353   8.326   2.733
11778TIP3    H135211   8.384   8.267   2.804
11778TIP3    H235212   8.416   8.399   2.740
11779TIP3   OH235213   8.310   8.711   2.443
11779TIP3    H135214   8.321   8.615   2.457
11779TIP3    H235215   8.388   8.750   2.486
11780TIP3   OH235216   8.027   7.945   2.247
11780TIP3    H135217   7.986   8.032   2.263
11780TIP3    H235218   7.951   7.894   2.219
11781TIP3   OH235219   8.088   8.232   2.412
11781TIP3    H135220   8.139   8.158   2.452
11781TIP3    H235221   8.150   8.266   2.346
11782TIP3   OH235222   8.589   7.824   2.420
11782TIP3    H135223   8.578   7.897   2.355
11782TIP3    H235224   8.545   7.751   2.372
11783TIP3   OH235225   8.234   8.028   2.524
11783TIP3    H135226   8.316   8.007   2.572
11783TIP3    H235227   8.248   7.973   2.444
11784TIP3   OH235228   8.672   8.236   2.319
11784TIP3    H135229   8.767   8.214   2.309
11784TIP3    H235230   8.631   8.153   2.287
11785TIP3   OH235231   8.594   7.806   2.850
11785TIP3    H135232   8.532   7.842   2.784
11785TIP3    H235233   8.544   7.824   2.933
11786TIP3   OH235234   8.465   7.925   2.638
11786TIP3    H135235   8.531   7.994   2.658
11786TIP3    H235236   8.511   7.881   2.562
11787TIP3   OH235237   7.926   8.461   1.979
11787TIP3    H135238   7.876   8.496   1.903
11787TIP3    H235239   7.948   8.543   2.027
11788TIP3   OH235240   8.946   7.517   2.567
11788TIP3    H135241   8.939   7.422   2.592
11788TIP3    H235242   8.869   7.554   2.616
11789TIP3   OH235243   8.436   8.346   2.224
11789TIP3    H135244   8.405   8.310   2.138
11789TIP3    H235245   8.529   8.317   2.224
11790TIP3   OH235246   8.605   8.352   2.560
11790TIP3    H135247   8.607   8.317   2.469
11790TIP3    H235248   8.599   8.448   2.544
11791TIP3   OH235249   8.484   8.455   2.981
11791TIP3    H135250   8.493   8.537   3.034
11791TIP3    H235251   8.389   8.436   2.996
11792TIP3   OH235252   8.329   8.212   2.004
11792TIP3    H135253   8.262   8.257   1.949
11792TIP3    H235254   8.287   8.127   2.020
11793TIP3   OH235255   8.102   8.590   2.921
11793TIP3    H135256   8.036   8.570   2.851
11793TIP3    H235257   8.138   8.501   2.944
11794TIP3   OH235258   7.966   8.788   2.557
11794TIP3    H135259   8.060   8.780   2.533
11794TIP3    H235260   7.966   8.864   2.617
11795TIP3   OH235261   8.306   8.767   2.909
11795TIP3    H135262   8.342   8.759   2.998
11795TIP3    H235263   8.238   8.697   2.908
11796TIP3   OH235264   8.711   7.601   2.693
11796TIP3    H135265   8.620   7.573   2.670
11796TIP3    H235266   8.691   7.686   2.737
11797TIP3   OH235267   9.246   7.711   2.876
11797TIP3    H135268   9.318   7.693   2.940
11797TIP3    H235269   9.166   7.701   2.932
11798TIP3   OH235270   8.850   7.639   1.667
11798TIP3    H135271   8.814   7.646   1.757
11798TIP3    H235272   8.803   7.559   1.635
11799TIP3   OH235273   8.641   8.126   2.713
11799TIP3    H135274   8.582   8.137   2.792
11799TIP3    H235275   8.620   8.206   2.661
11800TIP3   OH235276   8.532   8.009   2.228
11800TIP3    H135277   8.438   7.983   2.241
11800TIP3    H235278   8.549   7.972   2.139
11801TIP3   OH235279   8.472   8.150   2.927
11801TIP3    H135280   8.475   8.209   3.004
11801TIP3    H235281   8.458   8.063   2.971
11802TIP3   OH235282   8.509   7.621   1.636
11802TIP3    H135283   8.501   7.620   1.733
11802TIP3    H235284   8.429   7.670   1.610
11803TIP3   OH235285   8.071   7.669   2.486
11803TIP3    H135286   8.119   7.711   2.561
11803TIP3    H235287   8.146   7.642   2.432
11804TIP3   OH235288   8.838   7.841   2.288
11804TIP3    H135289   8.765   7.829   2.351
11804TIP3    H235290   8.915   7.815   2.342
11805TIP3   OH235291   8.292   7.883   2.298
11805TIP3    H135292   8.199   7.889   2.267
11805TIP3    H235293   8.322   7.795   2.268
11806TIP3   OH235294   8.561   7.877   1.986
11806TIP3    H135295   8.654   7.901   1.970
11806TIP3    H235296   8.517   7.902   1.902
11807TIP3   OH235297   8.396   7.904   1.765
11807TIP3    H135298   8.317   7.859   1.732
11807TIP3    H235299   8.428   7.943   1.683
11808TIP3   OH235300   8.489   8.685   3.142
11808TIP3    H135301   8.518   8.778   3.137
11808TIP3    H235302   8.422   8.689   3.213
11809TIP3   OH235303   8.457   7.644   2.258
11809TIP3    H135304   8.438   7.560   2.303
11809TIP3    H235305   8.518   7.617   2.188
11810TIP3   OH235306   8.913   8.030   2.694
11810TIP3    H135307   8.832   8.082   2.680
11810TIP3    H235308   8.983   8.097   2.695
11811TIP3   OH235309   8.345   8.443   2.458
11811TIP3    H135310   8.372   8.413   2.368
11811TIP3    H235311   8.374   8.370   2.514
11812TIP3   OH235312   8.227   8.380   3.057
11812TIP3    H135313   8.247   8.369   3.152
11812TIP3    H235314   8.155   8.316   3.044
11813TIP3   OH235315   8.008   8.072   1.772
11813TIP3    H135316   8.055   8.156   1.791
11813TIP3    H235317   7.932   8.079   1.835
11814TIP3   OH235318   8.438   7.893   3.067
11814TIP3    H135319   8.341   7.895   3.082
11814TIP3    H235320   8.468   7.831   3.136
11815TIP3   OH235321   8.143   8.960   2.767
11815TIP3    H135322   8.177   8.879   2.810
11815TIP3    H235323   8.196   9.025   2.816
11816TIP3   OH235324   8.129   8.319   1.848
11816TIP3    H135325   8.068   8.373   1.904
11816TIP3    H235326   8.192   8.386   1.816
11817TIP3   OH235327   8.843   7.878   2.017
11817TIP3    H135328   8.925   7.927   2.003
11817TIP3    H235329   8.841   7.876   2.116
11818TIP3   OH235330   8.984   7.621   2.123
11818TIP3    H135331   8.974   7.679   2.201
11818TIP3    H235332   9.048   7.676   2.074
11819TIP3   OH235333   8.497   7.609   1.912
11819TIP3    H135334   8.500   7.702   1.943
11819TIP3    H235335   8.592   7.588   1.918
11820TIP3   OH235336   8.061   7.801   1.805
11820TIP3    H135337   8.056   7.897   1.793
11820TIP3    H235338   7.988   7.769   1.750
11821TIP3   OH235339   8.444   7.525   2.670
11821TIP3    H135340   8.416   7.487   2.584
11821TIP3    H235341   8.440   7.446   2.729
11822TIP3   OH235342   7.958   8.716   2.069
11822TIP3    H135343   7.894   8.779   2.104
11822TIP3    H235344   7.975   8.753   1.981
11823TIP3   OH235345   8.131   9.241   3.170
11823TIP3    H135346   8.224   9.252   3.144
11823TIP3    H235347   8.110   9.154   3.133
11824TIP3   OH235348   8.276   8.686   3.320
11824TIP3    H135349   8.288   8.590   3.328
11824TIP3    H235350   8.188   8.691   3.276
11825TIP3   OH235351   8.397   8.414   3.302
11825TIP3    H135352   8.470   8.352   3.290
11825TIP3    H235353   8.418   8.453   3.389
11826TIP3   OH235354   8.441   8.204   1.711
11826TIP3    H135355   8.417   8.181   1.802
11826TIP3    H235356   8.516   8.144   1.692
11827TIP3   OH235357   8.736   8.348   2.956
11827TIP3    H135358   8.645   8.383   2.967
11827TIP3    H235359   8.730   8.301   2.871
11828TIP3   OH235360   8.832   8.082   3.093
11828TIP3    H135361   8.845   8.001   3.039
11828TIP3    H235362   8.827   8.151   3.025
11829TIP3   OH235363   8.850   7.875   2.906
11829TIP3    H135364   8.882   7.919   2.824
11829TIP3    H235365   8.758   7.853   2.882
11830TIP3   OH235366   8.711   8.212   3.300
11830TIP3    H135367   8.650   8.139   3.323
11830TIP3    H235368   8.756   8.172   3.222
11831TIP3   OH235369   8.985   7.645   2.967
11831TIP3    H135370   8.938   7.728   2.944
11831TIP3    H235371   8.916   7.578   2.953
11832TIP3   OH235372   9.060   8.213   3.209
11832TIP3    H135373   9.091   8.166   3.287
11832TIP3    H235374   9.002   8.147   3.168
11833TIP3   OH235375   8.570   7.990   3.374
11833TIP3    H135376   8.581   7.901   3.336
11833TIP3    H235377   8.606   7.975   3.464
11834TIP3   OH235378   9.077   7.652   3.223
11834TIP3    H135379   9.148   7.585   3.219
11834TIP3    H235380   9.043   7.647   3.132
11835TIP3   OH235381   9.138   7.862   3.386
11835TIP3    H135382   9.123   7.793   3.317
11835TIP3    H235383   9.060   7.920   3.376
11836TIP3   OH235384   7.846   8.480   1.687
11836TIP3    H135385   7.941   8.499   1.692
11836TIP3    H235386   7.844   8.388   1.654
11837TIP3   OH235387   7.744   9.092   2.114
11837TIP3    H135388   7.685   9.021   2.081
11837TIP3    H235389   7.804   9.041   2.172
11838TIP3   OH235390   7.890   8.941   2.292
11838TIP3    H135391   7.891   8.871   2.358
11838TIP3    H235392   7.933   9.013   2.340
11839TIP3   OH235393   8.086   8.349   2.668
11839TIP3    H135394   8.083   8.324   2.573
11839TIP3    H235395   8.183   8.352   2.683
11840TIP3   OH235396   8.303   8.041   3.346
11840TIP3    H135397   8.401   8.033   3.347
11840TIP3    H235398   8.278   7.955   3.386
11841TIP3   OH235399   8.260   7.733   2.674
11841TIP3    H135400   8.322   7.658   2.686
11841TIP3    H235401   8.324   7.807   2.670
11842TIP3   OH235402   8.069   8.006   2.747
11842TIP3    H135403   8.120   8.002   2.664
11842TIP3    H235404   8.093   8.093   2.781
11843TIP3   OH235405   8.270   7.594   3.066
11843TIP3    H135406   8.219   7.580   3.147
11843TIP3    H235407   8.201   7.628   3.006
11844TIP3   OH235408   8.304   8.986   3.176
11844TIP3    H135409   8.218   8.980   3.131
11844TIP3    H235410   8.280   8.975   3.269
11845TIP3   OH235411   9.048   7.713   2.392
11845TIP3    H135412   9.036   7.644   2.461
11845TIP3    H235413   9.144   7.708   2.373
11846TIP3   OH235414   8.357   7.427   2.420
11846TIP3    H135415   8.270   7.383   2.431
11846TIP3    H235416   8.415   7.348   2.418
11847TIP3   OH235417   8.158   7.290   2.058
11847TIP3    H135418   8.188   7.341   1.980
11847TIP3    H235419   8.143   7.359   2.123
11848TIP3   OH235420   8.798   7.468   2.305
11848TIP3    H135421   8.860   7.515   2.246
11848TIP3    H235422   8.830   7.495   2.392
11849TIP3   OH235423   9.422   7.499   2.231
11849TIP3    H135424   9.373   7.579   2.209
11849TIP3    H235425   9.370   7.466   2.307
11850TIP3   OH235426   7.831   8.860   1.857
11850TIP3    H135427   7.757   8.811   1.819
11850TIP3    H235428   7.811   8.949   1.820
11851TIP3   OH235429   8.264   7.453   1.847
11851TIP3    H135430   8.309   7.396   1.782
11851TIP3    H235431   8.337   7.512   1.874
11852TIP3   OH235432   8.772   7.630   1.935
11852TIP3    H135433   8.835   7.588   1.995
11852TIP3    H235434   8.791   7.724   1.957
11853TIP3   OH235435   8.568   7.713   3.311
11853TIP3    H135436   8.537   7.641   3.369
11853TIP3    H235437   8.663   7.714   3.335
11854TIP3   OH235438   8.816   7.709   3.430
11854TIP3    H135439   8.901   7.690   3.387
11854TIP3    H235440   8.811   7.635   3.494
11855TIP3   OH235441   9.588   7.754   3.233
11855TIP3    H135442   9.647   7.751   3.309
11855TIP3    H235443   9.651   7.761   3.158
11856TIP3   OH235444   0.544   8.534   4.625
11856TIP3    H135445   0.501   8.618   4.644
11856TIP3    H235446   0.549   8.539   4.528
11857TIP3   OH235447   0.808   8.438   5.316
11857TIP3    H135448   0.856   8.367   5.267
11857TIP3    H235449   0.765   8.485   5.242
11858TIP3   OH235450   0.663   8.571   5.118
11858TIP3    H135451   0.574   8.607   5.123
11858TIP3    H235452   0.649   8.495   5.059
11859TIP3   OH235453   0.297   8.224   3.686
11859TIP3    H135454   0.338   8.145   3.647
11859TIP3    H235455   0.369   8.289   3.683
11860TIP3   OH235456   0.568   8.345   4.982
11860TIP3    H135457   0.475   8.338   4.957
11860TIP3    H235458   0.598   8.252   4.977
11861TIP3   OH235459   0.376   8.225   4.245
11861TIP3    H135460   0.463   8.185   4.225
11861TIP3    H235461   0.401   8.318   4.258
11862TIP3   OH235462   0.462   8.735   3.929
11862TIP3    H135463   0.448   8.824   3.966
11862TIP3    H235464   0.410   8.681   3.989
11863TIP3   OH235465   2.314   8.771   4.105
11863TIP3    H135466   2.344   8.854   4.147
11863TIP3    H235467   2.333   8.790   4.011
11864TIP3   OH235468   1.717   8.955   4.135
11864TIP3    H135469   1.756   8.868   4.157
11864TIP3    H235470   1.678   8.935   4.048
11865TIP3   OH235471   1.050   8.612   4.107
11865TIP3    H135472   1.031   8.685   4.044
11865TIP3    H235473   1.002   8.539   4.063
11866TIP3   OH235474   1.745   8.699   3.731
11866TIP3    H135475   1.819   8.684   3.795
11866TIP3    H235476   1.794   8.738   3.657
11867TIP3   OH235477   0.674   8.796   4.217
11867TIP3    H135478   0.759   8.794   4.264
11867TIP3    H235479   0.700   8.759   4.131
11868TIP3   OH235480   1.140   9.017   3.987
11868TIP3    H135481   1.224   8.980   4.023
11868TIP3    H235482   1.089   8.937   3.964
11869TIP3   OH235483   2.400   8.975   4.277
11869TIP3    H135484   2.320   9.022   4.245
11869TIP3    H235485   2.394   8.993   4.372
11870TIP3   OH235486   1.050   8.595   4.540
11870TIP3    H135487   0.988   8.631   4.474
11870TIP3    H235488   0.998   8.610   4.622
11871TIP3   OH235489   1.958   8.704   3.898
11871TIP3    H135490   1.951   8.654   3.980
11871TIP3    H235491   2.009   8.783   3.927
11872TIP3   OH235492   0.921   8.709   4.326
11872TIP3    H135493   0.982   8.784   4.342
11872TIP3    H235494   0.967   8.666   4.251
11873TIP3   OH235495   2.107   8.678   4.274
11873TIP3    H135496   2.018   8.701   4.243
11873TIP3    H235497   2.164   8.705   4.200
11874TIP3   OH235498   1.407   8.316   4.255
11874TIP3    H135499   1.396   8.221   4.277
11874TIP3    H235500   1.328   8.353   4.300
11875TIP3   OH235501   1.297   8.829   3.260
11875TIP3    H135502   1.347   8.902   3.297
11875TIP3    H235503   1.355   8.798   3.189
11876TIP3   OH235504   1.944   9.193   4.380
11876TIP3    H135505   1.955   9.281   4.340
11876TIP3    H235506   1.853   9.170   4.349
11877TIP3   OH235507   2.039   8.260   3.356
11877TIP3    H135508   1.957   8.278   3.408
11877TIP3    H235509   2.049   8.344   3.307
11878TIP3   OH235510   2.166   9.164   4.566
11878TIP3    H135511   2.087   9.157   4.510
11878TIP3    H235512   2.193   9.070   4.570
11879TIP3   OH235513   1.164   8.397   4.369
11879TIP3    H135514   1.074   8.364   4.352
11879TIP3    H235515   1.142   8.475   4.423
11880TIP3   OH235516   1.699   8.514   4.579
11880TIP3    H135517   1.765   8.479   4.642
11880TIP3    H235518   1.614   8.488   4.621
11881TIP3   OH235519   1.947   8.927   4.503
11881TIP3    H135520   1.895   8.919   4.587
11881TIP3    H235521   1.910   9.006   4.463
11882TIP3   OH235522   1.315   8.440   3.353
11882TIP3    H135523   1.283   8.440   3.446
11882TIP3    H235524   1.276   8.355   3.323
11883TIP3   OH235525   1.100   8.916   4.388
11883TIP3    H135526   1.042   8.915   4.468
11883TIP3    H235527   1.072   8.998   4.344
11884TIP3   OH235528   0.983   8.791   3.916
11884TIP3    H135529   0.889   8.766   3.930
11884TIP3    H235530   0.997   8.755   3.826
11885TIP3   OH235531   1.484   8.881   3.645
11885TIP3    H135532   1.402   8.931   3.621
11885TIP3    H235533   1.524   8.863   3.558
11886TIP3   OH235534   1.658   9.130   4.713
11886TIP3    H135535   1.650   9.058   4.780
11886TIP3    H235536   1.733   9.180   4.748
11887TIP3   OH235537   1.623   8.898   3.884
11887TIP3    H135538   1.563   8.916   3.808
11887TIP3    H235539   1.665   8.818   3.847
11888TIP3   OH235540   0.954   8.907   4.618
11888TIP3    H135541   0.895   8.982   4.643
11888TIP3    H235542   0.913   8.831   4.664
11889TIP3   OH235543   0.967   8.412   3.323
11889TIP3    H135544   0.964   8.410   3.421
11889TIP3    H235545   0.887   8.463   3.304
11890TIP3   OH235546   0.515   8.466   4.168
11890TIP3    H135547   0.575   8.498   4.239
11890TIP3    H235548   0.574   8.410   4.116
11891TIP3   OH235549   0.482   8.452   3.716
11891TIP3    H135550   0.524   8.476   3.631
11891TIP3    H235551   0.453   8.540   3.744
11892TIP3   OH235552   1.687   9.140   4.327
11892TIP3    H135553   1.688   9.074   4.254
11892TIP3    H235554   1.614   9.102   4.381
11893TIP3   OH235555   1.307   8.610   3.977
11893TIP3    H135556   1.224   8.612   4.028
11893TIP3    H235557   1.372   8.621   4.048
11894TIP3   OH235558   0.741   8.673   3.976
11894TIP3    H135559   0.647   8.667   3.952
11894TIP3    H235560   0.774   8.582   3.964
11895TIP3   OH235561   1.018   8.666   3.673
11895TIP3    H135562   1.110   8.689   3.651
11895TIP3    H235563   0.968   8.694   3.593
11896TIP3   OH235564   1.799   8.691   4.181
11896TIP3    H135565   1.762   8.701   4.271
11896TIP3    H235566   1.736   8.627   4.143
11897TIP3   OH235567   0.847   8.685   3.451
11897TIP3    H135568   0.782   8.653   3.387
11897TIP3    H235569   0.896   8.751   3.398
11898TIP3   OH235570   1.388   8.924   4.069
11898TIP3    H135571   1.470   8.898   4.026
11898TIP3    H235572   1.405   8.908   4.163
11899TIP3   OH235573   0.912   8.433   3.951
11899TIP3    H135574   0.884   8.351   3.997
11899TIP3    H235575   0.970   8.399   3.882
11900TIP3   OH235576   1.367   8.830   4.368
11900TIP3    H135577   1.279   8.872   4.368
11900TIP3    H235578   1.423   8.896   4.414
11901TIP3   OH235579   1.562   8.553   3.318
11901TIP3    H135580   1.466   8.533   3.329
11901TIP3    H235581   1.568   8.648   3.341
11902TIP3   OH235582   1.633   8.810   3.408
11902TIP3    H135583   1.725   8.796   3.440
11902TIP3    H235584   1.641   8.894   3.361
11903TIP3   OH235585   1.385   9.165   4.806
11903TIP3    H135586   1.323   9.122   4.739
11903TIP3    H235587   1.470   9.131   4.776
11904TIP3   OH235588   2.074   8.870   3.266
11904TIP3    H135589   2.010   8.830   3.203
11904TIP3    H235590   2.080   8.959   3.228
11905TIP3   OH235591   0.895   8.669   4.767
11905TIP3    H135592   0.802   8.677   4.791
11905TIP3    H235593   0.926   8.602   4.830
11906TIP3   OH235594   1.722   8.749   4.442
11906TIP3    H135595   1.808   8.775   4.480
11906TIP3    H235596   1.704   8.665   4.490
11907TIP3   OH235597   1.607   8.495   3.599
11907TIP3    H135598   1.592   8.521   3.506
11907TIP3    H235599   1.646   8.576   3.638
11908TIP3   OH235600   1.303   8.671   3.705
11908TIP3    H135601   1.370   8.741   3.691
11908TIP3    H235602   1.302   8.665   3.803
11909TIP3   OH235603   1.552   8.983   4.508
11909TIP3    H135604   1.590   9.035   4.583
11909TIP3    H235605   1.608   8.903   4.508
11910TIP3   OH235606   1.443   8.403   3.809
11910TIP3    H135607   1.432   8.479   3.869
11910TIP3    H235608   1.502   8.441   3.741
11911TIP3   OH235609   0.952   8.397   3.598
11911TIP3    H135610   0.950   8.490   3.630
11911TIP3    H235611   1.048   8.380   3.608
11912TIP3   OH235612   2.214   8.896   4.490
11912TIP3    H135613   2.116   8.891   4.504
11912TIP3    H235614   2.219   8.848   4.406
11913TIP3   OH235615   1.849   9.071   3.864
11913TIP3    H135616   1.778   9.014   3.895
11913TIP3    H235617   1.924   9.044   3.921
11914TIP3   OH235618   0.509   8.591   3.484
11914TIP3    H135619   0.527   8.686   3.473
11914TIP3    H235620   0.432   8.576   3.429
11915TIP3   OH235621   0.903   8.310   4.360
11915TIP3    H135622   0.869   8.276   4.274
11915TIP3    H235623   0.895   8.231   4.418
11916TIP3   OH235624   0.880   9.208   4.968
11916TIP3    H135625   0.873   9.113   4.983
11916TIP3    H235626   0.866   9.247   5.056
11917TIP3   OH235627   1.183   9.054   4.650
11917TIP3    H135628   1.098   9.007   4.658
11917TIP3    H235629   1.177   9.086   4.559
11918TIP3   OH235630   1.015   8.820   3.282
11918TIP3    H135631   0.994   8.768   3.204
11918TIP3    H235632   1.114   8.818   3.285
11919TIP3   OH235633   1.316   8.862   4.792
11919TIP3    H135634   1.316   8.780   4.738
11919TIP3    H235635   1.270   8.923   4.731
11920TIP3   OH235636   1.307   8.669   4.591
11920TIP3    H135637   1.333   8.710   4.505
11920TIP3    H235638   1.214   8.643   4.572
11921TIP3   OH235639   1.930   9.184   4.842
11921TIP3    H135640   1.946   9.090   4.858
11921TIP3    H235641   2.018   9.212   4.811
11922TIP3   OH235642   1.179   9.001   5.011
11922TIP3    H135643   1.113   8.929   5.019
11922TIP3    H235644   1.219   8.980   4.925
11923TIP3   OH235645   1.445   8.438   4.652
11923TIP3    H135646   1.393   8.518   4.631
11923TIP3    H235647   1.375   8.369   4.642
11924TIP3   OH235648   1.570   8.933   4.877
11924TIP3    H135649   1.557   8.924   4.973
11924TIP3    H235650   1.482   8.902   4.847
11925TIP3   OH235651   1.812   8.879   4.732
11925TIP3    H135652   1.732   8.873   4.788
11925TIP3    H235653   1.882   8.845   4.790
11926TIP3   OH235654   2.046   8.831   4.882
11926TIP3    H135655   2.052   8.734   4.899
11926TIP3    H235656   2.035   8.868   4.972
11927TIP3   OH235657   1.028   8.778   5.062
11927TIP3    H135658   1.030   8.688   5.024
11927TIP3    H235659   1.060   8.759   5.153
11928TIP3   OH235660   1.535   8.446   4.911
11928TIP3    H135661   1.601   8.373   4.906
11928TIP3    H235662   1.494   8.437   4.822
11929TIP3   OH235663   1.601   8.659   5.070
11929TIP3    H135664   1.580   8.587   5.006
11929TIP3    H235665   1.522   8.717   5.063
11930TIP3   OH235666   1.902   8.797   3.066
11930TIP3    H135667   1.882   8.821   2.975
11930TIP3    H235668   1.879   8.702   3.065
11931TIP3   OH235669   1.942   9.046   3.612
11931TIP3    H135670   1.940   8.950   3.623
11931TIP3    H235671   1.918   9.075   3.703
11932TIP3   OH235672   2.380   9.320   4.501
11932TIP3    H135673   2.303   9.264   4.524
11932TIP3    H235674   2.451   9.252   4.503
11933TIP3   OH235675   1.849   8.532   3.059
11933TIP3    H135676   1.926   8.497   3.108
11933TIP3    H235677   1.778   8.470   3.081
11934TIP3   OH235678   1.899   8.774   3.507
11934TIP3    H135679   1.942   8.686   3.521
11934TIP3    H235680   1.960   8.812   3.442
11935TIP3   OH235681   2.070   8.954   3.993
11935TIP3    H135682   2.154   8.984   3.952
11935TIP3    H235683   2.086   8.990   4.083
11936TIP3   OH235684   2.148   9.083   4.223
11936TIP3    H135685   2.072   9.113   4.276
11936TIP3    H235686   2.195   9.169   4.206
11937TIP3   OH235687   0.764   8.839   5.054
11937TIP3    H135688   0.859   8.821   5.041
11937TIP3    H235689   0.731   8.750   5.076
11938TIP3   OH235690   2.592   8.693   4.792
11938TIP3    H135691   2.647   8.625   4.749
11938TIP3    H235692   2.564   8.748   4.715
11939TIP3   OH235693   2.018   8.530   3.545
11939TIP3    H135694   2.065   8.516   3.630
11939TIP3    H235695   1.957   8.454   3.545
11940TIP3   OH235696   0.713   8.512   4.354
11940TIP3    H135697   0.781   8.444   4.372
11940TIP3    H235698   0.766   8.594   4.358
11941TIP3   OH235699   0.545   8.798   4.462
11941TIP3    H135700   0.578   8.789   4.371
11941TIP3    H235701   0.517   8.891   4.462
11942TIP3   OH235702   2.464   8.836   4.597
11942TIP3    H135703   2.374   8.870   4.613
11942TIP3    H235704   2.442   8.761   4.538
11943TIP3   OH235705   2.099   8.471   3.175
11943TIP3    H135706   2.139   8.396   3.126
11943TIP3    H235707   2.168   8.539   3.169
11944TIP3   OH235708   0.506   8.284   3.925
11944TIP3    H135709   0.430   8.314   3.978
11944TIP3    H235710   0.507   8.350   3.853
11945TIP3   OH235711   0.728   8.379   4.756
11945TIP3    H135712   0.671   8.370   4.834
11945TIP3    H235713   0.667   8.426   4.695
11946TIP3   OH235714   2.360   8.595   4.475
11946TIP3    H135715   2.268   8.587   4.443
11946TIP3    H235716   2.390   8.502   4.463
11947TIP3   OH235717   1.568   8.511   4.095
11947TIP3    H135718   1.521   8.444   4.148
11947TIP3    H235719   1.635   8.457   4.049
11948TIP3   OH235720   2.091   8.392   4.000
11948TIP3    H135721   2.125   8.443   3.924
11948TIP3    H235722   1.994   8.406   3.993
11949TIP3   OH235723   2.184   8.492   3.763
11949TIP3    H135724   2.257   8.440   3.722
11949TIP3    H235725   2.217   8.584   3.747
11950TIP3   OH235726   0.814   8.218   4.109
11950TIP3    H135727   0.723   8.180   4.111
11950TIP3    H235728   0.867   8.136   4.108
11951TIP3   OH235729   0.595   8.084   3.754
11951TIP3    H135730   0.629   8.142   3.684
11951TIP3    H235731   0.569   8.149   3.823
11952TIP3   OH235732   1.254   8.253   3.990
11952TIP3    H135733   1.315   8.305   3.936
11952TIP3    H235734   1.274   8.286   4.079
11953TIP3   OH235735   1.811   8.397   3.974
11953TIP3    H135736   1.799   8.361   3.885
11953TIP3    H235737   1.794   8.317   4.030
11954TIP3   OH235738   1.833   8.319   3.536
11954TIP3    H135739   1.746   8.361   3.547
11954TIP3    H235740   1.819   8.234   3.584
11955TIP3   OH235741   0.716   8.251   3.523
11955TIP3    H135742   0.766   8.187   3.468
11955TIP3    H235743   0.789   8.305   3.560
11956TIP3   OH235744   1.230   8.422   3.619
11956TIP3    H135745   1.289   8.377   3.682
11956TIP3    H235746   1.249   8.515   3.645
11957TIP3   OH235747   1.019   8.504   5.004
11957TIP3    H135748   0.988   8.429   5.057
11957TIP3    H235749   1.115   8.503   5.026
11958TIP3   OH235750   1.271   8.500   5.121
11958TIP3    H135751   1.352   8.474   5.074
11958TIP3    H235752   1.259   8.425   5.183
11959TIP3   OH235753   2.094   8.559   4.909
11959TIP3    H135754   2.113   8.526   5.000
11959TIP3    H235755   2.182   8.551   4.866
11960TIP3   OH235756   2.277   9.004   3.425
11960TIP3    H135757   2.230   9.080   3.464
11960TIP3    H235758   2.204   8.943   3.405
11961TIP3   OH235759   4.109   9.027   3.591
11961TIP3    H135760   4.140   9.110   3.633
11961TIP3    H235761   4.130   9.045   3.498
11962TIP3   OH235762   3.511   9.214   3.624
11962TIP3    H135763   3.552   9.127   3.645
11962TIP3    H235764   3.474   9.195   3.536
11963TIP3   OH235765   2.847   8.868   3.593
11963TIP3    H135766   2.828   8.942   3.531
11963TIP3    H235767   2.800   8.795   3.548
11964TIP3   OH235768   3.541   8.957   3.218
11964TIP3    H135769   3.615   8.941   3.282
11964TIP3    H235770   3.590   8.994   3.143
11965TIP3   OH235771   2.476   9.061   3.710
11965TIP3    H135772   2.562   9.039   3.749
11965TIP3    H235773   2.485   9.022   3.622
11966TIP3   OH235774   2.930   9.272   3.492
11966TIP3    H135775   3.018   9.235   3.512
11966TIP3    H235776   2.883   9.195   3.454
11967TIP3   OH235777   4.195   9.230   3.764
11967TIP3    H135778   4.116   9.277   3.733
11967TIP3    H235779   4.193   9.252   3.858
11968TIP3   OH235780   2.845   8.854   4.030
11968TIP3    H135781   2.784   8.885   3.960
11968TIP3    H235782   2.791   8.870   4.110
11969TIP3   OH235783   3.754   8.962   3.385
11969TIP3    H135784   3.751   8.908   3.465
11969TIP3    H235785   3.806   9.039   3.413
11970TIP3   OH235786   2.715   8.960   3.812
11970TIP3    H135787   2.776   9.036   3.828
11970TIP3    H235788   2.762   8.918   3.736
11971TIP3   OH235789   3.903   8.934   3.761
11971TIP3    H135790   3.814   8.958   3.728
11971TIP3    H235791   3.961   8.961   3.688
11972TIP3   OH235792   3.204   8.573   3.742
11972TIP3    H135793   3.191   8.478   3.757
11972TIP3    H235794   3.125   8.610   3.787
11973TIP3   OH235795   3.094   9.085   2.749
11973TIP3    H135796   3.145   9.160   2.783
11973TIP3    H235797   3.151   9.055   2.676
11974TIP3   OH235798   3.742   9.449   3.866
11974TIP3    H135799   3.751   9.540   3.832
11974TIP3    H235800   3.651   9.427   3.834
11975TIP3   OH235801   3.835   8.517   2.843
11975TIP3    H135802   3.754   8.534   2.894
11975TIP3    H235803   3.845   8.601   2.793
11976TIP3   OH235804   3.957   9.417   4.055
11976TIP3    H135805   3.881   9.412   3.995
11976TIP3    H235806   3.986   9.323   4.055
11977TIP3   OH235807   2.963   8.648   3.868
11977TIP3    H135808   2.873   8.616   3.844
11977TIP3    H235809   2.939   8.732   3.912
11978TIP3   OH235810   3.495   8.767   4.064
11978TIP3    H135811   3.562   8.735   4.128
11978TIP3    H235812   3.410   8.742   4.108
11979TIP3   OH235813   3.742   9.182   3.989
11979TIP3    H135814   3.690   9.175   4.073
11979TIP3    H235815   3.706   9.262   3.949
11980TIP3   OH235816   3.113   8.695   2.841
11980TIP3    H135817   3.078   8.696   2.932
11980TIP3    H235818   3.072   8.612   2.808
11981TIP3   OH235819   2.884   9.167   3.872
11981TIP3    H135820   2.835   9.181   3.956
11981TIP3    H235821   2.877   9.253   3.829
11982TIP3   OH235822   2.779   9.048   3.403
11982TIP3    H135823   2.686   9.022   3.418
11982TIP3    H235824   2.793   9.012   3.313
11983TIP3   OH235825   3.281   9.138   3.132
11983TIP3    H135826   3.199   9.187   3.108
11983TIP3    H235827   3.321   9.119   3.045
11984TIP3   OH235828   3.456   9.385   4.195
11984TIP3    H135829   3.447   9.314   4.262
11984TIP3    H235830   3.523   9.442   4.236
11985TIP3   OH235831   3.420   9.156   3.371
11985TIP3    H135832   3.360   9.173   3.295
11985TIP3    H235833   3.462   9.075   3.335
11986TIP3   OH235834   2.735   9.189   4.121
11986TIP3    H135835   2.669   9.248   4.161
11986TIP3    H235836   2.704   9.102   4.155
11987TIP3   OH235837   2.764   8.670   2.810
11987TIP3    H135838   2.758   8.667   2.908
11987TIP3    H235839   2.684   8.720   2.788
11988TIP3   OH235840   2.305   8.718   3.675
11988TIP3    H135841   2.380   8.747   3.731
11988TIP3    H235842   2.347   8.679   3.597
11989TIP3   OH235843   2.284   8.693   3.198
11989TIP3    H135844   2.328   8.733   3.120
11989TIP3    H235845   2.223   8.765   3.222
11990TIP3   OH235846   3.485   9.399   3.819
11990TIP3    H135847   3.485   9.335   3.743
11990TIP3    H235848   3.411   9.359   3.870
11991TIP3   OH235849   3.104   8.866   3.464
11991TIP3    H135850   3.019   8.868   3.513
11991TIP3    H235851   3.168   8.880   3.536
11992TIP3   OH235852   2.539   8.930   3.470
11992TIP3    H135853   2.444   8.935   3.445
11992TIP3    H235854   2.563   8.838   3.449
11993TIP3   OH235855   2.814   8.924   3.160
11993TIP3    H135856   2.905   8.946   3.134
11993TIP3    H235857   2.762   8.949   3.080
11994TIP3   OH235858   3.595   8.949   3.669
11994TIP3    H135859   3.555   8.958   3.758
11994TIP3    H235860   3.534   8.885   3.629
11995TIP3   OH235861   2.647   8.942   2.941
11995TIP3    H135862   2.580   8.908   2.879
11995TIP3    H235863   2.693   9.007   2.884
11996TIP3   OH235864   3.183   9.179   3.553
11996TIP3    H135865   3.266   9.155   3.509
11996TIP3    H235866   3.204   9.166   3.647
11997TIP3   OH235867   2.713   8.688   3.439
11997TIP3    H135868   2.681   8.607   3.482
11997TIP3    H235869   2.762   8.653   3.363
11998TIP3   OH235870   3.160   9.085   3.859
11998TIP3    H135871   3.073   9.128   3.856
11998TIP3    H235872   3.217   9.152   3.903
11999TIP3   OH235873   3.359   8.809   2.807
11999TIP3    H135874   3.263   8.788   2.817
11999TIP3    H235875   3.363   8.905   2.828
12000TIP3   OH235876   3.429   9.066   2.896
12000TIP3    H135877   3.521   9.053   2.927
12000TIP3    H235878   3.436   9.150   2.848
12001TIP3   OH235879   3.176   9.417   4.293
12001TIP3    H135880   3.116   9.364   4.238
12001TIP3    H235881   3.264   9.389   4.261
12002TIP3   OH235882   3.871   9.126   2.753
12002TIP3    H135883   3.807   9.085   2.690
12002TIP3    H235884   3.875   9.215   2.716
12003TIP3   OH235885   2.683   8.932   4.246
12003TIP3    H135886   2.585   8.934   4.258
12003TIP3    H235887   2.709   8.869   4.314
12004TIP3   OH235888   3.516   9.007   3.931
12004TIP3    H135889   3.604   9.031   3.964
12004TIP3    H235890   3.500   8.922   3.978
12005TIP3   OH235891   3.402   8.752   3.086
12005TIP3    H135892   3.387   8.777   2.993
12005TIP3    H235893   3.441   8.833   3.124
12006TIP3   OH235894   3.102   8.927   3.192
12006TIP3    H135895   3.168   8.997   3.177
12006TIP3    H235896   3.099   8.922   3.290
12007TIP3   OH235897   3.348   9.238   3.993
12007TIP3    H135898   3.387   9.288   4.067
12007TIP3    H235899   3.404   9.158   3.990
12008TIP3   OH235900   3.239   8.660   3.298
12008TIP3    H135901   3.224   8.739   3.353
12008TIP3    H235902   3.298   8.697   3.228
12009TIP3   OH235903   2.748   8.654   3.086
12009TIP3    H135904   2.745   8.747   3.116
12009TIP3    H235905   2.844   8.637   3.094
12010TIP3   OH235906   4.009   9.152   3.979
12010TIP3    H135907   3.911   9.147   3.990
12010TIP3    H235908   4.018   9.106   3.894
12011TIP3   OH235909   3.645   9.329   3.352
12011TIP3    H135910   3.574   9.269   3.380
12011TIP3    H235911   3.720   9.300   3.408
12012TIP3   OH235912   2.307   8.851   2.974
12012TIP3    H135913   2.320   8.945   2.961
12012TIP3    H235914   2.225   8.832   2.927
12013TIP3   OH235915   2.699   8.568   3.846
12013TIP3    H135916   2.667   8.535   3.760
12013TIP3    H235917   2.688   8.489   3.903
12014TIP3   OH235918   2.678   9.457   4.452
12014TIP3    H135919   2.706   9.369   4.479
12014TIP3    H235920   2.665   9.505   4.537
12015TIP3   OH235921   2.986   9.291   4.129
12015TIP3    H135922   2.898   9.248   4.133
12015TIP3    H235923   2.962   9.374   4.085
12016TIP3   OH235924   2.812   9.077   2.769
12016TIP3    H135925   2.789   9.026   2.690
12016TIP3    H235926   2.910   9.074   2.770
12017TIP3   OH235927   3.115   9.113   4.282
12017TIP3    H135928   3.116   9.029   4.232
12017TIP3    H235929   3.071   9.170   4.217
12018TIP3   OH235930   3.104   8.922   4.077
12018TIP3    H135931   3.130   8.968   3.995
12018TIP3    H235932   3.010   8.900   4.059
12019TIP3   OH235933   3.739   9.441   4.339
12019TIP3    H135934   3.749   9.345   4.344
12019TIP3    H235935   3.814   9.464   4.282
12020TIP3   OH235936   2.975   9.256   4.499
12020TIP3    H135937   2.910   9.184   4.509
12020TIP3    H235938   3.016   9.232   4.414
12021TIP3   OH235939   3.237   8.690   4.140
12021TIP3    H135940   3.188   8.772   4.117
12021TIP3    H235941   3.168   8.622   4.128
12022TIP3   OH235942   3.366   9.194   4.364
12022TIP3    H135943   3.352   9.183   4.460
12022TIP3    H235944   3.278   9.162   4.334
12023TIP3   OH235945   3.610   9.137   4.221
12023TIP3    H135946   3.530   9.129   4.276
12023TIP3    H235947   3.680   9.102   4.279
12024TIP3   OH235948   3.841   9.087   4.372
12024TIP3    H135949   3.850   8.991   4.386
12024TIP3    H235950   3.834   9.122   4.463
12025TIP3   OH235951   2.817   9.036   4.548
12025TIP3    H135952   2.822   8.946   4.511
12025TIP3    H235953   2.853   9.020   4.638
12026TIP3   OH235954   3.332   8.702   4.397
12026TIP3    H135955   3.399   8.631   4.393
12026TIP3    H235956   3.291   8.694   4.309
12027TIP3   OH235957   3.398   8.917   4.555
12027TIP3    H135958   3.375   8.845   4.492
12027TIP3    H235959   3.319   8.974   4.550
12028TIP3   OH235960   3.699   9.055   2.552
12028TIP3    H135961   3.675   9.076   2.461
12028TIP3    H235962   3.677   8.959   2.554
12029TIP3   OH235963   3.738   9.303   3.099
12029TIP3    H135964   3.735   9.207   3.109
12029TIP3    H235965   3.714   9.331   3.191
12030TIP3   OH235966   4.168   9.580   4.002
12030TIP3    H135967   4.096   9.515   4.017
12030TIP3    H235968   4.245   9.520   3.996
12031TIP3   OH235969   3.645   8.790   2.547
12031TIP3    H135970   3.722   8.753   2.595
12031TIP3    H235971   3.573   8.727   2.567
12032TIP3   OH235972   3.696   9.031   2.994
12032TIP3    H135973   3.739   8.943   3.009
12032TIP3    H235974   3.757   9.068   2.929
12033TIP3   OH235975   3.865   9.212   3.480
12033TIP3    H135976   3.949   9.241   3.439
12033TIP3    H235977   3.882   9.246   3.570
12034TIP3   OH235978   3.944   9.340   3.710
12034TIP3    H135979   3.867   9.370   3.762
12034TIP3    H235980   3.991   9.425   3.693
12035TIP3   OH235981   2.550   9.098   4.531
12035TIP3    H135982   2.646   9.083   4.523
12035TIP3    H235983   2.522   9.010   4.565
12036TIP3   OH235984   4.384   8.947   4.278
12036TIP3    H135985   4.443   8.881   4.237
12036TIP3    H235986   4.361   9.004   4.202
12037TIP3   OH235987   3.814   8.787   3.032
12037TIP3    H135988   3.861   8.772   3.117
12037TIP3    H235989   3.753   8.710   3.031
12038TIP3   OH235990   2.510   8.772   3.854
12038TIP3    H135991   2.576   8.700   3.863
12038TIP3    H235992   2.570   8.849   3.846
12039TIP3   OH235993   2.317   9.058   3.933
12039TIP3    H135994   2.365   9.046   3.848
12039TIP3    H235995   2.335   9.151   3.950
12040TIP3   OH235996   4.259   9.093   4.082
12040TIP3    H135997   4.167   9.125   4.092
12040TIP3    H235998   4.243   9.016   4.024
12041TIP3   OH235999   3.895   8.727   2.661
12041TIP3    H136000   3.934   8.652   2.612
12041TIP3    H236001   3.965   8.795   2.655
12042TIP3   OH236002   2.299   8.554   3.428
12042TIP3    H136003   2.205   8.551   3.453
12042TIP3    H236004   2.298   8.610   3.348
12043TIP3   OH236005   2.520   8.637   4.243
12043TIP3    H136006   2.467   8.627   4.323
12043TIP3    H236007   2.453   8.673   4.181
12044TIP3   OH236008   4.155   8.851   3.962
12044TIP3    H136009   4.064   8.842   3.929
12044TIP3    H236010   4.187   8.758   3.950
12045TIP3   OH236011   3.368   8.769   3.586
12045TIP3    H136012   3.317   8.701   3.634
12045TIP3    H236013   3.430   8.716   3.534
12046TIP3   OH236014   3.886   8.651   3.489
12046TIP3    H136015   3.922   8.700   3.412
12046TIP3    H236016   3.790   8.663   3.478
12047TIP3   OH236017   3.980   8.749   3.250
12047TIP3    H136018   4.052   8.697   3.209
12047TIP3    H236019   4.013   8.840   3.235
12048TIP3   OH236020   2.610   8.476   3.599
12048TIP3    H136021   2.518   8.442   3.598
12048TIP3    H236022   2.659   8.391   3.595
12049TIP3   OH236023   2.394   8.344   3.243
12049TIP3    H136024   2.426   8.403   3.172
12049TIP3    H236025   2.366   8.408   3.311
12050TIP3   OH236026   3.052   8.508   3.476
12050TIP3    H136027   3.112   8.560   3.420
12050TIP3    H236028   3.070   8.546   3.563
12051TIP3   OH236029   3.607   8.653   3.460
12051TIP3    H136030   3.596   8.617   3.371
12051TIP3    H236031   3.590   8.573   3.515
12052TIP3   OH236032   3.630   8.576   3.023
12052TIP3    H136033   3.542   8.617   3.033
12052TIP3    H236034   3.616   8.491   3.070
12053TIP3   OH236035   2.511   8.506   3.008
12053TIP3    H136036   2.561   8.443   2.953
12053TIP3    H236037   2.584   8.560   3.046
12054TIP3   OH236038   3.026   8.679   3.106
12054TIP3    H136039   3.084   8.632   3.167
12054TIP3    H236040   3.046   8.772   3.131
12055TIP3   OH236041   2.817   8.760   4.491
12055TIP3    H136042   2.784   8.686   4.546
12055TIP3    H236043   2.912   8.759   4.515
12056TIP3   OH236044   3.067   8.755   4.608
12056TIP3    H136045   3.150   8.725   4.567
12056TIP3    H236046   3.053   8.685   4.675
12057TIP3   OH236047   3.890   8.816   4.396
12057TIP3    H136048   3.910   8.782   4.486
12057TIP3    H236049   3.978   8.809   4.352
12058TIP3   OH236050   4.073   9.262   2.911
12058TIP3    H136051   4.025   9.336   2.952
12058TIP3    H236052   4.001   9.199   2.893
12059TIP3   OH236053   5.900   9.284   3.075
12059TIP3    H136054   5.934   9.363   3.121
12059TIP3    H236055   5.931   9.300   2.984
12060TIP3   OH236056   5.306   9.468   3.111
12060TIP3    H136057   5.349   9.382   3.131
12060TIP3    H236058   5.270   9.449   3.023
12061TIP3   OH236059   4.643   9.125   3.081
12061TIP3    H136060   4.623   9.197   3.017
12061TIP3    H236061   4.596   9.051   3.037
12062TIP3   OH236062   5.337   9.215   2.702
12062TIP3    H136063   5.408   9.198   2.769
12062TIP3    H236064   5.392   9.251   2.629
12063TIP3   OH236065   4.269   9.313   3.198
12063TIP3    H136066   4.358   9.298   3.236
12063TIP3    H236067   4.281   9.276   3.109
12064TIP3   OH236068   4.739   9.529   2.946
12064TIP3    H136069   4.819   9.493   2.989
12064TIP3    H236070   4.683   9.450   2.934
12065TIP3   OH236071   5.986   9.478   3.257
12065TIP3    H136072   5.906   9.528   3.228
12065TIP3    H236073   6.006   9.521   3.342
12066TIP3   OH236074   4.641   9.110   3.517
12066TIP3    H136075   4.579   9.143   3.448
12066TIP3    H236076   4.588   9.128   3.597
12067TIP3   OH236077   5.545   9.220   2.873
12067TIP3    H136078   5.555   9.160   2.947
12067TIP3    H236079   5.603   9.295   2.899
12068TIP3   OH236080   4.513   9.220   3.299
12068TIP3    H136081   4.575   9.294   3.317
12068TIP3    H236082   4.560   9.177   3.224
12069TIP3   OH236083   5.692   9.200   3.247
12069TIP3    H136084   5.606   9.216   3.205
12069TIP3    H236085   5.756   9.223   3.176
12070TIP3   OH236086   4.998   8.831   3.225
12070TIP3    H136087   4.989   8.735   3.244
12070TIP3    H236088   4.919   8.865   3.273
12071TIP3   OH236089   4.895   9.347   2.244
12071TIP3    H136090   4.975   9.384   2.282
12071TIP3    H236091   4.929   9.313   2.159
12072TIP3   OH236092   5.532   9.695   3.349
12072TIP3    H136093   5.553   9.787   3.331
12072TIP3    H236094   5.440   9.686   3.316
12073TIP3   OH236095   5.631   8.774   2.329
12073TIP3    H136096   5.550   8.791   2.381
12073TIP3    H236097   5.641   8.858   2.279
12074TIP3   OH236098   4.759   8.905   3.355
12074TIP3    H136099   4.669   8.873   3.331
12074TIP3    H236100   4.734   8.988   3.400
12075TIP3   OH236101   5.291   9.024   3.551
12075TIP3    H136102   5.361   8.992   3.611
12075TIP3    H236103   5.209   8.998   3.598
12076TIP3   OH236104   5.543   9.460   3.503
12076TIP3    H136105   5.464   9.443   3.559
12076TIP3    H236106   5.511   9.529   3.442
12077TIP3   OH236107   4.908   8.954   2.328
12077TIP3    H136108   4.874   8.952   2.419
12077TIP3    H236109   4.869   8.871   2.294
12078TIP3   OH236110   4.683   9.429   3.369
12078TIP3    H136111   4.622   9.436   3.445
12078TIP3    H236112   4.667   9.512   3.321
12079TIP3   OH236113   4.574   9.305   2.891
12079TIP3    H136114   4.481   9.278   2.906
12079TIP3    H236115   4.588   9.267   2.801
12080TIP3   OH236116   5.084   9.407   2.616
12080TIP3    H136117   4.995   9.438   2.590
12080TIP3    H236118   5.123   9.376   2.531
12081TIP3   OH236119   5.258   9.643   3.681
12081TIP3    H136120   5.244   9.578   3.753
12081TIP3    H236121   5.273   9.727   3.730
12082TIP3   OH236122   5.216   9.411   2.858
12082TIP3    H136123   5.159   9.431   2.780
12082TIP3    H236124   5.260   9.331   2.822
12083TIP3   OH236125   4.530   9.443   3.602
12083TIP3    H136126   4.471   9.514   3.634
12083TIP3    H236127   4.495   9.364   3.646
12084TIP3   OH236128   4.563   8.928   2.297
12084TIP3    H136129   4.555   8.924   2.395
12084TIP3    H236130   4.479   8.972   2.274
12085TIP3   OH236131   4.101   8.975   3.163
12085TIP3    H136132   4.177   9.004   3.217
12085TIP3    H236133   4.142   8.935   3.084
12086TIP3   OH236134   4.080   8.949   2.685
12086TIP3    H136135   4.125   8.990   2.607
12086TIP3    H236136   4.020   9.022   2.709
12087TIP3   OH236137   5.271   9.659   3.297
12087TIP3    H136138   5.277   9.588   3.229
12087TIP3    H236139   5.201   9.619   3.354
12088TIP3   OH236140   4.899   9.128   2.949
12088TIP3    H136141   4.816   9.126   3.002
12088TIP3    H236142   4.966   9.132   3.020
12089TIP3   OH236143   4.335   9.186   2.956
12089TIP3    H136144   4.240   9.191   2.931
12089TIP3    H236145   4.360   9.094   2.936
12090TIP3   OH236146   4.608   9.182   2.648
12090TIP3    H136147   4.700   9.200   2.622
12090TIP3    H236148   4.557   9.203   2.567
12091TIP3   OH236149   5.391   9.207   3.157
12091TIP3    H136150   5.350   9.213   3.246
12091TIP3    H236151   5.334   9.140   3.115
12092TIP3   OH236152   4.443   9.201   2.427
12092TIP3    H136153   4.376   9.164   2.367
12092TIP3    H236154   4.487   9.266   2.368
12093TIP3   OH236155   4.980   9.439   3.044
12093TIP3    H136156   5.062   9.411   2.999
12093TIP3    H236157   4.999   9.422   3.137
12094TIP3   OH236158   4.509   8.945   2.925
12094TIP3    H136159   4.477   8.864   2.970
12094TIP3    H236160   4.561   8.908   2.852
12095TIP3   OH236161   4.957   9.343   3.343
12095TIP3    H136162   4.870   9.387   3.344
12095TIP3    H236163   5.015   9.408   3.388
12096TIP3   OH236164   5.156   9.064   2.299
12096TIP3    H136165   5.061   9.040   2.306
12096TIP3    H236166   5.157   9.160   2.314
12097TIP3   OH236167   5.225   9.327   2.382
12097TIP3    H136168   5.311   9.305   2.423
12097TIP3    H236169   5.255   9.382   2.308
12098TIP3   OH236170   4.969   9.676   3.778
12098TIP3    H136171   4.913   9.628   3.710
12098TIP3    H236172   5.057   9.652   3.749
12099TIP3   OH236173   5.663   9.380   2.244
12099TIP3    H136174   5.600   9.341   2.179
12099TIP3    H236175   5.686   9.462   2.197
12100TIP3   OH236176   4.479   9.190   3.735
12100TIP3    H136177   4.382   9.189   3.745
12100TIP3    H236178   4.506   9.124   3.802
12101TIP3   OH236179   5.316   9.264   3.423
12101TIP3    H136180   5.407   9.273   3.454
12101TIP3    H236181   5.290   9.180   3.466
12102TIP3   OH236182   5.191   9.013   2.576
12102TIP3    H136183   5.185   9.033   2.481
12102TIP3    H236184   5.240   9.090   2.611
12103TIP3   OH236185   4.895   9.189   2.680
12103TIP3    H136186   4.974   9.245   2.673
12103TIP3    H236187   4.890   9.176   2.778
12104TIP3   OH236188   5.143   9.495   3.480
12104TIP3    H136189   5.182   9.549   3.552
12104TIP3    H236190   5.201   9.415   3.480
12105TIP3   OH236191   5.033   8.916   2.783
12105TIP3    H136192   5.030   8.991   2.846
12105TIP3    H236193   5.092   8.953   2.714
12106TIP3   OH236194   4.544   8.910   2.572
12106TIP3    H136195   4.541   9.001   2.605
12106TIP3    H236196   4.640   8.892   2.581
12107TIP3   OH236197   5.804   9.404   3.477
12107TIP3    H136198   5.710   9.405   3.447
12107TIP3    H236199   5.845   9.366   3.398
12108TIP3   OH236200   5.438   9.589   2.839
12108TIP3    H136201   5.372   9.525   2.870
12108TIP3    H236202   5.516   9.564   2.892
12109TIP3   OH236203   4.104   9.107   2.461
12109TIP3    H136204   4.113   9.202   2.447
12109TIP3    H236205   4.022   9.084   2.416
12110TIP3   OH236206   4.494   8.825   3.334
12110TIP3    H136207   4.463   8.791   3.247
12110TIP3    H236208   4.484   8.746   3.391
12111TIP3   OH236209   4.458   9.707   3.953
12111TIP3    H136210   4.518   9.632   3.960
12111TIP3    H236211   4.475   9.760   4.034
12112TIP3   OH236212   4.773   9.564   3.622
12112TIP3    H136213   4.686   9.522   3.631
12112TIP3    H236214   4.766   9.601   3.533
12113TIP3   OH236215   4.609   9.342   2.253
12113TIP3    H136216   4.583   9.282   2.180
12113TIP3    H236217   4.706   9.330   2.259
12114TIP3   OH236218   4.907   9.375   3.767
12114TIP3    H136219   4.909   9.293   3.713
12114TIP3    H236220   4.861   9.435   3.706
12115TIP3   OH236221   4.899   9.181   3.564
12115TIP3    H136222   4.926   9.224   3.480
12115TIP3    H236223   4.806   9.158   3.545
12116TIP3   OH236224   4.756   9.519   3.981
12116TIP3    H136225   4.702   9.438   3.990
12116TIP3    H236226   4.807   9.500   3.901
12117TIP3   OH236227   5.033   8.948   3.627
12117TIP3    H136228   4.983   9.029   3.605
12117TIP3    H236229   4.964   8.879   3.615
12118TIP3   OH236230   5.161   9.453   3.851
12118TIP3    H136231   5.150   9.438   3.947
12118TIP3    H236232   5.073   9.420   3.822
12119TIP3   OH236233   5.397   9.385   3.714
12119TIP3    H136234   5.313   9.391   3.764
12119TIP3    H236235   5.457   9.346   3.779
12120TIP3   OH236236   5.637   9.343   3.850
12120TIP3    H136237   5.651   9.247   3.871
12120TIP3    H236238   5.633   9.383   3.940
12121TIP3   OH236239   4.614   9.292   4.038
12121TIP3    H136240   4.618   9.203   3.998
12121TIP3    H236241   4.651   9.274   4.126
12122TIP3   OH236242   5.127   8.959   3.884
12122TIP3    H136243   5.196   8.889   3.881
12122TIP3    H236244   5.088   8.949   3.795
12123TIP3   OH236245   5.195   9.174   4.041
12123TIP3    H136246   5.172   9.101   3.979
12123TIP3    H236247   5.115   9.230   4.036
12124TIP3   OH236248   5.488   9.316   2.042
12124TIP3    H136249   5.475   9.336   1.948
12124TIP3    H236250   5.468   9.220   2.042
12125TIP3   OH236251   5.523   9.562   2.583
12125TIP3    H136252   5.535   9.467   2.594
12125TIP3    H236253   5.505   9.588   2.676
12126TIP3   OH236254   5.949   9.813   3.522
12126TIP3    H136255   5.906   9.748   3.464
12126TIP3    H236256   6.043   9.797   3.500
12127TIP3   OH236257   5.440   9.050   2.039
12127TIP3    H136258   5.520   9.012   2.081
12127TIP3    H236259   5.372   8.983   2.055
12128TIP3   OH236260   5.490   9.286   2.478
12128TIP3    H136261   5.534   9.198   2.494
12128TIP3    H236262   5.552   9.323   2.413
12129TIP3   OH236263   5.659   9.474   2.966
12129TIP3    H136264   5.746   9.500   2.926
12129TIP3    H236265   5.678   9.504   3.057
12130TIP3   OH236266   5.740   9.595   3.201
12130TIP3    H136267   5.663   9.622   3.254
12130TIP3    H236268   5.784   9.681   3.186
12131TIP3   OH236269   4.344   9.354   4.019
12131TIP3    H136270   4.440   9.340   4.008
12131TIP3    H236271   4.318   9.267   4.053
12132TIP3   OH236272   6.184   9.205   3.769
12132TIP3    H136273   6.241   9.137   3.726
12132TIP3    H236274   6.159   9.261   3.693
12133TIP3   OH236275   5.607   9.044   2.520
12133TIP3    H136276   5.658   9.028   2.603
12133TIP3    H236277   5.549   8.965   2.520
12134TIP3   OH236278   4.307   9.030   3.342
12134TIP3    H136279   4.372   8.957   3.350
12134TIP3    H236280   4.366   9.107   3.333
12135TIP3   OH236281   4.112   9.315   3.420
12135TIP3    H136282   4.160   9.301   3.335
12135TIP3    H236283   4.132   9.408   3.436
12136TIP3   OH236284   6.063   9.344   3.564
12136TIP3    H136285   5.967   9.353   3.574
12136TIP3    H236286   6.064   9.263   3.509
12137TIP3   OH236287   5.691   8.984   2.147
12137TIP3    H136288   5.731   8.908   2.100
12137TIP3    H236289   5.762   9.051   2.142
12138TIP3   OH236290   4.095   8.813   2.917
12138TIP3    H136291   4.000   8.808   2.939
12138TIP3    H236292   4.094   8.868   2.835
12139TIP3   OH236293   4.316   8.895   3.730
12139TIP3    H136294   4.262   8.884   3.810
12139TIP3    H236295   4.249   8.929   3.668
12140TIP3   OH236296   5.951   9.106   3.443
12140TIP3    H136297   5.859   9.086   3.420
12140TIP3    H236298   5.991   9.016   3.434
12141TIP3   OH236299   5.158   9.023   3.065
12141TIP3    H136300   5.112   8.955   3.117
12141TIP3    H236301   5.229   8.972   3.021
12142TIP3   OH236302   5.681   8.910   2.975
12142TIP3    H136303   5.718   8.956   2.897
12142TIP3    H236304   5.585   8.920   2.963
12143TIP3   OH236305   5.775   9.007   2.736
12143TIP3    H136306   5.848   8.953   2.698
12143TIP3    H236307   5.811   9.097   2.720
12144TIP3   OH236308   4.406   8.733   3.085
12144TIP3    H136309   4.314   8.698   3.085
12144TIP3    H236310   4.456   8.648   3.082
12145TIP3   OH236311   4.190   8.601   2.730
12145TIP3    H136312   4.222   8.659   2.659
12145TIP3    H236313   4.162   8.665   2.798
12146TIP3   OH236314   4.846   8.767   2.963
12146TIP3    H136315   4.908   8.816   2.906
12146TIP3    H236316   4.870   8.800   3.051
12147TIP3   OH236317   5.398   8.909   2.947
12147TIP3    H136318   5.397   8.868   2.860
12147TIP3    H236319   5.384   8.830   3.005
12148TIP3   OH236320   5.426   8.831   2.510
12148TIP3    H136321   5.336   8.866   2.517
12148TIP3    H236322   5.416   8.746   2.558
12149TIP3   OH236323   4.307   8.763   2.494
12149TIP3    H136324   4.356   8.699   2.440
12149TIP3    H236325   4.381   8.816   2.532
12150TIP3   OH236326   4.822   8.938   2.593
12150TIP3    H136327   4.880   8.890   2.653
12150TIP3    H236328   4.843   9.030   2.620
12151TIP3   OH236329   4.612   9.016   3.979
12151TIP3    H136330   4.582   8.941   4.033
12151TIP3    H236331   4.707   9.016   4.001
12152TIP3   OH236332   4.863   9.012   4.094
12152TIP3    H136333   4.946   8.984   4.053
12152TIP3    H236334   4.851   8.941   4.161
12153TIP3   OH236335   5.680   9.076   3.884
12153TIP3    H136336   5.705   9.039   3.972
12153TIP3    H236337   5.767   9.074   3.837
12154TIP3   OH236338   5.868   9.517   2.396
12154TIP3    H136339   5.824   9.594   2.436
12154TIP3    H236340   5.794   9.456   2.382
12155TIP3   OH236341   7.100   9.733   2.601
12155TIP3    H136342   7.140   9.647   2.621
12155TIP3    H236343   7.076   9.720   2.507
12156TIP3   OH236344   6.438   9.382   2.568
12156TIP3    H136345   6.420   9.455   2.505
12156TIP3    H236346   6.391   9.308   2.523
12157TIP3   OH236347   7.133   9.466   2.198
12157TIP3    H136348   7.203   9.448   2.265
12157TIP3    H236349   7.187   9.506   2.130
12158TIP3   OH236350   6.065   9.567   2.685
12158TIP3    H136351   6.154   9.556   2.723
12158TIP3    H236352   6.079   9.533   2.595
12159TIP3   OH236353   6.524   9.783   2.458
12159TIP3    H136354   6.612   9.747   2.484
12159TIP3    H236355   6.477   9.705   2.426
12160TIP3   OH236356   6.437   9.366   3.003
12160TIP3    H136357   6.376   9.400   2.934
12160TIP3    H236358   6.385   9.383   3.083
12161TIP3   OH236359   7.352   9.473   2.363
12161TIP3    H136360   7.333   9.421   2.442
12161TIP3    H236361   7.433   9.521   2.388
12162TIP3   OH236362   6.309   9.478   2.786
12162TIP3    H136363   6.372   9.551   2.804
12162TIP3    H236364   6.355   9.435   2.711
12163TIP3   OH236365   7.494   9.445   2.726
12163TIP3    H136366   7.401   9.471   2.715
12163TIP3    H236367   7.532   9.470   2.641
12164TIP3   OH236368   6.796   9.086   2.714
12164TIP3    H136369   6.784   8.991   2.732
12164TIP3    H236370   6.717   9.123   2.760
12165TIP3   OH236371   6.685   9.594   1.724
12165TIP3    H136372   6.739   9.662   1.764
12165TIP3    H236373   6.740   9.564   1.649
12166TIP3   OH236374   7.420   9.026   1.811
12166TIP3    H136375   7.343   9.039   1.871
12166TIP3    H236376   7.431   9.116   1.777
12167TIP3   OH236377   6.555   9.161   2.841
12167TIP3    H136378   6.464   9.130   2.818
12167TIP3    H236379   6.532   9.244   2.886
12168TIP3   OH236380   7.088   9.278   3.037
12168TIP3    H136381   7.156   9.250   3.102
12168TIP3    H236382   7.004   9.256   3.083
12169TIP3   OH236383   7.331   9.699   2.954
12169TIP3    H136384   7.289   9.693   3.043
12169TIP3    H236385   7.296   9.783   2.921
12170TIP3   OH236386   6.706   9.209   1.815
12170TIP3    H136387   6.671   9.209   1.906
12170TIP3    H236388   6.664   9.127   1.782
12171TIP3   OH236389   6.478   9.685   2.855
12171TIP3    H136390   6.416   9.696   2.930
12171TIP3    H236391   6.469   9.768   2.806
12172TIP3   OH236392   6.371   9.560   2.376
12172TIP3    H136393   6.278   9.533   2.391
12172TIP3    H236394   6.385   9.524   2.286
12173TIP3   OH236395   6.875   9.652   2.105
12173TIP3    H136396   6.791   9.699   2.083
12173TIP3    H236397   6.912   9.630   2.017
12174TIP3   OH236398   7.041   9.909   3.184
12174TIP3    H136399   7.036   9.831   3.244
12174TIP3    H236400   7.130   9.941   3.203
12175TIP3   OH236401   7.006   9.672   2.347
12175TIP3    H136402   6.951   9.686   2.267
12175TIP3    H236403   7.054   9.593   2.316
12176TIP3   OH236404   6.325   9.701   3.089
12176TIP3    H136405   6.268   9.770   3.126
12176TIP3    H236406   6.295   9.620   3.135
12177TIP3   OH236407   6.358   9.183   1.784
12177TIP3    H136408   6.351   9.181   1.881
12177TIP3    H236409   6.277   9.231   1.761
12178TIP3   OH236410   5.897   9.232   2.649
12178TIP3    H136411   5.973   9.262   2.704
12178TIP3    H236412   5.940   9.192   2.572
12179TIP3   OH236413   5.876   9.205   2.172
12179TIP3    H136414   5.919   9.246   2.094
12179TIP3    H236415   5.817   9.278   2.198
12180TIP3   OH236416   7.046   9.923   2.792
12180TIP3    H136417   7.073   9.860   2.722
12180TIP3    H236418   6.995   9.862   2.850
12181TIP3   OH236419   6.694   9.378   2.436
12181TIP3    H136420   6.612   9.381   2.490
12181TIP3    H236421   6.761   9.398   2.504
12182TIP3   OH236422   6.131   9.443   2.443
12182TIP3    H136423   6.037   9.446   2.417
12182TIP3    H236424   6.158   9.351   2.423
12183TIP3   OH236425   6.406   9.436   2.133
12183TIP3    H136426   6.498   9.459   2.111
12183TIP3    H236427   6.355   9.462   2.053
12184TIP3   OH236428   7.187   9.461   2.641
12184TIP3    H136429   7.151   9.474   2.731
12184TIP3    H236430   7.121   9.400   2.603
12185TIP3   OH236431   6.239   9.457   1.912
12185TIP3    H136432   6.174   9.421   1.849
12185TIP3    H236433   6.284   9.524   1.857
12186TIP3   OH236434   6.775   9.686   2.526
12186TIP3    H136435   6.861   9.679   2.481
12186TIP3    H236436   6.800   9.683   2.620
12187TIP3   OH236437   6.303   9.202   2.412
12187TIP3    H136438   6.273   9.120   2.457
12187TIP3    H236439   6.357   9.168   2.339
12188TIP3   OH236440   6.754   9.597   2.836
12188TIP3    H136441   6.670   9.645   2.831
12188TIP3    H236442   6.815   9.663   2.877
12189TIP3   OH236443   6.951   9.321   1.787
12189TIP3    H136444   6.856   9.294   1.792
12189TIP3    H236445   6.946   9.417   1.802
12190TIP3   OH236446   7.023   9.583   1.867
12190TIP3    H136447   7.112   9.549   1.881
12190TIP3    H236448   7.035   9.640   1.790
12191TIP3   OH236449   6.773   9.944   3.256
12191TIP3    H136450   6.713   9.894   3.195
12191TIP3    H236451   6.859   9.903   3.236
12192TIP3   OH236452   6.276   9.447   3.222
12192TIP3    H136453   6.179   9.438   3.231
12192TIP3    H236454   6.308   9.382   3.287
12193TIP3   OH236455   7.111   9.517   2.901
12193TIP3    H136456   7.195   9.551   2.936
12193TIP3    H236457   7.098   9.434   2.952
12194TIP3   OH236458   6.995   9.261   2.062
12194TIP3    H136459   6.981   9.287   1.969
12194TIP3    H236460   7.036   9.341   2.101
12195TIP3   OH236461   6.692   9.442   2.166
12195TIP3    H136462   6.761   9.511   2.156
12195TIP3    H236463   6.689   9.432   2.264
12196TIP3   OH236464   6.942   9.751   2.976
12196TIP3    H136465   6.979   9.806   3.048
12196TIP3    H236466   7.002   9.674   2.976
12197TIP3   OH236467   6.830   9.172   2.271
12197TIP3    H136468   6.821   9.247   2.332
12197TIP3    H236469   6.889   9.210   2.202
12198TIP3   OH236470   6.341   9.167   2.059
12198TIP3    H136471   6.338   9.259   2.090
12198TIP3    H236472   6.437   9.150   2.068
12199TIP3   OH236473   7.610   9.670   2.923
12199TIP3    H136474   7.518   9.680   2.953
12199TIP3    H236475   7.599   9.607   2.851
12200TIP3   OH236476   5.892   9.366   1.952
12200TIP3    H136477   5.909   9.458   1.930
12200TIP3    H236478   5.821   9.340   1.892
12201TIP3   OH236479   6.289   9.082   2.820
12201TIP3    H136480   6.258   9.047   2.734
12201TIP3    H236481   6.281   9.003   2.878
12202TIP3   OH236482   6.238   9.936   3.459
12202TIP3    H136483   6.323   9.892   3.450
12202TIP3    H236484   6.258  10.013   3.517
12203TIP3   OH236485   6.570   9.824   3.109
12203TIP3    H136486   6.483   9.778   3.116
12203TIP3    H236487   6.566   9.855   3.018
12204TIP3   OH236488   6.405   9.596   1.741
12204TIP3    H136489   6.379   9.540   1.666
12204TIP3    H236490   6.503   9.584   1.745
12205TIP3   OH236491   6.701   9.633   3.255
12205TIP3    H136492   6.705   9.551   3.202
12205TIP3    H236493   6.657   9.693   3.192
12206TIP3   OH236494   6.695   9.437   3.053
12206TIP3    H136495   6.723   9.481   2.970
12206TIP3    H236496   6.602   9.414   3.032
12207TIP3   OH236497   7.325   9.952   3.307
12207TIP3    H136498   7.343   9.857   3.322
12207TIP3    H236499   7.408   9.978   3.266
12208TIP3   OH236500   6.549   9.779   3.461
12208TIP3    H136501   6.495   9.699   3.478
12208TIP3    H236502   6.602   9.750   3.385
12209TIP3   OH236503   6.829   9.203   3.113
12209TIP3    H136504   6.780   9.286   3.092
12209TIP3    H236505   6.759   9.136   3.102
12210TIP3   OH236506   6.956   9.705   3.338
12210TIP3    H136507   6.950   9.693   3.434
12210TIP3    H236508   6.867   9.671   3.312
12211TIP3   OH236509   7.197   9.658   3.188
12211TIP3    H136510   7.121   9.645   3.248
12211TIP3    H236511   7.271   9.625   3.243
12212TIP3   OH236512   7.407   9.594   3.345
12212TIP3    H136513   7.429   9.500   3.361
12212TIP3    H236514   7.421   9.634   3.433
12213TIP3   OH236515   6.409   9.551   3.524
12213TIP3    H136516   6.414   9.460   3.486
12213TIP3    H236517   6.446   9.534   3.613
12214TIP3   OH236518   6.924   9.215   3.370
12214TIP3    H136519   6.991   9.144   3.366
12214TIP3    H236520   6.884   9.206   3.282
12215TIP3   OH236521   6.989   9.428   3.530
12215TIP3    H136522   6.966   9.357   3.467
12215TIP3    H236523   6.910   9.486   3.525
12216TIP3   OH236524   7.224   9.325   1.532
12216TIP3    H136525   7.312   9.295   1.560
12216TIP3    H236526   7.168   9.246   1.539
12217TIP3   OH236527   6.137   9.601   3.498
12217TIP3    H136528   6.235   9.598   3.494
12217TIP3    H236529   6.120   9.512   3.535
12218TIP3   OH236530   7.949   9.428   3.244
12218TIP3    H136531   8.013   9.358   3.218
12218TIP3    H236532   7.998   9.509   3.224
12219TIP3   OH236533   7.373   9.313   2.024
12219TIP3    H136534   7.438   9.296   2.094
12219TIP3    H236535   7.327   9.227   2.019
12220TIP3   OH236536   6.102   9.287   2.831
12220TIP3    H136537   6.167   9.214   2.838
12220TIP3    H236538   6.162   9.363   2.819
12221TIP3   OH236539   5.907   9.573   2.906
12221TIP3    H136540   5.956   9.555   2.822
12221TIP3    H236541   5.931   9.665   2.919
12222TIP3   OH236542   5.891   9.068   2.403
12222TIP3    H136543   5.797   9.065   2.425
12222TIP3    H236544   5.892   9.123   2.322
12223TIP3   OH236545   6.114   9.159   3.217
12223TIP3    H136546   6.060   9.137   3.295
12223TIP3    H236547   6.044   9.185   3.154
12224TIP3   OH236548   7.753   9.365   2.930
12224TIP3    H136549   7.663   9.368   2.897
12224TIP3    H236550   7.780   9.274   2.909
12225TIP3   OH236551   6.957   9.280   2.554
12225TIP3    H136552   6.909   9.213   2.605
12225TIP3    H236553   7.026   9.228   2.509
12226TIP3   OH236554   7.476   9.162   2.456
12226TIP3    H136555   7.514   9.214   2.382
12226TIP3    H236556   7.380   9.179   2.448
12227TIP3   OH236557   7.575   9.275   2.218
12227TIP3    H136558   7.639   9.210   2.181
12227TIP3    H236559   7.629   9.355   2.215
12228TIP3   OH236560   6.202   8.988   2.572
12228TIP3    H136561   6.110   8.954   2.572
12228TIP3    H236562   6.253   8.904   2.569
12229TIP3   OH236563   5.984   8.858   2.215
12229TIP3    H136564   6.018   8.916   2.145
12229TIP3    H236565   5.959   8.922   2.284
12230TIP3   OH236566   6.644   9.022   2.450
12230TIP3    H136567   6.703   9.075   2.394
12230TIP3    H236568   6.664   9.058   2.538
12231TIP3   OH236569   7.196   9.167   2.433
12231TIP3    H136570   7.189   9.129   2.345
12231TIP3    H236571   7.181   9.087   2.490
12232TIP3   OH236572   7.219   9.081   1.994
12232TIP3    H136573   7.133   9.125   2.007
12232TIP3    H236574   7.205   8.998   2.044
12233TIP3   OH236575   6.104   9.020   1.981
12233TIP3    H136576   6.153   8.956   1.926
12233TIP3    H236577   6.177   9.073   2.019
12234TIP3   OH236578   6.619   9.193   2.080
12234TIP3    H136579   6.677   9.147   2.142
12234TIP3    H236580   6.638   9.286   2.106
12235TIP3   OH236581   6.407   9.273   3.467
12235TIP3    H136582   6.377   9.196   3.520
12235TIP3    H236583   6.502   9.273   3.489
12236TIP3   OH236584   6.659   9.269   3.580
12236TIP3    H136585   6.743   9.241   3.540
12236TIP3    H236586   6.645   9.198   3.647
12237TIP3   OH236587   7.478   9.328   3.371
12237TIP3    H136588   7.504   9.297   3.460
12237TIP3    H236589   7.563   9.324   3.322
12238TIP3   OH236590   2.223   0.668   7.834
12238TIP3    H136591   2.264   0.613   7.903
12238TIP3    H236592   2.235   0.756   7.874
12239TIP3   OH236593   1.842   1.093   7.862
12239TIP3    H136594   1.894   1.026   7.812
12239TIP3    H236595   1.870   1.076   7.953
12240TIP3   OH236596   2.266   0.887   8.018
12240TIP3    H136597   2.178   0.885   8.058
12240TIP3    H236598   2.268   0.976   7.977
12241TIP3   OH236599   2.000   0.937   7.708
12241TIP3    H136600   2.025   0.853   7.664
12241TIP3    H236601   2.054   1.001   7.656
12242TIP3   OH236602   2.109   0.709   7.585
12242TIP3    H136603   2.132   0.634   7.526
12242TIP3    H236604   2.163   0.693   7.664
12243TIP3   OH236605   2.518   0.805   8.359
12243TIP3    H136606   2.487   0.723   8.317
12243TIP3    H236607   2.490   0.875   8.296
12244TIP3   OH236608   2.723   0.451   8.202
12244TIP3    H136609   2.628   0.467   8.220
12244TIP3    H236610   2.728   0.467   8.106
12245TIP3   OH236611   2.300   0.745   7.011
12245TIP3    H136612   2.309   0.842   6.994
12245TIP3    H236613   2.392   0.714   6.997
12246TIP3   OH236614   2.744   1.145   8.400
12246TIP3    H136615   2.744   1.048   8.415
12246TIP3    H236616   2.661   1.169   8.447
12247TIP3   OH236617   1.633   1.090   7.481
12247TIP3    H136618   1.564   1.020   7.478
12247TIP3    H236619   1.583   1.170   7.509
12248TIP3   OH236620   1.810   0.961   7.132
12248TIP3    H136621   1.873   0.895   7.096
12248TIP3    H236622   1.841   0.967   7.225
12249TIP3   OH236623   1.872   1.007   7.399
12249TIP3    H136624   1.786   1.036   7.436
12249TIP3    H236625   1.923   0.985   7.478
12250TIP3   OH236626   2.429   1.495   8.500
12250TIP3    H136627   2.428   1.518   8.405
12250TIP3    H236628   2.508   1.544   8.530
12251TIP3   OH236629   2.462   0.577   8.192
12251TIP3    H136630   2.511   0.628   8.123
12251TIP3    H236631   2.370   0.592   8.166
12252TIP3   OH236632   2.762   0.853   8.450
12252TIP3    H136633   2.664   0.846   8.438
12252TIP3    H236634   2.789   0.822   8.362
12253TIP3   OH236635   2.246   0.812   7.275
12253TIP3    H136636   2.206   0.740   7.325
12253TIP3    H236637   2.252   0.775   7.185
12254TIP3   OH236638   2.018   0.555   7.172
12254TIP3    H136639   2.047   0.517   7.257
12254TIP3    H236640   1.920   0.545   7.178
12255TIP3   OH236641   2.271   1.180   8.339
12255TIP3    H136642   2.184   1.137   8.327
12255TIP3    H236643   2.262   1.254   8.276
12256TIP3   OH236644   2.334   1.020   6.997
12256TIP3    H136645   2.371   1.091   6.942
12256TIP3    H236646   2.253   1.065   7.028
12257TIP3   OH236647   2.159   0.481   7.424
12257TIP3    H136648   2.153   0.389   7.455
12257TIP3    H236649   2.251   0.481   7.390
12258TIP3   OH236650   2.287   1.151   7.935
12258TIP3    H136651   2.245   1.201   7.862
12258TIP3    H236652   2.381   1.173   7.917
12259TIP3   OH236653   1.973   0.781   7.006
12259TIP3    H136654   2.012   0.707   7.058
12259TIP3    H236655   2.022   0.775   6.922
12260TIP3   OH236656   2.336   0.274   7.008
12260TIP3    H136657   2.317   0.223   6.926
12260TIP3    H236658   2.286   0.356   6.989
12261TIP3   OH236659   2.538   1.248   7.893
12261TIP3    H136660   2.566   1.284   7.979
12261TIP3    H236661   2.596   1.295   7.831
12262TIP3   OH236662   2.571   1.271   8.174
12262TIP3    H136663   2.529   1.182   8.169
12262TIP3    H236664   2.645   1.250   8.234
12263TIP3   OH236665   2.430   0.464   7.374
12263TIP3    H136666   2.501   0.523   7.340
12263TIP3    H236667   2.477   0.417   7.446
12264TIP3   OH236668   2.560   0.329   7.582
12264TIP3    H136669   2.488   0.341   7.647
12264TIP3    H236670   2.636   0.371   7.626
12265TIP3   OH236671   2.606   0.715   8.004
12265TIP3    H136672   2.665   0.652   7.956
12265TIP3    H236673   2.608   0.793   7.945
12266TIP3   OH236674   2.447   1.019   8.197
12266TIP3    H136675   2.380   1.065   8.252
12266TIP3    H236676   2.393   0.972   8.131
12267TIP3   OH236677   2.501   0.242   7.217
12267TIP3    H136678   2.437   0.245   7.141
12267TIP3    H236679   2.465   0.315   7.271
12268TIP3   OH236680   2.649   0.601   8.568
12268TIP3    H136681   2.728   0.545   8.579
12268TIP3    H236682   2.686   0.682   8.531
12269TIP3   OH236683   2.846   0.410   8.601
12269TIP3    H136684   2.773   0.349   8.621
12269TIP3    H236685   2.924   0.354   8.610
12270TIP3   OH236686   2.125   1.114   7.549
12270TIP3    H136687   2.173   1.099   7.465
12270TIP3    H236688   2.177   1.185   7.589
12271TIP3   OH236689   2.025   1.370   8.456
12271TIP3    H136690   2.076   1.289   8.449
12271TIP3    H236691   2.067   1.412   8.533
12272TIP3   OH236692   1.779   1.229   8.148
12272TIP3    H136693   1.687   1.228   8.116
12272TIP3    H236694   1.780   1.311   8.200
12273TIP3   OH236695   2.028   1.154   8.208
12273TIP3    H136696   1.936   1.178   8.184
12273TIP3    H236697   2.075   1.233   8.176
12274TIP3   OH236698   2.223   1.351   8.128
12274TIP3    H136699   2.206   1.436   8.083
12274TIP3    H236700   2.247   1.293   8.053
12275TIP3   OH236701   1.535   0.960   7.131
12275TIP3    H136702   1.630   0.986   7.126
12275TIP3    H236703   1.547   0.871   7.169
12276TIP3   OH236704   2.269   1.080   7.318
12276TIP3    H136705   2.263   0.983   7.303
12276TIP3    H236706   2.226   1.114   7.236
12277TIP3   OH236707   2.499   1.228   8.500
12277TIP3    H136708   2.419   1.193   8.457
12277TIP3    H236709   2.476   1.323   8.505
12278TIP3   OH236710   3.763   0.599   7.273
12278TIP3    H136711   3.735   0.691   7.251
12278TIP3    H236712   3.687   0.550   7.239
12279TIP3   OH236713   3.766   0.598   7.650
12279TIP3    H136714   3.787   0.562   7.737
12279TIP3    H236715   3.720   0.523   7.609
12280TIP3   OH236716   3.061   0.519   7.998
12280TIP3    H136717   3.089   0.486   8.084
12280TIP3    H236718   3.140   0.568   7.971
12281TIP3   OH236719   4.009   0.897   7.332
12281TIP3    H136720   3.987   0.829   7.398
12281TIP3    H236721   4.029   0.974   7.388
12282TIP3   OH236722   3.032   0.905   7.746
12282TIP3    H136723   3.023   0.807   7.744
12282TIP3    H236724   3.129   0.913   7.739
12283TIP3   OH236725   2.731   0.098   7.539
12283TIP3    H136726   2.691   0.186   7.552
12283TIP3    H236727   2.662   0.058   7.484
12284TIP3   OH236728   2.804   0.394   7.692
12284TIP3    H136729   2.852   0.319   7.733
12284TIP3    H236730   2.866   0.420   7.621
12285TIP3   OH236731   3.652   1.363   7.348
12285TIP3    H136732   3.702   1.291   7.303
12285TIP3    H236733   3.642   1.327   7.437
12286TIP3   OH236734   3.560   0.822   7.702
12286TIP3    H136735   3.594   0.748   7.650
12286TIP3    H236736   3.645   0.866   7.724
12287TIP3   OH236737   3.978   0.335   7.734
12287TIP3    H136738   4.003   0.246   7.760
12287TIP3    H236739   3.943   0.321   7.644
12288TIP3   OH236740   2.946   0.189   7.804
12288TIP3    H136741   3.021   0.158   7.860
12288TIP3    H236742   2.963   0.132   7.726
12289TIP3   OH236743   3.387   0.385   7.601
12289TIP3    H136744   3.477   0.351   7.616
12289TIP3    H236745   3.340   0.304   7.570
12290TIP3   OH236746   4.624   0.330   7.884
12290TIP3    H136747   4.557   0.397   7.862
12290TIP3    H236748   4.664   0.364   7.966
12291TIP3   OH236749   3.660   0.822   7.141
12291TIP3    H136750   3.612   0.794   7.062
12291TIP3    H236751   3.614   0.906   7.163
12292TIP3   OH236752   3.414   0.742   7.934
12292TIP3    H136753   3.349   0.806   7.970
12292TIP3    H236754   3.454   0.794   7.861
12293TIP3   OH236755   3.178   0.081   7.907
12293TIP3    H136756   3.245   0.149   7.929
12293TIP3    H236757   3.214   0.042   7.826
12294TIP3   OH236758   3.241   0.934   8.026
12294TIP3    H136759   3.213   1.019   7.986
12294TIP3    H236760   3.163   0.918   8.084
12295TIP3   OH236761   2.636   0.625   7.264
12295TIP3    H136762   2.594   0.647   7.178
12295TIP3    H236763   2.664   0.713   7.296
12296TIP3   OH236764   4.080   1.142   7.505
12296TIP3    H136765   3.990   1.133   7.544
12296TIP3    H236766   4.070   1.227   7.457
12297TIP3   OH236767   3.784   1.189   7.183
12297TIP3    H136768   3.832   1.108   7.156
12297TIP3    H236769   3.841   1.256   7.137
12298TIP3   OH236770   3.923   0.974   7.080
12298TIP3    H136771   3.876   0.898   7.043
12298TIP3    H236772   3.958   0.937   7.164
12299TIP3   OH236773   4.307   1.056   7.846
12299TIP3    H136774   4.290   0.979   7.787
12299TIP3    H236775   4.284   1.131   7.786
12300TIP3   OH236776   3.595   0.451   7.103
12300TIP3    H136777   3.512   0.499   7.082
12300TIP3    H236778   3.636   0.444   7.015
12301TIP3   OH236779   3.546   0.235   6.824
12301TIP3    H136780   3.623   0.278   6.866
12301TIP3    H236781   3.592   0.166   6.772
12302TIP3   OH236782   4.498   0.694   7.695
12302TIP3    H136783   4.413   0.743   7.700
12302TIP3    H236784   4.521   0.710   7.601
12303TIP3   OH236785   3.941   0.534   7.076
12303TIP3    H136786   3.885   0.559   7.153
12303TIP3    H236787   4.023   0.505   7.121
12304TIP3   OH236788   4.177   0.581   7.975
12304TIP3    H136789   4.169   0.664   8.024
12304TIP3    H236790   4.089   0.579   7.930
12305TIP3   OH236791   3.175   0.529   7.489
12305TIP3    H136792   3.130   0.473   7.423
12305TIP3    H236793   3.250   0.473   7.516
12306TIP3   OH236794   3.302   0.942   7.640
12306TIP3    H136795   3.279   0.898   7.557
12306TIP3    H236796   3.392   0.908   7.657
12307TIP3   OH236797   3.324   0.495   7.849
12307TIP3    H136798   3.344   0.478   7.754
12307TIP3    H236799   3.359   0.586   7.861
12308TIP3   OH236800   3.839   1.139   7.623
12308TIP3    H136801   3.819   1.219   7.675
12308TIP3    H236802   3.822   1.066   7.686
12309TIP3   OH236803   3.444   1.059   8.167
12309TIP3    H136804   3.384   1.122   8.213
12309TIP3    H236805   3.378   1.005   8.119
12310TIP3   OH236806   3.787   0.380   6.904
12310TIP3    H136807   3.844   0.441   6.956
12310TIP3    H236808   3.811   0.406   6.812
12311TIP3   OH236809   3.177   0.652   8.269
12311TIP3    H136810   3.189   0.731   8.320
12311TIP3    H236811   3.086   0.625   8.293
12312TIP3   OH236812   3.525   1.070   7.176
12312TIP3    H136813   3.598   1.130   7.199
12312TIP3    H236814   3.461   1.130   7.135
12313TIP3   OH236815   3.242   1.229   8.257
12313TIP3    H136816   3.205   1.225   8.167
12313TIP3    H236817   3.164   1.206   8.312
12314TIP3   OH236818   3.036   0.379   7.299
12314TIP3    H136819   2.970   0.419   7.239
12314TIP3    H236820   3.006   0.287   7.304
12315TIP3   OH236821   4.094   1.000   6.496
12315TIP3    H136822   4.101   1.097   6.482
12315TIP3    H236823   4.187   0.972   6.484
12316TIP3   OH236824   2.824   0.756   8.203
12316TIP3    H136825   2.755   0.735   8.137
12316TIP3    H236826   2.854   0.667   8.230
12317TIP3   OH236827   2.674   0.945   7.843
12317TIP3    H136828   2.769   0.943   7.827
12317TIP3    H236829   2.664   1.030   7.890
12318TIP3   OH236830   4.541   1.401   7.893
12318TIP3    H136831   4.536   1.304   7.902
12318TIP3    H236832   4.456   1.427   7.936
12319TIP3   OH236833   3.647   1.185   8.027
12319TIP3    H136834   3.646   1.279   8.058
12319TIP3    H236835   3.573   1.148   8.079
12320TIP3   OH236836   3.406   1.318   6.977
12320TIP3    H136837   3.358   1.297   6.895
12320TIP3    H236838   3.373   1.407   7.000
12321TIP3   OH236839   2.843   1.166   7.359
12321TIP3    H136840   2.890   1.156   7.445
12321TIP3    H236841   2.783   1.090   7.362
12322TIP3   OH236842   3.609   1.219   6.618
12322TIP3    H136843   3.667   1.148   6.582
12322TIP3    H236844   3.641   1.226   6.710
12323TIP3   OH236845   3.657   1.265   6.889
12323TIP3    H136846   3.568   1.276   6.929
12323TIP3    H236847   3.704   1.220   6.961
12324TIP3   OH236848   4.433   0.533   8.171
12324TIP3    H136849   4.353   0.564   8.126
12324TIP3    H236850   4.435   0.439   8.147
12325TIP3   OH236851   3.027   0.942   8.194
12325TIP3    H136852   3.073   0.930   8.279
12325TIP3    H236853   2.954   0.876   8.200
12326TIP3   OH236854   4.122   0.400   8.187
12326TIP3    H136855   4.131   0.305   8.171
12326TIP3    H236856   4.113   0.438   8.098
12327TIP3   OH236857   3.863   0.434   6.647
12327TIP3    H136858   3.823   0.411   6.561
12327TIP3    H236859   3.933   0.495   6.620
12328TIP3   OH236860   3.367   0.261   7.983
12328TIP3    H136861   3.345   0.312   8.062
12328TIP3    H236862   3.355   0.331   7.915
12329TIP3   OH236863   3.229   0.186   7.503
12329TIP3    H136864   3.151   0.136   7.532
12329TIP3    H236865   3.252   0.139   7.419
12330TIP3   OH236866   3.737   0.256   7.234
12330TIP3    H136867   3.681   0.327   7.194
12330TIP3    H236868   3.782   0.220   7.154
12331TIP3   OH236869   3.915   0.578   8.298
12331TIP3    H136870   3.896   0.515   8.372
12331TIP3    H236871   4.008   0.556   8.283
12332TIP3   OH236872   3.896   0.284   7.472
12332TIP3    H136873   3.835   0.314   7.402
12332TIP3    H236874   3.920   0.197   7.436
12333TIP3   OH236875   3.199   0.214   8.307
12333TIP3    H136876   3.237   0.301   8.285
12333TIP3    H236877   3.122   0.210   8.250
12334TIP3   OH236878   3.912   0.530   7.906
12334TIP3    H136879   3.936   0.459   7.841
12334TIP3    H236880   3.870   0.477   7.976
12335TIP3   OH236881   2.998   0.040   7.578
12335TIP3    H136882   2.905   0.058   7.553
12335TIP3    H236883   3.010  -0.052   7.550
12336TIP3   OH236884   3.287   0.059   7.266
12336TIP3    H136885   3.372   0.038   7.225
12336TIP3    H236886   3.225   0.055   7.190
12337TIP3   OH236887   3.105   0.075   7.048
12337TIP3    H136888   3.039   0.028   6.995
12337TIP3    H236889   3.162   0.110   6.976
12338TIP3   OH236890   4.229   1.749   7.989
12338TIP3    H136891   4.224   1.773   7.894
12338TIP3    H236892   4.303   1.805   8.019
12339TIP3   OH236893   3.185   0.878   8.422
12339TIP3    H136894   3.265   0.906   8.472
12339TIP3    H236895   3.120   0.875   8.496
12340TIP3   OH236896   3.659   0.319   7.678
12340TIP3    H136897   3.707   0.259   7.621
12340TIP3    H236898   3.654   0.268   7.761
12341TIP3   OH236899   3.641   0.206   7.950
12341TIP3    H136900   3.548   0.229   7.966
12341TIP3    H236901   3.689   0.263   8.013
12342TIP3   OH236902   3.366   0.603   7.054
12342TIP3    H136903   3.294   0.538   7.042
12342TIP3    H236904   3.348   0.637   7.145
12343TIP3   OH236905   4.266   0.837   7.684
12343TIP3    H136906   4.287   0.886   7.602
12343TIP3    H236907   4.179   0.795   7.661
12344TIP3   OH236908   3.776   0.926   8.049
12344TIP3    H136909   3.772   0.891   8.139
12344TIP3    H236910   3.726   1.009   8.055
12345TIP3   OH236911   3.884   0.137   7.011
12345TIP3    H136912   3.980   0.150   7.022
12345TIP3    H236913   3.859   0.214   6.956
12346TIP3   OH236914   3.059   0.631   7.721
12346TIP3    H136915   3.098   0.597   7.638
12346TIP3    H236916   3.074   0.557   7.782
12347TIP3   OH236917   3.511   0.754   6.875
12347TIP3    H136918   3.463   0.840   6.881
12347TIP3    H236919   3.455   0.697   6.932
12348TIP3   OH236920   2.938   0.544   8.343
12348TIP3    H136921   2.945   0.522   8.438
12348TIP3    H236922   2.861   0.488   8.315
12349TIP3   OH236923   3.668   0.691   8.347
12349TIP3    H136924   3.618   0.649   8.280
12349TIP3    H236925   3.757   0.659   8.325
12350TIP3   OH236926   3.928   1.182   7.943
12350TIP3    H136927   3.832   1.176   7.954
12350TIP3    H236928   3.952   1.234   8.023
12351TIP3   OH236929   4.340   0.248   6.853
12351TIP3    H136930   4.281   0.199   6.792
12351TIP3    H236931   4.335   0.336   6.810
12352TIP3   OH236932   4.556   1.108   7.934
12352TIP3    H136933   4.458   1.104   7.926
12352TIP3    H236934   4.581   1.080   7.843
12353TIP3   OH236935   4.040   1.070   6.762
12353TIP3    H136936   4.007   1.001   6.822
12353TIP3    H236937   4.047   1.024   6.677
12354TIP3   OH236938   4.032   0.698   7.606
12354TIP3    H136939   3.938   0.673   7.616
12354TIP3    H236940   4.065   0.620   7.557
12355TIP3   OH236941   3.156   0.927   7.353
12355TIP3    H136942   3.157   1.009   7.300
12355TIP3    H236943   3.061   0.911   7.360
12356TIP3   OH236944   2.725   0.228   7.060
12356TIP3    H136945   2.767   0.314   7.076
12356TIP3    H236946   2.645   0.235   7.117
12357TIP3   OH236947   3.302   0.697   7.301
12357TIP3    H136948   3.263   0.785   7.318
12357TIP3    H236949   3.262   0.644   7.372
12358TIP3   OH236950   3.426   1.272   7.823
12358TIP3    H136951   3.464   1.345   7.771
12358TIP3    H236952   3.504   1.240   7.871
12359TIP3   OH236953   3.079   1.165   7.208
12359TIP3    H136954   2.992   1.174   7.251
12359TIP3    H236955   3.110   1.258   7.209
12360TIP3   OH236956   3.818   0.907   7.780
12360TIP3    H136957   3.810   0.906   7.878
12360TIP3    H236958   3.893   0.848   7.766
12361TIP3   OH236959   3.786   0.797   6.663
12361TIP3    H136960   3.837   0.773   6.743
12361TIP3    H236961   3.696   0.772   6.690
12362TIP3   OH236962   4.066   1.441   7.831
12362TIP3    H136963   3.987   1.385   7.824
12362TIP3    H236964   4.049   1.506   7.759
12363TIP3   OH236965   4.129   1.275   6.484
12363TIP3    H136966   4.164   1.345   6.426
12363TIP3    H236967   4.050   1.321   6.518
12364TIP3   OH236968   3.948   0.733   6.879
12364TIP3    H136969   3.937   0.666   6.950
12364TIP3    H236970   4.045   0.731   6.867
12365TIP3   OH236971   2.866   1.136   7.982
12365TIP3    H136972   2.916   1.059   8.012
12365TIP3    H236973   2.893   1.202   8.047
12366TIP3   OH236974   3.159   0.783   6.663
12366TIP3    H136975   3.167   0.690   6.632
12366TIP3    H236976   3.139   0.769   6.757
12367TIP3   OH236977   3.103   0.785   6.934
12367TIP3    H136978   3.170   0.757   6.998
12367TIP3    H236979   3.107   0.883   6.941
12368TIP3   OH236980   2.838   0.480   7.137
12368TIP3    H136981   2.771   0.524   7.193
12368TIP3    H236982   2.851   0.550   7.069
12369TIP3   OH236983   3.368   0.984   6.885
12369TIP3    H136984   3.281   1.011   6.919
12369TIP3    H236985   3.382   1.053   6.818
12370TIP3   OH236986   3.582   0.037   7.297
12370TIP3    H136987   3.621   0.125   7.278
12370TIP3    H236988   3.534   0.054   7.380
12371TIP3   OH236989   3.826   0.364   8.098
12371TIP3    H136990   3.805   0.419   8.177
12371TIP3    H236991   3.907   0.318   8.125
12372TIP3   OH236992   3.110   1.057   6.950
12372TIP3    H136993   3.080   1.126   6.886
12372TIP3    H236994   3.093   1.102   7.036
12373TIP3   OH236995   4.116   0.463   7.472
12373TIP3    H136996   4.042   0.401   7.484
12373TIP3    H236997   4.188   0.417   7.521
12374TIP3   OH236998   2.827   0.691   6.945
12374TIP3    H136999   2.890   0.765   6.951
12374TIP3    H237000   2.874   0.636   6.878
12375TIP3   OH237001   2.752  -0.055   7.074
12375TIP3    H137002   2.787   0.036   7.078
12375TIP3    H237003   2.657  -0.037   7.074
12376TIP3   OH237004   4.085   1.414   7.425
12376TIP3    H137005   4.040   1.460   7.350
12376TIP3    H237006   4.178   1.432   7.402
12377TIP3   OH237007   2.702   0.905   7.336
12377TIP3    H137008   2.624   0.935   7.384
12377TIP3    H237009   2.683   0.941   7.246
12378TIP3   OH237010   2.854   1.440   8.403
12378TIP3    H137011   2.940   1.438   8.449
12378TIP3    H237012   2.831   1.346   8.401
12379TIP3   OH237013   3.344   1.413   8.443
12379TIP3    H137014   3.436   1.385   8.451
12379TIP3    H237015   3.312   1.354   8.372
12380TIP3   OH237016   3.321   0.985   6.577
12380TIP3    H137017   3.263   0.914   6.615
12380TIP3    H237018   3.394   0.930   6.543
12381TIP3   OH237019   3.978   1.315   8.179
12381TIP3    H137020   3.969   1.245   8.248
12381TIP3    H237021   4.053   1.367   8.212
12382TIP3   OH237022   3.757   1.027   6.487
12382TIP3    H137023   3.802   0.962   6.543
12382TIP3    H237024   3.811   1.027   6.405
12383TIP3   OH237025   2.987   0.839   8.608
12383TIP3    H137026   3.005   0.744   8.598
12383TIP3    H237027   2.899   0.847   8.565
12384TIP3   OH237028   2.963   0.504   6.797
12384TIP3    H137029   3.017   0.466   6.868
12384TIP3    H237030   3.030   0.512   6.726
12385TIP3   OH237031   3.599   0.959   8.375
12385TIP3    H137032   3.547   0.968   8.291
12385TIP3    H237033   3.629   0.864   8.371
12386TIP3   OH237034   3.475   0.701   6.603
12386TIP3    H137035   3.472   0.713   6.700
12386TIP3    H237036   3.472   0.602   6.598
12387TIP3   OH237037   4.091   0.938   7.987
12387TIP3    H137038   4.157   0.991   7.938
12387TIP3    H237039   4.012   0.994   7.976
12388TIP3   OH237040   3.102   0.577   8.591
12388TIP3    H137041   3.172   0.517   8.562
12388TIP3    H237042   3.119   0.584   8.685
12389TIP3   OH237043   3.176   0.404   7.023
12389TIP3    H137044   3.146   0.362   7.105
12389TIP3    H237045   3.206   0.328   6.970
12390TIP3   OH237046   3.318   0.443   8.171
12390TIP3    H137047   3.273   0.524   8.220
12390TIP3    H237048   3.371   0.494   8.111
12391TIP3   OH237049   3.268   0.195   6.858
12391TIP3    H137050   3.242   0.197   6.764
12391TIP3    H237051   3.364   0.209   6.850
12392TIP3   OH237052   3.963   0.875   8.390
12392TIP3    H137053   4.027   0.841   8.326
12392TIP3    H237054   3.955   0.800   8.452
12393TIP3   OH237055   4.101   0.528   6.516
12393TIP3    H137056   4.074   0.484   6.433
12393TIP3    H237057   4.068   0.619   6.497
12394TIP3   OH237058   3.644   0.410   8.345
12394TIP3    H137059   3.645   0.321   8.389
12394TIP3    H237060   3.559   0.447   8.373
12395TIP3   OH237061   3.600   0.591   8.066
12395TIP3    H137062   3.670   0.582   7.999
12395TIP3    H237063   3.536   0.649   8.019
12396TIP3   OH237064   4.199   0.555   8.455
12396TIP3    H137065   4.203   0.464   8.424
12396TIP3    H237066   4.247   0.604   8.388
12397TIP3   OH237067   4.221   0.796   8.173
12397TIP3    H137068   4.160   0.849   8.116
12397TIP3    H237069   4.306   0.820   8.130
12398TIP3   OH237070   3.423   0.381   8.578
12398TIP3    H137071   3.343   0.331   8.605
12398TIP3    H237072   3.485   0.309   8.561
12399TIP3   OH237073   3.898   0.395   8.494
12399TIP3    H137074   3.844   0.397   8.571
12399TIP3    H237075   3.840   0.345   8.430
12400TIP3   OH237076   3.079   1.258   6.763
12400TIP3    H137077   3.174   1.259   6.742
12400TIP3    H237078   3.044   1.307   6.686
12401TIP3   OH237079   2.560   0.639   6.984
12401TIP3    H137080   2.654   0.660   6.966
12401TIP3    H237081   2.551   0.552   6.939
12402TIP3   OH237082   2.471   1.254   7.392
12402TIP3    H137083   2.404   1.191   7.356
12402TIP3    H237084   2.516   1.197   7.458
12403TIP3   OH237085   2.608   1.109   7.579
12403TIP3    H137086   2.599   1.033   7.638
12403TIP3    H237087   2.659   1.170   7.637
12404TIP3   OH237088   4.339   1.501   7.378
12404TIP3    H137089   4.362   1.540   7.464
12404TIP3    H237090   4.391   1.555   7.317
12405TIP3   OH237091   4.366   1.527   7.661
12405TIP3    H137092   4.322   1.440   7.655
12405TIP3    H237093   4.441   1.504   7.717
12406TIP3   OH237094   4.418   1.199   8.238
12406TIP3    H137095   4.340   1.209   8.296
12406TIP3    H237096   4.454   1.290   8.238
12407TIP3   OH237097   4.230   0.714   6.854
12407TIP3    H137098   4.297   0.780   6.827
12407TIP3    H237099   4.272   0.675   6.934
12408TIP3   OH237100   4.359   0.581   7.058
12408TIP3    H137101   4.290   0.538   7.114
12408TIP3    H237102   4.415   0.625   7.124
12409TIP3   OH237103   4.413   0.976   7.496
12409TIP3    H137104   4.456   0.911   7.438
12409TIP3    H237105   4.399   1.051   7.435
12410TIP3   OH237106   4.243   1.275   7.689
12410TIP3    H137107   4.171   1.319   7.737
12410TIP3    H237108   4.193   1.228   7.618
12411TIP3   OH237109   4.294   0.487   6.705
12411TIP3    H137110   4.224   0.496   6.636
12411TIP3    H237111   4.269   0.564   6.761
12412TIP3   OH237112   4.178   0.157   6.651
12412TIP3    H137113   4.132   0.229   6.606
12412TIP3    H237114   4.128   0.080   6.620
12413TIP3   OH237115   4.175   0.439   7.207
12413TIP3    H137116   4.175   0.343   7.206
12413TIP3    H237117   4.158   0.458   7.302
12414TIP3   OH237118   2.791   0.520   7.939
12414TIP3    H137119   2.791   0.485   7.848
12414TIP3    H237120   2.888   0.525   7.957
12415TIP3   OH237121   4.464   0.861   8.065
12415TIP3    H137122   4.537   0.798   8.048
12415TIP3    H237123   4.480   0.931   7.999
12416TIP3   OH237124   4.652   0.663   8.077
12416TIP3    H137125   4.576   0.618   8.122
12416TIP3    H237126   4.726   0.608   8.107
12417TIP3   OH237127   4.154   0.158   7.054
12417TIP3    H137128   4.200   0.120   7.132
12417TIP3    H237129   4.228   0.193   7.001
12418TIP3   OH237130   4.333   0.360   7.600
12418TIP3    H137131   4.421   0.373   7.560
12418TIP3    H237132   4.352   0.381   7.693
12419TIP3   OH237133   4.399   0.482   7.846
12419TIP3    H137134   4.314   0.521   7.877
12419TIP3    H237135   4.432   0.554   7.788
12420TIP3   OH237136   2.811   0.158   8.044
12420TIP3    H137137   2.843   0.162   7.952
12420TIP3    H237138   2.795   0.250   8.066
12421TIP3   OH237139   3.924   1.369   7.039
12421TIP3    H137140   3.972   1.354   6.954
12421TIP3    H237141   3.974   1.442   7.077
12422TIP3   OH237142   3.023   1.175   8.428
12422TIP3    H137143   2.931   1.148   8.409
12422TIP3    H237144   3.029   1.157   8.524
12423TIP3   OH237145   3.199   1.206   7.972
12423TIP3    H137146   3.148   1.280   7.933
12423TIP3    H237147   3.284   1.222   7.926
12424TIP3   OH237148   3.647   1.451   8.109
12424TIP3    H137149   3.688   1.457   8.198
12424TIP3    H237150   3.712   1.503   8.056
12425TIP3   OH237151   3.824   1.603   7.966
12425TIP3    H137152   3.894   1.553   7.923
12425TIP3    H237153   3.876   1.661   8.026
12426TIP3   OH237154   2.878   1.467   7.992
12426TIP3    H137155   2.790   1.501   7.967
12426TIP3    H237156   2.881   1.495   8.085
12427TIP3   OH237157   3.114   1.444   7.850
12427TIP3    H137158   3.028   1.458   7.896
12427TIP3    H237159   3.093   1.478   7.761
12428TIP3   OH237160   3.540   1.474   7.648
12428TIP3    H137161   3.470   1.493   7.583
12428TIP3    H237162   3.551   1.562   7.689
12429TIP3   OH237163   3.807   1.415   7.700
12429TIP3    H137164   3.712   1.429   7.681
12429TIP3    H237165   3.846   1.492   7.656
12430TIP3   OH237166   4.021   1.608   7.617
12430TIP3    H137167   4.002   1.692   7.569
12430TIP3    H237168   4.041   1.547   7.543
12431TIP3   OH237169   2.787   1.259   7.740
12431TIP3    H137170   2.815   1.235   7.830
12431TIP3    H237171   2.859   1.217   7.688
12432TIP3   OH237172   2.980   1.131   7.595
12432TIP3    H137173   2.997   1.047   7.643
12432TIP3    H237174   3.070   1.169   7.588
12433TIP3   OH237175   3.246   1.227   7.595
12433TIP3    H137176   3.277   1.136   7.582
12433TIP3    H237177   3.287   1.247   7.681
12434TIP3   OH237178   2.576   1.030   7.133
12434TIP3    H137179   2.492   0.996   7.096
12434TIP3    H237180   2.564   1.125   7.113
12435TIP3   OH237181   3.348   1.222   6.712
12435TIP3    H137182   3.436   1.245   6.674
12435TIP3    H237183   3.325   1.147   6.653
12436TIP3   OH237184   4.067   1.338   6.804
12436TIP3    H137185   4.059   1.241   6.790
12436TIP3    H237186   4.021   1.371   6.724
12437TIP3   OH237187   2.652   1.059   6.770
12437TIP3    H137188   2.650   1.088   6.862
12437TIP3    H237189   2.741   1.018   6.762
12438TIP3   OH237190   4.294   1.482   7.993
12438TIP3    H137191   4.215   1.449   7.945
12438TIP3    H237192   4.275   1.578   7.994
12439TIP3   OH237193   5.559   0.859   6.763
12439TIP3    H137194   5.530   0.949   6.738
12439TIP3    H237195   5.485   0.807   6.725
12440TIP3   OH237196   4.849   0.819   7.481
12440TIP3    H137197   4.841   0.907   7.444
12440TIP3    H237198   4.945   0.810   7.489
12441TIP3   OH237199   5.802   1.153   6.821
12441TIP3    H137200   5.792   1.090   6.893
12441TIP3    H237201   5.829   1.234   6.868
12442TIP3   OH237202   4.830   1.162   7.236
12442TIP3    H137203   4.822   1.064   7.227
12442TIP3    H237204   4.926   1.172   7.224
12443TIP3   OH237205   4.531   0.358   7.024
12443TIP3    H137206   4.480   0.441   7.036
12443TIP3    H237207   4.469   0.308   6.967
12444TIP3   OH237208   4.604   0.653   7.186
12444TIP3    H137209   4.651   0.574   7.221
12444TIP3    H237210   4.648   0.667   7.101
12445TIP3   OH237211   5.448   1.619   6.835
12445TIP3    H137212   5.497   1.548   6.789
12445TIP3    H237213   5.441   1.586   6.925
12446TIP3   OH237214   5.353   1.081   7.190
12446TIP3    H137215   5.376   1.027   7.114
12446TIP3    H237216   5.441   1.116   7.215
12447TIP3   OH237217   4.747   0.442   7.294
12447TIP3    H137218   4.820   0.407   7.350
12447TIP3    H237219   4.758   0.386   7.215
12448TIP3   OH237220   5.175   0.636   7.085
12448TIP3    H137221   5.250   0.580   7.109
12448TIP3    H237222   5.117   0.566   7.046
12449TIP3   OH237223   6.414   0.582   7.374
12449TIP3    H137224   6.356   0.657   7.351
12449TIP3    H237225   6.472   0.619   7.442
12450TIP3   OH237226   5.453   1.075   6.630
12450TIP3    H137227   5.410   1.052   6.546
12450TIP3    H237228   5.409   1.160   6.651
12451TIP3   OH237229   5.208   0.995   7.420
12451TIP3    H137230   5.145   1.062   7.458
12451TIP3    H237231   5.252   1.048   7.350
12452TIP3   OH237232   4.988   0.335   7.395
12452TIP3    H137233   5.053   0.406   7.384
12452TIP3    H237234   4.996   0.286   7.312
12453TIP3   OH237235   5.035   1.190   7.511
12453TIP3    H137236   5.011   1.276   7.470
12453TIP3    H237237   4.958   1.179   7.571
12454TIP3   OH237238   4.435   0.883   6.750
12454TIP3    H137239   4.391   0.906   6.666
12454TIP3    H237240   4.461   0.970   6.785
12455TIP3   OH237241   5.872   1.396   6.988
12455TIP3    H137242   5.782   1.391   7.028
12455TIP3    H237243   5.866   1.483   6.943
12456TIP3   OH237244   5.579   1.446   6.668
12456TIP3    H137245   5.627   1.365   6.642
12456TIP3    H237246   5.636   1.513   6.624
12457TIP3   OH237247   5.717   1.231   6.568
12457TIP3    H137248   5.679   1.153   6.524
12457TIP3    H237249   5.750   1.193   6.652
12458TIP3   OH237250   6.097   1.314   7.335
12458TIP3    H137251   6.089   1.238   7.273
12458TIP3    H237252   6.081   1.390   7.274
12459TIP3   OH237253   5.391   0.716   6.592
12459TIP3    H137254   5.307   0.762   6.569
12459TIP3    H237255   5.430   0.702   6.504
12460TIP3   OH237256   5.348   0.489   6.310
12460TIP3    H137257   5.424   0.536   6.349
12460TIP3    H237258   5.395   0.416   6.265
12461TIP3   OH237259   6.292   0.944   7.175
12461TIP3    H137260   6.212   1.000   7.182
12461TIP3    H237261   6.321   0.967   7.084
12462TIP3   OH237262   5.737   0.786   6.566
12462TIP3    H137263   5.678   0.817   6.639
12462TIP3    H237264   5.817   0.762   6.616
12463TIP3   OH237265   5.973   0.841   7.469
12463TIP3    H137266   5.976   0.921   7.525
12463TIP3    H237267   5.889   0.856   7.421
12464TIP3   OH237268   4.968   0.789   6.975
12464TIP3    H137269   4.921   0.732   6.909
12464TIP3    H237270   5.044   0.733   6.997
12465TIP3   OH237271   5.093   1.196   7.128
12465TIP3    H137272   5.074   1.156   7.042
12465TIP3    H237273   5.184   1.165   7.147
12466TIP3   OH237274   5.115   0.750   7.340
12466TIP3    H137275   5.131   0.742   7.244
12466TIP3    H237276   5.151   0.840   7.359
12467TIP3   OH237277   5.632   1.394   7.111
12467TIP3    H137278   5.616   1.477   7.159
12467TIP3    H237279   5.614   1.325   7.178
12468TIP3   OH237280   5.241   1.316   7.653
12468TIP3    H137281   5.182   1.379   7.699
12468TIP3    H237282   5.175   1.262   7.605
12469TIP3   OH237283   5.580   0.634   6.396
12469TIP3    H137284   5.637   0.696   6.444
12469TIP3    H237285   5.604   0.654   6.302
12470TIP3   OH237286   4.984   0.872   7.754
12470TIP3    H137287   5.002   0.958   7.798
12470TIP3    H237288   4.888   0.865   7.770
12471TIP3   OH237289   5.321   1.327   6.667
12471TIP3    H137290   5.396   1.387   6.685
12471TIP3    H237291   5.258   1.385   6.623
12472TIP3   OH237292   5.038   1.484   7.742
12472TIP3    H137293   5.003   1.483   7.651
12472TIP3    H237294   4.959   1.461   7.795
12473TIP3   OH237295   4.831   0.635   6.790
12473TIP3    H137296   4.767   0.676   6.728
12473TIP3    H237297   4.800   0.543   6.791
12474TIP3   OH237298   5.891   1.256   5.984
12474TIP3    H137299   5.899   1.353   5.969
12474TIP3    H237300   5.984   1.227   5.971
12475TIP3   OH237301   4.617   1.014   7.687
12475TIP3    H137302   4.547   0.997   7.621
12475TIP3    H237303   4.647   0.924   7.711
12476TIP3   OH237304   4.471   1.204   7.328
12476TIP3    H137305   4.566   1.209   7.314
12476TIP3    H237306   4.454   1.288   7.373
12477TIP3   OH237307   6.336   1.656   7.378
12477TIP3    H137308   6.334   1.560   7.392
12477TIP3    H237309   6.252   1.682   7.423
12478TIP3   OH237310   5.443   1.444   7.512
12478TIP3    H137311   5.443   1.537   7.545
12478TIP3    H237312   5.370   1.406   7.566
12479TIP3   OH237313   5.202   1.573   6.464
12479TIP3    H137314   5.155   1.552   6.381
12479TIP3    H237315   5.168   1.662   6.486
12480TIP3   OH237316   4.640   1.424   6.846
12480TIP3    H137317   4.685   1.412   6.932
12480TIP3    H237318   4.577   1.349   6.849
12481TIP3   OH237319   5.405   1.475   6.105
12481TIP3    H137320   5.463   1.405   6.069
12481TIP3    H237321   5.438   1.482   6.197
12482TIP3   OH237322   5.454   1.522   6.376
12482TIP3    H137323   5.364   1.532   6.416
12482TIP3    H237324   5.502   1.479   6.448
12483TIP3   OH237325   6.226   0.780   7.669
12483TIP3    H137326   6.165   0.818   7.604
12483TIP3    H237327   6.260   0.700   7.625
12484TIP3   OH237328   4.824   1.194   7.680
12484TIP3    H137329   4.871   1.178   7.764
12484TIP3    H237330   4.748   1.133   7.687
12485TIP3   OH237331   5.879   0.640   7.638
12485TIP3    H137332   5.947   0.583   7.674
12485TIP3    H237333   5.927   0.708   7.587
12486TIP3   OH237334   5.660   0.688   6.137
12486TIP3    H137335   5.620   0.666   6.051
12486TIP3    H237336   5.730   0.750   6.109
12487TIP3   OH237337   5.170   0.522   7.475
12487TIP3    H137338   5.089   0.522   7.531
12487TIP3    H237339   5.157   0.606   7.425
12488TIP3   OH237340   5.025   0.436   6.992
12488TIP3    H137341   4.943   0.388   7.016
12488TIP3    H237342   5.045   0.395   6.905
12489TIP3   OH237343   5.519   0.510   6.710
12489TIP3    H137344   5.460   0.585   6.689
12489TIP3    H237345   5.572   0.509   6.630
12490TIP3   OH237346   5.707   0.833   7.777
12490TIP3    H137347   5.693   0.772   7.852
12490TIP3    H237348   5.804   0.830   7.775
12491TIP3   OH237349   5.178   0.596   7.838
12491TIP3    H137350   5.122   0.675   7.833
12491TIP3    H237351   5.122   0.532   7.792
12492TIP3   OH237352   5.706   0.771   7.383
12492TIP3    H137353   5.751   0.686   7.376
12492TIP3    H237354   5.667   0.763   7.471
12493TIP3   OH237355   4.795   0.296   7.065
12493TIP3    H137356   4.701   0.315   7.042
12493TIP3    H237357   4.800   0.201   7.045
12494TIP3   OH237358   5.085   0.323   6.750
12494TIP3    H137359   5.166   0.292   6.707
12494TIP3    H237360   5.020   0.316   6.678
12495TIP3   OH237361   4.901   0.335   6.536
12495TIP3    H137362   4.840   0.281   6.482
12495TIP3    H237363   4.959   0.367   6.464
12496TIP3   OH237364   6.024   2.008   7.476
12496TIP3    H137365   6.023   2.032   7.382
12496TIP3    H237366   6.102   2.057   7.507
12497TIP3   OH237367   4.983   1.115   7.901
12497TIP3    H137368   5.063   1.147   7.947
12497TIP3    H237369   4.919   1.120   7.974
12498TIP3   OH237370   5.438   0.490   7.425
12498TIP3    H137371   5.345   0.503   7.454
12498TIP3    H237372   5.489   0.529   7.501
12499TIP3   OH237373   5.161   0.861   6.542
12499TIP3    H137374   5.089   0.794   6.529
12499TIP3    H237375   5.142   0.893   6.633
12500TIP3   OH237376   6.066   1.097   7.170
12500TIP3    H137377   6.092   1.146   7.089
12500TIP3    H237378   5.980   1.057   7.143
12501TIP3   OH237379   5.563   1.178   7.533
12501TIP3    H137380   5.575   1.148   7.624
12501TIP3    H237381   5.524   1.266   7.544
12502TIP3   OH237382   4.861   0.890   7.208
12502TIP3    H137383   4.891   0.860   7.118
12502TIP3    H237384   4.876   0.810   7.260
12503TIP3   OH237385   5.309   1.011   6.365
12503TIP3    H137386   5.261   1.097   6.369
12503TIP3    H237387   5.251   0.955   6.421
12504TIP3   OH237388   4.728   0.799   7.829
12504TIP3    H137389   4.743   0.780   7.923
12504TIP3    H237390   4.655   0.738   7.807
12505TIP3   OH237391   5.467   0.956   7.831
12505TIP3    H137392   5.417   0.887   7.785
12505TIP3    H237393   5.557   0.923   7.811
12506TIP3   OH237394   5.721   1.429   7.433
12506TIP3    H137395   5.624   1.434   7.445
12506TIP3    H237396   5.751   1.485   7.509
12507TIP3   OH237397   6.120   0.508   6.338
12507TIP3    H137398   6.085   0.454   6.263
12507TIP3    H237399   6.132   0.593   6.289
12508TIP3   OH237400   6.348   1.361   7.424
12508TIP3    H137401   6.250   1.359   7.414
12508TIP3    H237402   6.374   1.336   7.333
12509TIP3   OH237403   5.832   1.327   6.248
12509TIP3    H137404   5.805   1.256   6.307
12509TIP3    H237405   5.843   1.283   6.162
12510TIP3   OH237406   5.837   0.958   7.089
12510TIP3    H137407   5.747   0.934   7.114
12510TIP3    H237408   5.866   0.878   7.042
12511TIP3   OH237409   4.952   1.184   6.841
12511TIP3    H137410   4.955   1.265   6.787
12511TIP3    H237411   4.857   1.168   6.845
12512TIP3   OH237412   4.520   0.484   6.544
12512TIP3    H137413   4.565   0.570   6.559
12512TIP3    H237414   4.441   0.494   6.602
12513TIP3   OH237415   5.101   0.954   6.792
12513TIP3    H137416   5.061   1.042   6.804
12513TIP3    H237417   5.054   0.902   6.860
12514TIP3   OH237418   5.222   1.528   7.310
12514TIP3    H137419   5.260   1.602   7.258
12514TIP3    H237420   5.300   1.498   7.359
12515TIP3   OH237421   4.876   1.421   6.695
12515TIP3    H137422   4.788   1.430   6.738
12515TIP3    H237423   4.906   1.515   6.696
12516TIP3   OH237424   5.613   1.150   7.267
12516TIP3    H137425   5.600   1.159   7.364
12516TIP3    H237426   5.707   1.128   7.263
12517TIP3   OH237427   5.584   1.053   6.149
12517TIP3    H137428   5.633   1.030   6.230
12517TIP3    H237429   5.493   1.028   6.174
12518TIP3   OH237430   5.860   1.697   7.317
12518TIP3    H137431   5.780   1.643   7.306
12518TIP3    H237432   5.847   1.764   7.246
12519TIP3   OH237433   5.925   1.531   5.970
12519TIP3    H137434   5.962   1.602   5.915
12519TIP3    H237435   5.845   1.578   6.003
12520TIP3   OH237436   5.744   0.992   6.369
12520TIP3    H137437   5.734   0.923   6.438
12520TIP3    H237438   5.841   0.989   6.354
12521TIP3   OH237439   4.664   1.394   7.468
12521TIP3    H137440   4.713   1.317   7.499
12521TIP3    H237441   4.691   1.462   7.531
12522TIP3   OH237442   4.955   1.040   6.150
12522TIP3    H137443   4.962   0.948   6.118
12522TIP3    H237444   4.934   1.025   6.244
12523TIP3   OH237445   4.898   1.041   6.422
12523TIP3    H137446   4.967   1.015   6.484
12523TIP3    H237447   4.903   1.139   6.427
12524TIP3   OH237448   4.635   0.736   6.624
12524TIP3    H137449   4.568   0.781   6.680
12524TIP3    H237450   4.648   0.805   6.555
12525TIP3   OH237451   5.165   1.241   6.374
12525TIP3    H137452   5.077   1.268   6.406
12525TIP3    H237453   5.178   1.306   6.303
12526TIP3   OH237454   5.379   0.288   6.783
12526TIP3    H137455   5.416   0.375   6.759
12526TIP3    H237456   5.323   0.308   6.858
12527TIP3   OH237457   5.610   0.605   7.602
12527TIP3    H137458   5.592   0.674   7.667
12527TIP3    H237459   5.707   0.592   7.616
12528TIP3   OH237460   4.907   1.314   6.437
12528TIP3    H137461   4.876   1.382   6.373
12528TIP3    H237462   4.889   1.359   6.522
12529TIP3   OH237463   5.906   0.713   6.963
12529TIP3    H137464   5.856   0.630   6.967
12529TIP3    H237465   5.989   0.685   7.010
12530TIP3   OH237466   4.624   0.947   6.432
12530TIP3    H137467   4.686   1.022   6.437
12530TIP3    H237468   4.670   0.892   6.366
12531TIP3   OH237469   4.547   0.199   6.552
12531TIP3    H137470   4.584   0.290   6.553
12531TIP3    H237471   4.459   0.216   6.586
12532TIP3   OH237472   5.881   1.668   6.911
12532TIP3    H137473   5.837   1.715   6.836
12532TIP3    H237474   5.975   1.689   6.890
12533TIP3   OH237475   4.499   1.161   6.822
12533TIP3    H137476   4.422   1.190   6.872
12533TIP3    H237477   4.477   1.198   6.734
12534TIP3   OH237478   4.650   1.697   7.890
12534TIP3    H137479   4.736   1.696   7.937
12534TIP3    H237480   4.628   1.603   7.888
12535TIP3   OH237481   5.136   1.666   7.935
12535TIP3    H137482   5.231   1.647   7.941
12535TIP3    H237483   5.110   1.609   7.860
12536TIP3   OH237484   5.118   1.242   6.065
12536TIP3    H137485   5.060   1.170   6.101
12536TIP3    H237486   5.190   1.188   6.027
12537TIP3   OH237487   5.775   1.569   7.665
12537TIP3    H137488   5.765   1.501   7.734
12537TIP3    H237489   5.851   1.621   7.697
12538TIP3   OH237490   5.553   1.284   5.974
12538TIP3    H137491   5.600   1.220   6.029
12538TIP3    H237492   5.606   1.285   5.891
12539TIP3   OH237493   4.783   1.101   8.094
12539TIP3    H137494   4.801   1.005   8.086
12539TIP3    H237495   4.696   1.108   8.049
12540TIP3   OH237496   4.760   0.760   6.286
12540TIP3    H137497   4.816   0.721   6.354
12540TIP3    H237498   4.825   0.768   6.212
12541TIP3   OH237499   5.389   1.214   7.864
12541TIP3    H137500   5.345   1.227   7.777
12541TIP3    H237501   5.425   1.123   7.856
12542TIP3   OH237502   5.272   0.958   6.091
12542TIP3    H137503   5.268   0.970   6.188
12542TIP3    H237504   5.268   0.860   6.085
12543TIP3   OH237505   5.882   1.193   7.463
12543TIP3    H137506   5.955   1.243   7.422
12543TIP3    H237507   5.811   1.261   7.461
12544TIP3   OH237508   4.902   0.836   8.083
12544TIP3    H137509   4.972   0.778   8.054
12544TIP3    H237510   4.934   0.862   8.172
12545TIP3   OH237511   4.975   0.659   6.511
12545TIP3    H137512   4.941   0.613   6.589
12545TIP3    H237513   5.004   0.584   6.454
12546TIP3   OH237514   4.981   0.610   7.651
12546TIP3    H137515   4.909   0.671   7.675
12546TIP3    H237516   5.049   0.675   7.630
12547TIP3   OH237517   5.065   0.453   6.344
12547TIP3    H137518   5.037   0.448   6.250
12547TIP3    H237519   5.161   0.466   6.334
12548TIP3   OH237520   5.754   1.130   7.873
12548TIP3    H137521   5.834   1.106   7.824
12548TIP3    H237522   5.751   1.059   7.940
12549TIP3   OH237523   5.896   0.785   6.007
12549TIP3    H137524   5.871   0.739   5.924
12549TIP3    H237525   5.865   0.876   5.984
12550TIP3   OH237526   5.434   0.675   7.845
12550TIP3    H137527   5.448   0.594   7.900
12550TIP3    H237528   5.342   0.661   7.818
12551TIP3   OH237529   5.406   0.841   7.540
12551TIP3    H137530   5.472   0.856   7.473
12551TIP3    H237531   5.334   0.900   7.511
12552TIP3   OH237532   5.976   0.813   7.917
12552TIP3    H137533   6.017   0.728   7.935
12552TIP3    H237534   6.050   0.870   7.893
12553TIP3   OH237535   6.016   1.051   7.650
12553TIP3    H137536   5.956   1.107   7.595
12553TIP3    H237537   6.103   1.078   7.612
12554TIP3   OH237538   5.222   0.642   8.110
12554TIP3    H137539   5.148   0.580   8.120
12554TIP3    H237540   5.252   0.620   8.019
12555TIP3   OH237541   5.693   0.659   7.978
12555TIP3    H137542   5.642   0.655   8.060
12555TIP3    H237543   5.647   0.595   7.921
12556TIP3   OH237544   4.875   1.517   6.251
12556TIP3    H137545   4.970   1.516   6.229
12556TIP3    H237546   4.840   1.562   6.172
12557TIP3   OH237547   4.357   0.900   6.474
12557TIP3    H137548   4.451   0.924   6.457
12557TIP3    H237549   4.352   0.811   6.434
12558TIP3   OH237550   4.269   1.511   6.878
12558TIP3    H137551   4.201   1.450   6.843
12558TIP3    H237552   4.313   1.454   6.944
12559TIP3   OH237553   4.407   1.365   7.065
12559TIP3    H137554   4.390   1.291   7.124
12559TIP3    H237555   4.455   1.426   7.124
12560TIP3   OH237556   6.131   1.763   6.865
12560TIP3    H137557   6.159   1.798   6.952
12560TIP3    H237558   6.192   1.808   6.804
12561TIP3   OH237559   6.162   1.784   7.148
12561TIP3    H137560   6.122   1.695   7.143
12561TIP3    H237561   6.239   1.764   7.203
12562TIP3   OH237562   6.209   1.458   7.721
12562TIP3    H137563   6.135   1.468   7.785
12562TIP3    H237564   6.250   1.547   7.724
12563TIP3   OH237565   6.025   0.971   6.340
12563TIP3    H137566   6.091   1.038   6.310
12563TIP3    H237567   6.071   0.935   6.419
12564TIP3   OH237568   6.151   0.836   6.544
12564TIP3    H137569   6.091   0.801   6.611
12564TIP3    H237570   6.223   0.878   6.597
12565TIP3   OH237571   6.204   1.230   6.977
12565TIP3    H137572   6.258   1.169   6.923
12565TIP3    H237573   6.198   1.308   6.918
12566TIP3   OH237574   6.039   1.530   7.175
12566TIP3    H137575   5.968   1.577   7.224
12566TIP3    H237576   5.988   1.484   7.104
12567TIP3   OH237577   6.085   0.741   6.197
12567TIP3    H137578   6.019   0.750   6.125
12567TIP3    H237579   6.064   0.822   6.248
12568TIP3   OH237580   5.959   0.408   6.146
12568TIP3    H137581   5.917   0.480   6.098
12568TIP3    H237582   5.929   0.332   6.094
12569TIP3   OH237583   5.968   0.667   6.697
12569TIP3    H137584   6.009   0.590   6.741
12569TIP3    H237585   5.947   0.719   6.778
12570TIP3   OH237586   4.586   0.754   7.440
12570TIP3    H137587   4.582   0.730   7.344
12570TIP3    H237588   4.682   0.769   7.451
12571TIP3   OH237589   6.260   1.116   7.547
12571TIP3    H137590   6.334   1.053   7.535
12571TIP3    H237591   6.285   1.190   7.489
12572TIP3   OH237592   6.444   0.915   7.563
12572TIP3    H137593   6.383   0.863   7.619
12572TIP3    H237594   6.529   0.876   7.587
12573TIP3   OH237595   6.128   0.625   7.084
12573TIP3    H137596   6.218   0.632   7.044
12573TIP3    H237597   6.151   0.634   7.178
12574TIP3   OH237598   6.190   0.741   7.334
12574TIP3    H137599   6.108   0.785   7.364
12574TIP3    H237600   6.227   0.810   7.273
12575TIP3   OH237601   4.584   0.430   7.517
12575TIP3    H137602   4.625   0.417   7.430
12575TIP3    H237603   4.610   0.520   7.536
12576TIP3   OH237604   5.718   1.627   6.525
12576TIP3    H137605   5.767   1.611   6.442
12576TIP3    H237606   5.771   1.696   6.567
12577TIP3   OH237607   4.819   1.426   7.910
12577TIP3    H137608   4.726   1.404   7.892
12577TIP3    H237609   4.823   1.419   8.006
12578TIP3   OH237610   4.996   1.462   7.458
12578TIP3    H137611   4.945   1.536   7.420
12578TIP3    H237612   5.081   1.479   7.412
12579TIP3   OH237613   5.443   1.709   7.595
12579TIP3    H137614   5.484   1.712   7.684
12579TIP3    H237615   5.509   1.760   7.542
12580TIP3   OH237616   5.622   1.859   7.453
12580TIP3    H137617   5.695   1.810   7.412
12580TIP3    H237618   5.671   1.918   7.514
12581TIP3   OH237619   4.674   1.722   7.481
12581TIP3    H137620   4.586   1.756   7.453
12581TIP3    H237621   4.677   1.756   7.571
12582TIP3   OH237622   4.910   1.700   7.337
12582TIP3    H137623   4.824   1.713   7.383
12582TIP3    H237624   4.889   1.734   7.248
12583TIP3   OH237625   5.336   1.730   7.135
12583TIP3    H137626   5.266   1.750   7.070
12583TIP3    H237627   5.348   1.818   7.177
12584TIP3   OH237628   5.603   1.668   7.184
12584TIP3    H137629   5.509   1.686   7.167
12584TIP3    H237630   5.645   1.746   7.145
12585TIP3   OH237631   5.812   1.862   7.103
12585TIP3    H137632   5.797   1.948   7.057
12585TIP3    H237633   5.837   1.803   7.029
12586TIP3   OH237634   4.585   1.518   7.225
12586TIP3    H137635   4.611   1.492   7.316
12586TIP3    H237636   4.656   1.474   7.174
12587TIP3   OH237637   4.776   1.388   7.081
12587TIP3    H137638   4.794   1.304   7.130
12587TIP3    H237639   4.866   1.426   7.075
12588TIP3   OH237640   5.042   1.485   7.082
12588TIP3    H137641   5.074   1.394   7.068
12588TIP3    H237642   5.084   1.505   7.168
12589TIP3   OH237643   4.373   1.286   6.619
12589TIP3    H137644   4.288   1.252   6.584
12589TIP3    H237645   4.360   1.381   6.599
12590TIP3   OH237646   5.144   1.480   6.198
12590TIP3    H137647   5.232   1.501   6.161
12590TIP3    H237648   5.121   1.404   6.140
12591TIP3   OH237649   5.862   1.595   6.291
12591TIP3    H137650   5.854   1.497   6.277
12591TIP3    H237651   5.817   1.628   6.211
12592TIP3   OH237652   4.449   1.317   6.256
12592TIP3    H137653   4.445   1.344   6.349
12592TIP3    H237654   4.537   1.275   6.249
12593TIP3   OH237655   6.090   1.739   7.480
12593TIP3    H137656   6.010   1.708   7.432
12593TIP3    H237657   6.072   1.836   7.481
12594TIP3   OH237658   7.355   1.110   6.247
12594TIP3    H137659   7.328   1.203   6.228
12594TIP3    H237660   7.278   1.063   6.213
12595TIP3   OH237661   7.351   1.112   6.626
12595TIP3    H137662   7.382   1.082   6.713
12595TIP3    H237663   7.311   1.030   6.591
12596TIP3   OH237664   6.654   1.024   6.981
12596TIP3    H137665   6.668   1.042   7.076
12596TIP3    H237666   6.744   1.039   6.947
12597TIP3   OH237667   7.595   1.413   6.307
12597TIP3    H137668   7.585   1.342   6.372
12597TIP3    H237669   7.625   1.487   6.362
12598TIP3   OH237670   6.624   1.415   6.719
12598TIP3    H137671   6.616   1.318   6.718
12598TIP3    H237672   6.721   1.425   6.712
12599TIP3   OH237673   6.316   0.602   6.519
12599TIP3    H137674   6.285   0.694   6.523
12599TIP3    H237675   6.263   0.565   6.447
12600TIP3   OH237676   6.391   0.901   6.666
12600TIP3    H137677   6.444   0.829   6.707
12600TIP3    H237678   6.455   0.940   6.604
12601TIP3   OH237679   7.244   1.875   6.324
12601TIP3    H137680   7.292   1.804   6.275
12601TIP3    H237681   7.243   1.839   6.413
12602TIP3   OH237682   7.153   1.336   6.675
12602TIP3    H137683   7.190   1.259   6.628
12602TIP3    H237684   7.237   1.380   6.698
12603TIP3   OH237685   7.565   0.850   6.709
12603TIP3    H137686   7.598   0.765   6.741
12603TIP3    H237687   7.538   0.828   6.617
12604TIP3   OH237688   6.537   0.698   6.780
12604TIP3    H137689   6.617   0.671   6.830
12604TIP3    H237690   6.554   0.645   6.699
12605TIP3   OH237691   6.979   0.899   6.579
12605TIP3    H137692   7.071   0.868   6.589
12605TIP3    H237693   6.935   0.817   6.545
12606TIP3   OH237694   8.212   0.839   6.860
12606TIP3    H137695   8.152   0.913   6.837
12606TIP3    H237696   8.267   0.876   6.931
12607TIP3   OH237697   7.248   1.332   6.117
12607TIP3    H137698   7.207   1.309   6.032
12607TIP3    H237699   7.204   1.417   6.138
12608TIP3   OH237700   7.006   1.256   6.906
12608TIP3    H137701   6.942   1.322   6.942
12608TIP3    H237702   7.050   1.307   6.835
12609TIP3   OH237703   6.769   0.600   6.880
12609TIP3    H137704   6.837   0.666   6.904
12609TIP3    H237705   6.811   0.554   6.806
12610TIP3   OH237706   6.831   1.449   6.999
12610TIP3    H137707   6.806   1.534   6.959
12610TIP3    H237708   6.753   1.434   7.057
12611TIP3   OH237709   6.227   1.140   6.238
12611TIP3    H137710   6.190   1.165   6.151
12611TIP3    H237711   6.258   1.226   6.273
12612TIP3   OH237712   7.668   1.654   6.477
12612TIP3    H137713   7.577   1.647   6.515
12612TIP3    H237714   7.661   1.740   6.431
12613TIP3   OH237715   7.371   1.704   6.151
12613TIP3    H137716   7.421   1.621   6.130
12613TIP3    H237717   7.431   1.769   6.108
12614TIP3   OH237718   7.511   1.489   6.055
12614TIP3    H137719   7.478   1.409   6.013
12614TIP3    H237720   7.547   1.453   6.139
12615TIP3   OH237721   7.894   1.570   6.820
12615TIP3    H137722   7.884   1.493   6.760
12615TIP3    H237723   7.879   1.645   6.758
12616TIP3   OH237724   7.186   0.964   6.074
12616TIP3    H137725   7.105   1.013   6.051
12616TIP3    H237726   7.232   0.958   5.989
12617TIP3   OH237727   7.140   0.743   5.800
12617TIP3    H137728   7.213   0.792   5.841
12617TIP3    H237729   7.193   0.678   5.748
12618TIP3   OH237730   8.088   1.202   6.663
12618TIP3    H137731   8.007   1.256   6.670
12618TIP3    H237732   8.116   1.225   6.571
12619TIP3   OH237733   7.532   1.045   6.049
12619TIP3    H137734   7.479   1.070   6.127
12619TIP3    H237735   7.615   1.016   6.092
12620TIP3   OH237736   7.767   1.092   6.954
12620TIP3    H137737   7.765   1.176   7.004
12620TIP3    H237738   7.682   1.100   6.905
12621TIP3   OH237739   6.768   1.044   6.466
12621TIP3    H137740   6.723   0.986   6.399
12621TIP3    H237741   6.843   0.988   6.493
12622TIP3   OH237742   6.893   1.453   6.615
12622TIP3    H137743   6.875   1.409   6.530
12622TIP3    H237744   6.984   1.422   6.634
12623TIP3   OH237745   6.901   1.014   6.821
12623TIP3    H137746   6.934   0.991   6.731
12623TIP3    H237747   6.949   1.098   6.839
12624TIP3   OH237748   7.425   1.653   6.595
12624TIP3    H137749   7.413   1.732   6.651
12624TIP3    H237750   7.413   1.579   6.658
12625TIP3   OH237751   7.038   1.574   7.140
12625TIP3    H137752   6.979   1.636   7.187
12625TIP3    H237753   6.972   1.519   7.093
12626TIP3   OH237754   7.378   0.895   5.873
12626TIP3    H137755   7.437   0.953   5.926
12626TIP3    H237756   7.402   0.920   5.781
12627TIP3   OH237757   6.765   1.153   7.231
12627TIP3    H137758   6.786   1.234   7.282
12627TIP3    H237759   6.678   1.131   7.269
12628TIP3   OH237760   7.114   1.586   6.152
12628TIP3    H137761   7.194   1.639   6.170
12628TIP3    H237762   7.055   1.650   6.110
12629TIP3   OH237763   6.833   1.742   7.229
12629TIP3    H137764   6.799   1.738   7.137
12629TIP3    H237765   6.754   1.720   7.282
12630TIP3   OH237766   6.626   0.894   6.276
12630TIP3    H137767   6.561   0.929   6.212
12630TIP3    H237768   6.606   0.800   6.277
12631TIP3   OH237769   7.688   1.514   5.471
12631TIP3    H137770   7.698   1.611   5.456
12631TIP3    H237771   7.781   1.484   5.458
12632TIP3   OH237772   6.411   1.270   7.177
12632TIP3    H137773   6.349   1.249   7.105
12632TIP3    H237774   6.446   1.182   7.203
12633TIP3   OH237775   6.268   1.459   6.817
12633TIP3    H137776   6.363   1.456   6.800
12633TIP3    H237777   6.259   1.543   6.865
12634TIP3   OH237778   8.131   1.912   6.863
12634TIP3    H137779   8.130   1.816   6.878
12634TIP3    H237780   8.048   1.937   6.910
12635TIP3   OH237781   7.238   1.703   6.998
12635TIP3    H137782   7.238   1.795   7.032
12635TIP3    H237783   7.167   1.663   7.053
12636TIP3   OH237784   6.994   1.829   5.952
12636TIP3    H137785   6.952   1.809   5.866
12636TIP3    H237786   6.964   1.920   5.970
12637TIP3   OH237787   6.435   1.680   6.334
12637TIP3    H137788   6.484   1.669   6.419
12637TIP3    H237789   6.375   1.604   6.339
12638TIP3   OH237790   7.200   1.730   5.593
12638TIP3    H137791   7.259   1.661   5.555
12638TIP3    H237792   7.234   1.738   5.684
12639TIP3   OH237793   7.248   1.779   5.864
12639TIP3    H137794   7.161   1.786   5.907
12639TIP3    H237795   7.300   1.736   5.933
12640TIP3   OH237796   8.022   1.039   7.154
12640TIP3    H137797   7.957   1.073   7.091
12640TIP3    H237798   8.052   0.957   7.111
12641TIP3   OH237799   6.617   1.455   7.168
12641TIP3    H137800   6.668   1.441   7.251
12641TIP3    H237801   6.545   1.390   7.176
12642TIP3   OH237802   7.684   0.901   7.136
12642TIP3    H137803   7.750   0.831   7.145
12642TIP3    H237804   7.720   0.959   7.068
12643TIP3   OH237805   7.453   0.939   5.606
12643TIP3    H137806   7.410   0.941   5.519
12643TIP3    H237807   7.530   0.997   5.589
12644TIP3   OH237808   6.954   0.781   6.960
12644TIP3    H137809   6.943   0.835   7.041
12644TIP3    H237810   6.940   0.853   6.893
12645TIP3   OH237811   6.819   0.702   6.475
12645TIP3    H137812   6.745   0.648   6.506
12645TIP3    H237813   6.845   0.653   6.393
12646TIP3   OH237814   7.328   0.768   6.206
12646TIP3    H137815   7.274   0.840   6.167
12646TIP3    H237816   7.376   0.735   6.127
12647TIP3   OH237817   7.508   1.092   7.256
12647TIP3    H137818   7.503   1.034   7.335
12647TIP3    H237819   7.605   1.092   7.245
12648TIP3   OH237820   7.484   0.794   6.448
12648TIP3    H137821   7.427   0.825   6.375
12648TIP3    H237822   7.518   0.712   6.410
12649TIP3   OH237823   6.780   0.745   7.277
12649TIP3    H137824   6.832   0.824   7.254
12649TIP3    H237825   6.725   0.732   7.200
12650TIP3   OH237826   7.492   1.045   6.877
12650TIP3    H137827   7.521   0.973   6.816
12650TIP3    H237828   7.474   0.995   6.958
12651TIP3   OH237829   6.590   0.554   6.552
12651TIP3    H137830   6.495   0.563   6.529
12651TIP3    H237831   6.607   0.461   6.531
12652TIP3   OH237832   6.878   0.574   6.240
12652TIP3    H137833   6.967   0.552   6.207
12652TIP3    H237834   6.823   0.566   6.160
12653TIP3   OH237835   6.691   0.592   6.018
12653TIP3    H137836   6.633   0.538   5.962
12653TIP3    H237837   6.753   0.625   5.950
12654TIP3   OH237838   7.820   2.266   6.963
12654TIP3    H137839   7.820   2.288   6.868
12654TIP3    H237840   7.900   2.313   6.994
12655TIP3   OH237841   6.777   1.382   7.391
12655TIP3    H137842   6.859   1.410   7.436
12655TIP3    H237843   6.715   1.385   7.466
12656TIP3   OH237844   7.247   0.831   6.645
12656TIP3    H137845   7.310   0.782   6.591
12656TIP3    H237846   7.248   0.780   6.728
12657TIP3   OH237847   7.228   0.713   6.937
12657TIP3    H137848   7.139   0.751   6.942
12657TIP3    H237849   7.282   0.771   6.995
12658TIP3   OH237850   6.955   1.117   6.025
12658TIP3    H137851   6.883   1.051   6.015
12658TIP3    H237852   6.940   1.150   6.117
12659TIP3   OH237853   7.859   1.352   6.656
12659TIP3    H137854   7.884   1.400   6.575
12659TIP3    H237855   7.773   1.311   6.631
12660TIP3   OH237856   7.357   1.432   7.022
12660TIP3    H137857   7.375   1.405   7.113
12660TIP3    H237858   7.320   1.521   7.033
12661TIP3   OH237859   7.475   0.650   5.984
12661TIP3    H137860   7.573   0.660   5.994
12661TIP3    H237861   7.453   0.726   5.927
12662TIP3   OH237862   6.640   1.136   6.695
12662TIP3    H137863   6.686   1.110   6.612
12662TIP3    H237864   6.681   1.076   6.759
12663TIP3   OH237865   7.104   1.266   5.848
12663TIP3    H137866   7.056   1.352   5.856
12663TIP3    H237867   7.049   1.210   5.906
12664TIP3   OH237868   6.523   1.059   7.317
12664TIP3    H137869   6.555   1.042   7.408
12664TIP3    H237870   6.458   0.988   7.306
12665TIP3   OH237871   7.268   1.204   7.317
12665TIP3    H137872   7.220   1.121   7.304
12665TIP3    H237873   7.359   1.178   7.290
12666TIP3   OH237874   7.518   1.693   6.918
12666TIP3    H137875   7.421   1.692   6.929
12666TIP3    H237876   7.545   1.745   6.996
12667TIP3   OH237877   7.929   0.761   5.825
12667TIP3    H137878   7.870   0.713   5.763
12667TIP3    H237879   7.928   0.849   5.782
12668TIP3   OH237880   8.144   1.619   6.910
12668TIP3    H137881   8.046   1.616   6.900
12668TIP3    H237882   8.171   1.592   6.819
12669TIP3   OH237883   7.625   1.585   5.734
12669TIP3    H137884   7.604   1.512   5.795
12669TIP3    H237885   7.639   1.539   5.649
12670TIP3   OH237886   7.623   1.213   6.578
12670TIP3    H137887   7.529   1.187   6.588
12670TIP3    H237888   7.658   1.135   6.531
12671TIP3   OH237889   6.749   1.441   6.329
12671TIP3    H137890   6.754   1.521   6.274
12671TIP3    H237891   6.654   1.426   6.331
12672TIP3   OH237892   6.312   0.742   6.029
12672TIP3    H137893   6.363   0.824   6.045
12672TIP3    H237894   6.236   0.755   6.088
12673TIP3   OH237895   6.891   1.208   6.272
12673TIP3    H137896   6.855   1.297   6.292
12673TIP3    H237897   6.855   1.157   6.347
12674TIP3   OH237898   7.018   1.785   6.797
12674TIP3    H137899   7.059   1.857   6.745
12674TIP3    H237900   7.095   1.751   6.845
12675TIP3   OH237901   6.670   1.680   6.179
12675TIP3    H137902   6.583   1.688   6.224
12675TIP3    H237903   6.701   1.773   6.182
12676TIP3   OH237904   7.409   1.421   6.753
12676TIP3    H137905   7.401   1.417   6.851
12676TIP3    H237906   7.488   1.367   6.739
12677TIP3   OH237907   7.379   1.313   5.637
12677TIP3    H137908   7.432   1.289   5.716
12677TIP3    H237909   7.291   1.284   5.665
12678TIP3   OH237910   7.656   1.956   6.806
12678TIP3    H137911   7.578   1.898   6.797
12678TIP3    H237912   7.641   2.019   6.733
12679TIP3   OH237913   7.722   1.789   5.457
12679TIP3    H137914   7.763   1.862   5.407
12679TIP3    H237915   7.641   1.835   5.488
12680TIP3   OH237916   7.540   1.248   5.855
12680TIP3    H137917   7.531   1.180   5.925
12680TIP3    H237918   7.637   1.244   5.841
12681TIP3   OH237919   6.456   1.650   6.957
12681TIP3    H137920   6.510   1.574   6.983
12681TIP3    H237921   6.489   1.718   7.017
12682TIP3   OH237922   6.746   1.297   5.637
12682TIP3    H137923   6.760   1.206   5.604
12682TIP3    H237924   6.729   1.280   5.732
12683TIP3   OH237925   6.692   1.297   5.912
12683TIP3    H137926   6.767   1.269   5.967
12683TIP3    H237927   6.699   1.395   5.916
12684TIP3   OH237928   6.426   0.989   6.108
12684TIP3    H137929   6.364   1.038   6.166
12684TIP3    H237930   6.447   1.058   6.043
12685TIP3   OH237931   6.958   1.495   5.860
12685TIP3    H137932   6.872   1.526   5.892
12685TIP3    H237933   6.976   1.560   5.790
12686TIP3   OH237934   7.170   0.552   6.268
12686TIP3    H137935   7.213   0.637   6.248
12686TIP3    H237936   7.134   0.566   6.356
12687TIP3   OH237937   7.407   0.867   7.096
12687TIP3    H137938   7.423   0.942   7.155
12687TIP3    H237939   7.497   0.828   7.094
12688TIP3   OH237940   6.700   1.571   5.923
12688TIP3    H137941   6.671   1.641   5.860
12688TIP3    H237942   6.685   1.615   6.009
12689TIP3   OH237943   7.707   0.977   6.447
12689TIP3    H137944   7.636   0.913   6.462
12689TIP3    H237945   7.783   0.935   6.493
12690TIP3   OH237946   6.419   1.205   5.917
12690TIP3    H137947   6.486   1.275   5.926
12690TIP3    H237948   6.465   1.149   5.851
12691TIP3   OH237949   6.348   0.456   6.050
12691TIP3    H137950   6.390   0.544   6.048
12691TIP3    H237951   6.256   0.479   6.037
12692TIP3   OH237952   7.676   1.927   6.398
12692TIP3    H137953   7.634   1.974   6.322
12692TIP3    H237954   7.770   1.946   6.378
12693TIP3   OH237955   6.294   1.417   6.310
12693TIP3    H137956   6.215   1.449   6.356
12693TIP3    H237957   6.278   1.453   6.220
12694TIP3   OH237958   6.447   1.954   7.377
12694TIP3    H137959   6.534   1.954   7.423
12694TIP3    H237960   6.428   1.859   7.375
12695TIP3   OH237961   6.931   1.924   7.420
12695TIP3    H137962   7.025   1.904   7.430
12695TIP3    H237963   6.908   1.866   7.345
12696TIP3   OH237964   6.914   1.498   5.552
12696TIP3    H137965   6.858   1.425   5.588
12696TIP3    H237966   6.988   1.446   5.515
12697TIP3   OH237967   7.568   1.828   7.154
12697TIP3    H137968   7.560   1.757   7.222
12697TIP3    H237969   7.647   1.877   7.184
12698TIP3   OH237970   7.350   1.541   5.461
12698TIP3    H137971   7.393   1.476   5.518
12698TIP3    H237972   7.406   1.540   5.381
12699TIP3   OH237973   6.577   1.362   7.581
12699TIP3    H137974   6.597   1.267   7.583
12699TIP3    H237975   6.490   1.363   7.535
12700TIP3   OH237976   6.554   1.015   5.772
12700TIP3    H137977   6.612   0.980   5.841
12700TIP3    H237978   6.618   1.024   5.698
12701TIP3   OH237979   7.185   1.465   7.351
12701TIP3    H137980   7.144   1.478   7.263
12701TIP3    H237981   7.223   1.374   7.342
12702TIP3   OH237982   7.059   1.213   5.578
12702TIP3    H137983   7.065   1.225   5.675
12702TIP3    H237984   7.065   1.115   5.572
12703TIP3   OH237985   7.680   1.453   6.956
12703TIP3    H137986   7.753   1.500   6.911
12703TIP3    H237987   7.608   1.517   6.944
12704TIP3   OH237988   6.693   1.087   7.557
12704TIP3    H137989   6.770   1.031   7.537
12704TIP3    H237990   6.721   1.123   7.644
12705TIP3   OH237991   6.763   0.916   5.993
12705TIP3    H137992   6.744   0.872   6.077
12705TIP3    H237993   6.799   0.842   5.940
12706TIP3   OH237994   6.946   0.961   7.161
12706TIP3    H137995   6.890   1.037   7.190
12706TIP3    H237996   7.018   1.009   7.116
12707TIP3   OH237997   6.862   0.708   5.832
12707TIP3    H137998   6.838   0.716   5.737
12707TIP3    H237999   6.960   0.721   5.826
12708TIP3   OH238000   7.551   1.386   7.359
12708TIP3    H138001   7.628   1.361   7.308
12708TIP3    H238002   7.549   1.317   7.428
12709TIP3   OH238003   7.691   1.046   5.499
12709TIP3    H138004   7.666   0.997   5.417
12709TIP3    H238005   7.660   1.136   5.472
12710TIP3   OH238006   7.171   0.936   7.361
12710TIP3    H138007   7.217   0.854   7.401
12710TIP3    H238008   7.144   0.901   7.277
12711TIP3   OH238009   7.177   1.079   7.026
12711TIP3    H138010   7.263   1.088   6.983
12711TIP3    H238011   7.129   1.156   6.989
12712TIP3   OH238012   7.774   1.072   7.410
12712TIP3    H138013   7.814   0.985   7.417
12712TIP3    H238014   7.847   1.127   7.379
12713TIP3   OH238015   7.812   1.309   7.141
12713TIP3    H138016   7.753   1.364   7.084
12713TIP3    H238017   7.899   1.332   7.102
12714TIP3   OH238018   6.994   0.901   7.586
12714TIP3    H138019   6.932   0.832   7.559
12714TIP3    H238020   7.063   0.896   7.517
12715TIP3   OH238021   7.473   0.929   7.460
12715TIP3    H138022   7.439   0.914   7.549
12715TIP3    H238023   7.435   0.854   7.411
12716TIP3   OH238024   6.671   1.776   5.737
12716TIP3    H138025   6.767   1.771   5.717
12716TIP3    H238026   6.640   1.821   5.656
12717TIP3   OH238027   6.152   1.153   5.958
12717TIP3    H138028   6.247   1.177   5.941
12717TIP3    H238029   6.147   1.066   5.914
12718TIP3   OH238030   6.064   1.768   6.365
12718TIP3    H138031   5.997   1.706   6.331
12718TIP3    H238032   6.109   1.712   6.432
12719TIP3   OH238033   6.200   1.624   6.553
12719TIP3    H138034   6.190   1.546   6.610
12719TIP3    H238035   6.253   1.683   6.610
12720TIP3   OH238036   7.926   2.024   6.352
12720TIP3    H138037   7.956   2.055   6.439
12720TIP3    H238038   7.991   2.063   6.292
12721TIP3   OH238039   7.958   2.041   6.635
12721TIP3    H138040   7.917   1.952   6.630
12721TIP3    H238041   8.035   2.020   6.690
12722TIP3   OH238042   8.004   1.716   7.207
12722TIP3    H138043   7.931   1.725   7.272
12722TIP3    H238044   8.046   1.804   7.212
12723TIP3   OH238045   7.821   1.229   5.827
12723TIP3    H138046   7.890   1.292   5.800
12723TIP3    H238047   7.863   1.189   5.907
12724TIP3   OH238048   7.948   1.096   6.030
12724TIP3    H138049   7.884   1.054   6.091
12724TIP3    H238050   8.015   1.134   6.091
12725TIP3   OH238051   8.000   1.488   6.464
12725TIP3    H138052   8.053   1.424   6.412
12725TIP3    H238053   7.993   1.563   6.402
12726TIP3   OH238054   7.835   1.788   6.660
12726TIP3    H138055   7.764   1.830   6.712
12726TIP3    H238056   7.785   1.739   6.591
12727TIP3   OH238057   7.886   1.000   5.680
12727TIP3    H138058   7.816   1.011   5.611
12727TIP3    H238059   7.863   1.076   5.737
12728TIP3   OH238060   7.766   0.667   5.623
12728TIP3    H138061   7.723   0.745   5.587
12728TIP3    H238062   7.716   0.596   5.579
12729TIP3   OH238063   7.764   0.952   6.181
12729TIP3    H138064   7.776   0.856   6.185
12729TIP3    H238065   7.749   0.973   6.276
12730TIP3   OH238066   6.385   1.021   6.919
12730TIP3    H138067   6.380   0.992   6.825
12730TIP3    H238068   6.483   1.031   6.929
12731TIP3   OH238069   8.055   1.372   7.034
12731TIP3    H138070   8.129   1.308   7.022
12731TIP3    H238071   8.081   1.445   6.975
12732TIP3   OH238072   8.240   1.172   7.049
12732TIP3    H138073   8.177   1.121   7.103
12732TIP3    H238074   8.325   1.134   7.076
12733TIP3   OH238075   7.745   0.665   6.024
12733TIP3    H138076   7.791   0.630   6.104
12733TIP3    H238077   7.819   0.705   5.974
12734TIP3   OH238078   7.925   0.876   6.572
12734TIP3    H138079   8.015   0.884   6.533
12734TIP3    H238080   7.946   0.893   6.665
12735TIP3   OH238081   7.988   0.996   6.820
12735TIP3    H138082   7.904   1.038   6.850
12735TIP3    H238083   8.024   1.066   6.761
12736TIP3   OH238084   6.379   0.684   7.003
12736TIP3    H138085   6.429   0.669   6.920
12736TIP3    H238086   6.406   0.774   7.024
12737TIP3   OH238087   7.511   1.887   6.010
12737TIP3    H138088   7.562   1.868   5.929
12737TIP3    H238089   7.569   1.950   6.056
12738TIP3   OH238090   6.614   1.689   7.397
12738TIP3    H138091   6.522   1.660   7.381
12738TIP3    H238092   6.624   1.673   7.491
12739TIP3   OH238093   6.790   1.720   6.944
12739TIP3    H138094   6.744   1.797   6.904
12739TIP3    H238095   6.877   1.733   6.901
12740TIP3   OH238096   7.238   1.968   7.082
12740TIP3    H138097   7.281   1.968   7.171
12740TIP3    H238098   7.306   2.017   7.030
12741TIP3   OH238099   7.417   2.117   6.938
12741TIP3    H138100   7.489   2.066   6.898
12741TIP3    H238101   7.469   2.175   7.000
12742TIP3   OH238102   6.469   1.979   6.966
12742TIP3    H138103   6.380   2.014   6.943
12742TIP3    H238104   6.478   2.012   7.056
12743TIP3   OH238105   6.705   1.957   6.824
12743TIP3    H138106   6.619   1.970   6.869
12743TIP3    H238107   6.685   1.990   6.734
12744TIP3   OH238108   7.131   1.988   6.622
12744TIP3    H138109   7.063   2.010   6.556
12744TIP3    H238110   7.145   2.074   6.666
12745TIP3   OH238111   7.399   1.927   6.673
12745TIP3    H138112   7.305   1.943   6.653
12745TIP3    H238113   7.443   2.003   6.632
12746TIP3   OH238114   7.607   2.119   6.590
12746TIP3    H138115   7.594   2.204   6.542
12746TIP3    H238116   7.634   2.059   6.517
12747TIP3   OH238117   6.380   1.773   6.713
12747TIP3    H138118   6.407   1.749   6.804
12747TIP3    H238119   6.452   1.730   6.662
12748TIP3   OH238120   6.573   1.644   6.568
12748TIP3    H138121   6.590   1.559   6.615
12748TIP3    H238122   6.663   1.682   6.563
12749TIP3   OH238123   6.838   1.741   6.571
12749TIP3    H138124   6.871   1.650   6.555
12749TIP3    H238125   6.882   1.760   6.655
12750TIP3   OH238126   6.167   1.543   6.106
12750TIP3    H138127   6.083   1.510   6.070
12750TIP3    H238128   6.156   1.637   6.087
12751TIP3   OH238129   6.939   1.737   5.684
12751TIP3    H138130   7.029   1.757   5.649
12751TIP3    H238131   6.918   1.660   5.627
12752TIP3   OH238132   7.657   1.851   5.778
12752TIP3    H138133   7.649   1.753   5.765
12752TIP3    H238134   7.615   1.884   5.696
12753TIP3   OH238135   6.245   1.571   5.744
12753TIP3    H138136   6.246   1.598   5.837
12753TIP3    H238137   6.334   1.530   5.733
12754TIP3   OH238138   7.886   1.997   6.967
12754TIP3    H138139   7.807   1.965   6.919
12754TIP3    H238140   7.867   2.093   6.969
12755TIP3   OH238141   9.153   1.366   5.727
12755TIP3    H138142   9.130   1.461   5.719
12755TIP3    H238143   9.069   1.325   5.700
12756TIP3   OH238144   9.137   1.362   6.114
12756TIP3    H138145   9.174   1.341   6.202
12756TIP3    H238146   9.100   1.275   6.088
12757TIP3   OH238147   8.449   1.284   6.465
12757TIP3    H138148   8.470   1.263   6.557
12757TIP3    H238149   8.535   1.318   6.435
12758TIP3   OH238150   9.389   1.669   5.794
12758TIP3    H138151   9.390   1.600   5.862
12758TIP3    H238152   9.421   1.745   5.846
12759TIP3   OH238153   8.419   1.673   6.205
12759TIP3    H138154   8.411   1.575   6.204
12759TIP3    H238155   8.516   1.682   6.200
12760TIP3   OH238156   8.120   0.866   5.999
12760TIP3    H138157   8.076   0.952   6.009
12760TIP3    H238158   8.056   0.820   5.940
12761TIP3   OH238159   8.188   1.161   6.156
12761TIP3    H138160   8.239   1.086   6.195
12761TIP3    H238161   8.250   1.192   6.089
12762TIP3   OH238162   9.041   2.129   5.810
12762TIP3    H138163   9.086   2.055   5.764
12762TIP3    H238164   9.041   2.097   5.901
12763TIP3   OH238165   8.949   1.592   6.162
12763TIP3    H138166   8.988   1.513   6.119
12763TIP3    H238167   9.033   1.638   6.184
12764TIP3   OH238168   9.365   1.113   6.190
12764TIP3    H138169   9.392   1.029   6.229
12764TIP3    H238170   9.338   1.088   6.100
12765TIP3   OH238171   8.332   0.955   6.267
12765TIP3    H138172   8.412   0.927   6.317
12765TIP3    H238173   8.348   0.902   6.186
12766TIP3   OH238174   8.775   1.155   6.063
12766TIP3    H138175   8.867   1.124   6.076
12766TIP3    H238176   8.731   1.073   6.032
12767TIP3   OH238177   9.058   1.600   5.591
12767TIP3    H138178   9.001   1.565   5.522
12767TIP3    H238179   9.005   1.677   5.622
12768TIP3   OH238180   8.801   1.512   6.392
12768TIP3    H138181   8.739   1.578   6.429
12768TIP3    H238182   8.846   1.563   6.322
12769TIP3   OH238183   8.565   0.856   6.367
12769TIP3    H138184   8.633   0.922   6.391
12769TIP3    H238185   8.607   0.811   6.293
12770TIP3   OH238186   8.627   1.705   6.486
12770TIP3    H138187   8.602   1.791   6.447
12770TIP3    H238188   8.549   1.690   6.544
12771TIP3   OH238189   8.025   1.396   5.724
12771TIP3    H138190   7.985   1.423   5.639
12771TIP3    H238191   8.056   1.482   5.760
12772TIP3   OH238192   9.452   1.896   5.952
12772TIP3    H138193   9.362   1.899   5.991
12772TIP3    H238194   9.460   1.985   5.914
12773TIP3   OH238195   9.164   1.948   5.639
12773TIP3    H138196   9.224   1.874   5.620
12773TIP3    H238197   9.219   2.024   5.606
12774TIP3   OH238198   9.317   1.728   5.535
12774TIP3    H138199   9.239   1.669   5.531
12774TIP3    H238200   9.352   1.706   5.624
12775TIP3   OH238201   8.976   1.222   5.564
12775TIP3    H138202   8.895   1.271   5.537
12775TIP3    H238203   9.024   1.214   5.479
12776TIP3   OH238204   8.937   1.009   5.282
12776TIP3    H138205   9.014   1.051   5.325
12776TIP3    H238206   8.980   0.935   5.236
12777TIP3   OH238207   9.340   1.297   5.545
12777TIP3    H138208   9.272   1.326   5.611
12777TIP3    H238209   9.418   1.295   5.602
12778TIP3   OH238210   9.570   1.348   6.428
12778TIP3    H138211   9.566   1.421   6.491
12778TIP3    H238212   9.485   1.354   6.383
12779TIP3   OH238213   8.565   1.300   5.950
12779TIP3    H138214   8.521   1.242   5.885
12779TIP3    H238215   8.640   1.244   5.980
12780TIP3   OH238216   8.691   1.711   6.101
12780TIP3    H138217   8.672   1.663   6.019
12780TIP3    H238218   8.782   1.680   6.121
12781TIP3   OH238219   8.699   1.270   6.306
12781TIP3    H138220   8.732   1.248   6.217
12781TIP3    H238221   8.746   1.354   6.325
12782TIP3   OH238222   9.214   1.912   6.080
12782TIP3    H138223   9.207   1.990   6.138
12782TIP3    H238224   9.208   1.837   6.142
12783TIP3   OH238225   8.834   1.830   6.627
12783TIP3    H138226   8.774   1.892   6.675
12783TIP3    H238227   8.768   1.775   6.580
12784TIP3   OH238228   9.168   1.154   5.370
12784TIP3    H138229   9.235   1.203   5.421
12784TIP3    H238230   9.198   1.172   5.278
12785TIP3   OH238231   8.564   1.411   6.721
12785TIP3    H138232   8.581   1.492   6.774
12785TIP3    H238233   8.475   1.388   6.751
12786TIP3   OH238234   8.908   1.840   5.637
12786TIP3    H138235   8.991   1.890   5.655
12786TIP3    H238236   8.850   1.907   5.601
12787TIP3   OH238237   8.629   1.999   6.715
12787TIP3    H138238   8.595   1.994   6.624
12787TIP3    H238239   8.550   1.977   6.769
12788TIP3   OH238240   8.426   1.150   5.757
12788TIP3    H138241   8.357   1.184   5.698
12788TIP3    H238242   8.400   1.058   5.769
12789TIP3   OH238243   8.208   1.527   6.664
12789TIP3    H138244   8.144   1.505   6.593
12789TIP3    H238245   8.244   1.439   6.689
12790TIP3   OH238246   8.064   1.719   6.298
12790TIP3    H138247   8.159   1.710   6.286
12790TIP3    H238248   8.059   1.799   6.353
12791TIP3   OH238249   9.033   1.959   6.485
12791TIP3    H138250   9.034   2.051   6.518
12791TIP3    H238251   8.963   1.919   6.540
12792TIP3   OH238252   8.790   2.086   5.439
12792TIP3    H138253   8.748   2.067   5.353
12792TIP3    H238254   8.761   2.177   5.458
12793TIP3   OH238255   8.231   1.937   5.822
12793TIP3    H138256   8.280   1.927   5.906
12793TIP3    H238257   8.174   1.858   5.826
12794TIP3   OH238258   8.996   1.987   5.081
12794TIP3    H138259   9.057   1.918   5.046
12794TIP3    H238260   9.029   1.997   5.173
12795TIP3   OH238261   9.043   2.035   5.352
12795TIP3    H138262   8.956   2.043   5.396
12795TIP3    H238263   9.097   1.998   5.423
12796TIP3   OH238264   8.413   1.713   6.655
12796TIP3    H138265   8.464   1.697   6.737
12796TIP3    H238266   8.342   1.646   6.662
12797TIP3   OH238267   9.247   1.201   5.109
12797TIP3    H138268   9.219   1.179   5.017
12797TIP3    H238269   9.297   1.283   5.094
12798TIP3   OH238270   8.750   1.038   6.446
12798TIP3    H138271   8.740   1.091   6.528
12798TIP3    H238272   8.736   1.110   6.380
12799TIP3   OH238273   8.614   0.959   5.961
12799TIP3    H138274   8.540   0.905   5.994
12799TIP3    H238275   8.640   0.909   5.880
12800TIP3   OH238276   9.120   1.025   5.683
12800TIP3    H138277   9.057   1.097   5.661
12800TIP3    H238278   9.173   1.026   5.602
12801TIP3   OH238279   9.327   1.309   6.723
12801TIP3    H138280   9.320   1.274   6.814
12801TIP3    H238281   9.412   1.355   6.726
12802TIP3   OH238282   9.264   1.040   5.944
12802TIP3    H138283   9.222   1.086   5.869
12802TIP3    H238284   9.306   0.965   5.899
12803TIP3   OH238285   8.582   0.997   6.761
12803TIP3    H138286   8.628   1.080   6.741
12803TIP3    H238287   8.518   0.989   6.690
12804TIP3   OH238288   9.272   1.302   6.357
12804TIP3    H138289   9.311   1.232   6.301
12804TIP3    H238290   9.279   1.262   6.445
12805TIP3   OH238291   8.386   0.810   6.039
12805TIP3    H138292   8.292   0.824   6.015
12805TIP3    H238293   8.398   0.716   6.020
12806TIP3   OH238294   8.674   0.829   5.727
12806TIP3    H138295   8.763   0.809   5.694
12806TIP3    H238296   8.618   0.823   5.647
12807TIP3   OH238297   8.488   0.846   5.505
12807TIP3    H138298   8.427   0.796   5.449
12807TIP3    H238299   8.549   0.882   5.437
12808TIP3   OH238300   9.609   2.527   6.447
12808TIP3    H138301   9.612   2.544   6.351
12808TIP3    H238302   9.680   2.585   6.478
12809TIP3   OH238303   8.573   1.642   6.878
12809TIP3    H138304   8.655   1.667   6.925
12809TIP3    H238305   8.510   1.640   6.954
12810TIP3   OH238306   9.043   1.088   6.129
12810TIP3    H138307   9.113   1.045   6.076
12810TIP3    H238308   9.045   1.036   6.211
12811TIP3   OH238309   9.020   0.965   6.422
12811TIP3    H138310   8.932   1.005   6.427
12811TIP3    H238311   9.074   1.022   6.481
12812TIP3   OH238312   8.750   1.375   5.511
12812TIP3    H138313   8.679   1.309   5.501
12812TIP3    H238314   8.734   1.407   5.603
12813TIP3   OH238315   9.157   1.688   6.510
12813TIP3    H138316   9.172   1.665   6.602
12813TIP3    H238317   9.118   1.777   6.516
12814TIP3   OH238318   8.440   1.396   6.181
12814TIP3    H138319   8.484   1.367   6.098
12814TIP3    H238320   8.473   1.332   6.245
12815TIP3   OH238321   8.898   1.521   5.331
12815TIP3    H138322   8.852   1.608   5.339
12815TIP3    H238323   8.843   1.466   5.391
12816TIP3   OH238324   8.320   1.315   6.803
12816TIP3    H138325   8.352   1.300   6.894
12816TIP3    H238326   8.253   1.246   6.793
12817TIP3   OH238327   9.064   1.460   6.808
12817TIP3    H138328   9.014   1.379   6.787
12817TIP3    H238329   9.153   1.435   6.779
12818TIP3   OH238330   9.312   1.948   6.406
12818TIP3    H138331   9.215   1.948   6.417
12818TIP3    H238332   9.340   2.003   6.482
12819TIP3   OH238333   9.436   1.817   5.201
12819TIP3    H138334   9.413   1.791   5.292
12819TIP3    H238335   9.371   1.769   5.149
12820TIP3   OH238336   9.390   1.480   6.057
12820TIP3    H138337   9.306   1.430   6.067
12820TIP3    H238338   9.455   1.410   6.047
12821TIP3   OH238339   8.545   1.696   5.813
12821TIP3    H138340   8.549   1.778   5.760
12821TIP3    H238341   8.450   1.683   5.820
12822TIP3   OH238342   8.108   1.000   5.514
12822TIP3    H138343   8.158   1.082   5.533
12822TIP3    H238344   8.033   1.009   5.576
12823TIP3   OH238345   8.689   1.465   5.758
12823TIP3    H138346   8.651   1.554   5.778
12823TIP3    H238347   8.653   1.413   5.832
12824TIP3   OH238348   8.814   2.042   6.283
12824TIP3    H138349   8.856   2.114   6.232
12824TIP3    H238350   8.891   2.007   6.332
12825TIP3   OH238351   8.465   1.937   5.665
12825TIP3    H138352   8.380   1.945   5.711
12825TIP3    H238353   8.497   2.030   5.669
12826TIP3   OH238354   9.205   1.679   6.237
12826TIP3    H138355   9.203   1.670   6.335
12826TIP3    H238356   9.282   1.625   6.213
12827TIP3   OH238357   9.169   1.574   5.128
12827TIP3    H138358   9.225   1.540   5.201
12827TIP3    H238359   9.081   1.547   5.159
12828TIP3   OH238360   9.441   2.211   6.294
12828TIP3    H138361   9.362   2.156   6.277
12828TIP3    H238362   9.436   2.275   6.220
12829TIP3   OH238363   9.338   1.485   5.329
12829TIP3    H138364   9.327   1.426   5.406
12829TIP3    H238365   9.417   1.535   5.355
12830TIP3   OH238366   8.252   1.906   6.444
12830TIP3    H138367   8.305   1.830   6.470
12830TIP3    H238368   8.286   1.973   6.505
12831TIP3   OH238369   8.544   1.552   5.124
12831TIP3    H138370   8.557   1.460   5.093
12831TIP3    H238371   8.527   1.538   5.219
12832TIP3   OH238372   8.489   1.554   5.397
12832TIP3    H138373   8.560   1.525   5.455
12832TIP3    H238374   8.495   1.652   5.403
12833TIP3   OH238375   8.223   1.246   5.595
12833TIP3    H138376   8.160   1.292   5.654
12833TIP3    H238377   8.243   1.316   5.531
12834TIP3   OH238378   8.754   1.751   5.344
12834TIP3    H138379   8.669   1.782   5.380
12834TIP3    H238380   8.773   1.821   5.280
12835TIP3   OH238381   8.967   0.807   5.753
12835TIP3    H138382   9.011   0.894   5.737
12835TIP3    H238383   8.932   0.819   5.842
12836TIP3   OH238384   9.194   1.109   6.584
12836TIP3    H138385   9.232   1.183   6.636
12836TIP3    H238386   9.274   1.062   6.551
12837TIP3   OH238387   8.496   1.828   5.410
12837TIP3    H138388   8.467   1.898   5.347
12837TIP3    H238389   8.482   1.871   5.497
12838TIP3   OH238390   8.215   1.462   5.404
12838TIP3    H138391   8.283   1.532   5.414
12838TIP3    H238392   8.262   1.406   5.338
12839TIP3   OH238393   8.144   0.714   5.523
12839TIP3    H138394   8.184   0.803   5.525
12839TIP3    H238395   8.056   0.733   5.557
12840TIP3   OH238396   9.487   2.187   5.894
12840TIP3    H138397   9.452   2.237   5.818
12840TIP3    H238398   9.567   2.143   5.855
12841TIP3   OH238399   8.092   1.675   5.796
12841TIP3    H138400   8.013   1.705   5.844
12841TIP3    H238401   8.073   1.711   5.707
12842TIP3   OH238402   8.243   2.211   6.865
12842TIP3    H138403   8.330   2.210   6.910
12842TIP3    H238404   8.224   2.115   6.861
12843TIP3   OH238405   8.727   2.181   6.907
12843TIP3    H138406   8.821   2.160   6.917
12843TIP3    H238407   8.704   2.123   6.832
12844TIP3   OH238408   8.708   1.755   5.038
12844TIP3    H138409   8.653   1.683   5.075
12844TIP3    H238410   8.783   1.703   5.002
12845TIP3   OH238411   9.362   2.086   6.642
12845TIP3    H138412   9.354   2.013   6.707
12845TIP3    H238413   9.440   2.134   6.673
12846TIP3   OH238414   9.148   1.795   4.958
12846TIP3    H138415   9.179   1.712   5.000
12846TIP3    H238416   9.187   1.792   4.868
12847TIP3   OH238417   8.373   1.620   7.067
12847TIP3    H138418   8.393   1.525   7.072
12847TIP3    H238419   8.286   1.619   7.022
12848TIP3   OH238420   8.351   1.272   5.258
12848TIP3    H138421   8.406   1.236   5.329
12848TIP3    H238422   8.418   1.281   5.187
12849TIP3   OH238423   8.981   1.722   6.838
12849TIP3    H138424   8.940   1.735   6.750
12849TIP3    H238425   9.018   1.631   6.829
12850TIP3   OH238426   8.859   1.466   5.063
12850TIP3    H138427   8.861   1.480   5.159
12850TIP3    H238428   8.856   1.368   5.059
12851TIP3   OH238429   9.482   1.717   6.439
12851TIP3    H138430   9.533   1.756   6.367
12851TIP3    H238431   9.402   1.772   6.437
12852TIP3   OH238432   8.490   1.345   7.043
12852TIP3    H138433   8.565   1.287   7.025
12852TIP3    H238434   8.516   1.379   7.132
12853TIP3   OH238435   8.559   1.175   5.481
12853TIP3    H138436   8.537   1.134   5.566
12853TIP3    H238437   8.594   1.099   5.430
12854TIP3   OH238438   8.741   1.219   6.647
12854TIP3    H138439   8.685   1.296   6.676
12854TIP3    H238440   8.813   1.267   6.600
12855TIP3   OH238441   8.657   0.967   5.322
12855TIP3    H138442   8.632   0.962   5.228
12855TIP3    H238443   8.754   0.977   5.314
12856TIP3   OH238444   9.343   1.632   6.836
12856TIP3    H138445   9.435   1.636   6.807
12856TIP3    H238446   9.351   1.578   6.917
12857TIP3   OH238447   8.982   1.194   6.840
12857TIP3    H138448   9.018   1.108   6.876
12857TIP3    H238449   8.923   1.164   6.772
12858TIP3   OH238450   8.976   1.338   6.513
12858TIP3    H138451   9.061   1.343   6.467
12858TIP3    H238452   8.929   1.415   6.474
12859TIP3   OH238453   9.619   1.569   6.619
12859TIP3    H138454   9.557   1.624   6.566
12859TIP3    H238455   9.700   1.583   6.569
12860TIP3   OH238456   8.789   1.157   7.063
12860TIP3    H138457   8.722   1.087   7.052
12860TIP3    H238458   8.861   1.127   7.006
12861TIP3   OH238459   9.281   1.186   6.959
12861TIP3    H138460   9.209   1.190   7.025
12861TIP3    H238461   9.246   1.118   6.898
12862TIP3   OH238462   8.467   2.031   5.223
12862TIP3    H138463   8.562   2.026   5.205
12862TIP3    H238464   8.438   2.078   5.143
12863TIP3   OH238465   7.948   1.412   5.442
12863TIP3    H138466   8.043   1.434   5.428
12863TIP3    H238467   7.943   1.323   5.401
12864TIP3   OH238468   7.859   2.024   5.853
12864TIP3    H138469   7.793   1.961   5.819
12864TIP3    H238470   7.905   1.969   5.920
12865TIP3   OH238471   7.995   1.880   6.040
12865TIP3    H138472   7.988   1.802   6.098
12865TIP3    H238473   8.049   1.939   6.097
12866TIP3   OH238474   9.606   1.995   6.172
12866TIP3    H138475   9.540   2.059   6.203
12866TIP3    H238476   9.562   1.954   6.096
12867TIP3   OH238477   8.180   1.281   6.407
12867TIP3    H138478   8.176   1.249   6.314
12867TIP3    H238479   8.277   1.292   6.418
12868TIP3   OH238480   8.178   0.940   6.494
12868TIP3    H138481   8.225   0.925   6.409
12868TIP3    H238482   8.198   1.033   6.509
12869TIP3   OH238483   9.285   2.158   5.525
12869TIP3    H138484   9.325   2.129   5.439
12869TIP3    H238485   9.356   2.211   5.563
12870TIP3   OH238486   8.409   1.948   6.884
12870TIP3    H138487   8.318   1.916   6.868
12870TIP3    H238488   8.422   1.928   6.977
12871TIP3   OH238489   8.586   1.977   6.430
12871TIP3    H138490   8.541   2.054   6.391
12871TIP3    H238491   8.673   1.989   6.388
12872TIP3   OH238492   9.035   2.225   6.570
12872TIP3    H138493   9.078   2.225   6.658
12872TIP3    H238494   9.102   2.273   6.517
12873TIP3   OH238495   9.213   2.373   6.425
12873TIP3    H138496   9.285   2.323   6.382
12873TIP3    H238497   9.264   2.431   6.485
12874TIP3   OH238498   8.265   2.236   6.452
12874TIP3    H138499   8.176   2.271   6.431
12874TIP3    H238500   8.275   2.267   6.543
12875TIP3   OH238501   8.501   2.214   6.311
12875TIP3    H138502   8.415   2.227   6.356
12875TIP3    H238503   8.482   2.247   6.221
12876TIP3   OH238504   8.926   2.245   6.109
12876TIP3    H138505   8.859   2.268   6.043
12876TIP3    H238506   8.942   2.331   6.153
12877TIP3   OH238507   9.194   2.182   6.161
12877TIP3    H138508   9.101   2.202   6.138
12877TIP3    H238509   9.241   2.258   6.121
12878TIP3   OH238510   9.393   2.369   6.079
12878TIP3    H138511   9.382   2.456   6.035
12878TIP3    H238512   9.431   2.314   6.007
12879TIP3   OH238513   8.176   2.029   6.200
12879TIP3    H138514   8.204   2.005   6.291
12879TIP3    H238515   8.248   1.986   6.149
12880TIP3   OH238516   8.369   1.901   6.055
12880TIP3    H138517   8.386   1.816   6.102
12880TIP3    H238518   8.460   1.938   6.051
12881TIP3   OH238519   8.634   1.997   6.058
12881TIP3    H138520   8.667   1.906   6.044
12881TIP3    H238521   8.679   2.018   6.142
12882TIP3   OH238522   7.964   1.798   5.592
12882TIP3    H138523   7.880   1.765   5.556
12882TIP3    H238524   7.952   1.893   5.578
12883TIP3   OH238525   8.735   1.993   5.172
12883TIP3    H138526   8.824   2.014   5.137
12883TIP3    H238527   8.714   1.917   5.114
12884TIP3   OH238528   9.383   2.077   5.291
12884TIP3    H138529   9.425   1.997   5.256
12884TIP3    H238530   9.367   2.128   5.209
12885TIP3   OH238531   8.042   1.830   5.231
12885TIP3    H138532   8.042   1.852   5.325
12885TIP3    H238533   8.129   1.787   5.218
12886TIP3   OH238534   9.652   2.258   6.466
12886TIP3    H138535   9.587   2.217   6.404
12886TIP3    H238536   9.629   2.353   6.453
12887TIP3   OH238537   1.604   2.156   7.424
12887TIP3    H138538   1.577   2.247   7.404
12887TIP3    H238539   1.526   2.107   7.392
12888TIP3   OH238540   1.603   2.156   7.801
12888TIP3    H138541   1.632   2.124   7.888
12888TIP3    H238542   1.560   2.077   7.764
12889TIP3   OH238543   0.941   2.090   8.178
12889TIP3    H138544   0.975   2.010   8.222
12889TIP3    H238545   1.024   2.133   8.150
12890TIP3   OH238546   1.845   2.456   7.484
12890TIP3    H138547   1.832   2.387   7.550
12890TIP3    H238548   1.873   2.532   7.537
12891TIP3   OH238549   0.873   2.457   7.897
12891TIP3    H138550   0.864   2.359   7.899
12891TIP3    H238551   0.969   2.466   7.886
12892TIP3   OH238552   1.491   2.919   7.499
12892TIP3    H138553   1.540   2.848   7.452
12892TIP3    H238554   1.489   2.884   7.589
12893TIP3   OH238555   1.401   2.380   7.853
12893TIP3    H138556   1.436   2.305   7.802
12893TIP3    H238557   1.486   2.424   7.875
12894TIP3   OH238558   2.414   1.702   7.849
12894TIP3    H138559   2.442   1.785   7.891
12894TIP3    H238560   2.435   1.721   7.755
12895TIP3   OH238561   1.816   1.884   7.885
12895TIP3    H138562   1.857   1.798   7.903
12895TIP3    H238563   1.783   1.871   7.795
12896TIP3   OH238564   1.845   1.633   7.474
12896TIP3    H138565   1.919   1.618   7.537
12896TIP3    H238566   1.895   1.669   7.398
12897TIP3   OH238567   1.238   1.953   7.749
12897TIP3    H138568   1.330   1.923   7.766
12897TIP3    H238569   1.197   1.867   7.721
12898TIP3   OH238570   2.488   1.909   8.019
12898TIP3    H138571   2.405   1.958   7.998
12898TIP3    H238572   2.498   1.931   8.113
12899TIP3   OH238573   1.496   2.376   7.294
12899TIP3    H138574   1.453   2.354   7.210
12899TIP3    H238575   1.454   2.462   7.315
12900TIP3   OH238576   1.255   2.301   8.082
12900TIP3    H138577   1.192   2.367   8.118
12900TIP3    H238578   1.298   2.352   8.010
12901TIP3   OH238579   2.058   1.633   7.643
12901TIP3    H138580   2.051   1.586   7.726
12901TIP3    H238581   2.112   1.711   7.668
12902TIP3   OH238582   1.080   2.493   8.180
12902TIP3    H138583   1.054   2.578   8.138
12902TIP3    H238584   0.999   2.475   8.232
12903TIP3   OH238585   0.523   2.187   7.431
12903TIP3    H138586   0.454   2.195   7.363
12903TIP3    H238587   0.523   2.275   7.472
12904TIP3   OH238588   1.918   2.699   7.655
12904TIP3    H138589   1.827   2.692   7.692
12904TIP3    H238590   1.911   2.785   7.608
12905TIP3   OH238591   2.207   1.603   8.015
12905TIP3    H138592   2.119   1.633   7.986
12905TIP3    H238593   2.265   1.634   7.942
12906TIP3   OH238594   1.621   2.748   7.330
12906TIP3    H138595   1.671   2.666   7.306
12906TIP3    H238596   1.680   2.814   7.286
12907TIP3   OH238597   1.761   2.533   7.232
12907TIP3    H138598   1.727   2.453   7.189
12907TIP3    H238599   1.796   2.497   7.316
12908TIP3   OH238600   2.144   2.614   7.997
12908TIP3    H138601   2.133   2.537   7.937
12908TIP3    H238602   2.126   2.689   7.936
12909TIP3   OH238603   1.434   2.006   7.252
12909TIP3    H138604   1.354   2.058   7.232
12909TIP3    H238605   1.481   2.008   7.167
12910TIP3   OH238606   1.394   1.789   6.972
12910TIP3    H138607   1.460   1.840   7.022
12910TIP3    H238608   1.453   1.729   6.923
12911TIP3   OH238609   2.339   2.250   7.841
12911TIP3    H138610   2.256   2.303   7.846
12911TIP3    H238611   2.368   2.273   7.750
12912TIP3   OH238612   1.780   2.088   7.226
12912TIP3    H138613   1.726   2.115   7.304
12912TIP3    H238614   1.864   2.063   7.269
12913TIP3   OH238615   2.018   2.131   8.134
12913TIP3    H138616   2.013   2.216   8.182
12913TIP3    H238617   1.931   2.132   8.089
12914TIP3   OH238618   1.024   2.102   7.652
12914TIP3    H138619   0.981   2.049   7.581
12914TIP3    H238620   1.100   2.045   7.676
12915TIP3   OH238621   1.140   2.495   7.793
12915TIP3    H138622   1.121   2.454   7.707
12915TIP3    H238623   1.232   2.465   7.809
12916TIP3   OH238624   1.142   2.075   7.974
12916TIP3    H138625   1.183   2.045   7.890
12916TIP3    H238626   1.198   2.152   7.998
12917TIP3   OH238627   1.675   2.697   7.772
12917TIP3    H138628   1.661   2.777   7.826
12917TIP3    H238629   1.662   2.624   7.835
12918TIP3   OH238630   1.287   2.616   8.322
12918TIP3    H138631   1.226   2.680   8.365
12918TIP3    H238632   1.223   2.562   8.271
12919TIP3   OH238633   1.624   1.946   7.051
12919TIP3    H138634   1.682   2.006   7.104
12919TIP3    H238635   1.650   1.972   6.959
12920TIP3   OH238636   1.046   2.182   8.427
12920TIP3    H138637   1.036   2.267   8.474
12920TIP3    H238638   0.957   2.168   8.391
12921TIP3   OH238639   1.364   2.630   7.329
12921TIP3    H138640   1.442   2.685   7.347
12921TIP3    H238641   1.304   2.693   7.287
12922TIP3   OH238642   1.083   2.786   8.405
12922TIP3    H138643   1.049   2.787   8.313
12922TIP3    H238644   1.003   2.763   8.456
12923TIP3   OH238645   2.139   1.191   7.099
12923TIP3    H138646   2.057   1.210   7.149
12923TIP3    H238647   2.150   1.274   7.049
12924TIP3   OH238648   0.917   1.960   7.445
12924TIP3    H138649   0.847   2.008   7.397
12924TIP3    H238650   0.871   1.876   7.461
12925TIP3   OH238651   1.937   2.557   6.647
12925TIP3    H138652   1.946   2.654   6.633
12925TIP3    H238653   2.030   2.527   6.635
12926TIP3   OH238654   0.504   2.506   7.998
12926TIP3    H138655   0.595   2.480   7.974
12926TIP3    H238656   0.522   2.590   8.044
12927TIP3   OH238657   2.382   2.958   8.043
12927TIP3    H138658   2.379   2.861   8.053
12927TIP3    H238659   2.297   2.983   8.086
12928TIP3   OH238660   1.488   2.744   8.178
12928TIP3    H138661   1.487   2.838   8.207
12928TIP3    H238662   1.415   2.707   8.231
12929TIP3   OH238663   1.244   2.874   7.129
12929TIP3    H138664   1.200   2.855   7.044
12929TIP3    H238665   1.214   2.965   7.149
12930TIP3   OH238666   0.684   2.725   7.510
12930TIP3    H138667   0.733   2.715   7.595
12930TIP3    H238668   0.625   2.648   7.516
12931TIP3   OH238669   1.448   2.774   6.769
12931TIP3    H138670   1.507   2.705   6.732
12931TIP3    H238671   1.483   2.783   6.860
12932TIP3   OH238672   1.497   2.824   7.040
12932TIP3    H138673   1.409   2.831   7.083
12932TIP3    H238674   1.549   2.782   7.110
12933TIP3   OH238675   2.271   2.092   8.314
12933TIP3    H138676   2.190   2.105   8.263
12933TIP3    H238677   2.285   1.995   8.304
12934TIP3   OH238678   0.861   2.480   8.350
12934TIP3    H138679   0.920   2.478   8.428
12934TIP3    H238680   0.785   2.430   8.382
12935TIP3   OH238681   1.788   1.431   8.332
12935TIP3    H138682   1.875   1.411   8.375
12935TIP3    H238683   1.731   1.440   8.409
12936TIP3   OH238684   2.042   1.866   8.237
12936TIP3    H138685   1.992   1.862   8.322
12936TIP3    H238686   2.015   1.953   8.201
12937TIP3   OH238687   1.697   1.995   6.794
12937TIP3    H138688   1.666   1.970   6.705
12937TIP3    H238689   1.777   2.046   6.771
12938TIP3   OH238690   1.403   1.372   7.105
12938TIP3    H138691   1.362   1.396   7.191
12938TIP3    H238692   1.417   1.278   7.123
12939TIP3   OH238693   1.248   1.876   8.131
12939TIP3    H138694   1.174   1.858   8.191
12939TIP3    H238695   1.207   1.938   8.067
12940TIP3   OH238696   1.117   1.726   7.665
12940TIP3    H138697   1.031   1.689   7.690
12940TIP3    H238698   1.124   1.690   7.574
12941TIP3   OH238699   1.578   1.814   7.385
12941TIP3    H138700   1.521   1.883   7.345
12941TIP3    H238701   1.629   1.784   7.307
12942TIP3   OH238702   1.747   2.090   8.475
12942TIP3    H138703   1.729   2.017   8.538
12942TIP3    H238704   1.841   2.105   8.493
12943TIP3   OH238705   1.732   1.839   7.626
12943TIP3    H138706   1.673   1.871   7.555
12943TIP3    H238707   1.763   1.756   7.582
12944TIP3   OH238708   1.745   2.087   8.048
12944TIP3    H138709   1.775   2.013   7.989
12944TIP3    H238710   1.714   2.035   8.125
12945TIP3   OH238711   1.416   1.560   7.716
12945TIP3    H138712   1.326   1.564   7.754
12945TIP3    H238713   1.471   1.561   7.796
12946TIP3   OH238714   1.114   1.620   7.416
12946TIP3    H138715   1.209   1.618   7.396
12946TIP3    H238716   1.073   1.613   7.328
12947TIP3   OH238717   1.902   1.619   7.921
12947TIP3    H138718   1.868   1.633   8.013
12947TIP3    H238719   1.836   1.557   7.887
12948TIP3   OH238720   0.961   1.597   7.182
12948TIP3    H138721   0.872   1.610   7.147
12948TIP3    H238722   1.014   1.649   7.118
12949TIP3   OH238723   2.069   3.309   8.139
12949TIP3    H138724   2.065   3.333   8.045
12949TIP3    H238725   2.144   3.363   8.169
12950TIP3   OH238726   1.018   2.419   8.573
12950TIP3    H138727   1.104   2.449   8.608
12950TIP3    H238728   0.965   2.425   8.653
12951TIP3   OH238729   1.497   1.876   7.820
12951TIP3    H138730   1.565   1.830   7.769
12951TIP3    H238731   1.505   1.833   7.908
12952TIP3   OH238732   1.483   1.758   8.090
12952TIP3    H138733   1.399   1.802   8.114
12952TIP3    H238734   1.544   1.801   8.152
12953TIP3   OH238735   1.209   2.160   7.204
12953TIP3    H138736   1.135   2.097   7.190
12953TIP3    H238737   1.190   2.194   7.294
12954TIP3   OH238738   2.107   2.396   7.833
12954TIP3    H138739   2.131   2.445   7.751
12954TIP3    H238740   2.021   2.356   7.809
12955TIP3   OH238741   1.660   1.475   7.061
12955TIP3    H138742   1.562   1.469   7.068
12955TIP3    H238743   1.678   1.569   7.083
12956TIP3   OH238744   1.607   2.479   8.198
12956TIP3    H138745   1.622   2.453   8.290
12956TIP3    H238746   1.569   2.568   8.206
12957TIP3   OH238747   1.736   1.718   7.163
12957TIP3    H138748   1.832   1.726   7.180
12957TIP3    H238749   1.717   1.799   7.111
12958TIP3   OH238750   0.890   2.176   7.883
12958TIP3    H138751   0.927   2.155   7.795
12958TIP3    H238752   0.959   2.136   7.940
12959TIP3   OH238753   1.350   2.310   7.022
12959TIP3    H138754   1.304   2.397   7.030
12959TIP3    H238755   1.295   2.255   7.082
12960TIP3   OH238756   1.502   2.218   8.509
12960TIP3    H138757   1.446   2.162   8.452
12960TIP3    H238758   1.591   2.185   8.484
12961TIP3   OH238759   1.768   2.737   8.096
12961TIP3    H138760   1.671   2.735   8.105
12961TIP3    H238761   1.793   2.792   8.173
12962TIP3   OH238762   2.178   1.809   7.004
12962TIP3    H138763   2.114   1.764   6.943
12962TIP3    H238764   2.174   1.898   6.963
12963TIP3   OH238765   2.394   2.667   8.085
12963TIP3    H138766   2.296   2.662   8.077
12963TIP3    H238767   2.420   2.637   7.995
12964TIP3   OH238768   1.870   2.629   6.909
12964TIP3    H138769   1.855   2.557   6.972
12964TIP3    H238770   1.889   2.583   6.826
12965TIP3   OH238771   1.872   2.258   7.754
12965TIP3    H138772   1.778   2.232   7.766
12965TIP3    H238773   1.906   2.179   7.707
12966TIP3   OH238774   0.998   2.487   7.506
12966TIP3    H138775   1.001   2.567   7.452
12966TIP3    H238776   0.904   2.467   7.505
12967TIP3   OH238777   1.141   2.255   7.448
12967TIP3    H138778   1.105   2.344   7.467
12967TIP3    H238779   1.107   2.205   7.524
12968TIP3   OH238780   1.266   2.830   7.974
12968TIP3    H138781   1.304   2.903   7.921
12968TIP3    H238782   1.345   2.797   8.019
12969TIP3   OH238783   0.919   2.725   7.357
12969TIP3    H138784   0.833   2.734   7.401
12969TIP3    H238785   0.951   2.818   7.359
12970TIP3   OH238786   1.658   2.465   7.930
12970TIP3    H138787   1.650   2.462   8.028
12970TIP3    H238788   1.736   2.410   7.915
12971TIP3   OH238789   1.628   2.354   6.813
12971TIP3    H138790   1.682   2.331   6.893
12971TIP3    H238791   1.540   2.331   6.845
12972TIP3   OH238792   1.905   3.000   7.982
12972TIP3    H138793   1.826   2.944   7.971
12972TIP3    H238794   1.892   3.065   7.910
12973TIP3   OH238795   1.970   2.833   6.633
12973TIP3    H138796   2.010   2.905   6.582
12973TIP3    H238797   1.890   2.879   6.666
12974TIP3   OH238798   1.788   2.291   7.032
12974TIP3    H138799   1.780   2.224   7.102
12974TIP3    H238800   1.885   2.289   7.017
12975TIP3   OH238801   0.699   2.687   8.135
12975TIP3    H138802   0.765   2.621   8.161
12975TIP3    H238803   0.726   2.763   8.189
12976TIP3   OH238804   0.996   2.337   6.804
12976TIP3    H138805   1.013   2.245   6.778
12976TIP3    H238806   0.983   2.328   6.901
12977TIP3   OH238807   0.959   2.345   7.076
12977TIP3    H138808   1.010   2.313   7.151
12977TIP3    H238809   0.961   2.442   7.089
12978TIP3   OH238810   0.695   2.025   7.298
12978TIP3    H138811   0.634   2.073   7.358
12978TIP3    H238812   0.709   2.096   7.232
12979TIP3   OH238813   1.828   1.667   8.180
12979TIP3    H138814   1.905   1.709   8.221
12979TIP3    H238815   1.811   1.590   8.238
12980TIP3   OH238816   1.705   1.431   7.340
12980TIP3    H138817   1.694   1.456   7.246
12980TIP3    H238818   1.746   1.512   7.378
12981TIP3   OH238819   1.210   2.543   7.035
12981TIP3    H138820   1.123   2.570   7.069
12981TIP3    H238821   1.226   2.613   6.970
12982TIP3   OH238822   1.399   1.616   7.450
12982TIP3    H138823   1.465   1.686   7.431
12982TIP3    H238824   1.403   1.612   7.548
12983TIP3   OH238825   1.671   1.924   8.253
12983TIP3    H138826   1.678   1.979   8.333
12983TIP3    H238827   1.725   1.847   8.276
12984TIP3   OH238828   1.545   1.347   7.552
12984TIP3    H138829   1.517   1.424   7.604
12984TIP3    H238830   1.603   1.387   7.483
12985TIP3   OH238831   0.950   2.617   7.101
12985TIP3    H138832   0.920   2.686   7.038
12985TIP3    H238833   0.934   2.661   7.187
12986TIP3   OH238834   2.308   1.822   8.234
12986TIP3    H138835   2.210   1.822   8.243
12986TIP3    H238836   2.317   1.783   8.146
12987TIP3   OH238837   1.957   2.018   7.625
12987TIP3    H138838   1.881   1.958   7.636
12987TIP3    H238839   2.029   1.970   7.673
12988TIP3   OH238840   0.698   2.272   7.159
12988TIP3    H138841   0.771   2.322   7.119
12988TIP3    H238842   0.656   2.238   7.076
12989TIP3   OH238843   1.925   2.970   7.575
12989TIP3    H138844   1.882   3.017   7.499
12989TIP3    H238845   2.019   2.990   7.554
12990TIP3   OH238846   0.544   2.472   7.503
12990TIP3    H138847   0.454   2.505   7.513
12990TIP3    H238848   0.556   2.485   7.408
12991TIP3   OH238849   0.717   3.007   8.530
12991TIP3    H138850   0.789   3.009   8.595
12991TIP3    H238851   0.673   2.923   8.550
12992TIP3   OH238852   1.179   2.969   8.597
12992TIP3    H138853   1.274   2.953   8.603
12992TIP3    H238854   1.154   2.913   8.521
12993TIP3   OH238855   1.160   2.543   6.727
12993TIP3    H138856   1.104   2.470   6.763
12993TIP3    H238857   1.236   2.493   6.692
12994TIP3   OH238858   1.814   2.876   8.333
12994TIP3    H138859   1.808   2.802   8.397
12994TIP3    H238860   1.895   2.923   8.360
12995TIP3   OH238861   1.597   2.584   6.636
12995TIP3    H138862   1.645   2.523   6.694
12995TIP3    H238863   1.653   2.586   6.556
12996TIP3   OH238864   0.830   2.016   6.938
12996TIP3    H138865   0.875   2.029   7.023
12996TIP3    H238866   0.897   2.050   6.876
12997TIP3   OH238867   1.440   2.491   8.524
12997TIP3    H138868   1.396   2.505   8.438
12997TIP3    H238869   1.470   2.397   8.518
12998TIP3   OH238870   1.311   2.255   6.753
12998TIP3    H138871   1.314   2.269   6.850
12998TIP3    H238872   1.306   2.157   6.749
12999TIP3   OH238873   1.929   2.498   8.134
12999TIP3    H138874   2.002   2.544   8.088
12999TIP3    H238875   1.856   2.561   8.121
13000TIP3   OH238876   1.018   1.964   7.167
13000TIP3    H138877   0.994   1.932   7.256
13000TIP3    H238878   1.048   1.883   7.121
13001TIP3   OH238879   1.269   2.024   8.399
13001TIP3    H138880   1.202   2.095   8.407
13001TIP3    H238881   1.319   2.051   8.318
13002TIP3   OH238882   1.112   1.747   7.010
13002TIP3    H138883   1.084   1.757   6.916
13002TIP3    H238884   1.209   1.762   7.002
13003TIP3   OH238885   1.800   2.429   8.534
13003TIP3    H138886   1.877   2.404   8.481
13003TIP3    H238887   1.799   2.359   8.602
13004TIP3   OH238888   1.935   2.087   6.670
13004TIP3    H138889   1.913   2.041   6.587
13004TIP3    H238890   1.906   2.178   6.646
13005TIP3   OH238891   1.446   1.824   8.501
13005TIP3    H138892   1.391   1.751   8.467
13005TIP3    H238893   1.380   1.896   8.491
13006TIP3   OH238894   1.439   2.146   8.214
13006TIP3    H138895   1.515   2.136   8.155
13006TIP3    H238896   1.382   2.208   8.165
13007TIP3   OH238897   2.017   2.105   8.582
13007TIP3    H138898   2.066   2.024   8.603
13007TIP3    H238899   2.087   2.162   8.549
13008TIP3   OH238900   2.058   2.357   8.324
13008TIP3    H138901   2.001   2.409   8.263
13008TIP3    H238902   2.146   2.375   8.282
13009TIP3   OH238903   1.682   1.870   8.624
13009TIP3    H138904   1.647   1.893   8.711
13009TIP3    H238905   1.599   1.849   8.576
13010TIP3   OH238906   1.905   1.813   8.464
13010TIP3    H138907   1.833   1.820   8.529
13010TIP3    H238908   1.981   1.785   8.520
13011TIP3   OH238909   2.135   1.754   8.614
13011TIP3    H138910   2.149   1.660   8.639
13011TIP3    H238911   2.124   1.798   8.702
13012TIP3   OH238912   0.920   2.820   6.914
13012TIP3    H138913   1.015   2.814   6.895
13012TIP3    H238914   0.890   2.867   6.834
13013TIP3   OH238915   0.376   2.185   7.194
13013TIP3    H138916   0.446   2.250   7.178
13013TIP3    H238917   0.390   2.132   7.114
13014TIP3   OH238918   0.316   2.811   7.534
13014TIP3    H138919   0.238   2.757   7.519
13014TIP3    H238920   0.358   2.765   7.610
13015TIP3   OH238921   0.437   2.678   7.735
13015TIP3    H138922   0.448   2.594   7.782
13015TIP3    H238923   0.494   2.737   7.789
13016TIP3   OH238924   2.177   3.062   7.529
13016TIP3    H138925   2.203   3.101   7.615
13016TIP3    H238926   2.233   3.111   7.467
13017TIP3   OH238927   2.206   3.085   7.812
13017TIP3    H138928   2.165   2.996   7.805
13017TIP3    H238929   2.283   3.064   7.866
13018TIP3   OH238930   2.256   2.760   8.385
13018TIP3    H138931   2.179   2.769   8.445
13018TIP3    H238932   2.294   2.850   8.389
13019TIP3   OH238933   2.065   2.273   7.006
13019TIP3    H138934   2.131   2.340   6.977
13019TIP3    H238935   2.112   2.234   7.083
13020TIP3   OH238936   2.197   2.142   7.207
13020TIP3    H138937   2.132   2.099   7.267
13020TIP3    H238938   2.261   2.182   7.269
13021TIP3   OH238939   2.251   2.532   7.642
13021TIP3    H138940   2.303   2.469   7.588
13021TIP3    H238941   2.242   2.608   7.582
13022TIP3   OH238942   2.084   2.832   7.838
13022TIP3    H138943   2.012   2.876   7.887
13022TIP3    H238944   2.034   2.785   7.768
13023TIP3   OH238945   2.132   2.045   6.859
13023TIP3    H138946   2.062   2.052   6.790
13023TIP3    H238947   2.110   2.125   6.912
13024TIP3   OH238948   2.006   1.721   6.813
13024TIP3    H138949   1.967   1.765   6.736
13024TIP3    H238950   1.978   1.628   6.799
13025TIP3   OH238951   2.011   1.997   7.356
13025TIP3    H138952   2.021   1.900   7.351
13025TIP3    H238953   1.998   2.013   7.452
13026TIP3   OH238954   2.300   2.421   8.213
13026TIP3    H138955   2.373   2.357   8.203
13026TIP3    H238956   2.325   2.491   8.149
13027TIP3   OH238957   2.488   2.230   8.234
13027TIP3    H138958   2.412   2.180   8.271
13027TIP3    H238959   2.559   2.164   8.246
13028TIP3   OH238960   1.951   1.455   6.798
13028TIP3    H138961   2.029   1.428   6.850
13028TIP3    H238962   1.882   1.394   6.827
13029TIP3   OH238963   2.007   1.713   7.252
13029TIP3    H138964   2.048   1.625   7.266
13029TIP3    H238965   2.065   1.748   7.182
13030TIP3   OH238966   2.171   1.888   7.745
13030TIP3    H138967   2.257   1.915   7.705
13030TIP3    H238968   2.183   1.926   7.835
13031TIP3   OH238969   2.238   2.032   7.979
13031TIP3    H138970   2.159   2.066   8.026
13031TIP3    H238971   2.269   2.112   7.933
13032TIP3   OH238972   2.685   1.617   8.535
13032TIP3    H138973   2.745   1.555   8.489
13032TIP3    H238974   2.660   1.679   8.463
13033TIP3   OH238975   2.116   1.463   7.289
13033TIP3    H138976   2.165   1.446   7.372
13033TIP3    H238977   2.056   1.386   7.287
13034TIP3   OH238978   2.563   1.764   8.341
13034TIP3    H138979   2.475   1.802   8.362
13034TIP3    H238980   2.536   1.692   8.281
13035TIP3   OH238981   2.199   1.400   6.919
13035TIP3    H138982   2.240   1.328   6.868
13035TIP3    H238983   2.266   1.471   6.911
13036TIP3   OH238984   1.761   2.929   7.187
13036TIP3    H138985   1.812   2.913   7.105
13036TIP3    H238986   1.814   2.997   7.231
13037TIP3   OH238987   0.862   2.717   8.568
13037TIP3    H138988   0.776   2.676   8.551
13037TIP3    H238989   0.864   2.729   8.663
13038TIP3   OH238990   1.039   2.765   8.121
13038TIP3    H138991   0.991   2.841   8.082
13038TIP3    H238992   1.125   2.778   8.076
13039TIP3   OH238993   1.487   3.010   8.257
13039TIP3    H138994   1.529   3.016   8.345
13039TIP3    H238995   1.551   3.060   8.203
13040TIP3   OH238996   1.665   3.160   8.117
13040TIP3    H138997   1.737   3.113   8.072
13040TIP3    H238998   1.717   3.219   8.176
13041TIP3   OH238999   2.460   1.526   8.217
13041TIP3    H139000   2.368   1.522   8.184
13041TIP3    H239001   2.489   1.433   8.204
13042TIP3   OH239002   0.717   3.019   8.146
13042TIP3    H139003   0.629   3.053   8.123
13042TIP3    H239004   0.727   3.057   8.235
13043TIP3   OH239005   0.953   3.000   8.001
13043TIP3    H139006   0.867   3.015   8.046
13043TIP3    H239007   0.934   3.036   7.912
13044TIP3   OH239008   1.379   3.031   7.800
13044TIP3    H139009   1.312   3.053   7.732
13044TIP3    H239010   1.393   3.119   7.841
13045TIP3   OH239011   1.648   2.972   7.851
13045TIP3    H139012   1.554   2.988   7.830
13045TIP3    H239013   1.691   3.047   7.808
13046TIP3   OH239014   1.856   3.162   7.767
13046TIP3    H139015   1.842   3.248   7.721
13046TIP3    H239016   1.882   3.104   7.693
13047TIP3   OH239017   0.626   2.812   7.886
13047TIP3    H139018   0.649   2.797   7.979
13047TIP3    H239019   0.702   2.770   7.840
13048TIP3   OH239020   0.823   2.687   7.744
13048TIP3    H139021   0.841   2.603   7.791
13048TIP3    H239022   0.912   2.727   7.738
13049TIP3   OH239023   1.086   2.785   7.746
13049TIP3    H139024   1.120   2.695   7.732
13049TIP3    H239025   1.129   2.806   7.831
13050TIP3   OH239026   1.675   1.435   7.841
13050TIP3    H139027   1.624   1.354   7.848
13050TIP3    H239028   1.745   1.408   7.779
13051TIP3   OH239029   2.189   1.320   7.745
13051TIP3    H139030   2.227   1.371   7.670
13051TIP3    H239031   2.094   1.338   7.735
13052TIP3   OH239032   2.283   1.419   7.507
13052TIP3    H139033   2.355   1.369   7.464
13052TIP3    H239034   2.316   1.511   7.492
13053TIP3   OH239035   1.907   1.323   7.717
13053TIP3    H139036   1.897   1.292   7.626
13053TIP3    H239037   1.890   1.241   7.768
13054TIP3   OH239038   1.933   1.250   7.278
13054TIP3    H139039   1.845   1.290   7.290
13054TIP3    H239040   1.919   1.163   7.320
13055TIP3   OH239041   0.394   2.589   7.295
13055TIP3    H139042   0.350   2.543   7.223
13055TIP3    H239043   0.389   2.682   7.264
13056TIP3   OH239044   1.315   1.375   7.366
13056TIP3    H139045   1.374   1.321   7.420
13056TIP3    H239046   1.344   1.464   7.396
13057TIP3   OH239047   1.188   2.781   6.861
13057TIP3    H139048   1.277   2.802   6.826
13057TIP3    H239049   1.167   2.704   6.803
13058TIP3   OH239050   1.906   2.895   6.955
13058TIP3    H139051   1.897   2.798   6.940
13058TIP3    H239052   1.863   2.929   6.873
13059TIP3   OH239053   0.495   2.623   6.921
13059TIP3    H139054   0.496   2.652   7.013
13059TIP3    H239055   0.581   2.577   6.912
13060TIP3   OH239056   2.198   1.483   8.656
13060TIP3    H139057   2.224   1.422   8.727
13060TIP3    H239058   2.279   1.484   8.601
13061TIP3   OH239059   2.134   3.040   8.145
13061TIP3    H139060   2.056   3.009   8.095
13061TIP3    H239061   2.116   3.137   8.144
13062TIP3   OH239062   3.401   2.414   6.910
13062TIP3    H139063   3.372   2.505   6.890
13062TIP3    H239064   3.324   2.364   6.877
13063TIP3   OH239065   3.406   2.411   7.285
13063TIP3    H139066   3.426   2.376   7.373
13063TIP3    H239067   3.355   2.339   7.245
13064TIP3   OH239068   2.699   2.310   7.656
13064TIP3    H139069   2.734   2.244   7.718
13064TIP3    H239070   2.778   2.364   7.640
13065TIP3   OH239071   3.645   2.712   6.969
13065TIP3    H139072   3.624   2.644   7.034
13065TIP3    H239073   3.667   2.788   7.025
13066TIP3   OH239074   2.671   2.718   7.385
13066TIP3    H139075   2.661   2.620   7.386
13066TIP3    H239076   2.767   2.725   7.372
13067TIP3   OH239077   2.373   1.919   7.174
13067TIP3    H139078   2.328   2.005   7.180
13067TIP3    H239079   2.305   1.867   7.129
13068TIP3   OH239080   2.438   2.210   7.335
13068TIP3    H139081   2.487   2.133   7.371
13068TIP3    H239082   2.491   2.233   7.257
13069TIP3   OH239083   3.290   3.177   6.985
13069TIP3    H139084   3.339   3.106   6.940
13069TIP3    H239085   3.280   3.141   7.074
13070TIP3   OH239086   3.196   2.638   7.341
13070TIP3    H139087   3.226   2.566   7.284
13070TIP3    H239088   3.283   2.679   7.362
13071TIP3   OH239089   4.213   1.958   7.336
13071TIP3    H139090   4.239   2.042   7.378
13071TIP3    H239091   4.227   1.979   7.242
13072TIP3   OH239092   3.613   2.141   7.373
13072TIP3    H139093   3.652   2.053   7.389
13072TIP3    H239094   3.579   2.129   7.282
13073TIP3   OH239095   2.948   1.799   7.337
13073TIP3    H139096   2.925   1.872   7.274
13073TIP3    H239097   2.900   1.725   7.293
13074TIP3   OH239098   3.640   1.889   6.962
13074TIP3    H139099   3.715   1.874   7.024
13074TIP3    H239100   3.688   1.926   6.885
13075TIP3   OH239101   2.580   2.002   7.446
13075TIP3    H139102   2.665   1.981   7.490
13075TIP3    H239103   2.590   1.947   7.365
13076TIP3   OH239104   3.023   2.200   7.238
13076TIP3    H139105   3.116   2.171   7.249
13076TIP3    H239106   2.981   2.119   7.202
13077TIP3   OH239107   4.285   2.167   7.505
13077TIP3    H139108   4.201   2.214   7.484
13077TIP3    H239109   4.292   2.188   7.600
13078TIP3   OH239110   2.945   1.783   7.771
13078TIP3    H139111   2.885   1.819   7.703
13078TIP3    H239112   2.892   1.802   7.852
13079TIP3   OH239113   3.300   2.638   6.777
13079TIP3    H139114   3.247   2.606   6.702
13079TIP3    H239115   3.252   2.720   6.799
13080TIP3   OH239116   3.053   2.558   7.570
13080TIP3    H139117   2.987   2.622   7.606
13080TIP3    H239118   3.091   2.608   7.495
13081TIP3   OH239119   3.856   1.889   7.128
13081TIP3    H139120   3.842   1.841   7.210
13081TIP3    H239121   3.907   1.967   7.158
13082TIP3   OH239122   2.816   1.897   7.556
13082TIP3    H139123   2.878   1.970   7.576
13082TIP3    H239124   2.862   1.856   7.479
13083TIP3   OH239125   2.879   2.750   7.665
13083TIP3    H139126   2.852   2.833   7.621
13083TIP3    H239127   2.799   2.735   7.721
13084TIP3   OH239128   2.260   2.447   6.914
13084TIP3    H139129   2.245   2.459   6.819
13084TIP3    H239130   2.303   2.531   6.939
13085TIP3   OH239131   3.716   2.956   7.142
13085TIP3    H139132   3.626   2.948   7.181
13085TIP3    H239133   3.707   3.041   7.094
13086TIP3   OH239134   4.003   1.861   7.504
13086TIP3    H139135   3.914   1.886   7.474
13086TIP3    H239136   4.059   1.890   7.429
13087TIP3   OH239137   3.305   1.504   7.487
13087TIP3    H139138   3.289   1.408   7.499
13087TIP3    H239139   3.226   1.541   7.531
13088TIP3   OH239140   3.422   3.004   6.820
13088TIP3    H139141   3.470   2.922   6.794
13088TIP3    H239142   3.479   3.071   6.774
13089TIP3   OH239143   3.561   2.789   6.716
13089TIP3    H139144   3.509   2.714   6.684
13089TIP3    H239145   3.595   2.753   6.801
13090TIP3   OH239146   3.942   2.871   7.483
13090TIP3    H139147   3.928   2.794   7.424
13090TIP3    H239148   3.921   2.946   7.422
13091TIP3   OH239149   3.233   2.264   6.741
13091TIP3    H139150   3.146   2.308   6.725
13091TIP3    H239151   3.270   2.263   6.651
13092TIP3   OH239152   3.192   2.054   6.455
13092TIP3    H139153   3.262   2.100   6.505
13092TIP3    H239154   3.244   1.985   6.410
13093TIP3   OH239155   4.136   2.508   7.328
13093TIP3    H139156   4.052   2.559   7.333
13093TIP3    H239157   4.163   2.531   7.237
13094TIP3   OH239158   3.578   2.348   6.713
13094TIP3    H139159   3.521   2.373   6.789
13094TIP3    H239160   3.660   2.321   6.759
13095TIP3   OH239161   3.815   2.388   7.620
13095TIP3    H139162   3.809   2.473   7.666
13095TIP3    H239163   3.727   2.387   7.576
13096TIP3   OH239164   2.799   2.340   7.132
13096TIP3    H139165   2.776   2.313   7.040
13096TIP3    H239166   2.882   2.291   7.148
13097TIP3   OH239167   2.938   2.755   7.276
13097TIP3    H139168   2.916   2.711   7.192
13097TIP3    H239169   3.028   2.721   7.293
13098TIP3   OH239170   2.952   2.313   7.486
13098TIP3    H139171   2.975   2.295   7.393
13098TIP3    H239172   2.990   2.402   7.501
13099TIP3   OH239173   3.475   2.954   7.260
13099TIP3    H139174   3.456   3.033   7.313
13099TIP3    H239175   3.459   2.880   7.322
13100TIP3   OH239176   3.083   2.872   7.808
13100TIP3    H139177   3.023   2.935   7.852
13100TIP3    H239178   3.018   2.819   7.758
13101TIP3   OH239179   3.425   2.200   6.538
13101TIP3    H139180   3.479   2.263   6.591
13101TIP3    H239181   3.448   2.228   6.446
13102TIP3   OH239182   2.839   2.428   7.909
13102TIP3    H139183   2.842   2.515   7.953
13102TIP3    H239184   2.743   2.410   7.911
13103TIP3   OH239185   3.163   2.885   6.811
13103TIP3    H139186   3.235   2.945   6.837
13103TIP3    H239187   3.097   2.944   6.774
13104TIP3   OH239188   2.880   3.043   7.893
13104TIP3    H139189   2.845   3.040   7.802
13104TIP3    H239190   2.800   3.020   7.946
13105TIP3   OH239191   3.935   1.446   6.586
13105TIP3    H139192   3.853   1.465   6.637
13105TIP3    H239193   3.946   1.530   6.536
13106TIP3   OH239194   3.731   2.814   6.132
13106TIP3    H139195   3.740   2.911   6.120
13106TIP3    H239196   3.824   2.786   6.121
13107TIP3   OH239197   2.458   2.571   7.840
13107TIP3    H139198   2.393   2.551   7.770
13107TIP3    H239199   2.494   2.483   7.863
13108TIP3   OH239200   2.311   2.761   7.479
13108TIP3    H139201   2.406   2.759   7.463
13108TIP3    H239202   2.301   2.846   7.526
13109TIP3   OH239203   4.178   3.215   7.529
13109TIP3    H139204   4.174   3.118   7.539
13109TIP3    H239205   4.093   3.240   7.573
13110TIP3   OH239206   3.285   3.000   7.665
13110TIP3    H139207   3.283   3.093   7.695
13110TIP3    H239208   3.211   2.962   7.718
13111TIP3   OH239209   3.043   3.133   6.613
13111TIP3    H139210   2.994   3.111   6.532
13111TIP3    H239211   3.009   3.222   6.636
13112TIP3   OH239212   2.481   2.982   6.997
13112TIP3    H139213   2.527   2.970   7.083
13112TIP3    H239214   2.423   2.903   6.998
13113TIP3   OH239215   3.246   3.033   6.255
13113TIP3    H139216   3.304   2.962   6.220
13113TIP3    H239217   3.277   3.040   6.348
13114TIP3   OH239218   3.294   3.079   6.526
13114TIP3    H139219   3.205   3.090   6.566
13114TIP3    H239220   3.341   3.034   6.598
13115TIP3   OH239221   4.067   2.348   7.802
13115TIP3    H139222   3.986   2.364   7.750
13115TIP3    H239223   4.079   2.252   7.790
13116TIP3   OH239224   2.663   2.754   7.831
13116TIP3    H139225   2.712   2.736   7.914
13116TIP3    H239226   2.589   2.690   7.837
13117TIP3   OH239227   3.063   1.578   7.611
13117TIP3    H139228   2.974   1.547   7.586
13117TIP3    H239229   3.038   1.662   7.654
13118TIP3   OH239230   3.594   1.695   7.807
13118TIP3    H139231   3.660   1.666   7.873
13118TIP3    H239232   3.508   1.674   7.850
13119TIP3   OH239233   3.842   2.125   7.729
13119TIP3    H139234   3.788   2.120   7.812
13119TIP3    H239235   3.811   2.209   7.689
13120TIP3   OH239236   3.496   2.253   6.281
13120TIP3    H139237   3.462   2.226   6.194
13120TIP3    H239238   3.573   2.306   6.256
13121TIP3   OH239239   3.212   1.625   6.583
13121TIP3    H139240   3.176   1.626   6.674
13121TIP3    H239241   3.169   1.544   6.550
13122TIP3   OH239242   2.997   2.091   7.633
13122TIP3    H139243   2.943   2.112   7.712
13122TIP3    H239244   2.981   2.171   7.578
13123TIP3   OH239245   2.881   1.978   7.146
13123TIP3    H139246   2.785   1.962   7.158
13123TIP3    H239247   2.892   1.943   7.054
13124TIP3   OH239248   3.370   2.068   6.874
13124TIP3    H139249   3.313   2.139   6.834
13124TIP3    H239250   3.420   2.038   6.796
13125TIP3   OH239251   3.543   2.346   7.962
13125TIP3    H139252   3.519   2.273   8.022
13125TIP3    H239253   3.637   2.357   7.982
13126TIP3   OH239254   3.528   2.096   7.112
13126TIP3    H139255   3.467   2.127   7.042
13126TIP3    H239256   3.558   2.013   7.069
13127TIP3   OH239257   2.816   2.123   7.840
13127TIP3    H139258   2.833   2.188   7.910
13127TIP3    H239259   2.801   2.041   7.891
13128TIP3   OH239260   2.860   1.597   6.551
13128TIP3    H139261   2.855   1.597   6.649
13128TIP3    H239262   2.788   1.659   6.530
13129TIP3   OH239263   2.405   1.643   7.424
13129TIP3    H139264   2.482   1.678   7.474
13129TIP3    H239265   2.443   1.617   7.339
13130TIP3   OH239266   2.382   1.626   6.940
13130TIP3    H139267   2.427   1.665   6.862
13130TIP3    H239268   2.322   1.700   6.962
13131TIP3   OH239269   3.545   2.342   7.539
13131TIP3    H139270   3.572   2.269   7.478
13131TIP3    H239271   3.509   2.289   7.614
13132TIP3   OH239272   3.205   1.799   7.209
13132TIP3    H139273   3.118   1.799   7.254
13132TIP3    H239274   3.266   1.806   7.284
13133TIP3   OH239275   2.637   1.855   7.222
13133TIP3    H139276   2.545   1.866   7.190
13133TIP3    H239277   2.662   1.767   7.188
13134TIP3   OH239278   2.914   1.854   6.902
13134TIP3    H139279   3.003   1.879   6.872
13134TIP3    H239280   2.857   1.879   6.825
13135TIP3   OH239281   3.698   1.875   7.409
13135TIP3    H139282   3.661   1.888   7.499
13135TIP3    H239283   3.631   1.813   7.372
13136TIP3   OH239284   2.754   1.862   6.681
13136TIP3    H139285   2.676   1.840   6.627
13136TIP3    H239286   2.803   1.919   6.618
13137TIP3   OH239287   3.866   3.564   7.626
13137TIP3    H139288   3.861   3.588   7.532
13137TIP3    H239289   3.940   3.619   7.657
13138TIP3   OH239290   2.824   2.675   8.050
13138TIP3    H139291   2.902   2.708   8.097
13138TIP3    H239292   2.758   2.676   8.122
13139TIP3   OH239293   3.291   2.129   7.307
13139TIP3    H139294   3.360   2.087   7.253
13139TIP3    H239295   3.301   2.085   7.393
13140TIP3   OH239296   2.818   1.617   7.182
13140TIP3    H139297   2.783   1.535   7.222
13140TIP3    H239298   2.857   1.585   7.099
13141TIP3   OH239299   3.266   2.022   7.596
13141TIP3    H139300   3.175   2.058   7.606
13141TIP3    H239301   3.321   2.086   7.646
13142TIP3   OH239302   3.008   2.420   6.699
13142TIP3    H139303   2.929   2.362   6.709
13142TIP3    H239304   3.001   2.464   6.787
13143TIP3   OH239305   3.903   2.652   7.320
13143TIP3    H139306   3.926   2.701   7.238
13143TIP3    H239307   3.817   2.611   7.297
13144TIP3   OH239308   3.461   1.731   6.548
13144TIP3    H139309   3.364   1.713   6.556
13144TIP3    H239310   3.469   1.825   6.572
13145TIP3   OH239311   3.409   2.739   7.686
13145TIP3    H139312   3.414   2.711   7.778
13145TIP3    H239313   3.363   2.824   7.691
13146TIP3   OH239314   3.531   1.975   6.654
13146TIP3    H139315   3.627   1.984   6.668
13146TIP3    H239316   3.509   2.055   6.602
13147TIP3   OH239317   2.697   2.441   7.368
13147TIP3    H139318   2.726   2.412   7.279
13147TIP3    H239319   2.728   2.369   7.424
13148TIP3   OH239320   3.145   2.566   6.509
13148TIP3    H139321   3.099   2.653   6.517
13148TIP3    H239322   3.091   2.511   6.569
13149TIP3   OH239323   2.573   2.358   7.978
13149TIP3    H139324   2.591   2.344   8.072
13149TIP3    H239325   2.502   2.293   7.960
13150TIP3   OH239326   3.297   2.472   8.000
13150TIP3    H139327   3.236   2.416   7.948
13150TIP3    H239328   3.384   2.439   7.969
13151TIP3   OH239329   3.565   2.996   7.581
13151TIP3    H139330   3.468   2.991   7.591
13151TIP3    H239331   3.589   3.048   7.660
13152TIP3   OH239332   3.975   2.064   6.489
13152TIP3    H139333   3.912   2.019   6.428
13152TIP3    H239334   3.970   2.154   6.448
13153TIP3   OH239335   4.191   2.924   7.572
13153TIP3    H139336   4.093   2.919   7.563
13153TIP3    H239337   4.217   2.894   7.481
13154TIP3   OH239338   3.676   2.885   6.399
13154TIP3    H139339   3.644   2.817   6.461
13154TIP3    H239340   3.682   2.837   6.315
13155TIP3   OH239341   3.669   2.513   7.242
13155TIP3    H139342   3.575   2.488   7.254
13155TIP3    H239343   3.702   2.435   7.194
13156TIP3   OH239344   2.791   2.744   6.992
13156TIP3    H139345   2.790   2.824   6.937
13156TIP3    H239346   2.698   2.720   6.993
13157TIP3   OH239347   2.350   2.041   6.687
13157TIP3    H139348   2.395   2.128   6.700
13157TIP3    H239349   2.278   2.050   6.753
13158TIP3   OH239350   2.964   2.529   6.955
13158TIP3    H139351   2.908   2.608   6.964
13158TIP3    H239352   2.904   2.459   6.984
13159TIP3   OH239353   3.063   3.087   7.461
13159TIP3    H139354   3.101   3.160   7.408
13159TIP3    H239355   3.141   3.054   7.507
13160TIP3   OH239356   2.715   2.981   6.843
13160TIP3    H139357   2.628   2.988   6.888
13160TIP3    H239358   2.745   3.074   6.845
13161TIP3   OH239359   3.455   2.721   7.417
13161TIP3    H139360   3.447   2.719   7.515
13161TIP3    H239361   3.532   2.664   7.403
13162TIP3   OH239362   3.424   2.613   6.298
13162TIP3    H139363   3.476   2.588   6.378
13162TIP3    H239364   3.335   2.587   6.327
13163TIP3   OH239365   3.703   3.256   7.469
13163TIP3    H139366   3.624   3.199   7.461
13163TIP3    H239367   3.686   3.320   7.396
13164TIP3   OH239368   3.767   3.090   6.120
13164TIP3    H139369   3.803   3.162   6.066
13164TIP3    H239370   3.686   3.135   6.154
13165TIP3   OH239371   2.786   1.866   7.989
13165TIP3    H139372   2.690   1.871   8.000
13165TIP3    H239373   2.811   1.802   8.057
13166TIP3   OH239374   3.585   2.546   6.514
13166TIP3    H139375   3.574   2.482   6.587
13166TIP3    H239376   3.682   2.545   6.504
13167TIP3   OH239377   2.502   2.952   7.619
13167TIP3    H139378   2.553   2.874   7.647
13167TIP3    H239379   2.533   3.018   7.682
13168TIP3   OH239380   2.796   2.593   6.297
13168TIP3    H139381   2.806   2.500   6.270
13168TIP3    H239382   2.775   2.583   6.392
13169TIP3   OH239383   2.740   2.597   6.566
13169TIP3    H139384   2.789   2.557   6.639
13169TIP3    H239385   2.748   2.694   6.583
13170TIP3   OH239386   2.445   2.290   6.746
13170TIP3    H139387   2.418   2.326   6.831
13170TIP3    H239388   2.543   2.305   6.750
13171TIP3   OH239389   3.622   1.931   7.667
13171TIP3    H139390   3.703   1.965   7.709
13171TIP3    H239391   3.604   1.850   7.719
13172TIP3   OH239392   3.505   1.680   6.828
13172TIP3    H139393   3.486   1.705   6.736
13172TIP3    H239394   3.540   1.764   6.865
13173TIP3   OH239395   3.007   2.800   6.521
13173TIP3    H139396   2.919   2.823   6.557
13173TIP3    H239397   3.018   2.870   6.456
13174TIP3   OH239398   3.205   1.854   6.934
13174TIP3    H139399   3.263   1.931   6.916
13174TIP3    H239400   3.198   1.855   7.031
13175TIP3   OH239401   3.460   2.180   7.742
13175TIP3    H139402   3.477   2.234   7.821
13175TIP3    H239403   3.516   2.102   7.757
13176TIP3   OH239404   3.341   1.592   7.042
13176TIP3    H139405   3.320   1.673   7.092
13176TIP3    H239406   3.398   1.629   6.970
13177TIP3   OH239407   2.749   2.873   6.588
13177TIP3    H139408   2.717   2.940   6.525
13177TIP3    H239409   2.730   2.915   6.674
13178TIP3   OH239410   2.848   1.583   6.830
13178TIP3    H139411   2.843   1.678   6.854
13178TIP3    H239412   2.945   1.570   6.837
13179TIP3   OH239413   4.106   2.077   7.721
13179TIP3    H139414   4.008   2.079   7.732
13179TIP3    H239415   4.111   2.038   7.632
13180TIP3   OH239416   3.754   2.273   7.111
13180TIP3    H139417   3.676   2.216   7.121
13180TIP3    H239418   3.823   2.224   7.159
13181TIP3   OH239419   2.456   2.534   6.556
13181TIP3    H139420   2.535   2.586   6.580
13181TIP3    H239421   2.500   2.457   6.515
13182TIP3   OH239422   2.409   1.774   6.713
13182TIP3    H139423   2.416   1.872   6.710
13182TIP3    H239424   2.322   1.760   6.675
13183TIP3   OH239425   3.722   3.228   7.062
13183TIP3    H139426   3.678   3.274   6.987
13183TIP3    H239427   3.815   3.247   7.039
13184TIP3   OH239428   2.799   1.498   7.589
13184TIP3    H139429   2.766   1.467   7.502
13184TIP3    H239430   2.786   1.419   7.645
13185TIP3   OH239431   2.344   2.726   6.974
13185TIP3    H139432   2.262   2.749   7.020
13185TIP3    H239433   2.322   2.757   6.883
13186TIP3   OH239434   2.491   3.254   8.041
13186TIP3    H139435   2.578   3.252   8.087
13186TIP3    H239436   2.469   3.159   8.037
13187TIP3   OH239437   2.978   3.223   8.086
13187TIP3    H139438   3.072   3.203   8.089
13187TIP3    H239439   2.950   3.167   8.011
13188TIP3   OH239440   2.957   2.799   6.214
13188TIP3    H139441   2.898   2.729   6.252
13188TIP3    H239442   3.030   2.743   6.184
13189TIP3   OH239443   3.614   3.129   7.817
13189TIP3    H139444   3.605   3.059   7.885
13189TIP3    H239445   3.691   3.180   7.849
13190TIP3   OH239446   3.394   2.841   6.124
13190TIP3    H139447   3.436   2.775   6.181
13190TIP3    H239448   3.451   2.841   6.045
13191TIP3   OH239449   2.623   2.663   8.241
13191TIP3    H139450   2.641   2.567   8.241
13191TIP3    H239451   2.536   2.667   8.197
13192TIP3   OH239452   2.595   2.318   6.427
13192TIP3    H139453   2.637   2.280   6.506
13192TIP3    H239454   2.671   2.321   6.365
13193TIP3   OH239455   3.233   2.748   8.013
13193TIP3    H139456   3.187   2.763   7.927
13193TIP3    H239457   3.261   2.654   8.005
13194TIP3   OH239458   3.111   2.514   6.239
13194TIP3    H139459   3.109   2.527   6.335
13194TIP3    H239460   3.106   2.416   6.234
13195TIP3   OH239461   3.727   2.753   7.622
13195TIP3    H139462   3.796   2.803   7.575
13195TIP3    H239463   3.650   2.812   7.610
13196TIP3   OH239464   2.741   2.398   8.222
13196TIP3    H139465   2.813   2.338   8.202
13196TIP3    H239466   2.766   2.430   8.311
13197TIP3   OH239467   3.080   2.286   7.888
13197TIP3    H139468   3.000   2.342   7.890
13197TIP3    H239469   3.123   2.316   7.805
13198TIP3   OH239470   2.909   1.985   6.492
13198TIP3    H139471   2.878   2.007   6.402
13198TIP3    H239472   3.000   2.021   6.491
13199TIP3   OH239473   3.595   2.686   8.021
13199TIP3    H139474   3.671   2.661   7.966
13199TIP3    H239475   3.592   2.614   8.087
13200TIP3   OH239476   3.736   2.345   6.155
13200TIP3    H139477   3.710   2.296   6.074
13200TIP3    H239478   3.703   2.434   6.132
13201TIP3   OH239479   3.203   2.070   8.010
13201TIP3    H139480   3.199   1.990   7.955
13201TIP3    H239481   3.158   2.136   7.953
13202TIP3   OH239482   3.204   1.855   7.817
13202TIP3    H139483   3.229   1.898   7.732
13202TIP3    H239484   3.109   1.833   7.799
13203TIP3   OH239485   3.236   2.397   7.692
13203TIP3    H139486   3.313   2.401   7.633
13203TIP3    H239487   3.175   2.462   7.649
13204TIP3   OH239488   3.817   2.361   8.076
13204TIP3    H139489   3.863   2.276   8.076
13204TIP3    H239490   3.883   2.420   8.036
13205TIP3   OH239491   3.855   2.613   7.812
13205TIP3    H139492   3.796   2.665   7.751
13205TIP3    H239493   3.942   2.632   7.769
13206TIP3   OH239494   3.081   2.184   8.241
13206TIP3    H139495   3.010   2.117   8.254
13206TIP3    H239496   3.113   2.162   8.152
13207TIP3   OH239497   3.336   1.622   7.883
13207TIP3    H139498   3.287   1.704   7.860
13207TIP3    H239499   3.266   1.554   7.870
13208TIP3   OH239500   3.462   2.127   8.100
13208TIP3    H139501   3.446   2.115   8.195
13208TIP3    H239502   3.372   2.102   8.067
13209TIP3   OH239503   3.702   2.077   7.956
13209TIP3    H139504   3.624   2.077   8.014
13209TIP3    H239505   3.772   2.042   8.015
13210TIP3   OH239506   3.939   2.016   8.109
13210TIP3    H139507   3.944   1.920   8.127
13210TIP3    H239508   3.929   2.055   8.198
13211TIP3   OH239509   2.919   1.965   8.291
13211TIP3    H139510   2.923   1.875   8.254
13211TIP3    H239511   2.954   1.950   8.381
13212TIP3   OH239512   3.433   1.632   8.139
13212TIP3    H139513   3.498   1.559   8.133
13212TIP3    H239514   3.390   1.626   8.051
13213TIP3   OH239515   3.497   1.846   8.298
13213TIP3    H139516   3.474   1.775   8.234
13213TIP3    H239517   3.419   1.906   8.292
13214TIP3   OH239518   2.716   3.076   6.401
13214TIP3    H139519   2.811   3.074   6.380
13214TIP3    H239520   2.683   3.122   6.322
13215TIP3   OH239521   2.197   2.457   6.616
13215TIP3    H139522   2.291   2.482   6.604
13215TIP3    H239523   2.197   2.367   6.579
13216TIP3   OH239524   2.109   3.069   7.029
13216TIP3    H139525   2.042   3.006   6.994
13216TIP3    H239526   2.154   3.013   7.095
13217TIP3   OH239527   2.244   2.925   7.217
13217TIP3    H139528   2.235   2.847   7.273
13217TIP3    H239529   2.296   2.984   7.275
13218TIP3   OH239530   3.975   3.317   7.015
13218TIP3    H139531   3.999   3.354   7.102
13218TIP3    H239532   4.030   3.370   6.955
13219TIP3   OH239533   4.003   3.341   7.297
13219TIP3    H139534   3.959   3.254   7.292
13219TIP3    H239535   4.078   3.319   7.355
13220TIP3   OH239536   4.053   3.016   7.873
13220TIP3    H139537   3.976   3.024   7.933
13220TIP3    H239538   4.090   3.107   7.876
13221TIP3   OH239539   3.867   2.530   6.492
13221TIP3    H139540   3.936   2.594   6.466
13221TIP3    H239541   3.908   2.490   6.571
13222TIP3   OH239542   3.994   2.397   6.695
13222TIP3    H139543   3.927   2.354   6.752
13222TIP3    H239544   4.054   2.439   6.760
13223TIP3   OH239545   4.049   2.790   7.131
13223TIP3    H139546   4.099   2.727   7.075
13223TIP3    H239547   4.035   2.864   7.069
13224TIP3   OH239548   3.880   3.090   7.325
13224TIP3    H139549   3.808   3.133   7.375
13224TIP3    H239550   3.830   3.042   7.255
13225TIP3   OH239551   3.932   2.305   6.343
13225TIP3    H139552   3.861   2.308   6.275
13225TIP3    H239553   3.904   2.381   6.398
13226TIP3   OH239554   3.806   1.977   6.296
13226TIP3    H139555   3.759   2.020   6.223
13226TIP3    H239556   3.778   1.884   6.285
13227TIP3   OH239557   3.810   2.253   6.842
13227TIP3    H139558   3.814   2.156   6.837
13227TIP3    H239559   3.795   2.268   6.938
13228TIP3   OH239560   2.434   2.324   7.589
13228TIP3    H139561   2.432   2.297   7.495
13228TIP3    H239562   2.532   2.328   7.604
13229TIP3   OH239563   4.096   2.678   7.700
13229TIP3    H139564   4.170   2.614   7.690
13229TIP3    H239565   4.119   2.747   7.636
13230TIP3   OH239566   4.284   2.487   7.720
13230TIP3    H139567   4.208   2.437   7.757
13230TIP3    H239568   4.355   2.420   7.733
13231TIP3   OH239569   3.747   1.712   6.284
13231TIP3    H139570   3.819   1.680   6.342
13231TIP3    H239571   3.671   1.656   6.308
13232TIP3   OH239572   3.805   1.970   6.740
13232TIP3    H139573   3.845   1.881   6.755
13232TIP3    H239574   3.862   2.003   6.668
13233TIP3   OH239575   3.968   2.143   7.233
13233TIP3    H139576   4.053   2.172   7.193
13233TIP3    H239577   3.979   2.182   7.322
13234TIP3   OH239578   4.035   2.289   7.466
13234TIP3    H139579   3.955   2.322   7.513
13234TIP3    H239580   4.065   2.370   7.420
13235TIP3   OH239581   2.652   2.017   8.266
13235TIP3    H139582   2.749   2.007   8.264
13235TIP3    H239583   2.626   1.932   8.307
13236TIP3   OH239584   4.491   1.881   8.022
13236TIP3    H139585   4.544   1.813   7.976
13236TIP3    H239586   4.458   1.935   7.947
13237TIP3   OH239587   3.914   1.719   6.775
13237TIP3    H139588   3.959   1.702   6.860
13237TIP3    H239589   3.852   1.643   6.772
13238TIP3   OH239590   2.613   1.706   7.598
13238TIP3    H139591   2.677   1.632   7.605
13238TIP3    H239592   2.674   1.782   7.589
13239TIP3   OH239593   2.417   1.981   7.670
13239TIP3    H139594   2.464   1.971   7.585
13239TIP3    H239595   2.444   2.071   7.695
13240TIP3   OH239596   4.358   2.019   7.830
13240TIP3    H139597   4.270   2.059   7.848
13240TIP3    H239598   4.331   1.949   7.768
13241TIP3   OH239599   3.997   1.655   6.409
13241TIP3    H139600   4.034   1.583   6.354
13241TIP3    H239601   4.062   1.727   6.396
13242TIP3   OH239602   2.398   1.486   7.169
13242TIP3    H139603   2.304   1.484   7.193
13242TIP3    H239604   2.398   1.543   7.090
13243TIP3   OH239605   3.560   3.185   6.674
13243TIP3    H139606   3.609   3.170   6.591
13243TIP3    H239607   3.611   3.255   6.716
13244TIP3   OH239608   2.619   1.564   7.984
13244TIP3    H139609   2.568   1.559   8.066
13244TIP3    H239610   2.553   1.603   7.923
13245TIP3   OH239611   2.661   2.987   8.062
13245TIP3    H139612   2.569   2.961   8.041
13245TIP3    H239613   2.663   2.974   8.157
13246TIP3   OH239614   2.837   3.022   7.610
13246TIP3    H139615   2.786   3.096   7.570
13246TIP3    H239616   2.921   3.037   7.563
13247TIP3   OH239617   3.284   3.266   7.746
13247TIP3    H139618   3.325   3.271   7.834
13247TIP3    H239619   3.349   3.318   7.692
13248TIP3   OH239620   3.461   3.417   7.603
13248TIP3    H139621   3.532   3.368   7.560
13248TIP3    H239622   3.513   3.476   7.663
13249TIP3   OH239623   4.255   1.783   7.704
13249TIP3    H139624   4.164   1.781   7.670
13249TIP3    H239625   4.282   1.689   7.690
13250TIP3   OH239626   2.515   3.280   7.631
13250TIP3    H139627   2.427   3.313   7.604
13250TIP3    H239628   2.519   3.315   7.721
13251TIP3   OH239629   2.751   3.259   7.487
13251TIP3    H139630   2.665   3.272   7.533
13251TIP3    H239631   2.730   3.292   7.398
13252TIP3   OH239632   3.177   3.288   7.285
13252TIP3    H139633   3.107   3.308   7.220
13252TIP3    H239634   3.188   3.376   7.327
13253TIP3   OH239635   3.444   3.229   7.337
13253TIP3    H139636   3.349   3.243   7.318
13253TIP3    H239637   3.484   3.306   7.294
13254TIP3   OH239638   3.657   3.422   7.254
13254TIP3    H139639   3.639   3.506   7.207
13254TIP3    H239640   3.678   3.361   7.180
13255TIP3   OH239641   2.425   3.074   7.376
13255TIP3    H139642   2.451   3.049   7.467
13255TIP3    H239643   2.497   3.031   7.325
13256TIP3   OH239644   2.617   2.946   7.232
13256TIP3    H139645   2.634   2.861   7.279
13256TIP3    H239646   2.708   2.982   7.225
13257TIP3   OH239647   2.885   3.042   7.231
13257TIP3    H139648   2.914   2.950   7.217
13257TIP3    H239649   2.925   3.060   7.318
13258TIP3   OH239650   3.468   1.700   7.333
13258TIP3    H139651   3.417   1.632   7.379
13258TIP3    H239652   3.525   1.647   7.274
13259TIP3   OH239653   3.989   1.580   7.232
13259TIP3    H139654   4.022   1.631   7.155
13259TIP3    H239655   3.892   1.592   7.223
13260TIP3   OH239656   4.081   1.677   6.993
13260TIP3    H139657   4.153   1.628   6.950
13260TIP3    H239658   4.111   1.770   6.978
13261TIP3   OH239659   2.710   1.405   7.342
13261TIP3    H139660   2.617   1.374   7.340
13261TIP3    H239661   2.758   1.320   7.337
13262TIP3   OH239662   2.497   1.275   6.987
13262TIP3    H139663   2.527   1.332   6.914
13262TIP3    H239664   2.466   1.340   7.052
13263TIP3   OH239665   3.155   1.435   7.218
13263TIP3    H139666   3.212   1.490   7.162
13263TIP3    H239667   3.165   1.478   7.304
13264TIP3   OH239668   3.711   1.583   7.202
13264TIP3    H139669   3.691   1.552   7.113
13264TIP3    H239670   3.690   1.503   7.256
13265TIP3   OH239671   3.730   1.506   6.766
13265TIP3    H139672   3.643   1.550   6.775
13265TIP3    H239673   3.713   1.422   6.812
13266TIP3   OH239674   2.213   2.845   6.769
13266TIP3    H139675   2.130   2.809   6.733
13266TIP3    H239676   2.199   2.939   6.753
13267TIP3   OH239677   2.611   1.434   6.754
13267TIP3    H139678   2.661   1.374   6.695
13267TIP3    H239679   2.682   1.491   6.788
13268TIP3   OH239680   3.126   1.608   6.848
13268TIP3    H139681   3.184   1.562   6.911
13268TIP3    H239682   3.145   1.701   6.873
13269TIP3   OH239683   2.984   3.037   6.348
13269TIP3    H139684   3.073   3.059   6.311
13269TIP3    H239685   2.962   2.961   6.289
13270TIP3   OH239686   3.705   3.152   6.441
13270TIP3    H139687   3.696   3.055   6.428
13270TIP3    H239688   3.658   3.186   6.362
13271TIP3   OH239689   2.917   1.688   8.232
13271TIP3    H139690   2.884   1.616   8.289
13271TIP3    H239691   3.012   1.689   8.258
13272TIP3   OH239692   3.167   1.685   8.351
13272TIP3    H139693   3.250   1.655   8.310
13272TIP3    H239694   3.151   1.614   8.417
13273TIP3   OH239695   2.290   2.875   6.407
13273TIP3    H139696   2.286   2.897   6.502
13273TIP3    H239697   2.376   2.830   6.399
13274TIP3   OH239698   3.990   1.744   8.137
13274TIP3    H139699   4.010   1.714   8.229
13274TIP3    H239700   4.078   1.739   8.095
13275TIP3   OH239701   3.931   3.297   7.631
13275TIP3    H139702   3.853   3.264   7.582
13275TIP3    H239703   3.911   3.392   7.631
13276TIP3   OH239704   5.197   2.670   6.396
13276TIP3    H139705   5.168   2.762   6.376
13276TIP3    H239706   5.120   2.621   6.364
13277TIP3   OH239707   5.198   2.668   6.773
13277TIP3    H139708   5.224   2.637   6.862
13277TIP3    H239709   5.152   2.590   6.738
13278TIP3   OH239710   4.497   2.566   7.140
13278TIP3    H139711   4.529   2.499   7.204
13278TIP3    H239712   4.573   2.625   7.134
13279TIP3   OH239713   5.443   2.968   6.457
13279TIP3    H139714   5.421   2.901   6.523
13279TIP3    H239715   5.463   3.046   6.512
13280TIP3   OH239716   4.466   2.975   6.870
13280TIP3    H139717   4.456   2.877   6.872
13280TIP3    H239718   4.563   2.982   6.862
13281TIP3   OH239719   4.173   2.181   6.655
13281TIP3    H139720   4.122   2.263   6.667
13281TIP3    H239721   4.105   2.123   6.618
13282TIP3   OH239722   4.235   2.468   6.824
13282TIP3    H139723   4.282   2.390   6.860
13282TIP3    H239724   4.288   2.488   6.745
13283TIP3   OH239725   5.085   3.433   6.471
13283TIP3    H139726   5.135   3.361   6.427
13283TIP3    H239727   5.077   3.400   6.562
13284TIP3   OH239728   4.994   2.894   6.825
13284TIP3    H139729   5.030   2.819   6.774
13284TIP3    H239730   5.078   2.938   6.849
13285TIP3   OH239731   6.005   2.215   6.823
13285TIP3    H139732   6.034   2.298   6.867
13285TIP3    H239733   6.026   2.235   6.730
13286TIP3   OH239734   5.408   2.398   6.859
13286TIP3    H139735   5.448   2.311   6.878
13286TIP3    H239736   5.375   2.383   6.768
13287TIP3   OH239737   4.744   2.056   6.824
13287TIP3    H139738   4.721   2.128   6.761
13287TIP3    H239739   4.696   1.982   6.780
13288TIP3   OH239740   5.436   2.146   6.448
13288TIP3    H139741   5.510   2.130   6.511
13288TIP3    H239742   5.486   2.182   6.372
13289TIP3   OH239743   4.377   2.258   6.930
13289TIP3    H139744   4.460   2.236   6.977
13289TIP3    H239745   4.387   2.202   6.851
13290TIP3   OH239746   4.819   2.456   6.720
13290TIP3    H139747   4.912   2.429   6.735
13290TIP3    H239748   4.778   2.373   6.689
13291TIP3   OH239749   6.079   2.423   6.992
13291TIP3    H139750   5.994   2.470   6.975
13291TIP3    H239751   6.094   2.447   7.084
13292TIP3   OH239752   4.741   2.039   7.258
13292TIP3    H139753   4.681   2.076   7.190
13292TIP3    H239754   4.688   2.058   7.339
13293TIP3   OH239755   5.094   2.894   6.264
13293TIP3    H139756   5.045   2.866   6.185
13293TIP3    H239757   5.048   2.977   6.287
13294TIP3   OH239758   4.847   2.814   7.056
13294TIP3    H139759   4.782   2.878   7.093
13294TIP3    H239760   4.888   2.867   6.984
13295TIP3   OH239761   5.651   2.147   6.615
13295TIP3    H139762   5.640   2.097   6.697
13295TIP3    H239763   5.704   2.224   6.645
13296TIP3   OH239764   4.612   2.154   7.042
13296TIP3    H139765   4.673   2.227   7.064
13296TIP3    H239766   4.659   2.113   6.967
13297TIP3   OH239767   4.674   3.006   7.150
13297TIP3    H139768   4.648   3.091   7.110
13297TIP3    H239769   4.595   2.992   7.207
13298TIP3   OH239770   4.073   2.697   6.386
13298TIP3    H139771   4.027   2.722   6.304
13298TIP3    H239772   4.099   2.784   6.423
13299TIP3   OH239773   5.511   3.212   6.625
13299TIP3    H139774   5.422   3.203   6.666
13299TIP3    H239775   5.502   3.299   6.581
13300TIP3   OH239776   5.799   2.115   6.990
13300TIP3    H139777   5.711   2.144   6.961
13300TIP3    H239778   5.857   2.146   6.917
13301TIP3   OH239779   5.101   1.761   6.973
13301TIP3    H139780   5.085   1.665   6.986
13301TIP3    H239781   5.022   1.798   7.017
13302TIP3   OH239782   5.218   3.260   6.306
13302TIP3    H139783   5.266   3.178   6.280
13302TIP3    H239784   5.274   3.327   6.261
13303TIP3   OH239785   5.358   3.044   6.204
13303TIP3    H139786   5.307   2.969   6.170
13303TIP3    H239787   5.391   3.009   6.289
13304TIP3   OH239788   5.736   3.128   6.969
13304TIP3    H139789   5.723   3.050   6.911
13304TIP3    H239790   5.717   3.203   6.909
13305TIP3   OH239791   5.028   2.521   6.226
13305TIP3    H139792   4.945   2.570   6.205
13305TIP3    H239793   5.071   2.517   6.139
13306TIP3   OH239794   4.986   2.304   5.946
13306TIP3    H139795   5.056   2.354   5.993
13306TIP3    H239796   5.041   2.239   5.898
13307TIP3   OH239797   5.931   2.763   6.812
13307TIP3    H139798   5.848   2.815   6.822
13307TIP3    H239799   5.955   2.787   6.721
13308TIP3   OH239800   5.375   2.604   6.199
13308TIP3    H139801   5.318   2.629   6.276
13308TIP3    H239802   5.456   2.576   6.246
13309TIP3   OH239803   5.610   2.644   7.108
13309TIP3    H139804   5.607   2.728   7.157
13309TIP3    H239805   5.523   2.647   7.063
13310TIP3   OH239806   4.606   2.602   6.614
13310TIP3    H139807   4.563   2.545   6.547
13310TIP3    H239808   4.683   2.548   6.641
13311TIP3   OH239809   4.736   3.013   6.764
13311TIP3    H139810   4.714   2.968   6.681
13311TIP3    H239811   4.826   2.979   6.781
13312TIP3   OH239812   4.749   2.570   6.971
13312TIP3    H139813   4.776   2.554   6.878
13312TIP3    H239814   4.787   2.659   6.990
13313TIP3   OH239815   5.272   3.209   6.747
13313TIP3    H139816   5.253   3.290   6.798
13313TIP3    H239817   5.255   3.137   6.810
13314TIP3   OH239818   4.879   3.128   7.294
13314TIP3    H139819   4.820   3.192   7.339
13314TIP3    H239820   4.814   3.076   7.245
13315TIP3   OH239821   5.218   2.459   6.025
13315TIP3    H139822   5.275   2.520   6.077
13315TIP3    H239823   5.242   2.485   5.932
13316TIP3   OH239824   4.634   2.685   7.393
13316TIP3    H139825   4.638   2.772   7.438
13316TIP3    H239826   4.538   2.667   7.400
13317TIP3   OH239827   4.958   3.141   6.299
13317TIP3    H139828   5.031   3.200   6.324
13317TIP3    H239829   4.894   3.202   6.261
13318TIP3   OH239830   4.676   3.299   7.380
13318TIP3    H139831   4.641   3.296   7.288
13318TIP3    H239832   4.596   3.276   7.432
13319TIP3   OH239833   5.731   1.703   6.073
13319TIP3    H139834   5.649   1.722   6.123
13319TIP3    H239835   5.742   1.787   6.022
13320TIP3   OH239836   4.472   2.444   6.421
13320TIP3    H139837   4.408   2.491   6.363
13320TIP3    H239838   4.428   2.359   6.433
13321TIP3   OH239839   5.528   3.071   5.620
13321TIP3    H139840   5.536   3.168   5.606
13321TIP3    H239841   5.621   3.043   5.610
13322TIP3   OH239842   4.255   2.828   7.327
13322TIP3    H139843   4.188   2.808   7.258
13322TIP3    H239844   4.289   2.739   7.349
13323TIP3   OH239845   4.107   3.020   6.962
13323TIP3    H139846   4.203   3.019   6.952
13323TIP3    H239847   4.094   3.102   7.012
13324TIP3   OH239848   5.973   3.470   7.014
13324TIP3    H139849   5.971   3.374   7.031
13324TIP3    H239850   5.890   3.497   7.060
13325TIP3   OH239851   5.080   3.258   7.151
13325TIP3    H139852   5.080   3.351   7.182
13325TIP3    H239853   5.008   3.219   7.205
13326TIP3   OH239854   4.839   3.389   6.101
13326TIP3    H139855   4.791   3.368   6.018
13326TIP3    H239856   4.806   3.478   6.124
13327TIP3   OH239857   4.277   3.238   6.483
13327TIP3    H139858   4.323   3.227   6.569
13327TIP3    H239859   4.215   3.163   6.487
13328TIP3   OH239860   5.042   3.289   5.742
13328TIP3    H139861   5.100   3.219   5.707
13328TIP3    H239862   5.074   3.297   5.835
13329TIP3   OH239863   5.091   3.335   6.013
13329TIP3    H139864   5.001   3.347   6.053
13329TIP3    H239865   5.138   3.293   6.086
13330TIP3   OH239866   5.864   2.604   7.289
13330TIP3    H139867   5.783   2.618   7.238
13330TIP3    H239868   5.877   2.508   7.278
13331TIP3   OH239869   4.460   3.010   7.317
13331TIP3    H139870   4.509   2.993   7.400
13331TIP3    H239871   4.385   2.947   7.324
13332TIP3   OH239872   4.860   1.835   7.098
13332TIP3    H139873   4.770   1.803   7.073
13332TIP3    H239874   4.834   1.918   7.142
13333TIP3   OH239875   5.391   1.950   7.293
13333TIP3    H139876   5.458   1.924   7.359
13333TIP3    H239877   5.306   1.930   7.338
13334TIP3   OH239878   5.634   2.380   7.213
13334TIP3    H139879   5.584   2.375   7.297
13334TIP3    H239880   5.607   2.466   7.177
13335TIP3   OH239881   5.293   2.510   5.769
13335TIP3    H139882   5.258   2.483   5.683
13335TIP3    H239883   5.371   2.562   5.742
13336TIP3   OH239884   5.007   1.883   6.070
13336TIP3    H139885   4.972   1.882   6.161
13336TIP3    H239886   4.966   1.801   6.036
13337TIP3   OH239887   4.792   2.348   7.119
13337TIP3    H139888   4.739   2.369   7.199
13337TIP3    H239889   4.776   2.429   7.064
13338TIP3   OH239890   4.674   2.235   6.632
13338TIP3    H139891   4.581   2.210   6.649
13338TIP3    H239892   4.687   2.196   6.543
13339TIP3   OH239893   5.165   2.324   6.360
13339TIP3    H139894   5.110   2.394   6.319
13339TIP3    H239895   5.218   2.293   6.283
13340TIP3   OH239896   5.339   2.602   7.447
13340TIP3    H139897   5.316   2.529   7.508
13340TIP3    H239898   5.433   2.616   7.468
13341TIP3   OH239899   5.323   2.353   6.599
13341TIP3    H139900   5.263   2.382   6.528
13341TIP3    H239901   5.355   2.269   6.557
13342TIP3   OH239902   4.611   2.380   7.327
13342TIP3    H139903   4.630   2.444   7.396
13342TIP3    H239904   4.596   2.298   7.378
13343TIP3   OH239905   4.661   1.858   6.037
13343TIP3    H139906   4.650   1.853   6.134
13343TIP3    H239907   4.581   1.906   6.012
13344TIP3   OH239908   4.201   1.903   6.908
13344TIP3    H139909   4.280   1.932   6.959
13344TIP3    H239910   4.237   1.868   6.825
13345TIP3   OH239911   4.181   1.884   6.428
13345TIP3    H139912   4.223   1.924   6.349
13345TIP3    H239913   4.117   1.955   6.449
13346TIP3   OH239914   5.336   2.599   7.023
13346TIP3    H139915   5.366   2.525   6.965
13346TIP3    H239916   5.305   2.547   7.101
13347TIP3   OH239917   5.000   2.058   6.695
13347TIP3    H139918   4.915   2.056   6.743
13347TIP3    H239919   5.064   2.061   6.767
13348TIP3   OH239920   4.435   2.113   6.702
13348TIP3    H139921   4.341   2.122   6.676
13348TIP3    H239922   4.456   2.021   6.678
13349TIP3   OH239923   4.708   2.112   6.389
13349TIP3    H139924   4.801   2.127   6.365
13349TIP3    H239925   4.658   2.134   6.307
13350TIP3   OH239926   5.493   2.133   6.894
13350TIP3    H139927   5.458   2.145   6.985
13350TIP3    H239928   5.427   2.071   6.858
13351TIP3   OH239929   4.545   2.143   6.171
13351TIP3    H139930   4.471   2.099   6.125
13351TIP3    H239931   4.596   2.177   6.094
13352TIP3   OH239932   5.661   3.822   7.113
13352TIP3    H139933   5.660   3.847   7.019
13352TIP3    H239934   5.739   3.872   7.146
13353TIP3   OH239935   4.620   2.931   7.537
13353TIP3    H139936   4.699   2.964   7.584
13353TIP3    H239937   4.554   2.932   7.609
13354TIP3   OH239938   5.086   2.386   6.792
13354TIP3    H139939   5.156   2.344   6.740
13354TIP3    H239940   5.096   2.344   6.879
13355TIP3   OH239941   4.613   1.873   6.669
13355TIP3    H139942   4.577   1.793   6.712
13355TIP3    H239943   4.656   1.837   6.590
13356TIP3   OH239944   5.062   2.280   7.083
13356TIP3    H139945   4.972   2.317   7.094
13356TIP3    H239946   5.118   2.342   7.133
13357TIP3   OH239947   4.800   2.674   6.177
13357TIP3    H139948   4.727   2.609   6.165
13357TIP3    H239949   4.780   2.707   6.268
13358TIP3   OH239950   5.699   2.908   6.807
13358TIP3    H139951   5.720   2.958   6.725
13358TIP3    H239952   5.612   2.868   6.785
13359TIP3   OH239953   5.257   1.987   6.037
13359TIP3    H139954   5.160   1.969   6.044
13359TIP3    H239955   5.265   2.082   6.059
13360TIP3   OH239956   5.200   2.993   7.173
13360TIP3    H139957   5.215   2.969   7.265
13360TIP3    H239958   5.159   3.081   7.179
13361TIP3   OH239959   5.326   2.233   6.141
13361TIP3    H139960   5.423   2.240   6.154
13361TIP3    H239961   5.306   2.311   6.087
13362TIP3   OH239962   4.494   2.698   6.854
13362TIP3    H139963   4.528   2.668   6.768
13362TIP3    H239964   4.523   2.628   6.914
13363TIP3   OH239965   4.944   2.824   5.998
13363TIP3    H139966   4.897   2.911   6.004
13363TIP3    H239967   4.888   2.768   6.056
13364TIP3   OH239968   4.370   2.614   7.464
13364TIP3    H139969   4.387   2.600   7.559
13364TIP3    H239970   4.298   2.550   7.447
13365TIP3   OH239971   5.094   2.728   7.486
13365TIP3    H139972   5.034   2.671   7.435
13365TIP3    H239973   5.182   2.696   7.456
13366TIP3   OH239974   5.360   3.250   7.068
13366TIP3    H139975   5.263   3.249   7.080
13366TIP3    H239976   5.387   3.303   7.147
13367TIP3   OH239977   5.771   2.322   5.976
13367TIP3    H139978   5.708   2.275   5.916
13367TIP3    H239979   5.766   2.409   5.933
13368TIP3   OH239980   5.986   3.178   7.059
13368TIP3    H139981   5.888   3.174   7.051
13368TIP3    H239982   6.011   3.150   6.969
13369TIP3   OH239983   5.477   3.140   5.888
13369TIP3    H139984   5.438   3.074   5.947
13369TIP3    H239985   5.479   3.095   5.802
13370TIP3   OH239986   5.464   2.771   6.726
13370TIP3    H139987   5.371   2.745   6.740
13370TIP3    H239988   5.498   2.691   6.680
13371TIP3   OH239989   4.589   2.998   6.475
13371TIP3    H139990   4.590   3.080   6.423
13371TIP3    H239991   4.494   2.983   6.485
13372TIP3   OH239992   4.154   2.304   6.180
13372TIP3    H139993   4.199   2.388   6.199
13372TIP3    H239994   4.076   2.310   6.239
13373TIP3   OH239995   4.734   2.767   6.424
13373TIP3    H139996   4.696   2.856   6.440
13373TIP3    H239997   4.694   2.716   6.497
13374TIP3   OH239998   4.859   3.343   6.947
13374TIP3    H139999   4.898   3.416   6.895
13374TIP3    H240000   4.937   3.311   6.995
13375TIP3   OH240001   4.512   3.237   6.331
13375TIP3    H140002   4.425   3.244   6.375
13375TIP3    H240003   4.542   3.330   6.333
13376TIP3   OH240004   5.250   2.977   6.904
13376TIP3    H140005   5.241   2.976   7.002
13376TIP3    H240006   5.330   2.923   6.892
13377TIP3   OH240007   5.221   2.869   5.785
13377TIP3    H140008   5.271   2.844   5.866
13377TIP3    H240009   5.131   2.844   5.812
13378TIP3   OH240010   5.499   3.511   6.954
13378TIP3    H140011   5.419   3.455   6.947
13378TIP3    H240012   5.483   3.577   6.883
13379TIP3   OH240013   5.564   3.346   5.608
13379TIP3    H140014   5.598   3.417   5.551
13379TIP3    H240015   5.484   3.392   5.642
13380TIP3   OH240016   4.582   2.122   7.475
13380TIP3    H140017   4.485   2.128   7.486
13380TIP3    H240018   4.606   2.059   7.544
13381TIP3   OH240019   5.380   2.803   6.002
13381TIP3    H140020   5.369   2.738   6.074
13381TIP3    H240021   5.477   2.802   5.991
13382TIP3   OH240022   4.300   3.208   7.105
13382TIP3    H140023   4.349   3.130   7.136
13382TIP3    H240024   4.328   3.274   7.169
13383TIP3   OH240025   4.592   2.850   5.785
13383TIP3    H140026   4.602   2.758   5.755
13383TIP3    H240027   4.572   2.838   5.880
13384TIP3   OH240028   4.537   2.855   6.057
13384TIP3    H140029   4.603   2.829   6.122
13384TIP3    H240030   4.540   2.953   6.064
13385TIP3   OH240031   4.273   2.551   6.262
13385TIP3    H140032   4.206   2.594   6.319
13385TIP3    H240033   4.285   2.621   6.194
13386TIP3   OH240034   5.418   2.186   7.153
13386TIP3    H140035   5.497   2.224   7.194
13386TIP3    H240036   5.402   2.106   7.206
13387TIP3   OH240037   5.298   1.938   6.317
13387TIP3    H140038   5.282   1.961   6.223
13387TIP3    H240039   5.336   2.022   6.352
13388TIP3   OH240040   4.801   3.055   6.009
13388TIP3    H140041   4.714   3.081   6.043
13388TIP3    H240042   4.815   3.124   5.943
13389TIP3   OH240043   4.993   2.114   6.420
13389TIP3    H140044   5.056   2.187   6.403
13389TIP3    H240045   4.994   2.110   6.518
13390TIP3   OH240046   5.257   2.437   7.229
13390TIP3    H140047   5.275   2.492   7.308
13390TIP3    H240048   5.313   2.359   7.245
13391TIP3   OH240049   5.136   1.848   6.527
13391TIP3    H140050   5.122   1.927   6.582
13391TIP3    H240051   5.194   1.884   6.456
13392TIP3   OH240052   4.543   3.128   6.074
13392TIP3    H140053   4.512   3.197   6.011
13392TIP3    H240054   4.526   3.172   6.160
13393TIP3   OH240055   4.644   1.840   6.315
13393TIP3    H140056   4.641   1.932   6.348
13393TIP3    H240057   4.740   1.823   6.322
13394TIP3   OH240058   5.900   2.335   7.208
13394TIP3    H140059   5.802   2.335   7.217
13394TIP3    H240060   5.909   2.296   7.120
13395TIP3   OH240061   5.550   2.530   6.595
13395TIP3    H140062   5.473   2.472   6.608
13395TIP3    H240063   5.620   2.482   6.645
13396TIP3   OH240064   4.261   2.761   6.069
13396TIP3    H140065   4.321   2.836   6.076
13396TIP3    H240066   4.308   2.708   6.001
13397TIP3   OH240067   4.208   2.034   6.200
13397TIP3    H140068   4.203   2.132   6.196
13397TIP3    H240069   4.123   2.009   6.161
13398TIP3   OH240070   5.518   3.483   6.547
13398TIP3    H140071   5.474   3.530   6.473
13398TIP3    H240072   5.612   3.503   6.526
13399TIP3   OH240073   4.596   1.755   7.075
13399TIP3    H140074   4.562   1.723   6.988
13399TIP3    H240075   4.583   1.676   7.132
13400TIP3   OH240076   4.135   2.975   6.458
13400TIP3    H140077   4.060   3.004   6.511
13400TIP3    H240078   4.112   3.013   6.371
13401TIP3   OH240079   4.287   3.511   7.527
13401TIP3    H140080   4.374   3.509   7.573
13401TIP3    H240081   4.265   3.416   7.524
13402TIP3   OH240082   4.773   3.480   7.573
13402TIP3    H140083   4.868   3.461   7.577
13402TIP3    H240084   4.747   3.424   7.497
13403TIP3   OH240085   4.754   3.055   5.701
13403TIP3    H140086   4.696   2.985   5.739
13403TIP3    H240087   4.827   3.001   5.667
13404TIP3   OH240088   5.411   3.385   7.303
13404TIP3    H140089   5.402   3.315   7.372
13404TIP3    H240090   5.488   3.436   7.335
13405TIP3   OH240091   5.190   3.098   5.611
13405TIP3    H140092   5.234   3.031   5.666
13405TIP3    H240093   5.245   3.098   5.530
13406TIP3   OH240094   4.420   2.921   7.728
13406TIP3    H140095   4.436   2.824   7.728
13406TIP3    H240096   4.332   2.924   7.684
13407TIP3   OH240097   4.397   2.574   5.918
13407TIP3    H140098   4.449   2.538   5.990
13407TIP3    H240099   4.465   2.578   5.847
13408TIP3   OH240100   5.028   3.004   7.500
13408TIP3    H140101   4.985   3.020   7.414
13408TIP3    H240102   5.058   2.911   7.493
13409TIP3   OH240103   4.908   2.771   5.727
13409TIP3    H140104   4.906   2.784   5.824
13409TIP3    H240105   4.904   2.673   5.722
13410TIP3   OH240106   5.521   3.010   7.105
13410TIP3    H140107   5.593   3.060   7.062
13410TIP3    H240108   5.447   3.073   7.096
13411TIP3   OH240109   4.538   2.654   7.709
13411TIP3    H140110   4.611   2.595   7.688
13411TIP3    H240111   4.563   2.686   7.798
13412TIP3   OH240112   4.610   2.474   6.145
13412TIP3    H140113   4.577   2.431   6.226
13412TIP3    H240114   4.641   2.397   6.093
13413TIP3   OH240115   4.876   2.541   7.373
13413TIP3    H140116   4.796   2.599   7.376
13413TIP3    H240117   4.920   2.573   7.292
13414TIP3   OH240118   4.704   2.266   5.984
13414TIP3    H140119   4.676   2.267   5.890
13414TIP3    H240120   4.801   2.275   5.974
13415TIP3   OH240121   5.389   2.941   7.506
13415TIP3    H140122   5.471   2.922   7.457
13415TIP3    H240123   5.389   2.872   7.575
13416TIP3   OH240124   5.533   2.601   5.643
13416TIP3    H140125   5.507   2.552   5.562
13416TIP3    H240126   5.499   2.690   5.618
13417TIP3   OH240127   4.998   2.327   7.498
13417TIP3    H140128   4.996   2.247   7.442
13417TIP3    H240129   4.954   2.393   7.440
13418TIP3   OH240130   5.000   2.112   7.303
13418TIP3    H140131   5.026   2.154   7.219
13418TIP3    H240132   4.906   2.090   7.286
13419TIP3   OH240133   5.030   2.651   7.177
13419TIP3    H140134   5.110   2.658   7.123
13419TIP3    H240135   4.972   2.718   7.135
13420TIP3   OH240136   5.611   2.617   7.561
13420TIP3    H140137   5.660   2.534   7.567
13420TIP3    H240138   5.679   2.678   7.526
13421TIP3   OH240139   5.651   2.868   7.294
13421TIP3    H140140   5.593   2.921   7.235
13421TIP3    H240141   5.738   2.888   7.253
13422TIP3   OH240142   4.876   2.441   7.728
13422TIP3    H140143   4.806   2.374   7.740
13422TIP3    H240144   4.909   2.418   7.639
13423TIP3   OH240145   5.132   1.878   7.370
13423TIP3    H140146   5.084   1.961   7.347
13423TIP3    H240147   5.061   1.811   7.357
13424TIP3   OH240148   5.258   2.383   7.586
13424TIP3    H140149   5.246   2.373   7.682
13424TIP3    H240150   5.168   2.358   7.556
13425TIP3   OH240151   5.498   2.330   7.441
13425TIP3    H140152   5.421   2.333   7.501
13425TIP3    H240153   5.570   2.300   7.500
13426TIP3   OH240154   5.727   2.271   7.594
13426TIP3    H140155   5.738   2.176   7.614
13426TIP3    H240156   5.722   2.311   7.684
13427TIP3   OH240157   4.715   2.221   7.778
13427TIP3    H140158   4.721   2.131   7.741
13427TIP3    H240159   4.749   2.206   7.868
13428TIP3   OH240160   5.227   1.887   7.627
13428TIP3    H140161   5.295   1.816   7.620
13428TIP3    H240162   5.186   1.881   7.538
13429TIP3   OH240163   5.291   2.101   7.788
13429TIP3    H140164   5.268   2.031   7.722
13429TIP3    H240165   5.215   2.162   7.780
13430TIP3   OH240166   4.512   3.330   5.887
13430TIP3    H140167   4.607   3.330   5.866
13430TIP3    H240168   4.478   3.378   5.809
13431TIP3   OH240169   3.992   2.712   6.104
13431TIP3    H140170   4.087   2.733   6.091
13431TIP3    H240171   3.986   2.624   6.062
13432TIP3   OH240172   3.907   3.325   6.515
13432TIP3    H140173   3.838   3.264   6.481
13432TIP3    H240174   3.950   3.268   6.582
13433TIP3   OH240175   4.044   3.180   6.702
13433TIP3    H140176   4.028   3.105   6.761
13433TIP3    H240177   4.092   3.240   6.761
13434TIP3   OH240178   5.772   3.571   6.502
13434TIP3    H140179   5.793   3.607   6.590
13434TIP3    H240180   5.824   3.629   6.444
13435TIP3   OH240181   5.800   3.597   6.782
13435TIP3    H140182   5.757   3.508   6.781
13435TIP3    H240183   5.873   3.579   6.843
13436TIP3   OH240184   5.846   3.274   7.357
13436TIP3    H140185   5.772   3.282   7.421
13436TIP3    H240186   5.887   3.362   7.362
13437TIP3   OH240187   5.661   2.787   5.979
13437TIP3    H140188   5.729   2.853   5.955
13437TIP3    H240189   5.701   2.746   6.058
13438TIP3   OH240190   5.789   2.658   6.186
13438TIP3    H140191   5.718   2.610   6.234
13438TIP3    H240192   5.840   2.697   6.258
13439TIP3   OH240193   5.842   3.045   6.617
13439TIP3    H140194   5.897   2.985   6.564
13439TIP3    H240195   5.828   3.120   6.556
13440TIP3   OH240196   5.676   3.346   6.810
13440TIP3    H140197   5.606   3.390   6.863
13440TIP3    H240198   5.623   3.299   6.742
13441TIP3   OH240199   5.728   2.563   5.830
13441TIP3    H140200   5.658   2.563   5.761
13441TIP3    H240201   5.697   2.639   5.883
13442TIP3   OH240202   5.601   2.236   5.784
13442TIP3    H140203   5.556   2.275   5.708
13442TIP3    H240204   5.574   2.142   5.775
13443TIP3   OH240205   5.609   2.509   6.327
13443TIP3    H140206   5.611   2.412   6.322
13443TIP3    H240207   5.592   2.524   6.423
13444TIP3   OH240208   4.231   2.581   7.076
13444TIP3    H140209   4.229   2.554   6.982
13444TIP3    H240210   4.329   2.584   7.091
13445TIP3   OH240211   5.892   2.934   7.185
13445TIP3    H140212   5.966   2.870   7.176
13445TIP3    H240213   5.920   3.006   7.126
13446TIP3   OH240214   6.079   2.743   7.204
13446TIP3    H140215   6.005   2.692   7.243
13446TIP3    H240216   6.152   2.678   7.217
13447TIP3   OH240217   5.542   1.971   5.774
13447TIP3    H140218   5.616   1.937   5.828
13447TIP3    H240219   5.468   1.912   5.795
13448TIP3   OH240220   5.601   2.228   6.226
13448TIP3    H140221   5.640   2.138   6.242
13448TIP3    H240222   5.659   2.258   6.153
13449TIP3   OH240223   5.762   2.402   6.719
13449TIP3    H140224   5.848   2.429   6.680
13449TIP3    H240225   5.774   2.438   6.809
13450TIP3   OH240226   5.829   2.545   6.953
13450TIP3    H140227   5.750   2.578   7.001
13450TIP3    H240228   5.860   2.626   6.908
13451TIP3   OH240229   4.447   2.273   7.754
13451TIP3    H140230   4.545   2.264   7.751
13451TIP3    H240231   4.422   2.187   7.794
13452TIP3   OH240232   6.281   2.133   7.508
13452TIP3    H140233   6.340   2.068   7.465
13452TIP3    H240234   6.255   2.191   7.433
13453TIP3   OH240235   5.709   1.976   6.262
13453TIP3    H140236   5.756   1.960   6.346
13453TIP3    H240237   5.648   1.900   6.259
13454TIP3   OH240238   4.410   1.962   7.081
13454TIP3    H140239   4.474   1.888   7.091
13454TIP3    H240240   4.471   2.038   7.076
13455TIP3   OH240241   4.215   2.237   7.158
13455TIP3    H140242   4.261   2.228   7.072
13455TIP3    H240243   4.240   2.327   7.182
13456TIP3   OH240244   6.155   2.277   7.316
13456TIP3    H140245   6.067   2.315   7.337
13456TIP3    H240246   6.127   2.205   7.255
13457TIP3   OH240247   5.793   1.912   5.895
13457TIP3    H140248   5.830   1.839   5.841
13457TIP3    H240249   5.859   1.982   5.883
13458TIP3   OH240250   4.195   1.746   6.659
13458TIP3    H140251   4.100   1.739   6.681
13458TIP3    H240252   4.193   1.800   6.578
13459TIP3   OH240253   5.357   3.440   6.162
13459TIP3    H140254   5.406   3.427   6.078
13459TIP3    H240255   5.405   3.513   6.204
13460TIP3   OH240256   4.415   1.820   7.471
13460TIP3    H140257   4.363   1.815   7.553
13460TIP3    H240258   4.350   1.860   7.410
13461TIP3   OH240259   4.456   3.244   7.547
13461TIP3    H140260   4.364   3.218   7.527
13461TIP3    H240261   4.460   3.231   7.642
13462TIP3   OH240262   4.633   3.278   7.096
13462TIP3    H140263   4.582   3.351   7.057
13462TIP3    H240264   4.718   3.293   7.049
13463TIP3   OH240265   5.080   3.524   7.232
13463TIP3    H140266   5.121   3.526   7.321
13463TIP3    H240267   5.146   3.575   7.180
13464TIP3   OH240268   5.259   3.674   7.090
13464TIP3    H140269   5.331   3.624   7.049
13464TIP3    H240270   5.308   3.733   7.151
13465TIP3   OH240271   6.052   2.040   7.191
13465TIP3    H140272   5.960   2.036   7.157
13465TIP3    H240273   6.080   1.946   7.178
13466TIP3   OH240274   4.312   3.538   7.117
13466TIP3    H140275   4.223   3.571   7.091
13466TIP3    H240276   4.315   3.569   7.208
13467TIP3   OH240277   4.547   3.515   6.974
13467TIP3    H140278   4.461   3.528   7.020
13467TIP3    H240279   4.526   3.548   6.885
13468TIP3   OH240280   4.973   3.545   6.771
13468TIP3    H140281   4.903   3.565   6.707
13468TIP3    H240282   4.985   3.633   6.814
13469TIP3   OH240283   5.240   3.484   6.822
13469TIP3    H140284   5.145   3.500   6.804
13469TIP3    H240285   5.280   3.563   6.783
13470TIP3   OH240286   5.451   3.678   6.741
13470TIP3    H140287   5.435   3.763   6.694
13470TIP3    H240288   5.473   3.618   6.666
13471TIP3   OH240289   4.222   3.333   6.863
13471TIP3    H140290   4.248   3.306   6.954
13471TIP3    H240291   4.293   3.288   6.812
13472TIP3   OH240292   4.414   3.202   6.718
13472TIP3    H140293   4.430   3.118   6.767
13472TIP3    H240294   4.504   3.239   6.713
13473TIP3   OH240295   4.680   3.298   6.719
13473TIP3    H140296   4.711   3.207   6.707
13473TIP3    H240297   4.721   3.319   6.805
13474TIP3   OH240298   5.260   1.956   6.814
13474TIP3    H140299   5.213   1.887   6.864
13474TIP3    H240300   5.325   1.904   6.763
13475TIP3   OH240301   5.783   1.834   6.717
13475TIP3    H140302   5.819   1.886   6.642
13475TIP3    H240303   5.687   1.850   6.709
13476TIP3   OH240304   5.876   1.937   6.480
13476TIP3    H140305   5.949   1.885   6.438
13476TIP3    H240306   5.908   2.028   6.464
13477TIP3   OH240307   4.506   1.663   6.828
13477TIP3    H140308   4.413   1.631   6.826
13477TIP3    H240309   4.554   1.578   6.823
13478TIP3   OH240310   4.297   1.531   6.475
13478TIP3    H140311   4.322   1.588   6.401
13478TIP3    H240312   4.261   1.594   6.539
13479TIP3   OH240313   4.950   1.693   6.705
13479TIP3    H140314   5.009   1.746   6.649
13479TIP3    H240315   4.963   1.734   6.791
13480TIP3   OH240316   5.503   1.840   6.689
13480TIP3    H140317   5.490   1.807   6.600
13480TIP3    H240318   5.485   1.760   6.743
13481TIP3   OH240319   5.526   1.763   6.253
13481TIP3    H140320   5.439   1.805   6.261
13481TIP3    H240321   5.510   1.678   6.299
13482TIP3   OH240322   4.010   3.100   6.254
13482TIP3    H140323   3.925   3.067   6.220
13482TIP3    H240324   3.997   3.195   6.239
13483TIP3   OH240325   4.407   1.691   6.238
13483TIP3    H140326   4.455   1.629   6.181
13483TIP3    H240327   4.480   1.745   6.275
13484TIP3   OH240328   4.921   1.865   6.336
13484TIP3    H140329   4.980   1.817   6.396
13484TIP3    H240330   4.944   1.958   6.361
13485TIP3   OH240331   4.781   3.293   5.835
13485TIP3    H140332   4.869   3.316   5.798
13485TIP3    H240333   4.758   3.218   5.777
13486TIP3   OH240334   5.501   3.409   5.928
13486TIP3    H140335   5.494   3.312   5.915
13486TIP3    H240336   5.454   3.442   5.849
13487TIP3   OH240337   4.713   1.944   7.718
13487TIP3    H140338   4.680   1.873   7.776
13487TIP3    H240339   4.808   1.945   7.744
13488TIP3   OH240340   4.962   1.941   7.838
13488TIP3    H140341   5.046   1.916   7.796
13488TIP3    H240342   4.950   1.869   7.903
13489TIP3   OH240343   4.085   3.130   5.894
13489TIP3    H140344   4.081   3.157   5.987
13489TIP3    H240345   4.174   3.089   5.887
13490TIP3   OH240346   5.786   2.000   7.625
13490TIP3    H140347   5.807   1.970   7.715
13490TIP3    H240348   5.874   1.997   7.582
13491TIP3   OH240349   5.729   3.554   7.115
13491TIP3    H140350   5.648   3.522   7.069
13491TIP3    H240351   5.709   3.650   7.118
13492TIP3   OH240352   6.992   2.925   5.884
13492TIP3    H140353   6.965   3.017   5.865
13492TIP3    H240354   6.915   2.876   5.849
13493TIP3   OH240355   6.984   2.926   6.264
13493TIP3    H140356   7.020   2.897   6.350
13493TIP3    H240357   6.950   2.843   6.228
13494TIP3   OH240358   6.292   2.826   6.623
13494TIP3    H140359   6.316   2.757   6.688
13494TIP3    H240360   6.370   2.883   6.630
13495TIP3   OH240361   7.232   3.228   5.944
13495TIP3    H140362   7.223   3.157   6.010
13495TIP3    H240363   7.262   3.303   5.999
13496TIP3   OH240364   6.262   3.224   6.344
13496TIP3    H140365   6.263   3.132   6.375
13496TIP3    H240366   6.357   3.244   6.344
13497TIP3   OH240367   5.968   2.447   6.142
13497TIP3    H140368   5.905   2.521   6.149
13497TIP3    H240369   5.908   2.378   6.109
13498TIP3   OH240370   6.063   2.732   6.279
13498TIP3    H140371   6.084   2.667   6.350
13498TIP3    H240372   6.081   2.674   6.204
13499TIP3   OH240373   6.880   3.688   5.959
13499TIP3    H140374   6.929   3.617   5.913
13499TIP3    H240375   6.879   3.657   6.050
13500TIP3   OH240376   6.791   3.150   6.310
13500TIP3    H140377   6.832   3.072   6.267
13500TIP3    H240378   6.874   3.197   6.334
13501TIP3   OH240379   7.799   2.473   6.308
13501TIP3    H140380   7.830   2.554   6.354
13501TIP3    H240381   7.826   2.492   6.216
13502TIP3   OH240382   7.200   2.655   6.346
13502TIP3    H140383   7.245   2.570   6.367
13502TIP3    H240384   7.172   2.638   6.254
13503TIP3   OH240385   6.536   2.314   6.311
13503TIP3    H140386   6.518   2.386   6.247
13503TIP3    H240387   6.491   2.239   6.266
13504TIP3   OH240388   7.232   2.403   5.933
13504TIP3    H140389   7.305   2.387   5.998
13504TIP3    H240390   7.284   2.438   5.859
13505TIP3   OH240391   6.172   2.520   6.417
13505TIP3    H140392   6.254   2.498   6.464
13505TIP3    H240393   6.181   2.460   6.340
13506TIP3   OH240394   6.612   2.717   6.205
13506TIP3    H140395   6.706   2.691   6.219
13506TIP3    H240396   6.574   2.631   6.176
13507TIP3   OH240397   7.874   2.677   6.480
13507TIP3    H140398   7.791   2.726   6.463
13507TIP3    H240399   7.893   2.704   6.571
13508TIP3   OH240400   6.536   2.296   6.743
13508TIP3    H140401   6.475   2.333   6.677
13508TIP3    H240402   6.486   2.313   6.825
13509TIP3   OH240403   6.884   3.146   5.754
13509TIP3    H140404   6.844   3.125   5.669
13509TIP3    H240405   6.842   3.232   5.775
13510TIP3   OH240406   6.641   3.070   6.540
13510TIP3    H140407   6.579   3.136   6.579
13510TIP3    H240408   6.688   3.124   6.473
13511TIP3   OH240409   7.444   2.405   6.103
13511TIP3    H140410   7.442   2.353   6.183
13511TIP3    H240411   7.501   2.480   6.129
13512TIP3   OH240412   6.404   2.413   6.529
13512TIP3    H140413   6.468   2.485   6.551
13512TIP3    H240414   6.453   2.371   6.454
13513TIP3   OH240415   6.466   3.262   6.632
13513TIP3    H140416   6.444   3.352   6.599
13513TIP3    H240417   6.390   3.249   6.693
13514TIP3   OH240418   5.875   2.955   5.879
13514TIP3    H140419   5.827   2.966   5.795
13514TIP3    H240420   5.889   3.049   5.905
13515TIP3   OH240421   7.304   3.468   6.113
13515TIP3    H140422   7.214   3.461   6.152
13515TIP3    H240423   7.298   3.555   6.069
13516TIP3   OH240424   7.595   2.372   6.475
13516TIP3    H140425   7.508   2.404   6.446
13516TIP3    H240426   7.655   2.403   6.404
13517TIP3   OH240427   6.894   2.016   6.455
13517TIP3    H140428   6.885   1.921   6.474
13517TIP3    H240429   6.816   2.052   6.503
13518TIP3   OH240430   7.007   3.516   5.787
13518TIP3    H140431   7.059   3.435   5.766
13518TIP3    H240432   7.067   3.583   5.746
13519TIP3   OH240433   7.150   3.302   5.691
13519TIP3    H140434   7.115   3.221   5.651
13519TIP3    H240435   7.185   3.268   5.777
13520TIP3   OH240436   7.531   3.385   6.457
13520TIP3    H140437   7.522   3.307   6.398
13520TIP3    H240438   7.516   3.459   6.395
13521TIP3   OH240439   6.822   2.778   5.712
13521TIP3    H140440   6.742   2.828   5.686
13521TIP3    H240441   6.871   2.773   5.628
13522TIP3   OH240442   6.781   2.561   5.432
13522TIP3    H140443   6.851   2.610   5.480
13522TIP3    H240444   6.836   2.496   5.384
13523TIP3   OH240445   7.726   3.018   6.300
13523TIP3    H140446   7.645   3.072   6.306
13523TIP3    H240447   7.756   3.042   6.209
13524TIP3   OH240448   7.169   2.860   5.686
13524TIP3    H140449   7.116   2.885   5.765
13524TIP3    H240450   7.253   2.832   5.730
13525TIP3   OH240451   7.406   2.900   6.596
13525TIP3    H140452   7.404   2.983   6.647
13525TIP3    H240453   7.320   2.907   6.549
13526TIP3   OH240454   6.395   2.858   6.100
13526TIP3    H140455   6.360   2.796   6.032
13526TIP3    H240456   6.476   2.810   6.129
13527TIP3   OH240457   6.532   3.264   6.253
13527TIP3    H140458   6.521   3.223   6.165
13527TIP3    H240459   6.624   3.237   6.275
13528TIP3   OH240460   6.534   2.834   6.449
13528TIP3    H140461   6.578   2.809   6.365
13528TIP3    H240462   6.583   2.915   6.476
13529TIP3   OH240463   7.062   3.467   6.232
13529TIP3    H140464   7.050   3.547   6.286
13529TIP3    H240465   7.050   3.394   6.297
13530TIP3   OH240466   6.675   3.385   6.778
13530TIP3    H140467   6.618   3.448   6.827
13530TIP3    H240468   6.608   3.332   6.732
13531TIP3   OH240469   7.011   2.719   5.512
13531TIP3    H140470   7.071   2.776   5.565
13531TIP3    H240471   7.037   2.744   5.420
13532TIP3   OH240472   6.427   2.946   6.874
13532TIP3    H140473   6.434   3.031   6.923
13532TIP3    H240474   6.333   2.925   6.890
13533TIP3   OH240475   6.750   3.401   5.789
13533TIP3    H140476   6.830   3.452   5.808
13533TIP3    H240477   6.692   3.467   5.748
13534TIP3   OH240478   6.471   3.554   6.866
13534TIP3    H140479   6.434   3.553   6.776
13534TIP3    H240480   6.392   3.534   6.922
13535TIP3   OH240481   7.527   1.961   5.558
13535TIP3    H140482   7.446   1.978   5.611
13535TIP3    H240483   7.537   2.045   5.509
13536TIP3   OH240484   6.245   2.706   5.928
13536TIP3    H140485   6.194   2.742   5.852
13536TIP3    H240486   6.232   2.611   5.915
13537TIP3   OH240487   7.324   3.327   5.106
13537TIP3    H140488   7.333   3.424   5.094
13537TIP3    H240489   7.417   3.298   5.094
13538TIP3   OH240490   6.051   3.084   6.813
13538TIP3    H140491   5.982   3.060   6.749
13538TIP3    H240492   6.086   2.997   6.842
13539TIP3   OH240493   5.909   3.276   6.444
13539TIP3    H140494   6.005   3.290   6.449
13539TIP3    H240495   5.878   3.353   6.495
13540TIP3   OH240496   7.768   3.726   6.501
13540TIP3    H140497   7.768   3.630   6.515
13540TIP3    H240498   7.685   3.751   6.547
13541TIP3   OH240499   6.874   3.516   6.635
13541TIP3    H140500   6.875   3.609   6.669
13541TIP3    H240501   6.804   3.476   6.691
13542TIP3   OH240502   6.633   3.644   5.589
13542TIP3    H140503   6.588   3.626   5.504
13542TIP3    H240504   6.603   3.734   5.611
13543TIP3   OH240505   6.072   3.494   5.970
13543TIP3    H140506   6.121   3.484   6.054
13543TIP3    H240507   5.996   3.436   5.987
13544TIP3   OH240508   6.837   3.544   5.229
13544TIP3    H140509   6.896   3.475   5.193
13544TIP3    H240510   6.871   3.554   5.321
13545TIP3   OH240511   6.886   3.592   5.500
13545TIP3    H140512   6.798   3.602   5.543
13545TIP3    H240513   6.938   3.553   5.571
13546TIP3   OH240514   7.659   2.860   6.777
13546TIP3    H140515   7.580   2.873   6.723
13546TIP3    H240516   7.675   2.764   6.767
13547TIP3   OH240517   6.256   3.266   6.803
13547TIP3    H140518   6.305   3.254   6.886
13547TIP3    H240519   6.182   3.203   6.813
13548TIP3   OH240520   6.654   2.091   6.585
13548TIP3    H140521   6.564   2.060   6.561
13548TIP3    H240522   6.630   2.174   6.630
13549TIP3   OH240523   7.188   2.207   6.780
13549TIP3    H140524   7.257   2.179   6.844
13549TIP3    H240525   7.105   2.185   6.827
13550TIP3   OH240526   7.426   2.634   6.697
13550TIP3    H140527   7.380   2.631   6.783
13550TIP3    H240528   7.404   2.723   6.664
13551TIP3   OH240529   7.086   2.768   5.255
13551TIP3    H140530   7.055   2.739   5.167
13551TIP3    H240531   7.167   2.816   5.231
13552TIP3   OH240532   6.800   2.142   5.557
13552TIP3    H140533   6.769   2.139   5.649
13552TIP3    H240534   6.764   2.058   5.524
13553TIP3   OH240535   6.583   2.610   6.601
13553TIP3    H140536   6.537   2.630   6.685
13553TIP3    H240537   6.565   2.691   6.549
13554TIP3   OH240538   6.467   2.495   6.118
13554TIP3    H140539   6.376   2.463   6.136
13554TIP3    H240540   6.484   2.453   6.031
13555TIP3   OH240541   6.960   2.579   5.845
13555TIP3    H140542   6.907   2.650   5.804
13555TIP3    H240543   7.016   2.549   5.770
13556TIP3   OH240544   7.135   2.859   6.934
13556TIP3    H140545   7.113   2.785   6.995
13556TIP3    H240546   7.229   2.873   6.954
13557TIP3   OH240547   7.118   2.608   6.086
13557TIP3    H140548   7.060   2.637   6.013
13557TIP3    H240549   7.151   2.525   6.045
13558TIP3   OH240550   6.400   2.637   6.813
13558TIP3    H140551   6.433   2.699   6.880
13558TIP3    H240552   6.392   2.555   6.864
13559TIP3   OH240553   6.456   2.114   5.523
13559TIP3    H140554   6.449   2.108   5.620
13559TIP3    H240555   6.374   2.161   5.500
13560TIP3   OH240556   5.998   2.164   6.392
13560TIP3    H140557   6.076   2.188   6.445
13560TIP3    H240558   6.035   2.121   6.313
13561TIP3   OH240559   5.977   2.141   5.915
13561TIP3    H140560   6.020   2.179   5.836
13561TIP3    H240561   5.912   2.211   5.935
13562TIP3   OH240562   7.125   2.855   6.508
13562TIP3    H140563   7.159   2.783   6.451
13562TIP3    H240564   7.100   2.804   6.588
13563TIP3   OH240565   6.794   2.320   6.181
13563TIP3    H140566   6.714   2.313   6.237
13563TIP3    H240567   6.865   2.313   6.248
13564TIP3   OH240568   6.231   2.369   6.189
13564TIP3    H140569   6.137   2.373   6.162
13564TIP3    H240570   6.258   2.278   6.168
13565TIP3   OH240571   6.503   2.372   5.877
13565TIP3    H140572   6.598   2.381   5.857
13565TIP3    H240573   6.460   2.391   5.790
13566TIP3   OH240574   7.288   2.392   6.382
13566TIP3    H140575   7.253   2.402   6.473
13566TIP3    H240576   7.226   2.328   6.344
13567TIP3   OH240577   6.338   2.407   5.657
13567TIP3    H140578   6.267   2.358   5.611
13567TIP3    H240579   6.391   2.437   5.580
13568TIP3   OH240580   7.457   4.080   6.600
13568TIP3    H140581   7.457   4.103   6.505
13568TIP3    H240582   7.537   4.127   6.631
13569TIP3   OH240583   6.417   3.189   7.023
13569TIP3    H140584   6.496   3.220   7.071
13569TIP3    H240585   6.352   3.190   7.096
13570TIP3   OH240586   6.879   2.643   6.276
13570TIP3    H140587   6.951   2.603   6.225
13570TIP3    H240588   6.892   2.602   6.364
13571TIP3   OH240589   6.405   2.132   6.153
13571TIP3    H140590   6.373   2.052   6.199
13571TIP3    H240591   6.460   2.094   6.084
13572TIP3   OH240592   6.857   2.537   6.570
13572TIP3    H140593   6.769   2.577   6.583
13572TIP3    H240594   6.916   2.596   6.619
13573TIP3   OH240595   6.593   2.932   5.659
13573TIP3    H140596   6.521   2.865   5.650
13573TIP3    H240597   6.577   2.964   5.751
13574TIP3   OH240598   7.496   3.167   6.293
13574TIP3    H140599   7.521   3.215   6.211
13574TIP3    H240600   7.410   3.126   6.268
13575TIP3   OH240601   7.052   2.245   5.521
13575TIP3    H140602   6.956   2.228   5.531
13575TIP3    H240603   7.062   2.339   5.547
13576TIP3   OH240604   6.989   3.246   6.661
13576TIP3    H140605   7.017   3.226   6.751
13576TIP3    H240606   6.956   3.337   6.668
13577TIP3   OH240607   7.122   2.490   5.627
13577TIP3    H140608   7.219   2.494   5.644
13577TIP3    H240609   7.106   2.569   5.573
13578TIP3   OH240610   6.277   2.941   6.333
13578TIP3    H140611   6.350   2.914   6.274
13578TIP3    H240612   6.304   2.893   6.414
13579TIP3   OH240613   6.740   3.081   5.481
13579TIP3    H140614   6.692   3.167   5.489
13579TIP3    H240615   6.686   3.025   5.541
13580TIP3   OH240616   6.166   2.873   6.951
13580TIP3    H140617   6.190   2.861   7.046
13580TIP3    H240618   6.097   2.805   6.940
13581TIP3   OH240619   6.891   2.985   6.972
13581TIP3    H140620   6.835   2.926   6.920
13581TIP3    H240621   6.981   2.954   6.946
13582TIP3   OH240622   7.154   3.506   6.555
13582TIP3    H140623   7.057   3.508   6.567
13582TIP3    H240624   7.183   3.558   6.633
13583TIP3   OH240625   7.565   2.578   5.464
13583TIP3    H140626   7.502   2.532   5.403
13583TIP3    H240627   7.562   2.666   5.422
13584TIP3   OH240628   7.781   3.436   6.546
13584TIP3    H140629   7.683   3.431   6.538
13584TIP3    H240630   7.807   3.406   6.456
13585TIP3   OH240631   7.262   3.399   5.371
13585TIP3    H140632   7.241   3.330   5.434
13585TIP3    H240633   7.276   3.350   5.287
13586TIP3   OH240634   7.260   3.029   6.212
13586TIP3    H140635   7.167   3.002   6.225
13586TIP3    H240636   7.296   2.949   6.167
13587TIP3   OH240637   6.376   3.250   5.963
13587TIP3    H140638   6.405   3.329   5.915
13587TIP3    H240639   6.281   3.263   5.960
13588TIP3   OH240640   5.950   2.560   5.666
13588TIP3    H140641   5.995   2.645   5.684
13588TIP3    H240642   5.872   2.566   5.725
13589TIP3   OH240643   6.528   3.023   5.907
13589TIP3    H140644   6.490   3.111   5.924
13589TIP3    H240645   6.496   2.974   5.984
13590TIP3   OH240646   6.656   3.599   6.432
13590TIP3    H140647   6.696   3.673   6.383
13590TIP3    H240648   6.732   3.567   6.483
13591TIP3   OH240649   6.309   3.494   5.817
13591TIP3    H140650   6.221   3.504   5.860
13591TIP3    H240651   6.341   3.587   5.820
13592TIP3   OH240652   7.045   3.234   6.391
13592TIP3    H140653   7.037   3.231   6.489
13592TIP3    H240654   7.127   3.184   6.378
13593TIP3   OH240655   7.018   3.125   5.274
13593TIP3    H140656   7.071   3.101   5.353
13593TIP3    H240657   6.929   3.099   5.304
13594TIP3   OH240658   7.293   3.769   6.443
13594TIP3    H140659   7.215   3.712   6.434
13594TIP3    H240660   7.279   3.834   6.370
13595TIP3   OH240661   7.358   3.602   5.094
13595TIP3    H140662   7.395   3.674   5.041
13595TIP3    H240663   7.278   3.648   5.128
13596TIP3   OH240664   6.380   2.379   6.960
13596TIP3    H140665   6.284   2.384   6.977
13596TIP3    H240666   6.408   2.319   7.031
13597TIP3   OH240667   7.177   3.061   5.492
13597TIP3    H140668   7.168   2.994   5.562
13597TIP3    H240669   7.275   3.059   5.479
13598TIP3   OH240670   6.100   3.459   6.592
13598TIP3    H140671   6.150   3.389   6.637
13598TIP3    H240672   6.117   3.535   6.649
13599TIP3   OH240673   6.386   3.107   5.273
13599TIP3    H140674   6.400   3.016   5.243
13599TIP3    H240675   6.367   3.093   5.368
13600TIP3   OH240676   6.332   3.112   5.547
13600TIP3    H140677   6.407   3.086   5.602
13600TIP3    H240678   6.336   3.210   5.552
13601TIP3   OH240679   6.069   2.810   5.745
13601TIP3    H140680   6.000   2.855   5.796
13601TIP3    H240681   6.084   2.876   5.674
13602TIP3   OH240682   7.211   2.444   6.641
13602TIP3    H140683   7.293   2.482   6.678
13602TIP3    H240684   7.199   2.363   6.695
13603TIP3   OH240685   7.090   2.198   5.804
13603TIP3    H140686   7.081   2.221   5.709
13603TIP3    H240687   7.133   2.278   5.840
13604TIP3   OH240688   6.595   3.310   5.495
13604TIP3    H140689   6.509   3.340   5.530
13604TIP3    H240690   6.614   3.381   5.432
13605TIP3   OH240691   6.783   2.374   5.908
13605TIP3    H140692   6.851   2.443   5.889
13605TIP3    H240693   6.791   2.366   6.005
13606TIP3   OH240694   7.053   2.693   6.717
13606TIP3    H140695   7.074   2.746   6.797
13606TIP3    H240696   7.110   2.615   6.730
13607TIP3   OH240697   6.930   2.103   6.011
13607TIP3    H140698   6.930   2.177   6.074
13607TIP3    H240699   6.990   2.139   5.941
13608TIP3   OH240700   6.337   3.385   5.561
13608TIP3    H140701   6.308   3.454   5.497
13608TIP3    H240702   6.322   3.431   5.647
13609TIP3   OH240703   6.440   2.097   5.800
13609TIP3    H140704   6.439   2.187   5.837
13609TIP3    H240705   6.536   2.077   5.808
13610TIP3   OH240706   7.694   2.594   6.696
13610TIP3    H140707   7.596   2.590   6.702
13610TIP3    H240708   7.708   2.554   6.609
13611TIP3   OH240709   7.345   2.788   6.085
13611TIP3    H140710   7.271   2.726   6.097
13611TIP3    H240711   7.418   2.742   6.132
13612TIP3   OH240712   6.057   3.018   5.555
13612TIP3    H140713   6.120   3.092   5.561
13612TIP3    H240714   6.104   2.965   5.487
13613TIP3   OH240715   6.003   2.291   5.689
13613TIP3    H140716   5.999   2.388   5.682
13613TIP3    H240717   5.922   2.263   5.645
13614TIP3   OH240718   7.313   3.740   6.034
13614TIP3    H140719   7.271   3.787   5.959
13614TIP3    H240720   7.408   3.760   6.015
13615TIP3   OH240721   6.388   2.012   6.563
13615TIP3    H140722   6.358   1.978   6.476
13615TIP3    H240723   6.379   1.932   6.620
13616TIP3   OH240724   5.931   3.216   5.952
13616TIP3    H140725   5.859   3.258   6.002
13616TIP3    H240726   5.920   3.261   5.866
13617TIP3   OH240727   6.085   3.769   7.012
13617TIP3    H140728   6.170   3.770   7.061
13617TIP3    H240729   6.063   3.674   7.013
13618TIP3   OH240730   6.569   3.739   7.056
13618TIP3    H140731   6.663   3.718   7.067
13618TIP3    H240732   6.546   3.680   6.982
13619TIP3   OH240733   6.549   3.312   5.187
13619TIP3    H140734   6.492   3.241   5.226
13619TIP3    H240735   6.624   3.258   5.156
13620TIP3   OH240736   7.207   3.641   6.790
13620TIP3    H140737   7.198   3.571   6.859
13620TIP3    H240738   7.285   3.691   6.821
13621TIP3   OH240739   6.985   3.353   5.097
13621TIP3    H140740   7.031   3.290   5.156
13621TIP3    H240741   7.044   3.355   5.018
13622TIP3   OH240742   6.217   3.176   7.213
13622TIP3    H140743   6.233   3.080   7.218
13622TIP3    H240744   6.128   3.179   7.172
13623TIP3   OH240745   6.193   2.830   5.406
13623TIP3    H140746   6.247   2.793   5.477
13623TIP3    H240747   6.259   2.835   5.334
13624TIP3   OH240748   6.826   3.261   6.986
13624TIP3    H140749   6.784   3.275   6.899
13624TIP3    H240750   6.857   3.168   6.981
13625TIP3   OH240751   6.699   3.026   5.212
13625TIP3    H140752   6.703   3.040   5.309
13625TIP3    H240753   6.699   2.928   5.208
13626TIP3   OH240754   7.315   3.268   6.591
13626TIP3    H140755   7.391   3.313   6.548
13626TIP3    H240756   7.246   3.335   6.580
13627TIP3   OH240757   6.335   2.907   7.194
13627TIP3    H140758   6.411   2.849   7.178
13627TIP3    H240759   6.357   2.943   7.282
13628TIP3   OH240760   6.404   2.728   5.632
13628TIP3    H140761   6.381   2.674   5.708
13628TIP3    H240762   6.440   2.659   5.572
13629TIP3   OH240763   6.667   2.793   6.854
13629TIP3    H140764   6.594   2.858   6.860
13629TIP3    H240765   6.717   2.827   6.777
13630TIP3   OH240766   6.501   2.526   5.470
13630TIP3    H140767   6.474   2.524   5.376
13630TIP3    H240768   6.599   2.531   5.462
13631TIP3   OH240769   7.185   3.197   6.990
13631TIP3    H140770   7.269   3.179   6.945
13631TIP3    H240771   7.186   3.130   7.061
13632TIP3   OH240772   7.324   2.858   5.130
13632TIP3    H140773   7.302   2.809   5.048
13632TIP3    H240774   7.293   2.948   5.105
13633TIP3   OH240775   6.791   2.582   6.986
13633TIP3    H140776   6.794   2.502   6.930
13633TIP3    H240777   6.749   2.647   6.926
13634TIP3   OH240778   6.795   2.370   6.791
13634TIP3    H140779   6.824   2.410   6.706
13634TIP3    H240780   6.702   2.346   6.771
13635TIP3   OH240781   6.823   2.904   6.661
13635TIP3    H140782   6.908   2.910   6.615
13635TIP3    H240783   6.771   2.975   6.619
13636TIP3   OH240784   7.407   2.874   7.046
13636TIP3    H140785   7.455   2.790   7.056
13636TIP3    H240786   7.477   2.932   7.012
13637TIP3   OH240787   7.447   3.125   6.780
13637TIP3    H140788   7.389   3.179   6.720
13637TIP3    H240789   7.535   3.145   6.740
13638TIP3   OH240790   6.667   2.700   7.211
13638TIP3    H140791   6.600   2.630   7.226
13638TIP3    H240792   6.706   2.671   7.126
13639TIP3   OH240793   6.928   2.135   6.856
13639TIP3    H140794   6.880   2.217   6.834
13639TIP3    H240795   6.858   2.067   6.844
13640TIP3   OH240796   7.054   2.641   7.074
13640TIP3    H140797   7.046   2.629   7.170
13640TIP3    H240798   6.963   2.614   7.047
13641TIP3   OH240799   7.294   2.588   6.928
13641TIP3    H140800   7.218   2.589   6.990
13641TIP3    H240801   7.367   2.557   6.985
13642TIP3   OH240802   7.519   2.527   7.080
13642TIP3    H140803   7.534   2.432   7.100
13642TIP3    H240804   7.518   2.567   7.170
13643TIP3   OH240805   6.510   2.478   7.265
13643TIP3    H140806   6.519   2.388   7.229
13643TIP3    H240807   6.546   2.465   7.355
13644TIP3   OH240808   7.022   2.144   7.114
13644TIP3    H140809   7.091   2.075   7.109
13644TIP3    H240810   6.984   2.136   7.024
13645TIP3   OH240811   7.087   2.358   7.274
13645TIP3    H140812   7.065   2.287   7.209
13645TIP3    H240813   7.010   2.418   7.266
13646TIP3   OH240814   6.308   3.586   5.373
13646TIP3    H140815   6.403   3.586   5.354
13646TIP3    H240816   6.275   3.634   5.295
13647TIP3   OH240817   5.792   2.962   5.603
13647TIP3    H140818   5.884   2.988   5.580
13647TIP3    H240819   5.783   2.878   5.553
13648TIP3   OH240820   5.705   3.580   6.002
13648TIP3    H140821   5.635   3.521   5.967
13648TIP3    H240822   5.746   3.522   6.069
13649TIP3   OH240823   5.846   3.432   6.186
13649TIP3    H140824   5.822   3.365   6.252
13649TIP3    H240825   5.892   3.496   6.243
13650TIP3   OH240826   7.564   3.836   5.989
13650TIP3    H140827   7.591   3.868   6.077
13650TIP3    H240828   7.626   3.882   5.931
13651TIP3   OH240829   7.595   3.854   6.271
13651TIP3    H140830   7.554   3.765   6.268
13651TIP3    H240831   7.672   3.835   6.328
13652TIP3   OH240832   7.641   3.531   6.843
13652TIP3    H140833   7.568   3.539   6.908
13652TIP3    H240834   7.683   3.620   6.849
13653TIP3   OH240835   7.458   3.045   5.465
13653TIP3    H140836   7.528   3.107   5.439
13653TIP3    H240837   7.499   3.004   5.545
13654TIP3   OH240838   7.584   2.913   5.668
13654TIP3    H140839   7.520   2.869   5.729
13654TIP3    H240840   7.651   2.949   5.730
13655TIP3   OH240841   7.636   3.301   6.099
13655TIP3    H140842   7.693   3.238   6.050
13655TIP3    H240843   7.629   3.376   6.037
13656TIP3   OH240844   7.472   3.603   6.296
13656TIP3    H140845   7.402   3.645   6.349
13656TIP3    H240846   7.421   3.554   6.228
13657TIP3   OH240847   7.524   2.819   5.316
13657TIP3    H140848   7.452   2.823   5.250
13657TIP3    H240849   7.498   2.895   5.372
13658TIP3   OH240850   7.394   2.493   5.271
13658TIP3    H140851   7.353   2.530   5.193
13658TIP3    H240852   7.369   2.398   5.262
13659TIP3   OH240853   7.399   2.766   5.815
13659TIP3    H140854   7.410   2.669   5.812
13659TIP3    H240855   7.387   2.782   5.912
13660TIP3   OH240856   6.030   2.844   6.553
13660TIP3    H140857   6.039   2.816   6.461
13660TIP3    H240858   6.124   2.843   6.583
13661TIP3   OH240859   7.688   3.191   6.671
13661TIP3    H140860   7.761   3.126   6.664
13661TIP3    H240861   7.718   3.262   6.612
13662TIP3   OH240862   7.874   3.000   6.694
13662TIP3    H140863   7.800   2.947   6.732
13662TIP3    H240864   7.948   2.936   6.705
13663TIP3   OH240865   7.339   2.227   5.257
13663TIP3    H140866   7.416   2.196   5.310
13663TIP3    H240867   7.268   2.166   5.284
13664TIP3   OH240868   7.395   2.482   5.711
13664TIP3    H140869   7.435   2.393   5.727
13664TIP3    H240870   7.455   2.515   5.642
13665TIP3   OH240871   7.558   2.661   6.205
13665TIP3    H140872   7.645   2.687   6.165
13665TIP3    H240873   7.572   2.695   6.295
13666TIP3   OH240874   7.625   2.801   6.439
13666TIP3    H140875   7.547   2.836   6.487
13666TIP3    H240876   7.658   2.881   6.393
13667TIP3   OH240877   6.243   2.528   7.235
13667TIP3    H140878   6.341   2.522   7.238
13667TIP3    H240879   6.219   2.444   7.279
13668TIP3   OH240880   8.075   2.389   6.995
13668TIP3    H140881   8.135   2.324   6.953
13668TIP3    H240882   8.052   2.447   6.920
13669TIP3   OH240883   7.504   2.233   5.749
13669TIP3    H140884   7.554   2.217   5.832
13669TIP3    H240885   7.445   2.155   5.748
13670TIP3   OH240886   6.205   2.220   6.567
13670TIP3    H140887   6.266   2.144   6.578
13670TIP3    H240888   6.269   2.294   6.563
13671TIP3   OH240889   6.007   2.495   6.641
13671TIP3    H140890   6.058   2.485   6.558
13671TIP3    H240891   6.044   2.576   6.677
13672TIP3   OH240892   7.951   2.534   6.801
13672TIP3    H140893   7.862   2.571   6.822
13672TIP3    H240894   7.926   2.461   6.742
13673TIP3   OH240895   7.586   2.171   5.377
13673TIP3    H140896   7.628   2.096   5.331
13673TIP3    H240897   7.656   2.239   5.373
13674TIP3   OH240898   5.990   2.004   6.148
13674TIP3    H140899   5.896   1.995   6.167
13674TIP3    H240900   5.990   2.057   6.065
13675TIP3   OH240901   7.149   3.699   5.647
13675TIP3    H140902   7.202   3.684   5.566
13675TIP3    H240903   7.201   3.765   5.694
13676TIP3   OH240904   6.210   2.077   6.957
13676TIP3    H140905   6.161   2.072   7.040
13676TIP3    H240906   6.143   2.115   6.897
13677TIP3   OH240907   6.252   3.499   7.033
13677TIP3    H140908   6.159   3.475   7.019
13677TIP3    H240909   6.261   3.487   7.129
13678TIP3   OH240910   6.429   3.531   6.579
13678TIP3    H140911   6.380   3.608   6.543
13678TIP3    H240912   6.515   3.548   6.536
13679TIP3   OH240913   6.876   3.781   6.718
13679TIP3    H140914   6.917   3.782   6.808
13679TIP3    H240915   6.943   3.832   6.667
13680TIP3   OH240916   7.055   3.931   6.576
13680TIP3    H140917   7.128   3.881   6.536
13680TIP3    H240918   7.105   3.990   6.637
13681TIP3   OH240919   7.848   2.295   6.678
13681TIP3    H140920   7.756   2.289   6.645
13681TIP3    H240921   7.879   2.202   6.665
13682TIP3   OH240922   6.106   3.790   6.605
13682TIP3    H140923   6.017   3.826   6.581
13682TIP3    H240924   6.116   3.828   6.693
13683TIP3   OH240925   6.341   3.769   6.461
13683TIP3    H140926   6.256   3.783   6.507
13683TIP3    H240927   6.321   3.806   6.372
13684TIP3   OH240928   6.768   3.802   6.259
13684TIP3    H140929   6.700   3.825   6.193
13684TIP3    H240930   6.782   3.889   6.303
13685TIP3   OH240931   7.036   3.741   6.309
13685TIP3    H140932   6.942   3.758   6.290
13685TIP3    H240933   7.079   3.819   6.270
13686TIP3   OH240934   7.244   3.933   6.227
13686TIP3    H140935   7.231   4.018   6.180
13686TIP3    H240936   7.270   3.873   6.154
13687TIP3   OH240937   6.019   3.588   6.347
13687TIP3    H140938   6.043   3.565   6.439
13687TIP3    H240939   6.092   3.545   6.299
13688TIP3   OH240940   6.211   3.458   6.202
13688TIP3    H140941   6.229   3.375   6.252
13688TIP3    H240942   6.300   3.499   6.199
13689TIP3   OH240943   6.474   3.554   6.209
13689TIP3    H140944   6.511   3.465   6.197
13689TIP3    H240945   6.517   3.579   6.292
13690TIP3   OH240946   7.048   2.209   6.290
13690TIP3    H140947   7.009   2.140   6.346
13690TIP3    H240948   7.124   2.162   6.250
13691TIP3   OH240949   7.577   2.091   6.203
13691TIP3    H140950   7.614   2.142   6.128
13691TIP3    H240951   7.482   2.109   6.194
13692TIP3   OH240952   7.671   2.193   5.966
13692TIP3    H140953   7.744   2.140   5.926
13692TIP3    H240954   7.706   2.284   5.951
13693TIP3   OH240955   6.302   1.920   6.314
13693TIP3    H140956   6.210   1.886   6.313
13693TIP3    H240957   6.352   1.836   6.311
13694TIP3   OH240958   6.090   1.787   5.961
13694TIP3    H140959   6.118   1.844   5.888
13694TIP3    H240960   6.058   1.851   6.026
13695TIP3   OH240961   6.741   1.956   6.193
13695TIP3    H140962   6.803   2.002   6.134
13695TIP3    H240963   6.769   1.987   6.280
13696TIP3   OH240964   7.292   2.097   6.178
13696TIP3    H140965   7.293   2.060   6.089
13696TIP3    H240966   7.279   2.016   6.233
13697TIP3   OH240967   7.322   2.019   5.739
13697TIP3    H140968   7.234   2.058   5.747
13697TIP3    H240969   7.309   1.934   5.787
13698TIP3   OH240970   5.807   3.356   5.750
13698TIP3    H140971   5.723   3.323   5.713
13698TIP3    H240972   5.796   3.451   5.729
13699TIP3   OH240973   6.204   1.949   5.724
13699TIP3    H140974   6.252   1.885   5.668
13699TIP3    H240975   6.277   2.001   5.761
13700TIP3   OH240976   6.717   2.123   5.823
13700TIP3    H140977   6.777   2.074   5.882
13700TIP3    H240978   6.741   2.215   5.849
13701TIP3   OH240979   6.577   3.550   5.322
13701TIP3    H140980   6.666   3.572   5.286
13701TIP3    H240981   6.555   3.474   5.264
13702TIP3   OH240982   7.297   3.666   5.415
13702TIP3    H140983   7.287   3.568   5.401
13702TIP3    H240984   7.251   3.699   5.335
13703TIP3   OH240985   6.509   2.199   7.203
13703TIP3    H140986   6.477   2.129   7.262
13703TIP3    H240987   6.604   2.201   7.229
13704TIP3   OH240988   6.758   2.197   7.323
13704TIP3    H140989   6.843   2.173   7.283
13704TIP3    H240990   6.747   2.125   7.389
13705TIP3   OH240991   5.881   3.385   5.380
13705TIP3    H140992   5.879   3.417   5.472
13705TIP3    H240993   5.971   3.346   5.373
13706TIP3   OH240994   7.582   2.257   7.111
13706TIP3    H140995   7.603   2.226   7.202
13706TIP3    H240996   7.670   2.253   7.068
13707TIP3   OH240997   7.523   3.811   6.604
13707TIP3    H140998   7.444   3.779   6.557
13707TIP3    H240999   7.504   3.907   6.605
13708TIP3   OH241000   8.789   3.184   5.370
13708TIP3    H141001   8.752   3.273   5.360
13708TIP3    H241002   8.715   3.129   5.340
13709TIP3   OH241003   8.777   3.182   5.752
13709TIP3    H141004   8.815   3.157   5.838
13709TIP3    H241005   8.744   3.097   5.719
13710TIP3   OH241006   8.087   3.079   6.116
13710TIP3    H141007   8.117   3.012   6.180
13710TIP3    H241008   8.166   3.135   6.109
13711TIP3   OH241009   9.011   3.493   5.454
13711TIP3    H141010   9.021   3.409   5.501
13711TIP3    H241011   9.072   3.552   5.504
13712TIP3   OH241012   8.055   3.486   5.839
13712TIP3    H141013   8.047   3.388   5.842
13712TIP3    H241014   8.152   3.495   5.846
13713TIP3   OH241015   7.764   2.693   5.627
13713TIP3    H141016   7.715   2.776   5.640
13713TIP3    H241017   7.694   2.636   5.592
13714TIP3   OH241018   7.824   2.977   5.794
13714TIP3    H141019   7.872   2.901   5.835
13714TIP3    H241020   7.886   3.005   5.726
13715TIP3   OH241021   8.590   3.408   5.792
13715TIP3    H141022   8.628   3.326   5.757
13715TIP3    H241023   8.673   3.452   5.820
13716TIP3   OH241024   9.528   2.753   5.803
13716TIP3    H141025   9.590   2.802   5.862
13716TIP3    H241026   9.579   2.753   5.721
13717TIP3   OH241027   8.995   2.913   5.832
13717TIP3    H141028   9.040   2.830   5.855
13717TIP3    H241029   8.968   2.894   5.740
13718TIP3   OH241030   8.332   2.569   5.798
13718TIP3    H141031   8.315   2.642   5.735
13718TIP3    H241032   8.286   2.496   5.753
13719TIP3   OH241033   9.030   2.659   5.420
13719TIP3    H141034   9.101   2.643   5.486
13719TIP3    H241035   9.083   2.695   5.346
13720TIP3   OH241036   7.970   2.772   5.903
13720TIP3    H141037   8.053   2.752   5.951
13720TIP3    H241038   7.982   2.716   5.824
13721TIP3   OH241039   8.412   2.970   5.694
13721TIP3    H141040   8.505   2.944   5.709
13721TIP3    H241041   8.373   2.885   5.664
13722TIP3   OH241042   9.665   2.926   5.967
13722TIP3    H141043   9.588   2.986   5.962
13722TIP3    H241044   9.716   2.966   6.041
13723TIP3   OH241045   8.333   2.552   6.230
13723TIP3    H141046   8.272   2.589   6.163
13723TIP3    H241047   8.282   2.570   6.312
13724TIP3   OH241048   8.667   3.407   5.250
13724TIP3    H141049   8.661   3.347   5.174
13724TIP3    H241050   8.613   3.480   5.220
13725TIP3   OH241051   8.438   3.327   6.027
13725TIP3    H141052   8.374   3.390   6.067
13725TIP3    H241053   8.484   3.385   5.963
13726TIP3   OH241054   9.241   2.661   5.591
13726TIP3    H141055   9.239   2.611   5.674
13726TIP3    H241056   9.299   2.735   5.616
13727TIP3   OH241057   8.201   2.668   6.016
13727TIP3    H141058   8.264   2.740   6.039
13727TIP3    H241059   8.251   2.626   5.942
13728TIP3   OH241060   8.263   3.519   6.121
13728TIP3    H141061   8.240   3.608   6.086
13728TIP3    H241062   8.186   3.505   6.180
13729TIP3   OH241063   7.664   3.211   5.361
13729TIP3    H141064   7.622   3.238   5.277
13729TIP3    H241065   7.694   3.296   5.398
13730TIP3   OH241066   9.089   3.724   5.580
13730TIP3    H141067   9.013   3.726   5.642
13730TIP3    H241068   9.102   3.819   5.560
13731TIP3   OH241069   9.371   2.617   5.973
13731TIP3    H141070   9.286   2.655   5.946
13731TIP3    H241071   9.431   2.659   5.907
13732TIP3   OH241072   8.689   2.273   5.941
13732TIP3    H141073   8.681   2.178   5.961
13732TIP3    H241074   8.612   2.308   5.990
13733TIP3   OH241075   8.919   3.563   5.200
13733TIP3    H141076   8.911   3.504   5.123
13733TIP3    H241077   8.985   3.514   5.253
13734TIP3   OH241078   9.297   3.646   5.940
13734TIP3    H141079   9.328   3.567   5.893
13734TIP3    H241080   9.347   3.717   5.899
13735TIP3   OH241081   8.621   3.040   5.198
13735TIP3    H141082   8.537   3.082   5.170
13735TIP3    H241083   8.668   3.028   5.114
13736TIP3   OH241084   8.578   2.818   4.919
13736TIP3    H141085   8.649   2.867   4.965
13736TIP3    H241086   8.632   2.753   4.871
13737TIP3   OH241087   9.517   3.258   5.773
13737TIP3    H141088   9.445   3.321   5.791
13737TIP3    H241089   9.559   3.297   5.694
13738TIP3   OH241090   8.966   3.117   5.172
13738TIP3    H141091   8.914   3.138   5.253
13738TIP3    H241092   9.049   3.086   5.213
13739TIP3   OH241093   9.200   3.157   6.083
13739TIP3    H141094   9.201   3.237   6.138
13739TIP3    H241095   9.115   3.166   6.037
13740TIP3   OH241096   8.202   3.117   5.586
13740TIP3    H141097   8.159   3.057   5.521
13740TIP3    H241098   8.277   3.062   5.617
13741TIP3   OH241099   8.334   3.531   5.732
13741TIP3    H141100   8.310   3.472   5.660
13741TIP3    H241101   8.423   3.498   5.756
13742TIP3   OH241102   8.333   3.087   5.941
13742TIP3    H141103   8.370   3.065   5.853
13742TIP3    H241104   8.379   3.171   5.964
13743TIP3   OH241105   8.849   3.717   5.701
13743TIP3    H141106   8.840   3.801   5.751
13743TIP3    H241107   8.844   3.650   5.773
13744TIP3   OH241108   8.472   3.643   6.265
13744TIP3    H141109   8.415   3.706   6.314
13744TIP3    H241110   8.405   3.589   6.219
13745TIP3   OH241111   8.804   2.978   4.998
13745TIP3    H141112   8.868   3.032   5.050
13745TIP3    H241113   8.832   3.001   4.906
13746TIP3   OH241114   8.225   3.203   6.364
13746TIP3    H141115   8.230   3.288   6.412
13746TIP3    H241116   8.130   3.182   6.374
13747TIP3   OH241117   8.266   3.812   6.352
13747TIP3    H141118   8.231   3.808   6.262
13747TIP3    H241119   8.188   3.791   6.407
13748TIP3   OH241120   9.332   2.234   5.074
13748TIP3    H141121   9.242   2.248   5.109
13748TIP3    H241122   9.335   2.298   5.000
13749TIP3   OH241123   8.065   2.958   5.395
13749TIP3    H141124   7.998   3.000   5.336
13749TIP3    H241125   8.027   2.871   5.408
13750TIP3   OH241126   9.121   3.586   4.597
13750TIP3    H141127   9.130   3.682   4.578
13750TIP3    H241128   9.213   3.555   4.581
13751TIP3   OH241129   7.846   3.341   6.301
13751TIP3    H141130   7.783   3.315   6.230
13751TIP3    H241131   7.884   3.255   6.329
13752TIP3   OH241132   7.700   3.534   5.933
13752TIP3    H141133   7.796   3.526   5.925
13752TIP3    H241134   7.692   3.613   5.989
13753TIP3   OH241135   9.556   3.980   5.976
13753TIP3    H141136   9.571   3.885   5.997
13753TIP3    H241137   9.479   3.999   6.033
13754TIP3   OH241138   8.669   3.775   6.120
13754TIP3    H141139   8.671   3.867   6.155
13754TIP3    H241140   8.601   3.734   6.178
13755TIP3   OH241141   8.429   3.908   5.072
13755TIP3    H141142   8.388   3.884   4.987
13755TIP3    H241143   8.398   3.999   5.087
13756TIP3   OH241144   7.870   3.751   5.458
13756TIP3    H141145   7.917   3.741   5.544
13756TIP3    H241146   7.810   3.674   5.463
13757TIP3   OH241147   8.629   3.798   4.716
13757TIP3    H141148   8.689   3.730   4.678
13757TIP3    H241149   8.666   3.809   4.806
13758TIP3   OH241150   8.683   3.850   4.982
13758TIP3    H141151   8.600   3.858   5.034
13758TIP3    H241152   8.750   3.834   5.050
13759TIP3   OH241153   9.446   3.113   6.257
13759TIP3    H141154   9.374   3.120   6.193
13759TIP3    H241155   9.470   3.019   6.251
13760TIP3   OH241156   8.051   3.524   6.291
13760TIP3    H141157   8.102   3.508   6.373
13760TIP3    H241158   7.978   3.460   6.299
13761TIP3   OH241159   8.450   2.347   6.071
13761TIP3    H141160   8.360   2.317   6.048
13761TIP3    H241161   8.427   2.431   6.117
13762TIP3   OH241162   8.985   2.463   6.267
13762TIP3    H141163   9.054   2.436   6.330
13762TIP3    H241164   8.902   2.442   6.314
13763TIP3   OH241165   9.216   2.887   6.178
13763TIP3    H141166   9.177   2.887   6.268
13763TIP3    H241167   9.202   2.980   6.149
13764TIP3   OH241168   8.881   3.030   4.743
13764TIP3    H141169   8.850   2.997   4.656
13764TIP3    H241170   8.967   3.070   4.718
13765TIP3   OH241171   8.594   2.401   5.042
13765TIP3    H141172   8.565   2.397   5.136
13765TIP3    H241173   8.560   2.314   5.012
13766TIP3   OH241174   8.380   2.863   6.090
13766TIP3    H141175   8.333   2.886   6.173
13766TIP3    H241176   8.364   2.944   6.037
13767TIP3   OH241177   8.265   2.750   5.605
13767TIP3    H141178   8.173   2.721   5.623
13767TIP3    H241179   8.280   2.708   5.518
13768TIP3   OH241180   8.757   2.836   5.331
13768TIP3    H141181   8.704   2.907   5.288
13768TIP3    H241182   8.813   2.806   5.257
13769TIP3   OH241183   8.931   3.116   6.421
13769TIP3    H141184   8.911   3.042   6.482
13769TIP3    H241185   9.026   3.130   6.440
13770TIP3   OH241186   8.913   2.863   5.572
13770TIP3    H141187   8.855   2.890   5.498
13770TIP3    H241188   8.949   2.780   5.533
13771TIP3   OH241189   8.198   2.894   6.302
13771TIP3    H141190   8.234   2.954   6.368
13771TIP3    H241191   8.190   2.810   6.353
13772TIP3   OH241192   8.249   2.368   5.009
13772TIP3    H141193   8.247   2.365   5.107
13772TIP3    H241194   8.169   2.419   4.991
13773TIP3   OH241195   7.794   2.417   5.880
13773TIP3    H141196   7.870   2.447   5.934
13773TIP3    H241197   7.836   2.380   5.800
13774TIP3   OH241198   7.770   2.395   5.399
13774TIP3    H141199   7.818   2.434   5.323
13774TIP3    H241200   7.710   2.469   5.422
13775TIP3   OH241201   8.916   3.113   5.993
13775TIP3    H141202   8.953   3.040   5.937
13775TIP3    H241203   8.896   3.062   6.074
13776TIP3   OH241204   8.589   2.578   5.668
13776TIP3    H141205   8.511   2.570   5.725
13776TIP3    H241206   8.662   2.569   5.732
13777TIP3   OH241207   8.028   2.626   5.676
13777TIP3    H141208   7.934   2.631   5.649
13777TIP3    H241209   8.053   2.535   5.653
13778TIP3   OH241210   8.298   2.624   5.364
13778TIP3    H141211   8.394   2.637   5.346
13778TIP3    H241212   8.256   2.648   5.278
13779TIP3   OH241213   9.080   2.651   5.868
13779TIP3    H141214   9.046   2.660   5.960
13779TIP3    H241215   9.021   2.585   5.831
13780TIP3   OH241216   8.133   2.660   5.141
13780TIP3    H141217   8.062   2.614   5.093
13780TIP3    H241218   8.187   2.693   5.067
13781TIP3   OH241219   9.252   4.338   6.087
13781TIP3    H141220   9.254   4.362   5.992
13781TIP3    H241221   9.331   4.386   6.120
13782TIP3   OH241222   8.212   3.447   6.510
13782TIP3    H141223   8.293   3.476   6.557
13782TIP3    H241224   8.148   3.447   6.584
13783TIP3   OH241225   8.678   2.900   5.763
13783TIP3    H141226   8.750   2.859   5.712
13783TIP3    H241227   8.689   2.859   5.851
13784TIP3   OH241228   8.200   2.388   5.640
13784TIP3    H141229   8.169   2.307   5.686
13784TIP3    H241230   8.260   2.352   5.573
13785TIP3   OH241231   8.654   2.793   6.056
13785TIP3    H141232   8.565   2.833   6.071
13785TIP3    H241233   8.714   2.852   6.106
13786TIP3   OH241234   8.386   3.190   5.147
13786TIP3    H141235   8.316   3.122   5.138
13786TIP3    H241236   8.372   3.221   5.240
13787TIP3   OH241237   9.297   3.420   5.779
13787TIP3    H141238   9.319   3.469   5.696
13787TIP3    H241239   9.210   3.382   5.758
13788TIP3   OH241240   8.848   2.501   5.009
13788TIP3    H141241   8.751   2.487   5.018
13788TIP3    H241242   8.860   2.596   5.033
13789TIP3   OH241243   8.782   3.502   6.144
13789TIP3    H141244   8.817   3.480   6.231
13789TIP3    H241245   8.753   3.594   6.156
13790TIP3   OH241246   8.920   2.747   5.114
13790TIP3    H141247   9.016   2.748   5.129
13790TIP3    H241248   8.907   2.823   5.054
13791TIP3   OH241249   8.081   3.207   5.825
13791TIP3    H141250   8.122   3.179   5.741
13791TIP3    H241251   8.123   3.146   5.888
13792TIP3   OH241252   8.535   3.336   4.969
13792TIP3    H141253   8.489   3.422   4.978
13792TIP3    H241254   8.480   3.280   5.028
13793TIP3   OH241255   7.960   3.133   6.440
13793TIP3    H141256   7.987   3.118   6.533
13793TIP3    H241257   7.895   3.061   6.427
13794TIP3   OH241258   8.688   3.242   6.459
13794TIP3    H141259   8.633   3.183   6.404
13794TIP3    H241260   8.778   3.211   6.434
13795TIP3   OH241261   8.945   3.764   6.039
13795TIP3    H141262   8.850   3.768   6.056
13795TIP3    H241263   8.980   3.815   6.116
13796TIP3   OH241264   9.353   2.828   4.961
13796TIP3    H141265   9.295   2.782   4.897
13796TIP3    H241266   9.376   2.904   4.904
13797TIP3   OH241267   9.050   3.652   4.857
13797TIP3    H141268   9.050   3.571   4.909
13797TIP3    H241269   9.074   3.618   4.768
13798TIP3   OH241270   9.052   3.291   5.690
13798TIP3    H141271   8.963   3.259   5.712
13798TIP3    H241272   9.091   3.209   5.652
13799TIP3   OH241273   8.180   3.510   5.442
13799TIP3    H141274   8.177   3.594   5.394
13799TIP3    H241275   8.086   3.496   5.463
13800TIP3   OH241276   7.743   2.818   5.149
13800TIP3    H141277   7.792   2.899   5.172
13800TIP3    H241278   7.668   2.823   5.213
13801TIP3   OH241279   8.327   3.282   5.396
13801TIP3    H141280   8.284   3.368   5.414
13801TIP3    H241281   8.293   3.228   5.469
13802TIP3   OH241282   8.452   3.856   5.920
13802TIP3    H141283   8.493   3.930   5.871
13802TIP3    H241284   8.527   3.823   5.971
13803TIP3   OH241285   8.101   3.750   5.301
13803TIP3    H141286   8.015   3.755   5.349
13803TIP3    H241287   8.132   3.842   5.308
13804TIP3   OH241288   8.844   3.493   5.875
13804TIP3    H141289   8.832   3.493   5.972
13804TIP3    H241290   8.927   3.443   5.867
13805TIP3   OH241291   8.814   3.381   4.763
13805TIP3    H141292   8.868   3.360   4.842
13805TIP3    H241293   8.727   3.352   4.792
13806TIP3   OH241294   9.085   4.029   5.935
13806TIP3    H141295   9.011   3.967   5.922
13806TIP3    H241296   9.075   4.090   5.859
13807TIP3   OH241297   9.154   3.860   4.582
13807TIP3    H141298   9.193   3.932   4.529
13807TIP3    H241299   9.073   3.907   4.613
13808TIP3   OH241300   8.177   2.636   6.448
13808TIP3    H141301   8.081   2.639   6.463
13808TIP3    H241302   8.206   2.575   6.518
13809TIP3   OH241303   8.973   3.332   4.992
13809TIP3    H141304   8.964   3.255   5.052
13809TIP3    H241305   9.068   3.322   4.968
13810TIP3   OH241306   7.890   3.719   6.080
13810TIP3    H141307   7.943   3.645   6.112
13810TIP3    H241308   7.919   3.789   6.140
13811TIP3   OH241309   8.179   3.365   4.760
13811TIP3    H141310   8.197   3.274   4.728
13811TIP3    H241311   8.161   3.349   4.855
13812TIP3   OH241312   8.126   3.369   5.034
13812TIP3    H141313   8.196   3.338   5.093
13812TIP3    H241314   8.135   3.466   5.041
13813TIP3   OH241315   7.863   3.061   5.234
13813TIP3    H141316   7.798   3.106   5.293
13813TIP3    H241317   7.879   3.132   5.169
13814TIP3   OH241318   9.006   2.701   6.127
13814TIP3    H141319   9.088   2.741   6.160
13814TIP3    H241320   8.998   2.620   6.183
13815TIP3   OH241321   8.885   2.455   5.291
13815TIP3    H141322   8.877   2.478   5.196
13815TIP3    H241323   8.930   2.535   5.328
13816TIP3   OH241324   8.398   3.569   4.991
13816TIP3    H141325   8.310   3.600   5.020
13816TIP3    H241326   8.414   3.627   4.916
13817TIP3   OH241327   8.579   2.631   5.394
13817TIP3    H141328   8.647   2.699   5.377
13817TIP3    H241329   8.586   2.621   5.492
13818TIP3   OH241330   8.850   2.950   6.204
13818TIP3    H141331   8.871   3.002   6.284
13818TIP3    H241332   8.908   2.872   6.215
13819TIP3   OH241333   8.726   2.359   5.497
13819TIP3    H141334   8.731   2.429   5.564
13819TIP3    H241335   8.785   2.396   5.428
13820TIP3   OH241336   8.137   3.645   5.045
13820TIP3    H141337   8.104   3.716   4.987
13820TIP3    H241338   8.120   3.684   5.134
13821TIP3   OH241339   8.237   2.354   5.286
13821TIP3    H141340   8.236   2.444   5.324
13821TIP3    H241341   8.332   2.334   5.295
13822TIP3   OH241342   9.486   2.848   6.187
13822TIP3    H141343   9.389   2.840   6.181
13822TIP3    H241344   9.512   2.831   6.095
13823TIP3   OH241345   9.132   3.051   5.568
13823TIP3    H141346   9.063   2.984   5.583
13823TIP3    H241347   9.209   3.010   5.615
13824TIP3   OH241348   7.853   3.276   5.041
13824TIP3    H141349   7.920   3.345   5.051
13824TIP3    H241350   7.899   3.220   4.974
13825TIP3   OH241351   7.800   2.548   5.173
13825TIP3    H141352   7.798   2.646   5.167
13825TIP3    H241353   7.713   2.524   5.139
13826TIP3   OH241354   9.106   3.991   5.512
13826TIP3    H141355   9.070   4.043   5.437
13826TIP3    H241356   9.202   4.013   5.503
13827TIP3   OH241357   8.184   2.268   6.050
13827TIP3    H141358   8.154   2.234   5.963
13827TIP3    H241359   8.175   2.189   6.107
13828TIP3   OH241360   7.728   3.489   5.431
13828TIP3    H141361   7.653   3.519   5.485
13828TIP3    H241362   7.704   3.527   5.344
13829TIP3   OH241363   7.880   4.025   6.502
13829TIP3    H141364   7.967   4.026   6.548
13829TIP3    H241365   7.862   3.930   6.499
13830TIP3   OH241366   8.363   3.995   6.545
13830TIP3    H141367   8.457   3.978   6.556
13830TIP3    H241368   8.342   3.937   6.469
13831TIP3   OH241369   8.347   3.568   4.680
13831TIP3    H141370   8.291   3.494   4.712
13831TIP3    H241371   8.421   3.519   4.640
13832TIP3   OH241372   9.002   3.896   6.276
13832TIP3    H141373   8.995   3.827   6.345
13832TIP3    H241374   9.081   3.947   6.305
13833TIP3   OH241375   8.780   3.610   4.584
13833TIP3    H141376   8.831   3.550   4.641
13833TIP3    H241377   8.835   3.613   4.503
13834TIP3   OH241378   8.012   3.433   6.701
13834TIP3    H141379   8.030   3.338   6.705
13834TIP3    H241380   7.924   3.435   6.657
13835TIP3   OH241381   7.988   3.086   4.893
13835TIP3    H141382   8.042   3.049   4.965
13835TIP3    H241383   8.056   3.090   4.822
13836TIP3   OH241384   8.619   3.516   6.475
13836TIP3    H141385   8.582   3.531   6.386
13836TIP3    H241386   8.654   3.424   6.469
13837TIP3   OH241387   8.491   3.281   4.700
13837TIP3    H141388   8.499   3.294   4.797
13837TIP3    H241389   8.495   3.183   4.695
13838TIP3   OH241390   9.105   3.521   6.079
13838TIP3    H141391   9.179   3.565   6.032
13838TIP3    H241392   9.038   3.591   6.071
13839TIP3   OH241393   8.130   3.164   6.681
13839TIP3    H141394   8.207   3.108   6.662
13839TIP3    H241395   8.154   3.198   6.769
13840TIP3   OH241396   8.199   2.988   5.117
13840TIP3    H141397   8.173   2.945   5.200
13840TIP3    H241398   8.234   2.912   5.065
13841TIP3   OH241399   8.462   3.048   6.340
13841TIP3    H141400   8.389   3.114   6.347
13841TIP3    H241401   8.513   3.083   6.264
13842TIP3   OH241402   8.297   2.781   4.957
13842TIP3    H141403   8.272   2.780   4.863
13842TIP3    H241404   8.395   2.787   4.950
13843TIP3   OH241405   8.981   3.453   6.477
13843TIP3    H141406   9.067   3.440   6.434
13843TIP3    H241407   8.984   3.386   6.547
13844TIP3   OH241408   9.117   3.114   4.618
13844TIP3    H141409   9.099   3.064   4.537
13844TIP3    H241410   9.087   3.204   4.590
13845TIP3   OH241411   8.586   2.838   6.474
13845TIP3    H141412   8.590   2.758   6.418
13845TIP3    H241413   8.545   2.904   6.413
13846TIP3   OH241414   8.591   2.626   6.278
13846TIP3    H141415   8.620   2.667   6.193
13846TIP3    H241416   8.498   2.603   6.258
13847TIP3   OH241417   8.619   3.160   6.150
13847TIP3    H141418   8.704   3.164   6.103
13847TIP3    H241419   8.568   3.231   6.106
13848TIP3   OH241420   9.206   3.132   6.534
13848TIP3    H141421   9.253   3.047   6.538
13848TIP3    H241422   9.277   3.189   6.499
13849TIP3   OH241423   9.252   3.382   6.262
13849TIP3    H141424   9.197   3.438   6.202
13849TIP3    H241425   9.341   3.400   6.229
13850TIP3   OH241426   8.462   2.957   6.698
13850TIP3    H141427   8.396   2.886   6.712
13850TIP3    H241428   8.501   2.929   6.613
13851TIP3   OH241429   8.724   2.391   6.343
13851TIP3    H141430   8.676   2.474   6.321
13851TIP3    H241431   8.654   2.324   6.331
13852TIP3   OH241432   8.849   2.898   6.561
13852TIP3    H141433   8.844   2.886   6.657
13852TIP3    H241434   8.759   2.871   6.535
13853TIP3   OH241435   9.090   2.847   6.415
13853TIP3    H141436   9.015   2.845   6.477
13853TIP3    H241437   9.164   2.815   6.471
13854TIP3   OH241438   9.312   2.783   6.569
13854TIP3    H141439   9.328   2.688   6.587
13854TIP3    H241440   9.313   2.823   6.658
13855TIP3   OH241441   8.305   2.735   6.753
13855TIP3    H141442   8.316   2.645   6.716
13855TIP3    H241443   8.342   2.722   6.842
13856TIP3   OH241444   8.818   2.400   6.601
13856TIP3    H141445   8.887   2.331   6.597
13856TIP3    H241446   8.780   2.393   6.511
13857TIP3   OH241447   8.883   2.614   6.761
13857TIP3    H141448   8.861   2.543   6.696
13857TIP3    H241449   8.806   2.674   6.753
13858TIP3   OH241450   8.108   3.868   4.872
13858TIP3    H141451   8.201   3.848   4.849
13858TIP3    H241452   8.076   3.895   4.784
13859TIP3   OH241453   7.585   3.227   5.076
13859TIP3    H141454   7.680   3.249   5.064
13859TIP3    H241455   7.581   3.137   5.036
13860TIP3   OH241456   7.500   3.838   5.489
13860TIP3    H141457   7.431   3.777   5.455
13860TIP3    H241458   7.543   3.782   5.557
13861TIP3   OH241459   7.635   3.693   5.677
13861TIP3    H141460   7.624   3.617   5.737
13861TIP3    H241461   7.686   3.753   5.735
13862TIP3   OH241462   9.356   4.093   5.477
13862TIP3    H141463   9.386   4.124   5.565
13862TIP3    H241464   9.420   4.135   5.419
13863TIP3   OH241465   9.394   4.115   5.758
13863TIP3    H141466   9.351   4.026   5.753
13863TIP3    H241467   9.468   4.093   5.817
13864TIP3   OH241468   9.431   3.792   6.329
13864TIP3    H141469   9.364   3.797   6.399
13864TIP3    H241470   9.476   3.878   6.336
13865TIP3   OH241471   9.244   3.306   4.952
13865TIP3    H141472   9.315   3.369   4.926
13865TIP3    H241473   9.288   3.261   5.027
13866TIP3   OH241474   9.365   3.169   5.152
13866TIP3    H141475   9.304   3.122   5.213
13866TIP3    H241476   9.432   3.206   5.213
13867TIP3   OH241477   9.418   3.555   5.574
13867TIP3    H141478   9.488   3.500   5.535
13867TIP3    H241479   9.427   3.638   5.524
13868TIP3   OH241480   9.269   3.872   5.771
13868TIP3    H141481   9.210   3.893   5.845
13868TIP3    H241482   9.224   3.799   5.727
13869TIP3   OH241483   9.324   3.083   4.799
13869TIP3    H141484   9.249   3.078   4.737
13869TIP3    H241485   9.294   3.155   4.857
13870TIP3   OH241486   9.172   2.752   4.770
13870TIP3    H141487   9.171   2.788   4.681
13870TIP3    H241488   9.154   2.657   4.754
13871TIP3   OH241489   9.191   3.021   5.302
13871TIP3    H141490   9.207   2.925   5.297
13871TIP3    H241491   9.181   3.035   5.399
13872TIP3   OH241492   7.823   3.100   6.047
13872TIP3    H141493   7.823   3.069   5.954
13872TIP3    H241494   7.920   3.100   6.066
13873TIP3   OH241495   9.671   3.266   6.251
13873TIP3    H141496   9.589   3.214   6.244
13873TIP3    H241497   9.734   3.208   6.205
13874TIP3   OH241498   9.131   2.484   4.748
13874TIP3    H141499   9.210   2.450   4.796
13874TIP3    H241500   9.061   2.422   4.772
13875TIP3   OH241501   9.193   2.740   5.196
13875TIP3    H141502   9.234   2.652   5.213
13875TIP3    H241503   9.250   2.772   5.123
13876TIP3   OH241504   9.345   2.937   5.682
13876TIP3    H141505   9.430   2.963   5.641
13876TIP3    H241506   9.368   2.945   5.777
13877TIP3   OH241507   9.421   3.057   5.931
13877TIP3    H141508   9.341   3.095   5.973
13877TIP3    H241509   9.456   3.133   5.880
13878TIP3   OH241510   8.038   2.785   6.722
13878TIP3    H141511   8.136   2.779   6.724
13878TIP3    H241512   8.015   2.701   6.765
13879TIP3   OH241513   9.298   2.490   5.243
13879TIP3    H141514   9.338   2.475   5.331
13879TIP3    H241515   9.239   2.412   5.236
13880TIP3   OH241516   8.000   2.476   6.056
13880TIP3    H141517   8.062   2.401   6.066
13880TIP3    H241518   8.063   2.551   6.050
13881TIP3   OH241519   7.804   2.752   6.127
13881TIP3    H141520   7.854   2.742   6.044
13881TIP3    H241521   7.838   2.836   6.160
13882TIP3   OH241522   9.731   2.777   6.309
13882TIP3    H141523   9.651   2.830   6.327
13882TIP3    H241524   9.698   2.724   6.234
13883TIP3   OH241525   9.381   2.412   4.857
13883TIP3    H141526   9.427   2.327   4.838
13883TIP3    H241527   9.434   2.472   4.801
13884TIP3   OH241528   7.787   2.256   5.630
13884TIP3    H141529   7.693   2.253   5.654
13884TIP3    H241530   7.786   2.312   5.550
13885TIP3   OH241531   8.927   3.939   5.140
13885TIP3    H141532   8.986   3.928   5.063
13885TIP3    H241533   8.975   4.007   5.191
13886TIP3   OH241534   8.007   2.336   6.444
13886TIP3    H141535   7.957   2.329   6.527
13886TIP3    H241536   7.939   2.372   6.384
13887TIP3   OH241537   8.047   3.760   6.520
13887TIP3    H141538   7.955   3.730   6.505
13887TIP3    H241539   8.059   3.742   6.614
13888TIP3   OH241540   8.224   3.789   6.066
13888TIP3    H141541   8.177   3.867   6.028
13888TIP3    H241542   8.311   3.804   6.024
13889TIP3   OH241543   8.672   4.040   6.205
13889TIP3    H141544   8.714   4.039   6.294
13889TIP3    H241545   8.740   4.088   6.154
13890TIP3   OH241546   8.854   4.186   6.061
13890TIP3    H141547   8.930   4.137   6.025
13890TIP3    H241548   8.900   4.246   6.123
13891TIP3   OH241549   9.636   2.550   6.170
13891TIP3    H141550   9.551   2.555   6.124
13891TIP3    H241551   9.671   2.465   6.138
13892TIP3   OH241552   7.902   4.049   6.090
13892TIP3    H141553   7.813   4.084   6.069
13892TIP3    H241554   7.914   4.085   6.179
13893TIP3   OH241555   8.137   4.026   5.946
13893TIP3    H141556   8.052   4.040   5.993
13893TIP3    H241557   8.117   4.063   5.858
13894TIP3   OH241558   8.562   4.060   5.747
13894TIP3    H141559   8.494   4.086   5.683
13894TIP3    H241560   8.581   4.146   5.792
13895TIP3   OH241561   8.833   3.989   5.782
13895TIP3    H141562   8.739   4.013   5.770
13895TIP3    H241563   8.877   4.073   5.760
13896TIP3   OH241564   9.035   4.186   5.714
13896TIP3    H141565   9.025   4.275   5.671
13896TIP3    H241566   9.067   4.132   5.640
13897TIP3   OH241567   7.814   3.844   5.836
13897TIP3    H141568   7.840   3.820   5.928
13897TIP3    H241569   7.887   3.800   5.787
13898TIP3   OH241570   8.007   3.714   5.690
13898TIP3    H141571   8.022   3.630   5.740
13898TIP3    H241572   8.098   3.751   5.690
13899TIP3   OH241573   8.273   3.809   5.694
13899TIP3    H141574   8.304   3.716   5.689
13899TIP3    H241575   8.316   3.834   5.778
13900TIP3   OH241576   8.841   2.463   5.771
13900TIP3    H141577   8.805   2.395   5.831
13900TIP3    H241578   8.920   2.419   5.735
13901TIP3   OH241579   9.373   2.352   5.707
13901TIP3    H141580   9.407   2.400   5.629
13901TIP3    H241581   9.277   2.365   5.698
13902TIP3   OH241582   9.460   2.445   5.469
13902TIP3    H141583   9.544   2.400   5.447
13902TIP3    H241584   9.486   2.540   5.458
13903TIP3   OH241585   8.098   2.176   5.801
13903TIP3    H141586   8.007   2.141   5.801
13903TIP3    H241587   8.149   2.092   5.798
13904TIP3   OH241588   7.878   2.045   5.445
13904TIP3    H141589   7.914   2.102   5.376
13904TIP3    H241590   7.854   2.109   5.515
13905TIP3   OH241591   8.537   2.213   5.680
13905TIP3    H141592   8.598   2.260   5.622
13905TIP3    H241593   8.566   2.244   5.767
13906TIP3   OH241594   9.083   2.354   5.667
13906TIP3    H141595   9.098   2.316   5.579
13906TIP3    H241596   9.072   2.272   5.721
13907TIP3   OH241597   9.109   2.279   5.229
13907TIP3    H141598   9.020   2.319   5.242
13907TIP3    H241599   9.098   2.194   5.275
13908TIP3   OH241600   7.603   3.613   5.226
13908TIP3    H141601   7.518   3.580   5.192
13908TIP3    H241602   7.589   3.708   5.215
13909TIP3   OH241603   8.001   2.208   5.209
13909TIP3    H141604   8.050   2.143   5.156
13909TIP3    H241605   8.074   2.260   5.247
13910TIP3   OH241606   8.514   2.379   5.310
13910TIP3    H141607   8.574   2.332   5.370
13910TIP3    H241608   8.536   2.472   5.336
13911TIP3   OH241609   8.369   3.810   4.807
13911TIP3    H141610   8.460   3.828   4.774
13911TIP3    H241611   8.350   3.731   4.750
13912TIP3   OH241612   9.084   3.920   4.907
13912TIP3    H141613   9.076   3.823   4.889
13912TIP3    H241614   9.047   3.956   4.824
13913TIP3   OH241615   8.305   2.456   6.690
13913TIP3    H141616   8.274   2.385   6.749
13913TIP3    H241617   8.400   2.458   6.715
13914TIP3   OH241618   8.554   2.454   6.809
13914TIP3    H141619   8.639   2.431   6.769
13914TIP3    H241620   8.544   2.382   6.875
13915TIP3   OH241621   7.680   3.645   4.868
13915TIP3    H141622   7.673   3.664   4.963
13915TIP3    H241623   7.767   3.601   4.861
13916TIP3   OH241624   9.376   2.514   6.599
13916TIP3    H141625   9.400   2.483   6.689
13916TIP3    H241626   9.463   2.512   6.553
13917TIP3   OH241627   9.317   4.069   6.093
13917TIP3    H141628   9.238   4.038   6.046
13917TIP3    H241629   9.301   4.166   6.093
13918TIP3   OH241630   9.539   2.948   5.130
13918TIP3    H141631   9.476   3.022   5.128
13918TIP3    H241632   9.490   2.882   5.078
13919TIP3   OH241633   9.596   3.239   5.278
13919TIP3    H141634   9.630   3.163   5.328
13919TIP3    H241635   9.642   3.227   5.193
13920TIP3   OH241636   9.445   3.475   4.871
13920TIP3    H141637   9.442   3.476   4.774
13920TIP3    H241638   9.484   3.562   4.891
13921TIP3   OH241639   9.668   3.557   5.743
13921TIP3    H141640   9.573   3.548   5.733
13921TIP3    H241641   9.678   3.550   5.842
13922TIP3   OH241642   9.500   3.789   5.426
13922TIP3    H141643   9.597   3.790   5.417
13922TIP3    H241644   9.486   3.870   5.477
13923TIP3   OH241645   9.628   4.013   4.966
13923TIP3    H141646   9.691   4.007   5.042
13923TIP3    H241647   9.588   3.925   4.968
13924TIP3   OH241648   9.788   3.799   5.794
13924TIP3    H141649   9.791   3.778   5.891
13924TIP3    H241650   9.728   3.726   5.771
13925TIP3   OH241651   9.556   2.687   5.398
13925TIP3    H141652   9.621   2.734   5.451
13925TIP3    H241653   9.574   2.721   5.308
13926TIP3   OH241654   9.524   3.154   4.620
13926TIP3    H141655   9.599   3.132   4.678
13926TIP3    H241656   9.450   3.125   4.677
13927TIP3   OH241657   9.682   3.977   5.574
13927TIP3    H141658   9.724   3.905   5.625
13927TIP3    H241659   9.711   4.054   5.625
13928TIP3   OH241660   9.522   3.742   4.921
13928TIP3    H141661   9.441   3.773   4.964
13928TIP3    H241662   9.510   3.783   4.832
13929TIP3   OH241663   9.672   4.276   5.988
13929TIP3    H141664   9.762   4.264   6.024
13929TIP3    H241665   9.646   4.182   5.981
13930TIP3   OH241666   9.376   3.488   4.556
13930TIP3    H141667   9.473   3.483   4.565
13930TIP3    H241668   9.360   3.403   4.509
13931TIP3   OH241669   9.293   4.094   4.976
13931TIP3    H141670   9.225   4.030   4.946
13931TIP3    H241671   9.340   4.040   5.043
13932TIP3   OH241672   9.421   3.948   5.171
13932TIP3    H141673   9.421   3.872   5.232
13932TIP3    H241674   9.479   4.010   5.220
13933TIP3   OH241675   9.631   3.350   5.531
13933TIP3    H141676   9.621   3.326   5.437
13933TIP3    H241677   9.715   3.399   5.531
13934TIP3   OH241678   9.816   3.029   6.181
13934TIP3    H141679   9.905   3.070   6.193
13934TIP3    H241680   9.816   2.961   6.251
13935TIP3   OH241681   9.593   3.023   5.576
13935TIP3    H141682   9.660   2.954   5.592
13935TIP3    H241683   9.619   3.095   5.635
13936TIP3   OH241684   9.546   2.560   5.100
13936TIP3    H141685   9.451   2.545   5.110
13936TIP3    H241686   9.554   2.578   5.006
13937TIP3   OH241687   9.834   4.029   6.029
13937TIP3    H141688   9.761   3.981   5.987
13937TIP3    H241689   9.841   3.984   6.114
13938TIP3   OH241690   9.689   4.300   5.578
13938TIP3    H141691   9.603   4.340   5.556
13938TIP3    H241692   9.706   4.343   5.663
13939TIP3   OH241693   9.937   4.284   5.442
13939TIP3    H141694   9.846   4.292   5.478
13939TIP3    H241695   9.928   4.319   5.352
13940TIP3   OH241696   9.609   4.096   5.321
13940TIP3    H141697   9.637   4.078   5.414
13940TIP3    H241698   9.688   4.063   5.273
13941TIP3   OH241699   9.815   3.990   5.164
13941TIP3    H141700   9.834   3.896   5.183
13941TIP3    H241701   9.904   4.030   5.177
13942TIP3   OH241702   9.396   3.868   4.716
13942TIP3    H141703   9.311   3.839   4.678
13942TIP3    H241704   9.387   3.964   4.707
13943TIP3   OH241705   9.494   3.915   4.365
13943TIP3    H141706   9.466   3.930   4.457
13943TIP3    H241707   9.551   3.837   4.374
13944TIP3   OH241708   1.241   3.968   7.060
13944TIP3    H141709   1.216   4.061   7.044
13944TIP3    H241710   1.161   3.923   7.029
13945TIP3   OH241711   1.233   3.970   7.439
13945TIP3    H141712   1.268   3.945   7.527
13945TIP3    H241713   1.195   3.886   7.408
13946TIP3   OH241714   0.537   3.867   7.800
13946TIP3    H141715   0.565   3.799   7.864
13946TIP3    H241716   0.613   3.926   7.802
13947TIP3   OH241717   1.479   4.273   7.123
13947TIP3    H141718   1.475   4.202   7.189
13947TIP3    H241719   1.513   4.347   7.176
13948TIP3   OH241720   0.517   4.274   7.530
13948TIP3    H141721   0.503   4.177   7.535
13948TIP3    H241722   0.614   4.278   7.530
13949TIP3   OH241723   0.173   3.478   7.311
13949TIP3    H141724   0.174   3.570   7.343
13949TIP3    H241725   0.162   3.429   7.395
13950TIP3   OH241726   0.282   3.761   7.479
13950TIP3    H141727   0.332   3.690   7.524
13950TIP3    H241728   0.346   3.796   7.416
13951TIP3   OH241729   1.129   4.733   7.138
13951TIP3    H141730   1.177   4.663   7.089
13951TIP3    H241731   1.130   4.698   7.227
13952TIP3   OH241732   1.040   4.196   7.487
13952TIP3    H141733   1.079   4.118   7.443
13952TIP3    H241734   1.123   4.241   7.511
13953TIP3   OH241735   2.051   3.517   7.486
13953TIP3    H141736   2.069   3.601   7.535
13953TIP3    H241737   2.068   3.546   7.395
13954TIP3   OH241738   1.451   3.698   7.523
13954TIP3    H141739   1.495   3.613   7.543
13954TIP3    H241740   1.421   3.682   7.431
13955TIP3   OH241741   0.786   3.357   7.488
13955TIP3    H141742   0.768   3.430   7.426
13955TIP3    H241743   0.738   3.284   7.444
13956TIP3   OH241744   1.481   3.447   7.110
13956TIP3    H141745   1.554   3.431   7.175
13956TIP3    H241746   1.532   3.483   7.036
13957TIP3   OH241747   0.423   3.558   7.589
13957TIP3    H141748   0.501   3.541   7.646
13957TIP3    H241749   0.444   3.499   7.513
13958TIP3   OH241750   0.865   3.758   7.381
13958TIP3    H141751   0.958   3.732   7.398
13958TIP3    H241752   0.825   3.673   7.352
13959TIP3   OH241753   2.107   3.726   7.660
13959TIP3    H141754   2.091   3.812   7.611
13959TIP3    H241755   2.142   3.765   7.742
13960TIP3   OH241756   0.785   3.339   7.920
13960TIP3    H141757   0.725   3.378   7.853
13960TIP3    H241758   0.734   3.359   8.002
13961TIP3   OH241759   1.134   4.191   6.930
13961TIP3    H141760   1.091   4.169   6.847
13961TIP3    H241761   1.091   4.276   6.952
13962TIP3   OH241762   0.892   4.114   7.717
13962TIP3    H141763   0.828   4.178   7.756
13962TIP3    H241764   0.936   4.168   7.648
13963TIP3   OH241765   1.694   3.449   7.280
13963TIP3    H141766   1.686   3.402   7.364
13963TIP3    H241767   1.749   3.525   7.305
13964TIP3   OH241768   0.655   3.456   7.707
13964TIP3    H141769   0.716   3.530   7.729
13964TIP3    H241770   0.704   3.414   7.633
13965TIP3   OH241771   0.720   4.306   7.810
13965TIP3    H141772   0.696   4.393   7.774
13965TIP3    H241773   0.643   4.292   7.870
13966TIP3   OH241774   0.168   4.020   6.998
13966TIP3    H141775   0.082   4.050   6.964
13966TIP3    H241776   0.179   4.076   7.076
13967TIP3   OH241777   1.551   4.516   7.288
13967TIP3    H141778   1.462   4.506   7.327
13967TIP3    H241779   1.544   4.604   7.246
13968TIP3   OH241780   1.844   3.410   7.649
13968TIP3    H141781   1.758   3.447   7.624
13968TIP3    H241782   1.904   3.447   7.580
13969TIP3   OH241783   1.144   3.061   7.633
13969TIP3    H141784   1.131   2.966   7.650
13969TIP3    H241785   1.066   3.099   7.680
13970TIP3   OH241786   1.256   4.563   6.964
13970TIP3    H141787   1.307   4.481   6.944
13970TIP3    H241788   1.316   4.629   6.922
13971TIP3   OH241789   1.398   4.347   6.869
13971TIP3    H141790   1.362   4.267   6.831
13971TIP3    H241791   1.433   4.314   6.955
13972TIP3   OH241792   1.782   4.435   7.638
13972TIP3    H141793   1.766   4.355   7.581
13972TIP3    H241794   1.768   4.506   7.573
13973TIP3   OH241795   1.069   3.820   6.888
13973TIP3    H141796   0.990   3.873   6.865
13973TIP3    H241797   1.119   3.820   6.804
13974TIP3   OH241798   1.030   3.606   6.607
13974TIP3    H141799   1.098   3.655   6.658
13974TIP3    H241800   1.088   3.542   6.561
13975TIP3   OH241801   1.418   3.903   6.863
13975TIP3    H141802   1.364   3.929   6.941
13975TIP3    H241803   1.502   3.877   6.906
13976TIP3   OH241804   1.646   3.937   7.788
13976TIP3    H141805   1.657   4.028   7.821
13976TIP3    H241806   1.577   3.949   7.722
13977TIP3   OH241807   0.653   3.903   7.278
13977TIP3    H141808   0.612   3.844   7.211
13977TIP3    H241809   0.730   3.850   7.306
13978TIP3   OH241810   0.786   4.318   7.424
13978TIP3    H141811   0.764   4.266   7.346
13978TIP3    H241812   0.876   4.284   7.445
13979TIP3   OH241813   0.792   3.872   7.631
13979TIP3    H141814   0.825   3.856   7.541
13979TIP3    H241815   0.833   3.959   7.654
13980TIP3   OH241816   1.308   4.512   7.409
13980TIP3    H141817   1.300   4.590   7.467
13980TIP3    H241818   1.299   4.437   7.470
13981TIP3   OH241819   0.924   4.431   7.956
13981TIP3    H141820   0.866   4.494   8.003
13981TIP3    H241821   0.858   4.377   7.908
13982TIP3   OH241822   1.261   3.762   6.688
13982TIP3    H141823   1.320   3.820   6.741
13982TIP3    H241824   1.287   3.788   6.596
13983TIP3   OH241825   0.689   3.991   8.050
13983TIP3    H141826   0.691   4.078   8.093
13983TIP3    H241827   0.594   3.967   8.064
13984TIP3   OH241828   1.001   4.444   6.961
13984TIP3    H141829   1.080   4.496   6.983
13984TIP3    H241830   0.939   4.510   6.928
13985TIP3   OH241831   0.723   4.603   8.044
13985TIP3    H141832   0.686   4.595   7.953
13985TIP3    H241833   0.651   4.565   8.099
13986TIP3   OH241834   1.776   3.005   6.735
13986TIP3    H141835   1.695   3.024   6.787
13986TIP3    H241836   1.787   3.089   6.686
13987TIP3   OH241837   0.521   3.743   7.085
13987TIP3    H141838   0.460   3.786   7.023
13987TIP3    H241839   0.476   3.659   7.102
13988TIP3   OH241840   1.573   4.371   6.284
13988TIP3    H141841   1.582   4.468   6.270
13988TIP3    H241842   1.666   4.342   6.272
13989TIP3   OH241843   0.302   4.143   7.985
13989TIP3    H141844   0.253   4.099   7.914
13989TIP3    H241845   0.338   4.065   8.032
13990TIP3   OH241846   2.017   4.772   7.676
13990TIP3    H141847   2.019   4.675   7.688
13990TIP3    H241848   1.934   4.795   7.723
13991TIP3   OH241849   1.123   4.561   7.812
13991TIP3    H141850   1.123   4.653   7.846
13991TIP3    H241851   1.052   4.521   7.868
13992TIP3   OH241852   0.879   4.688   6.765
13992TIP3    H141853   0.838   4.670   6.679
13992TIP3    H241854   0.851   4.780   6.785
13993TIP3   OH241855   0.360   4.526   7.120
13993TIP3    H141856   0.382   4.503   7.213
13993TIP3    H241857   0.275   4.482   7.103
13994TIP3   OH241858   1.084   4.588   6.407
13994TIP3    H141859   1.144   4.519   6.370
13994TIP3    H241860   1.120   4.598   6.498
13995TIP3   OH241861   1.133   4.638   6.678
13995TIP3    H141862   1.046   4.645   6.722
13995TIP3    H241863   1.187   4.596   6.747
13996TIP3   OH241864   1.905   3.903   7.948
13996TIP3    H141865   1.831   3.919   7.887
13996TIP3    H241866   1.918   3.807   7.938
13997TIP3   OH241867   0.511   4.317   7.979
13997TIP3    H141868   0.556   4.309   8.065
13997TIP3    H241869   0.439   4.251   7.987
13998TIP3   OH241870   0.905   3.135   7.762
13998TIP3    H141871   0.815   3.103   7.739
13998TIP3    H241872   0.880   3.219   7.805
13999TIP3   OH241873   1.436   3.251   7.957
13999TIP3    H141874   1.503   3.225   8.023
13999TIP3    H241875   1.351   3.232   8.002
14000TIP3   OH241876   1.676   3.675   7.871
14000TIP3    H141877   1.630   3.677   7.957
14000TIP3    H241878   1.659   3.767   7.838
14001TIP3   OH241879   1.333   3.811   6.431
14001TIP3    H141880   1.304   3.784   6.342
14001TIP3    H241881   1.414   3.861   6.408
14002TIP3   OH241882   1.047   3.188   6.732
14002TIP3    H141883   1.018   3.186   6.826
14002TIP3    H241884   1.013   3.102   6.703
14003TIP3   OH241885   0.835   3.650   7.781
14003TIP3    H141886   0.784   3.672   7.862
14003TIP3    H241887   0.820   3.731   7.727
14004TIP3   OH241888   0.719   3.535   7.296
14004TIP3    H141889   0.625   3.512   7.311
14004TIP3    H241890   0.733   3.496   7.207
14005TIP3   OH241891   1.208   3.622   7.021
14005TIP3    H141892   1.155   3.694   6.981
14005TIP3    H241893   1.264   3.595   6.945
14006TIP3   OH241894   1.382   3.904   8.111
14006TIP3    H141895   1.362   3.830   8.173
14006TIP3    H241896   1.477   3.917   8.128
14007TIP3   OH241897   1.366   3.651   7.264
14007TIP3    H141898   1.309   3.685   7.192
14007TIP3    H241899   1.398   3.569   7.221
14008TIP3   OH241900   0.657   3.681   7.989
14008TIP3    H141901   0.673   3.747   8.058
14008TIP3    H241902   0.643   3.600   8.040
14009TIP3   OH241903   0.701   3.155   6.700
14009TIP3    H141904   0.698   3.152   6.797
14009TIP3    H241905   0.622   3.209   6.680
14010TIP3   OH241906   0.244   3.224   7.538
14010TIP3    H141907   0.302   3.244   7.614
14010TIP3    H241908   0.289   3.147   7.502
14011TIP3   OH241909   0.233   3.209   7.105
14011TIP3    H141910   0.270   3.227   7.016
14011TIP3    H241911   0.185   3.290   7.121
14012TIP3   OH241912   1.359   3.898   7.680
14012TIP3    H141913   1.401   3.827   7.626
14012TIP3    H241914   1.345   3.851   7.764
14013TIP3   OH241915   1.043   3.359   7.357
14013TIP3    H141916   0.961   3.357   7.411
14013TIP3    H241917   1.112   3.363   7.425
14014TIP3   OH241918   0.477   3.412   7.358
14014TIP3    H141919   0.386   3.402   7.327
14014TIP3    H241920   0.514   3.322   7.346
14015TIP3   OH241921   0.752   3.411   7.053
14015TIP3    H141922   0.846   3.427   7.035
14015TIP3    H241923   0.707   3.437   6.969
14016TIP3   OH241924   1.538   3.434   7.557
14016TIP3    H141925   1.503   3.447   7.648
14016TIP3    H241926   1.472   3.373   7.520
14017TIP3   OH241927   0.587   3.445   6.831
14017TIP3    H141928   0.517   3.400   6.781
14017TIP3    H241929   0.641   3.482   6.758
14018TIP3   OH241930   1.705   5.125   7.777
14018TIP3    H141931   1.705   5.146   7.682
14018TIP3    H241932   1.785   5.172   7.808
14019TIP3   OH241933   0.673   4.229   8.197
14019TIP3    H141934   0.751   4.264   8.245
14019TIP3    H241935   0.605   4.240   8.267
14020TIP3   OH241936   1.129   3.684   7.452
14020TIP3    H141937   1.204   3.648   7.402
14020TIP3    H241938   1.144   3.648   7.541
14021TIP3   OH241939   0.651   3.178   7.331
14021TIP3    H141940   0.620   3.097   7.376
14021TIP3    H241941   0.708   3.141   7.262
14022TIP3   OH241942   1.106   3.580   7.749
14022TIP3    H141943   1.017   3.620   7.759
14022TIP3    H241944   1.164   3.642   7.797
14023TIP3   OH241945   0.842   3.976   6.837
14023TIP3    H141946   0.770   3.911   6.828
14023TIP3    H241947   0.826   4.009   6.929
14024TIP3   OH241948   1.721   4.230   7.479
14024TIP3    H141949   1.777   4.246   7.401
14024TIP3    H241950   1.651   4.172   7.443
14025TIP3   OH241951   1.301   3.290   6.696
14025TIP3    H141952   1.204   3.276   6.707
14025TIP3    H241953   1.313   3.383   6.723
14026TIP3   OH241954   1.240   4.292   7.836
14026TIP3    H141955   1.264   4.270   7.927
14026TIP3    H241956   1.203   4.381   7.844
14027TIP3   OH241957   1.372   3.533   6.801
14027TIP3    H141958   1.468   3.539   6.820
14027TIP3    H241959   1.355   3.614   6.749
14028TIP3   OH241960   0.535   3.996   7.515
14028TIP3    H141961   0.577   3.966   7.432
14028TIP3    H241962   0.569   3.933   7.580
14029TIP3   OH241963   0.987   4.124   6.657
14029TIP3    H141964   0.941   4.211   6.665
14029TIP3    H241965   0.934   4.069   6.718
14030TIP3   OH241966   0.438   3.921   8.129
14030TIP3    H141967   0.449   3.910   8.225
14030TIP3    H241968   0.348   3.884   8.114
14031TIP3   OH241969   1.138   4.030   8.150
14031TIP3    H141970   1.080   3.973   8.097
14031TIP3    H241971   1.226   3.998   8.121
14032TIP3   OH241972   1.402   4.556   7.729
14032TIP3    H141973   1.306   4.552   7.743
14032TIP3    H241974   1.430   4.606   7.809
14033TIP3   OH241975   1.814   3.622   6.641
14033TIP3    H141976   1.751   3.577   6.580
14033TIP3    H241977   1.811   3.711   6.599
14034TIP3   OH241978   2.036   4.489   7.714
14034TIP3    H141979   1.938   4.478   7.712
14034TIP3    H241980   2.059   4.441   7.631
14035TIP3   OH241981   1.508   4.444   6.547
14035TIP3    H141982   1.491   4.373   6.610
14035TIP3    H241983   1.525   4.397   6.464
14036TIP3   OH241984   1.504   4.071   7.384
14036TIP3    H141985   1.412   4.044   7.397
14036TIP3    H241986   1.542   3.992   7.341
14037TIP3   OH241987   0.637   4.298   7.135
14037TIP3    H141988   0.643   4.381   7.083
14037TIP3    H241989   0.543   4.293   7.153
14038TIP3   OH241990   0.197   3.608   6.847
14038TIP3    H141991   0.265   3.677   6.855
14038TIP3    H241992   0.127   3.650   6.900
14039TIP3   OH241993   0.777   4.066   7.084
14039TIP3    H141994   0.741   4.156   7.102
14039TIP3    H241995   0.741   4.016   7.160
14040TIP3   OH241996   0.904   4.646   7.609
14040TIP3    H141997   0.948   4.717   7.558
14040TIP3    H241998   0.980   4.610   7.658
14041TIP3   OH241999   0.586   4.543   6.979
14041TIP3    H142000   0.500   4.544   7.027
14041TIP3    H242001   0.609   4.638   6.985
14042TIP3   OH242002   1.296   4.280   7.566
14042TIP3    H142003   1.288   4.275   7.664
14042TIP3    H242004   1.378   4.230   7.551
14043TIP3   OH242005   1.265   4.168   6.451
14043TIP3    H142006   1.320   4.145   6.529
14043TIP3    H242007   1.177   4.145   6.485
14044TIP3   OH242008   1.540   4.816   7.623
14044TIP3    H142009   1.465   4.756   7.614
14044TIP3    H242010   1.526   4.878   7.548
14045TIP3   OH242011   1.607   4.646   6.271
14045TIP3    H142012   1.646   4.716   6.216
14045TIP3    H242013   1.528   4.694   6.303
14046TIP3   OH242014   0.636   3.420   8.143
14046TIP3    H142015   0.544   3.434   8.171
14046TIP3    H242016   0.667   3.357   8.211
14047TIP3   OH242017   1.426   4.104   6.668
14047TIP3    H142018   1.417   4.038   6.739
14047TIP3    H242019   1.523   4.103   6.655
14048TIP3   OH242020   0.373   4.528   7.761
14048TIP3    H142021   0.404   4.437   7.774
14048TIP3    H242022   0.379   4.563   7.851
14049TIP3   OH242023   0.632   4.152   6.449
14049TIP3    H142024   0.650   4.061   6.420
14049TIP3    H242025   0.616   4.139   6.545
14050TIP3   OH242026   0.582   4.156   6.724
14050TIP3    H142027   0.653   4.130   6.784
14050TIP3    H242028   0.587   4.254   6.729
14051TIP3   OH242029   0.338   3.837   6.905
14051TIP3    H142030   0.273   3.891   6.955
14051TIP3    H242031   0.360   3.902   6.837
14052TIP3   OH242032   1.462   3.487   7.815
14052TIP3    H142033   1.541   3.529   7.852
14052TIP3    H242034   1.450   3.408   7.871
14053TIP3   OH242035   1.341   3.241   6.980
14053TIP3    H142036   1.330   3.267   6.886
14053TIP3    H242037   1.383   3.322   7.018
14054TIP3   OH242038   0.843   4.353   6.670
14054TIP3    H142039   0.758   4.384   6.706
14054TIP3    H242040   0.864   4.426   6.609
14055TIP3   OH242041   1.033   3.417   7.084
14055TIP3    H142042   1.098   3.488   7.065
14055TIP3    H242043   1.039   3.410   7.181
14056TIP3   OH242044   1.301   3.737   7.895
14056TIP3    H142045   1.320   3.793   7.973
14056TIP3    H242046   1.361   3.662   7.908
14057TIP3   OH242047   1.179   3.148   7.188
14057TIP3    H142048   1.173   3.223   7.250
14057TIP3    H242049   1.239   3.185   7.119
14058TIP3   OH242050   0.583   4.428   6.732
14058TIP3    H142051   0.555   4.500   6.672
14058TIP3    H242052   0.580   4.473   6.819
14059TIP3   OH242053   0.690   3.142   6.976
14059TIP3    H142054   0.688   3.233   7.013
14059TIP3    H242055   0.786   3.123   6.986
14060TIP3   OH242056   1.944   3.630   7.882
14060TIP3    H142057   1.846   3.626   7.877
14060TIP3    H242058   1.968   3.625   7.788
14061TIP3   OH242059   1.593   3.830   7.259
14061TIP3    H142060   1.519   3.770   7.275
14061TIP3    H242061   1.667   3.786   7.307
14062TIP3   OH242062   0.315   4.072   6.722
14062TIP3    H142063   0.390   4.133   6.737
14062TIP3    H242064   0.357   4.014   6.655
14063TIP3   OH242065   0.250   3.335   6.864
14063TIP3    H142066   0.249   3.433   6.864
14063TIP3    H242067   0.175   3.313   6.808
14064TIP3   OH242068   1.560   4.788   7.212
14064TIP3    H142069   1.520   4.835   7.136
14064TIP3    H242070   1.655   4.805   7.192
14065TIP3   OH242071   0.642   3.052   7.741
14065TIP3    H142072   0.607   3.022   7.654
14065TIP3    H242073   0.624   2.973   7.797
14066TIP3   OH242074   0.199   4.243   7.154
14066TIP3    H142075   0.115   4.289   7.146
14066TIP3    H242076   0.242   4.272   7.072
14067TIP3   OH242077   0.814   4.790   8.232
14067TIP3    H142078   0.907   4.765   8.245
14067TIP3    H242079   0.789   4.729   8.160
14068TIP3   OH242080   0.797   4.357   6.364
14068TIP3    H142081   0.741   4.285   6.402
14068TIP3    H242082   0.873   4.305   6.332
14069TIP3   OH242083   1.453   4.687   7.968
14069TIP3    H142084   1.446   4.616   8.035
14069TIP3    H242085   1.533   4.736   7.997
14070TIP3   OH242086   1.233   4.398   6.273
14070TIP3    H142087   1.282   4.337   6.331
14070TIP3    H242088   1.289   4.401   6.193
14071TIP3   OH242089   0.483   4.207   8.396
14071TIP3    H142090   0.517   4.116   8.394
14071TIP3    H242091   0.388   4.189   8.378
14072TIP3   OH242092   0.444   3.873   6.583
14072TIP3    H142093   0.500   3.839   6.655
14072TIP3    H242094   0.511   3.878   6.512
14073TIP3   OH242095   1.074   4.305   8.163
14073TIP3    H142096   1.032   4.319   8.076
14073TIP3    H242097   1.104   4.212   8.157
14074TIP3   OH242098   0.944   4.069   6.389
14074TIP3    H142099   0.951   4.084   6.485
14074TIP3    H242100   0.946   3.971   6.385
14075TIP3   OH242101   1.564   4.314   7.773
14075TIP3    H142102   1.639   4.352   7.723
14075TIP3    H242103   1.495   4.380   7.756
14076TIP3   OH242104   0.571   3.938   8.387
14076TIP3    H142105   0.651   3.893   8.357
14076TIP3    H242106   0.601   3.975   8.473
14077TIP3   OH242107   0.649   3.776   6.805
14077TIP3    H142108   0.625   3.735   6.890
14077TIP3    H242109   0.686   3.699   6.756
14078TIP3   OH242110   0.922   3.841   8.035
14078TIP3    H142111   0.844   3.900   8.037
14078TIP3    H242112   0.969   3.873   7.954
14079TIP3   OH242113   0.750   3.567   6.648
14079TIP3    H142114   0.723   3.570   6.553
14079TIP3    H242115   0.847   3.576   6.640
14080TIP3   OH242116   1.435   4.243   8.168
14080TIP3    H142117   1.515   4.222   8.116
14080TIP3    H242118   1.436   4.174   8.236
14081TIP3   OH242119   1.572   3.901   6.308
14081TIP3    H142120   1.551   3.854   6.225
14081TIP3    H242121   1.542   3.992   6.283
14082TIP3   OH242122   1.042   3.627   8.162
14082TIP3    H142123   1.041   3.548   8.105
14082TIP3    H242124   1.000   3.694   8.104
14083TIP3   OH242125   1.044   3.412   7.967
14083TIP3    H142126   1.071   3.456   7.884
14083TIP3    H242127   0.950   3.391   7.948
14084TIP3   OH242128   1.076   3.950   7.839
14084TIP3    H142129   1.157   3.956   7.787
14084TIP3    H242130   1.020   4.018   7.796
14085TIP3   OH242131   1.659   3.920   8.226
14085TIP3    H142132   1.708   3.836   8.223
14085TIP3    H242133   1.722   3.980   8.184
14086TIP3   OH242134   1.696   4.174   7.963
14086TIP3    H142135   1.639   4.225   7.900
14086TIP3    H242136   1.784   4.190   7.922
14087TIP3   OH242137   0.918   3.744   8.389
14087TIP3    H142138   0.850   3.676   8.403
14087TIP3    H242139   0.954   3.718   8.301
14088TIP3   OH242140   1.176   3.179   8.035
14088TIP3    H142141   1.129   3.262   8.011
14088TIP3    H242142   1.106   3.113   8.021
14089TIP3   OH242143   1.303   3.683   8.251
14089TIP3    H142144   1.289   3.675   8.347
14089TIP3    H242145   1.213   3.660   8.219
14090TIP3   OH242146   1.542   3.633   8.105
14090TIP3    H142147   1.466   3.635   8.165
14090TIP3    H242148   1.615   3.602   8.163
14091TIP3   OH242149   1.772   3.573   8.259
14091TIP3    H142150   1.783   3.478   8.278
14091TIP3    H242151   1.768   3.613   8.349
14092TIP3   OH242152   0.754   3.528   8.437
14092TIP3    H142153   0.766   3.438   8.402
14092TIP3    H242154   0.796   3.517   8.526
14093TIP3   OH242155   1.270   3.186   8.292
14093TIP3    H142156   1.339   3.117   8.282
14093TIP3    H242157   1.230   3.183   8.202
14094TIP3   OH242158   1.335   3.404   8.448
14094TIP3    H142159   1.311   3.334   8.383
14094TIP3    H242160   1.259   3.465   8.442
14095TIP3   OH242161   0.555   4.635   6.550
14095TIP3    H142162   0.651   4.629   6.533
14095TIP3    H242163   0.528   4.681   6.468
14096TIP3   OH242164   0.048   4.031   6.707
14096TIP3    H142165   0.141   4.043   6.736
14096TIP3    H242166   0.044   3.934   6.698
14097TIP3   OH242167   1.810   4.885   7.165
14097TIP3    H142168   1.841   4.912   7.253
14097TIP3    H242169   1.877   4.923   7.107
14098TIP3   OH242170   1.846   4.899   7.448
14098TIP3    H142171   1.801   4.812   7.443
14098TIP3    H242172   1.919   4.876   7.507
14099TIP3   OH242173   1.890   4.576   8.021
14099TIP3    H142174   1.817   4.583   8.085
14099TIP3    H242175   1.932   4.665   8.027
14100TIP3   OH242176   1.706   4.089   6.642
14100TIP3    H142177   1.776   4.152   6.615
14100TIP3    H242178   1.748   4.049   6.721
14101TIP3   OH242179   1.833   3.956   6.844
14101TIP3    H142180   1.769   3.914   6.905
14101TIP3    H242181   1.899   3.994   6.905
14102TIP3   OH242182   1.890   4.350   7.284
14102TIP3    H142183   1.950   4.285   7.240
14102TIP3    H242184   1.875   4.414   7.212
14103TIP3   OH242185   1.722   4.650   7.470
14103TIP3    H142186   1.649   4.683   7.525
14103TIP3    H242187   1.674   4.595   7.404
14104TIP3   OH242188   1.772   3.863   6.493
14104TIP3    H142189   1.700   3.867   6.426
14104TIP3    H242190   1.747   3.939   6.549
14105TIP3   OH242191   1.642   3.536   6.449
14105TIP3    H142192   1.603   3.577   6.371
14105TIP3    H242193   1.616   3.442   6.436
14106TIP3   OH242194   1.647   3.811   6.991
14106TIP3    H142195   1.659   3.714   6.991
14106TIP3    H242196   1.635   3.829   7.088
14107TIP3   OH242197   0.276   3.924   7.717
14107TIP3    H142198   0.275   3.873   7.634
14107TIP3    H242199   0.367   3.905   7.749
14108TIP3   OH242200   1.939   4.234   7.851
14108TIP3    H142201   2.011   4.169   7.838
14108TIP3    H242202   1.953   4.293   7.775
14109TIP3   OH242203   2.131   4.049   7.926
14109TIP3    H142204   2.049   3.996   7.927
14109TIP3    H242205   2.192   3.987   7.883
14110TIP3   OH242206   1.588   3.270   6.434
14110TIP3    H142207   1.665   3.242   6.487
14110TIP3    H242208   1.517   3.210   6.463
14111TIP3   OH242209   1.643   3.526   6.888
14111TIP3    H142210   1.685   3.438   6.903
14111TIP3    H242211   1.702   3.561   6.820
14112TIP3   OH242212   1.806   3.707   7.383
14112TIP3    H142213   1.893   3.728   7.342
14112TIP3    H242214   1.815   3.758   7.465
14113TIP3   OH242215   0.482   3.548   8.418
14113TIP3    H142216   0.576   3.570   8.402
14113TIP3    H242217   0.492   3.485   8.489
14114TIP3   OH242218   2.332   3.437   8.174
14114TIP3    H142219   2.385   3.370   8.126
14114TIP3    H242220   2.298   3.492   8.100
14115TIP3   OH242221   1.754   3.277   6.925
14115TIP3    H142222   1.803   3.261   7.009
14115TIP3    H242223   1.694   3.199   6.924
14116TIP3   OH242224   0.451   3.254   7.727
14116TIP3    H142225   0.519   3.187   7.747
14116TIP3    H242226   0.502   3.336   7.739
14117TIP3   OH242227   0.286   3.547   7.838
14117TIP3    H142228   0.312   3.534   7.745
14117TIP3    H242229   0.261   3.640   7.840
14118TIP3   OH242230   2.197   3.575   7.985
14118TIP3    H142231   2.110   3.617   8.000
14118TIP3    H242232   2.171   3.508   7.919
14119TIP3   OH242233   1.835   3.215   6.555
14119TIP3    H142234   1.876   3.141   6.506
14119TIP3    H242235   1.904   3.285   6.549
14120TIP3   OH242236   0.234   3.027   7.300
14120TIP3    H142237   0.152   3.058   7.340
14120TIP3    H242238   0.246   3.094   7.229
14121TIP3   OH242239   1.396   4.746   6.823
14121TIP3    H142240   1.448   4.728   6.742
14121TIP3    H242241   1.454   4.809   6.870
14122TIP3   OH242242   0.457   3.127   8.147
14122TIP3    H142243   0.394   3.118   8.221
14122TIP3    H242244   0.401   3.165   8.079
14123TIP3   OH242245   0.530   4.510   8.217
14123TIP3    H142246   0.444   4.555   8.202
14123TIP3    H242247   0.532   4.507   8.314
14124TIP3   OH242248   0.684   4.575   7.760
14124TIP3    H142249   0.628   4.646   7.723
14124TIP3    H242250   0.767   4.595   7.714
14125TIP3   OH242251   1.125   4.827   7.896
14125TIP3    H142252   1.167   4.826   7.984
14125TIP3    H242253   1.192   4.876   7.844
14126TIP3   OH242254   1.303   4.977   7.751
14126TIP3    H142255   1.375   4.924   7.712
14126TIP3    H242256   1.355   5.033   7.813
14127TIP3   OH242257   2.097   3.341   7.855
14127TIP3    H142258   2.006   3.343   7.819
14127TIP3    H242259   2.122   3.247   7.839
14128TIP3   OH242260   0.589   4.816   7.644
14128TIP3    H142261   0.504   4.828   7.689
14128TIP3    H242262   0.570   4.850   7.554
14129TIP3   OH242263   1.017   4.847   7.436
14129TIP3    H142264   0.951   4.871   7.369
14129TIP3    H242265   1.032   4.933   7.481
14130TIP3   OH242266   1.285   4.787   7.487
14130TIP3    H142267   1.191   4.802   7.466
14130TIP3    H242268   1.328   4.864   7.446
14131TIP3   OH242269   1.494   4.979   7.404
14131TIP3    H142270   1.480   5.063   7.355
14131TIP3    H242271   1.520   4.918   7.332
14132TIP3   OH242272   0.312   4.653   7.516
14132TIP3    H142273   0.335   4.613   7.603
14132TIP3    H242274   0.368   4.595   7.459
14133TIP3   OH242275   0.467   4.486   7.369
14133TIP3    H142276   0.480   4.406   7.425
14133TIP3    H242277   0.557   4.524   7.370
14134TIP3   OH242278   0.728   4.600   7.385
14134TIP3    H142279   0.759   4.508   7.371
14134TIP3    H242280   0.771   4.619   7.470
14135TIP3   OH242281   1.301   3.255   7.470
14135TIP3    H142282   1.258   3.186   7.524
14135TIP3    H242283   1.374   3.206   7.427
14136TIP3   OH242284   1.826   3.133   7.379
14136TIP3    H142285   1.863   3.186   7.305
14136TIP3    H242286   1.731   3.154   7.373
14137TIP3   OH242287   1.920   3.235   7.143
14137TIP3    H142288   1.993   3.184   7.102
14137TIP3    H242289   1.953   3.327   7.128
14138TIP3   OH242290   0.550   2.964   7.490
14138TIP3    H142291   0.458   2.928   7.488
14138TIP3    H242292   0.601   2.880   7.487
14139TIP3   OH242293   0.349   2.826   7.147
14139TIP3    H142294   0.364   2.881   7.069
14139TIP3    H242295   0.310   2.892   7.209
14140TIP3   OH242296   0.991   2.998   7.369
14140TIP3    H142297   1.051   3.048   7.312
14140TIP3    H242298   1.013   3.034   7.456
14141TIP3   OH242299   1.542   3.142   7.355
14141TIP3    H142300   1.540   3.107   7.265
14141TIP3    H242301   1.527   3.060   7.408
14142TIP3   OH242302   1.571   3.064   6.916
14142TIP3    H142303   1.483   3.105   6.926
14142TIP3    H242304   1.556   2.979   6.963
14143TIP3   OH242305   0.453   2.998   6.896
14143TIP3    H142306   0.504   2.932   6.845
14143TIP3    H242307   0.525   3.050   6.937
14144TIP3   OH242308   0.967   3.166   6.999
14144TIP3    H142309   1.028   3.120   7.060
14144TIP3    H242310   0.988   3.259   7.025
14145TIP3   OH242311   0.824   4.595   6.499
14145TIP3    H142312   0.914   4.616   6.464
14145TIP3    H242313   0.803   4.519   6.441
14146TIP3   OH242314   1.543   4.710   6.592
14146TIP3    H142315   1.534   4.612   6.578
14146TIP3    H242316   1.500   4.744   6.510
14147TIP3   OH242317   0.757   3.246   8.377
14147TIP3    H142318   0.724   3.173   8.434
14147TIP3    H242319   0.851   3.247   8.407
14148TIP3   OH242320   1.007   3.236   8.499
14148TIP3    H142321   1.092   3.215   8.456
14148TIP3    H242322   0.997   3.162   8.561
14149TIP3   OH242323   0.145   4.433   6.594
14149TIP3    H142324   0.171   4.523   6.621
14149TIP3    H242325   0.230   4.395   6.560
14150TIP3   OH242326   1.831   3.301   8.288
14150TIP3    H142327   1.854   3.270   8.378
14150TIP3    H242328   1.918   3.299   8.243
14151TIP3   OH242329   1.772   4.856   7.781
14151TIP3    H142330   1.693   4.823   7.734
14151TIP3    H242331   1.751   4.952   7.783
14152TIP3   OH242332   3.037   4.228   6.546
14152TIP3    H142333   3.008   4.319   6.524
14152TIP3    H242334   2.960   4.179   6.514
14153TIP3   OH242335   3.040   4.226   6.924
14153TIP3    H142336   3.065   4.194   7.012
14153TIP3    H242337   2.993   4.149   6.888
14154TIP3   OH242338   2.339   4.121   7.278
14154TIP3    H142339   2.354   4.055   7.348
14154TIP3    H242340   2.416   4.179   7.289
14155TIP3   OH242341   3.281   4.528   6.606
14155TIP3    H142342   3.262   4.458   6.669
14155TIP3    H242343   3.304   4.603   6.663
14156TIP3   OH242344   2.306   4.535   7.019
14156TIP3    H142345   2.295   4.437   7.023
14156TIP3    H242346   2.403   4.540   7.015
14157TIP3   OH242347   2.015   3.736   6.803
14157TIP3    H142348   1.968   3.820   6.819
14157TIP3    H242349   1.942   3.682   6.768
14158TIP3   OH242350   2.073   4.018   6.966
14158TIP3    H142351   2.122   3.946   7.011
14158TIP3    H242352   2.136   4.047   6.899
14159TIP3   OH242353   2.926   4.992   6.624
14159TIP3    H142354   2.982   4.923   6.583
14159TIP3    H242355   2.916   4.958   6.714
14160TIP3   OH242356   2.835   4.453   6.974
14160TIP3    H142357   2.869   4.377   6.924
14160TIP3    H242358   2.920   4.495   6.998
14161TIP3   OH242359   3.849   3.773   6.973
14161TIP3    H142360   3.875   3.856   7.016
14161TIP3    H242361   3.865   3.795   6.879
14162TIP3   OH242362   3.250   3.955   7.009
14162TIP3    H142363   3.289   3.868   7.028
14162TIP3    H242364   3.216   3.942   6.919
14163TIP3   OH242365   2.585   3.614   6.973
14163TIP3    H142366   2.562   3.687   6.912
14163TIP3    H242367   2.536   3.540   6.931
14164TIP3   OH242368   3.277   3.704   6.598
14164TIP3    H142369   3.351   3.688   6.661
14164TIP3    H242370   3.327   3.740   6.523
14165TIP3   OH242371   2.221   3.820   7.080
14165TIP3    H142372   2.301   3.798   7.130
14165TIP3    H242373   2.232   3.761   7.002
14166TIP3   OH242374   2.661   4.015   6.866
14166TIP3    H142375   2.753   3.987   6.885
14166TIP3    H242376   2.620   3.930   6.838
14167TIP3   OH242377   3.921   3.981   7.142
14167TIP3    H142378   3.838   4.029   7.122
14167TIP3    H242379   3.931   4.003   7.236
14168TIP3   OH242380   2.582   3.596   7.408
14168TIP3    H142381   2.522   3.634   7.341
14168TIP3    H242382   2.530   3.616   7.489
14169TIP3   OH242383   2.934   4.450   6.414
14169TIP3    H142384   2.892   4.426   6.329
14169TIP3    H242385   2.887   4.533   6.435
14170TIP3   OH242386   2.689   4.373   7.207
14170TIP3    H142387   2.623   4.435   7.245
14170TIP3    H242388   2.727   4.426   7.135
14171TIP3   OH242389   3.493   3.704   6.765
14171TIP3    H142390   3.478   3.656   6.848
14171TIP3    H242391   3.544   3.782   6.795
14172TIP3   OH242392   2.452   3.712   7.193
14172TIP3    H142393   2.513   3.786   7.215
14172TIP3    H242394   2.501   3.671   7.118
14173TIP3   OH242395   2.514   4.564   7.302
14173TIP3    H142396   2.487   4.649   7.262
14173TIP3    H242397   2.435   4.547   7.358
14174TIP3   OH242398   1.912   4.255   6.537
14174TIP3    H142399   1.872   4.281   6.452
14174TIP3    H242400   1.942   4.340   6.573
14175TIP3   OH242401   3.353   4.771   6.777
14175TIP3    H142402   3.263   4.761   6.818
14175TIP3    H242403   3.342   4.857   6.733
14176TIP3   OH242404   3.640   3.675   7.140
14176TIP3    H142405   3.551   3.702   7.111
14176TIP3    H242406   3.697   3.705   7.066
14177TIP3   OH242407   2.942   3.318   7.123
14177TIP3    H142408   2.926   3.223   7.137
14177TIP3    H242409   2.863   3.355   7.168
14178TIP3   OH242410   3.075   4.832   6.464
14178TIP3    H142411   3.112   4.745   6.435
14178TIP3    H242412   3.084   4.885   6.384
14179TIP3   OH242413   3.196   4.611   6.353
14179TIP3    H142414   3.154   4.533   6.313
14179TIP3    H242415   3.230   4.572   6.437
14180TIP3   OH242416   3.578   4.686   7.119
14180TIP3    H142417   3.565   4.608   7.062
14180TIP3    H242418   3.559   4.760   7.058
14181TIP3   OH242419   2.867   4.079   6.376
14181TIP3    H142420   2.786   4.129   6.357
14181TIP3    H242421   2.911   4.079   6.290
14182TIP3   OH242422   2.828   3.863   6.098
14182TIP3    H142423   2.897   3.911   6.146
14182TIP3    H242424   2.883   3.799   6.048
14183TIP3   OH242425   3.773   4.322   6.964
14183TIP3    H142426   3.689   4.373   6.971
14183TIP3    H242427   3.800   4.345   6.873
14184TIP3   OH242428   3.215   4.161   6.350
14184TIP3    H142429   3.159   4.187   6.427
14184TIP3    H242430   3.297   4.134   6.396
14185TIP3   OH242431   3.451   4.202   7.257
14185TIP3    H142432   3.446   4.286   7.306
14185TIP3    H242433   3.364   4.203   7.213
14186TIP3   OH242434   2.448   4.158   6.762
14186TIP3    H142435   2.405   4.100   6.695
14186TIP3    H242436   2.525   4.105   6.790
14187TIP3   OH242437   2.579   4.575   6.912
14187TIP3    H142438   2.553   4.525   6.833
14187TIP3    H242439   2.668   4.539   6.931
14188TIP3   OH242440   2.601   4.125   7.121
14188TIP3    H142441   2.620   4.115   7.026
14188TIP3    H242442   2.630   4.217   7.140
14189TIP3   OH242443   3.112   4.767   6.897
14189TIP3    H142444   3.095   4.847   6.950
14189TIP3    H242445   3.096   4.694   6.960
14190TIP3   OH242446   2.721   4.687   7.443
14190TIP3    H142447   2.661   4.749   7.490
14190TIP3    H242448   2.655   4.633   7.395
14191TIP3   OH242449   3.060   4.016   6.176
14191TIP3    H142450   3.115   4.078   6.228
14191TIP3    H242451   3.085   4.040   6.084
14192TIP3   OH242452   2.473   4.243   7.540
14192TIP3    H142453   2.478   4.325   7.594
14192TIP3    H242454   2.377   4.234   7.531
14193TIP3   OH242455   2.805   4.701   6.446
14193TIP3    H142456   2.865   4.767   6.484
14193TIP3    H242457   2.736   4.755   6.405
14194TIP3   OH242458   2.517   4.854   7.529
14194TIP3    H142459   2.480   4.851   7.439
14194TIP3    H242460   2.438   4.835   7.584
14195TIP3   OH242461   3.572   3.261   6.223
14195TIP3    H142462   3.490   3.279   6.274
14195TIP3    H242463   3.582   3.345   6.174
14196TIP3   OH242464   2.314   4.001   6.569
14196TIP3    H142465   2.250   4.047   6.512
14196TIP3    H242466   2.269   3.917   6.585
14197TIP3   OH242467   3.377   4.629   5.770
14197TIP3    H142468   3.390   4.721   5.742
14197TIP3    H242469   3.468   4.593   5.763
14198TIP3   OH242470   2.097   4.351   7.484
14198TIP3    H142471   2.032   4.357   7.412
14198TIP3    H242472   2.099   4.253   7.496
14199TIP3   OH242473   1.948   4.586   7.099
14199TIP3    H142474   2.042   4.565   7.101
14199TIP3    H242475   1.942   4.656   7.165
14200TIP3   OH242476   3.815   5.029   7.165
14200TIP3    H142477   3.812   4.932   7.178
14200TIP3    H242478   3.731   5.054   7.210
14201TIP3   OH242479   2.920   4.816   7.300
14201TIP3    H142480   2.920   4.908   7.332
14201TIP3    H242481   2.848   4.777   7.354
14202TIP3   OH242482   2.679   4.949   6.247
14202TIP3    H142483   2.619   4.933   6.174
14202TIP3    H242484   2.653   5.039   6.276
14203TIP3   OH242485   2.117   4.796   6.635
14203TIP3    H142486   2.165   4.785   6.720
14203TIP3    H242487   2.058   4.718   6.638
14204TIP3   OH242488   2.948   4.915   6.201
14204TIP3    H142489   2.850   4.926   6.205
14204TIP3    H242490   2.954   4.819   6.211
14205TIP3   OH242491   3.705   4.162   7.439
14205TIP3    H142492   3.623   4.178   7.389
14205TIP3    H242493   3.717   4.066   7.427
14206TIP3   OH242494   2.295   4.560   7.467
14206TIP3    H142495   2.346   4.550   7.550
14206TIP3    H242496   2.227   4.491   7.477
14207TIP3   OH242497   2.701   3.393   7.248
14207TIP3    H142498   2.611   3.361   7.224
14207TIP3    H242499   2.675   3.476   7.293
14208TIP3   OH242500   3.231   3.509   7.444
14208TIP3    H142501   3.297   3.481   7.510
14208TIP3    H242502   3.146   3.488   7.488
14209TIP3   OH242503   3.478   3.940   7.366
14209TIP3    H142504   3.426   3.934   7.449
14209TIP3    H242505   3.447   4.024   7.327
14210TIP3   OH242506   3.133   4.058   5.918
14210TIP3    H142507   3.102   4.034   5.829
14210TIP3    H242508   3.192   4.132   5.899
14211TIP3   OH242509   2.848   3.441   6.220
14211TIP3    H142510   2.814   3.440   6.312
14211TIP3    H242511   2.807   3.358   6.187
14212TIP3   OH242512   2.635   3.904   7.269
14212TIP3    H142513   2.581   3.925   7.349
14212TIP3    H242514   2.619   3.985   7.216
14213TIP3   OH242515   2.515   3.793   6.782
14213TIP3    H142516   2.422   3.768   6.799
14213TIP3    H242517   2.528   3.753   6.693
14214TIP3   OH242518   3.006   3.881   6.509
14214TIP3    H142519   2.950   3.952   6.469
14214TIP3    H242520   3.058   3.852   6.432
14215TIP3   OH242521   3.180   4.159   7.597
14215TIP3    H142522   3.156   4.087   7.659
14215TIP3    H242523   3.273   4.173   7.620
14216TIP3   OH242524   3.165   3.910   6.749
14216TIP3    H142525   3.104   3.941   6.679
14216TIP3    H242526   3.195   3.827   6.707
14217TIP3   OH242527   2.461   3.938   7.477
14217TIP3    H142528   2.454   4.006   7.545
14217TIP3    H242529   2.427   3.860   7.524
14218TIP3   OH242530   2.501   3.414   6.187
14218TIP3    H142531   2.492   3.410   6.285
14218TIP3    H242532   2.421   3.465   6.164
14219TIP3   OH242533   2.041   3.460   7.056
14219TIP3    H142534   2.116   3.492   7.111
14219TIP3    H242535   2.085   3.426   6.977
14220TIP3   OH242536   2.019   3.441   6.577
14220TIP3    H142537   2.064   3.481   6.499
14220TIP3    H242538   1.958   3.514   6.600
14221TIP3   OH242539   3.179   4.157   7.174
14221TIP3    H142540   3.208   4.083   7.115
14221TIP3    H242541   3.146   4.106   7.251
14222TIP3   OH242542   2.841   3.615   6.845
14222TIP3    H142543   2.756   3.613   6.893
14222TIP3    H242544   2.905   3.619   6.918
14223TIP3   OH242545   2.277   3.671   6.852
14223TIP3    H142546   2.182   3.680   6.826
14223TIP3    H242547   2.298   3.579   6.829
14224TIP3   OH242548   2.549   3.669   6.539
14224TIP3    H142549   2.642   3.685   6.515
14224TIP3    H242550   2.500   3.692   6.457
14225TIP3   OH242551   3.335   3.689   7.044
14225TIP3    H142552   3.300   3.702   7.135
14225TIP3    H242553   3.268   3.628   7.008
14226TIP3   OH242554   2.385   3.699   6.321
14226TIP3    H142555   2.312   3.657   6.272
14226TIP3    H242556   2.437   3.736   6.246
14227TIP3   OH242557   3.503   5.379   7.263
14227TIP3    H142558   3.500   5.404   7.169
14227TIP3    H242559   3.579   5.432   7.295
14228TIP3   OH242560   2.462   4.493   7.686
14228TIP3    H142561   2.539   4.525   7.736
14228TIP3    H242562   2.397   4.486   7.759
14229TIP3   OH242563   2.927   3.944   6.943
14229TIP3    H142564   2.997   3.901   6.892
14229TIP3    H242565   2.935   3.903   7.031
14230TIP3   OH242566   2.452   3.431   6.819
14230TIP3    H142567   2.417   3.351   6.863
14230TIP3    H242568   2.500   3.394   6.744
14231TIP3   OH242569   2.903   3.839   7.231
14231TIP3    H142570   2.812   3.873   7.244
14231TIP3    H242571   2.958   3.901   7.283
14232TIP3   OH242572   2.639   4.229   6.327
14232TIP3    H142573   2.564   4.166   6.316
14232TIP3    H242574   2.621   4.264   6.418
14233TIP3   OH242575   3.541   4.467   6.957
14233TIP3    H142576   3.563   4.516   6.875
14233TIP3    H242577   3.454   4.426   6.934
14234TIP3   OH242578   3.097   3.546   6.183
14234TIP3    H142579   3.001   3.528   6.193
14234TIP3    H242580   3.106   3.640   6.209
14235TIP3   OH242581   3.046   4.554   7.323
14235TIP3    H142582   3.053   4.524   7.414
14235TIP3    H242583   2.999   4.638   7.331
14236TIP3   OH242584   3.168   3.789   6.291
14236TIP3    H142585   3.264   3.798   6.306
14236TIP3    H242586   3.147   3.870   6.238
14237TIP3   OH242587   2.342   4.262   7.003
14237TIP3    H142588   2.376   4.221   6.920
14237TIP3    H242589   2.352   4.192   7.068
14238TIP3   OH242590   2.805   4.390   6.169
14238TIP3    H142591   2.750   4.471   6.159
14238TIP3    H242592   2.740   4.328   6.206
14239TIP3   OH242593   2.934   4.287   7.637
14239TIP3    H142594   2.872   4.228   7.589
14239TIP3    H242595   3.020   4.253   7.604
14240TIP3   OH242596   3.201   4.813   7.214
14240TIP3    H142597   3.105   4.806   7.229
14240TIP3    H242598   3.228   4.861   7.296
14241TIP3   OH242599   3.612   3.879   6.127
14241TIP3    H142600   3.549   3.833   6.065
14241TIP3    H242601   3.607   3.968   6.086
14242TIP3   OH242602   3.828   4.738   7.209
14242TIP3    H142603   3.730   4.733   7.201
14242TIP3    H242604   3.853   4.708   7.119
14243TIP3   OH242605   3.323   4.714   6.037
14243TIP3    H142606   3.285   4.651   6.100
14243TIP3    H242607   3.321   4.663   5.953
14244TIP3   OH242608   3.306   4.329   6.877
14244TIP3    H142609   3.212   4.303   6.890
14244TIP3    H242610   3.339   4.250   6.831
14245TIP3   OH242611   2.431   4.556   6.626
14245TIP3    H142612   2.431   4.638   6.572
14245TIP3    H242613   2.336   4.539   6.635
14246TIP3   OH242614   1.994   3.862   6.328
14246TIP3    H142615   2.041   3.945   6.348
14246TIP3    H242616   1.917   3.869   6.389
14247TIP3   OH242617   2.575   4.325   6.574
14247TIP3    H142618   2.537   4.414   6.591
14247TIP3    H242619   2.535   4.274   6.647
14248TIP3   OH242620   2.700   4.901   7.098
14248TIP3    H142621   2.740   4.974   7.046
14248TIP3    H242622   2.776   4.868   7.147
14249TIP3   OH242623   2.352   4.795   6.481
14249TIP3    H142624   2.266   4.802   6.525
14249TIP3    H242625   2.382   4.889   6.483
14250TIP3   OH242626   3.092   4.535   7.054
14250TIP3    H142627   3.083   4.535   7.152
14250TIP3    H242628   3.170   4.479   7.042
14251TIP3   OH242629   3.058   4.392   5.939
14251TIP3    H142630   3.108   4.388   6.022
14251TIP3    H242631   2.968   4.408   5.971
14252TIP3   OH242632   3.340   5.069   7.106
14252TIP3    H142633   3.262   5.011   7.101
14252TIP3    H242634   3.321   5.133   7.034
14253TIP3   OH242635   3.423   4.907   5.740
14253TIP3    H142636   3.459   4.997   5.721
14253TIP3    H242637   3.330   4.924   5.759
14254TIP3   OH242638   2.426   3.673   7.626
14254TIP3    H142639   2.332   3.687   7.643
14254TIP3    H242640   2.450   3.612   7.698
14255TIP3   OH242641   3.223   4.366   6.161
14255TIP3    H142642   3.213   4.297   6.229
14255TIP3    H242643   3.320   4.362   6.145
14256TIP3   OH242644   2.139   4.766   7.257
14256TIP3    H142645   2.188   4.686   7.283
14256TIP3    H242646   2.168   4.828   7.324
14257TIP3   OH242647   2.390   4.429   5.958
14257TIP3    H142648   2.434   4.368   5.898
14257TIP3    H242649   2.403   4.392   6.047
14258TIP3   OH242650   2.379   4.409   6.232
14258TIP3    H142651   2.455   4.391   6.289
14258TIP3    H242652   2.382   4.506   6.223
14259TIP3   OH242653   2.113   4.107   6.412
14259TIP3    H142654   2.047   4.152   6.469
14259TIP3    H242655   2.128   4.177   6.345
14260TIP3   OH242656   3.261   3.743   7.302
14260TIP3    H142657   3.338   3.780   7.348
14260TIP3    H242658   3.242   3.663   7.356
14261TIP3   OH242659   3.141   3.496   6.466
14261TIP3    H142660   3.124   3.521   6.373
14261TIP3    H242661   3.178   3.579   6.503
14262TIP3   OH242662   2.645   4.612   6.153
14262TIP3    H142663   2.555   4.640   6.180
14262TIP3    H242664   2.658   4.662   6.072
14263TIP3   OH242665   2.834   3.672   6.571
14263TIP3    H142666   2.897   3.746   6.553
14263TIP3    H242667   2.835   3.668   6.669
14264TIP3   OH242668   3.099   3.995   7.378
14264TIP3    H142669   3.113   4.051   7.457
14264TIP3    H242670   3.153   3.917   7.398
14265TIP3   OH242671   2.977   3.406   6.678
14265TIP3    H142672   2.963   3.485   6.733
14265TIP3    H242673   3.035   3.443   6.607
14266TIP3   OH242674   2.387   4.685   6.223
14266TIP3    H142675   2.359   4.753   6.158
14266TIP3    H242676   2.368   4.729   6.308
14267TIP3   OH242677   2.485   3.398   6.464
14267TIP3    H142678   2.482   3.489   6.499
14267TIP3    H242679   2.581   3.380   6.472
14268TIP3   OH242680   3.743   3.892   7.358
14268TIP3    H142681   3.645   3.893   7.369
14268TIP3    H242682   3.748   3.853   7.269
14269TIP3   OH242683   3.391   4.088   6.748
14269TIP3    H142684   3.314   4.030   6.760
14269TIP3    H242685   3.461   4.039   6.796
14270TIP3   OH242686   2.101   4.319   6.221
14270TIP3    H142687   2.166   4.391   6.230
14270TIP3    H242688   2.143   4.268   6.149
14271TIP3   OH242689   2.049   3.592   6.350
14271TIP3    H142690   2.047   3.690   6.345
14271TIP3    H242691   1.963   3.569   6.312
14272TIP3   OH242692   3.359   5.043   6.699
14272TIP3    H142693   3.316   5.088   6.623
14272TIP3    H242694   3.453   5.062   6.678
14273TIP3   OH242695   2.438   3.311   7.225
14273TIP3    H142696   2.403   3.280   7.139
14273TIP3    H242697   2.424   3.233   7.282
14274TIP3   OH242698   1.978   4.534   6.608
14274TIP3    H142699   1.902   4.563   6.661
14274TIP3    H242700   1.954   4.571   6.520
14275TIP3   OH242701   2.129   5.070   7.677
14275TIP3    H142702   2.214   5.069   7.724
14275TIP3    H242703   2.107   4.975   7.676
14276TIP3   OH242704   2.609   5.046   7.713
14276TIP3    H142705   2.702   5.029   7.732
14276TIP3    H242706   2.591   4.980   7.643
14277TIP3   OH242707   3.256   4.940   7.451
14277TIP3    H142708   3.243   4.872   7.521
14277TIP3    H242709   3.329   4.993   7.487
14278TIP3   OH242710   2.260   4.478   7.878
14278TIP3    H142711   2.281   4.382   7.876
14278TIP3    H242712   2.172   4.479   7.833
14279TIP3   OH242713   2.237   4.128   6.068
14279TIP3    H142714   2.293   4.095   6.140
14279TIP3    H242715   2.300   4.136   5.996
14280TIP3   OH242716   2.872   4.562   7.648
14280TIP3    H142717   2.824   4.575   7.564
14280TIP3    H242718   2.900   4.468   7.643
14281TIP3   OH242719   3.363   4.567   7.257
14281TIP3    H142720   3.433   4.619   7.212
14281TIP3    H242721   3.287   4.626   7.248
14282TIP3   OH242722   2.386   4.231   7.855
14282TIP3    H142723   2.429   4.147   7.838
14282TIP3    H242724   2.409   4.249   7.949
14283TIP3   OH242725   2.446   4.031   6.293
14283TIP3    H142726   2.418   3.991   6.376
14283TIP3    H242727   2.481   3.954   6.243
14284TIP3   OH242728   2.723   4.104   7.528
14284TIP3    H142729   2.637   4.153   7.530
14284TIP3    H242730   2.761   4.132   7.443
14285TIP3   OH242731   2.546   3.824   6.139
14285TIP3    H142732   2.516   3.822   6.045
14285TIP3    H242733   2.643   3.834   6.127
14286TIP3   OH242734   3.231   4.500   7.656
14286TIP3    H142735   3.311   4.477   7.608
14286TIP3    H242736   3.228   4.431   7.725
14287TIP3   OH242737   3.385   4.164   5.786
14287TIP3    H142738   3.347   4.115   5.710
14287TIP3    H242739   3.339   4.251   5.773
14288TIP3   OH242740   2.842   3.884   7.646
14288TIP3    H142741   2.835   3.804   7.590
14288TIP3    H242742   2.796   3.952   7.591
14289TIP3   OH242743   2.841   3.669   7.452
14289TIP3    H142744   2.865   3.712   7.368
14289TIP3    H242745   2.746   3.648   7.436
14290TIP3   OH242746   2.874   4.211   7.326
14290TIP3    H142747   2.951   4.217   7.268
14290TIP3    H242748   2.813   4.276   7.285
14291TIP3   OH242749   3.452   4.175   7.711
14291TIP3    H142750   3.501   4.092   7.715
14291TIP3    H242751   3.519   4.236   7.675
14292TIP3   OH242752   3.493   4.426   7.446
14292TIP3    H142753   3.433   4.478   7.387
14292TIP3    H242754   3.579   4.446   7.404
14293TIP3   OH242755   2.722   3.996   7.880
14293TIP3    H142756   2.647   3.934   7.890
14293TIP3    H242757   2.750   3.976   7.788
14294TIP3   OH242758   2.973   3.436   7.520
14294TIP3    H142759   2.924   3.518   7.497
14294TIP3    H242760   2.903   3.369   7.508
14295TIP3   OH242761   3.100   3.940   7.737
14295TIP3    H142762   3.084   3.931   7.832
14295TIP3    H242763   3.010   3.916   7.704
14296TIP3   OH242764   3.338   3.887   7.591
14296TIP3    H142765   3.261   3.891   7.650
14296TIP3    H242766   3.409   3.856   7.651
14297TIP3   OH242767   3.575   3.830   7.745
14297TIP3    H142768   3.581   3.734   7.764
14297TIP3    H242769   3.565   3.870   7.834
14298TIP3   OH242770   2.553   3.780   7.929
14298TIP3    H142771   2.560   3.690   7.891
14298TIP3    H242772   2.588   3.766   8.019
14299TIP3   OH242773   3.068   3.445   7.777
14299TIP3    H142774   3.135   3.373   7.770
14299TIP3    H242775   3.027   3.440   7.689
14300TIP3   OH242776   3.133   3.659   7.938
14300TIP3    H142777   3.109   3.590   7.872
14300TIP3    H242778   3.056   3.720   7.931
14301TIP3   OH242779   2.375   4.892   6.035
14301TIP3    H142780   2.455   4.904   5.983
14301TIP3    H242781   2.311   4.920   5.968
14302TIP3   OH242782   1.833   4.270   6.255
14302TIP3    H142783   1.927   4.293   6.241
14302TIP3    H242784   1.828   4.182   6.213
14303TIP3   OH242785   1.746   4.883   6.668
14303TIP3    H142786   1.679   4.820   6.633
14303TIP3    H242787   1.791   4.826   6.734
14304TIP3   OH242788   1.882   4.737   6.855
14304TIP3    H142789   1.875   4.661   6.915
14304TIP3    H242790   1.933   4.798   6.912
14305TIP3   OH242791   3.609   5.138   6.651
14305TIP3    H142792   3.634   5.167   6.741
14305TIP3    H242793   3.673   5.185   6.596
14306TIP3   OH242794   3.642   5.155   6.932
14306TIP3    H142795   3.597   5.067   6.931
14306TIP3    H242796   3.715   5.134   6.992
14307TIP3   OH242797   3.688   4.831   7.509
14307TIP3    H142798   3.613   4.838   7.571
14307TIP3    H242799   3.727   4.920   7.513
14308TIP3   OH242800   3.504   4.343   6.129
14308TIP3    H142801   3.573   4.407   6.102
14308TIP3    H242802   3.545   4.303   6.209
14309TIP3   OH242803   3.631   4.212   6.332
14309TIP3    H142804   3.565   4.169   6.390
14309TIP3    H242805   3.693   4.252   6.397
14310TIP3   OH242806   3.686   4.604   6.766
14310TIP3    H142807   3.737   4.541   6.713
14310TIP3    H242808   3.669   4.677   6.703
14311TIP3   OH242809   3.517   4.905   6.960
14311TIP3    H142810   3.446   4.946   7.013
14311TIP3    H242811   3.465   4.856   6.892
14312TIP3   OH242812   3.570   4.119   5.981
14312TIP3    H142813   3.501   4.123   5.912
14312TIP3    H242814   3.542   4.195   6.036
14313TIP3   OH242815   3.445   3.791   5.932
14313TIP3    H142816   3.395   3.835   5.862
14313TIP3    H242817   3.416   3.698   5.921
14314TIP3   OH242818   3.447   4.067   6.479
14314TIP3    H142819   3.452   3.970   6.475
14314TIP3    H242820   3.432   4.083   6.575
14315TIP3   OH242821   2.079   4.187   7.189
14315TIP3    H142822   2.076   4.128   7.111
14315TIP3    H242823   2.161   4.156   7.234
14316TIP3   OH242824   3.734   4.493   7.336
14316TIP3    H142825   3.807   4.428   7.326
14316TIP3    H242826   3.759   4.563   7.274
14317TIP3   OH242827   3.921   4.301   7.355
14317TIP3    H142828   3.845   4.252   7.393
14317TIP3    H242829   3.992   4.235   7.369
14318TIP3   OH242830   3.384   3.525   5.919
14318TIP3    H142831   3.457   3.496   5.977
14318TIP3    H242832   3.309   3.470   5.946
14319TIP3   OH242833   3.441   3.784   6.377
14319TIP3    H142834   3.481   3.695   6.392
14319TIP3    H242835   3.499   3.817   6.306
14320TIP3   OH242836   3.605   3.958   6.870
14320TIP3    H142837   3.690   3.986   6.830
14320TIP3    H242838   3.615   3.996   6.959
14321TIP3   OH242839   3.671   4.102   7.103
14321TIP3    H142840   3.592   4.135   7.151
14321TIP3    H242841   3.702   4.184   7.057
14322TIP3   OH242842   2.285   3.820   7.882
14322TIP3    H142843   2.382   3.820   7.892
14322TIP3    H242844   2.260   3.743   7.937
14323TIP3   OH242845   4.129   3.695   7.660
14323TIP3    H142846   4.181   3.627   7.613
14323TIP3    H242847   4.096   3.749   7.585
14324TIP3   OH242848   3.551   3.533   6.411
14324TIP3    H142849   3.597   3.517   6.497
14324TIP3    H242850   3.489   3.457   6.410
14325TIP3   OH242851   2.251   3.517   7.226
14325TIP3    H142852   2.317   3.446   7.239
14325TIP3    H242853   2.308   3.596   7.227
14326TIP3   OH242854   2.053   3.786   7.308
14326TIP3    H142855   2.106   3.806   7.229
14326TIP3    H242856   2.070   3.865   7.364
14327TIP3   OH242857   3.995   3.833   7.468
14327TIP3    H142858   3.908   3.874   7.488
14327TIP3    H242859   3.967   3.764   7.405
14328TIP3   OH242860   3.633   3.471   6.045
14328TIP3    H142861   3.672   3.398   5.992
14328TIP3    H242862   3.699   3.541   6.035
14329TIP3   OH242863   2.036   3.297   6.804
14329TIP3    H142864   1.943   3.297   6.831
14329TIP3    H242865   2.035   3.356   6.726
14330TIP3   OH242866   3.236   5.025   6.264
14330TIP3    H142867   3.255   4.930   6.277
14330TIP3    H242868   3.248   5.061   6.354
14331TIP3   OH242869   2.255   3.376   7.620
14331TIP3    H142870   2.204   3.375   7.702
14331TIP3    H242871   2.191   3.418   7.559
14332TIP3   OH242872   2.296   4.805   7.697
14332TIP3    H142873   2.205   4.775   7.680
14332TIP3    H242874   2.306   4.786   7.791
14333TIP3   OH242875   2.472   4.835   7.245
14333TIP3    H142876   2.423   4.910   7.206
14333TIP3    H242877   2.558   4.850   7.200
14334TIP3   OH242878   2.920   5.082   7.380
14334TIP3    H142879   2.960   5.082   7.470
14334TIP3    H242880   2.987   5.133   7.330
14335TIP3   OH242881   3.100   5.234   7.238
14335TIP3    H142882   3.171   5.180   7.201
14335TIP3    H242883   3.149   5.291   7.301
14336TIP3   OH242884   3.892   3.597   7.341
14336TIP3    H142885   3.801   3.595   7.307
14336TIP3    H242886   3.920   3.504   7.327
14337TIP3   OH242887   2.153   5.098   7.265
14337TIP3    H142888   2.063   5.132   7.243
14337TIP3    H242889   2.157   5.122   7.358
14338TIP3   OH242890   2.389   5.074   7.124
14338TIP3    H142891   2.303   5.087   7.171
14338TIP3    H242892   2.366   5.106   7.035
14339TIP3   OH242893   2.815   5.104   6.921
14339TIP3    H142894   2.743   5.124   6.858
14339TIP3    H242895   2.826   5.191   6.965
14340TIP3   OH242896   3.081   5.043   6.972
14340TIP3    H142897   2.986   5.058   6.954
14340TIP3    H242898   3.120   5.123   6.934
14341TIP3   OH242899   3.294   5.237   6.892
14341TIP3    H142900   3.277   5.320   6.843
14341TIP3    H242901   3.315   5.175   6.819
14342TIP3   OH242902   2.062   4.891   7.015
14342TIP3    H142903   2.089   4.862   7.105
14342TIP3    H242904   2.132   4.845   6.963
14343TIP3   OH242905   2.254   4.760   6.868
14343TIP3    H142906   2.269   4.676   6.917
14343TIP3    H242907   2.345   4.796   6.864
14344TIP3   OH242908   2.523   4.857   6.869
14344TIP3    H142909   2.551   4.764   6.857
14344TIP3    H242910   2.563   4.875   6.956
14345TIP3   OH242911   3.102   3.513   6.965
14345TIP3    H142912   3.054   3.445   7.015
14345TIP3    H242913   3.165   3.460   6.913
14346TIP3   OH242914   3.625   3.392   6.867
14346TIP3    H142915   3.659   3.445   6.791
14346TIP3    H242916   3.528   3.407   6.860
14347TIP3   OH242917   3.718   3.492   6.630
14347TIP3    H142918   3.790   3.442   6.587
14347TIP3    H242919   3.749   3.585   6.614
14348TIP3   OH242920   2.347   3.220   6.977
14348TIP3    H142921   2.254   3.187   6.977
14348TIP3    H242922   2.396   3.135   6.974
14349TIP3   OH242923   2.130   3.089   6.623
14349TIP3    H142924   2.162   3.147   6.552
14349TIP3    H242925   2.102   3.153   6.691
14350TIP3   OH242926   2.789   3.253   6.855
14350TIP3    H142927   2.850   3.305   6.800
14350TIP3    H242928   2.803   3.291   6.942
14351TIP3   OH242929   3.346   3.397   6.840
14351TIP3    H142930   3.330   3.364   6.751
14351TIP3    H242931   3.327   3.318   6.894
14352TIP3   OH242932   3.367   3.321   6.403
14352TIP3    H142933   3.280   3.363   6.412
14352TIP3    H242934   3.351   3.236   6.450
14353TIP3   OH242935   1.850   4.659   6.406
14353TIP3    H142936   1.766   4.625   6.370
14353TIP3    H242937   1.838   4.753   6.388
14354TIP3   OH242938   2.248   3.251   6.387
14354TIP3    H142939   2.297   3.187   6.332
14354TIP3    H242940   2.321   3.304   6.425
14355TIP3   OH242941   2.763   3.423   6.486
14355TIP3    H142942   2.820   3.375   6.547
14355TIP3    H242943   2.784   3.515   6.512
14356TIP3   OH242944   2.554   3.501   7.868
14356TIP3    H142945   2.521   3.430   7.926
14356TIP3    H242946   2.648   3.503   7.894
14357TIP3   OH242947   2.803   3.499   7.988
14357TIP3    H142948   2.886   3.473   7.945
14357TIP3    H242949   2.790   3.427   8.053
14358TIP3   OH242950   1.928   4.686   6.043
14358TIP3    H142951   1.931   4.709   6.137
14358TIP3    H242952   2.014   4.640   6.029
14359TIP3   OH242953   3.627   3.558   7.775
14359TIP3    H142954   3.647   3.528   7.866
14359TIP3    H242955   3.715   3.553   7.732
14360TIP3   OH242956   3.570   5.112   7.265
14360TIP3    H142957   3.490   5.078   7.220
14360TIP3    H242958   3.548   5.207   7.269
14361TIP3   OH242959   4.833   4.483   6.034
14361TIP3    H142960   4.805   4.575   6.012
14361TIP3    H242961   4.755   4.435   6.000
14362TIP3   OH242962   4.835   4.483   6.411
14362TIP3    H142963   4.861   4.451   6.499
14362TIP3    H242964   4.789   4.406   6.374
14363TIP3   OH242965   4.133   4.380   6.777
14363TIP3    H142966   4.165   4.314   6.841
14363TIP3    H242967   4.209   4.439   6.773
14364TIP3   OH242968   5.077   4.781   6.094
14364TIP3    H142969   5.060   4.715   6.163
14364TIP3    H242970   5.101   4.859   6.147
14365TIP3   OH242971   4.102   4.789   6.506
14365TIP3    H142972   4.093   4.691   6.509
14365TIP3    H242973   4.199   4.797   6.499
14366TIP3   OH242974   3.811   3.995   6.292
14366TIP3    H142975   3.760   4.077   6.304
14366TIP3    H242976   3.741   3.937   6.256
14367TIP3   OH242977   3.872   4.281   6.460
14367TIP3    H142978   3.919   4.204   6.498
14367TIP3    H242979   3.927   4.304   6.384
14368TIP3   OH242980   4.721   5.247   6.110
14368TIP3    H142981   4.770   5.176   6.062
14368TIP3    H242982   4.718   5.211   6.199
14369TIP3   OH242983   4.631   4.708   6.462
14369TIP3    H142984   4.667   4.634   6.411
14369TIP3    H242985   4.715   4.752   6.486
14370TIP3   OH242986   5.644   4.030   6.459
14370TIP3    H142987   5.671   4.112   6.505
14370TIP3    H242988   5.661   4.053   6.367
14371TIP3   OH242989   5.045   4.212   6.496
14371TIP3    H142990   5.085   4.125   6.515
14371TIP3    H242991   5.013   4.198   6.405
14372TIP3   OH242992   4.381   3.870   6.461
14372TIP3    H142993   4.358   3.943   6.399
14372TIP3    H242994   4.332   3.797   6.417
14373TIP3   OH242995   5.074   3.960   6.085
14373TIP3    H142996   5.148   3.944   6.148
14373TIP3    H242997   5.123   3.997   6.010
14374TIP3   OH242998   4.014   4.073   6.567
14374TIP3    H142999   4.097   4.052   6.614
14374TIP3    H243000   4.025   4.017   6.488
14375TIP3   OH243001   4.456   4.271   6.357
14375TIP3    H143002   4.549   4.244   6.372
14375TIP3    H243003   4.415   4.187   6.326
14376TIP3   OH243004   5.716   4.236   6.630
14376TIP3    H143005   5.633   4.285   6.611
14376TIP3    H243006   5.730   4.261   6.722
14377TIP3   OH243007   4.378   3.854   6.895
14377TIP3    H143008   4.318   3.890   6.827
14377TIP3    H243009   4.326   3.872   6.976
14378TIP3   OH243010   4.728   4.704   5.903
14378TIP3    H143011   4.688   4.682   5.816
14378TIP3    H243012   4.682   4.788   5.924
14379TIP3   OH243013   4.485   4.628   6.693
14379TIP3    H143014   4.420   4.692   6.730
14379TIP3    H243015   4.525   4.681   6.621
14380TIP3   OH243016   5.290   3.960   6.253
14380TIP3    H143017   5.274   3.915   6.337
14380TIP3    H243018   5.340   4.038   6.281
14381TIP3   OH243019   4.248   3.968   6.680
14381TIP3    H143020   4.310   4.042   6.701
14381TIP3    H243021   4.297   3.927   6.604
14382TIP3   OH243022   4.311   4.821   6.787
14382TIP3    H143023   4.285   4.906   6.747
14382TIP3    H243024   4.232   4.806   6.844
14383TIP3   OH243025   3.710   4.509   6.025
14383TIP3    H143026   3.667   4.532   5.941
14383TIP3    H243027   3.737   4.596   6.060
14384TIP3   OH243028   5.148   5.027   6.265
14384TIP3    H143029   5.058   5.019   6.304
14384TIP3    H243030   5.140   5.112   6.218
14385TIP3   OH243031   5.436   3.929   6.625
14385TIP3    H143032   5.348   3.960   6.598
14385TIP3    H243033   5.493   3.961   6.553
14386TIP3   OH243034   4.738   3.575   6.609
14386TIP3    H143035   4.723   3.479   6.624
14386TIP3    H243036   4.659   3.612   6.654
14387TIP3   OH243037   4.851   5.074   5.943
14387TIP3    H143038   4.900   4.993   5.917
14387TIP3    H243039   4.909   5.141   5.898
14388TIP3   OH243040   4.990   4.859   5.843
14388TIP3    H143041   4.950   4.782   5.802
14388TIP3    H243042   5.025   4.822   5.926
14389TIP3   OH243043   5.374   4.942   6.607
14389TIP3    H143044   5.362   4.865   6.548
14389TIP3    H243045   5.355   5.017   6.546
14390TIP3   OH243046   4.663   4.335   5.863
14390TIP3    H143047   4.582   4.386   5.843
14390TIP3    H243048   4.708   4.336   5.777
14391TIP3   OH243049   4.623   4.119   5.585
14391TIP3    H143050   4.692   4.168   5.633
14391TIP3    H243051   4.679   4.057   5.534
14392TIP3   OH243052   5.568   4.577   6.450
14392TIP3    H143053   5.485   4.630   6.457
14392TIP3    H243054   5.597   4.602   6.360
14393TIP3   OH243055   5.011   4.417   5.837
14393TIP3    H143056   4.955   4.444   5.914
14393TIP3    H243057   5.094   4.392   5.883
14394TIP3   OH243058   5.247   4.458   6.745
14394TIP3    H143059   5.244   4.542   6.794
14394TIP3    H243060   5.160   4.461   6.700
14395TIP3   OH243061   4.242   4.416   6.252
14395TIP3    H143062   4.200   4.359   6.185
14395TIP3    H243063   4.320   4.363   6.279
14396TIP3   OH243064   4.373   4.827   6.401
14396TIP3    H143065   4.351   4.783   6.317
14396TIP3    H243066   4.463   4.794   6.419
14397TIP3   OH243067   4.385   4.385   6.607
14397TIP3    H143068   4.414   4.369   6.515
14397TIP3    H243069   4.424   4.473   6.627
14398TIP3   OH243070   4.907   5.024   6.384
14398TIP3    H143071   4.890   5.104   6.437
14398TIP3    H243072   4.891   4.951   6.447
14399TIP3   OH243073   4.517   4.943   6.931
14399TIP3    H143074   4.457   5.006   6.977
14399TIP3    H243075   4.450   4.890   6.882
14400TIP3   OH243076   4.856   4.273   5.662
14400TIP3    H143077   4.912   4.334   5.715
14400TIP3    H243078   4.880   4.298   5.570
14401TIP3   OH243079   4.271   4.500   7.029
14401TIP3    H143080   4.275   4.587   7.075
14401TIP3    H243081   4.175   4.481   7.038
14402TIP3   OH243082   4.593   4.959   5.938
14402TIP3    H143083   4.672   5.012   5.957
14402TIP3    H243084   4.532   5.024   5.901
14403TIP3   OH243085   4.312   5.114   7.017
14403TIP3    H143086   4.277   5.110   6.926
14403TIP3    H243087   4.233   5.091   7.071
14404TIP3   OH243088   5.369   3.517   5.710
14404TIP3    H143089   5.287   3.536   5.761
14404TIP3    H243090   5.380   3.600   5.661
14405TIP3   OH243091   4.109   4.257   6.059
14405TIP3    H143092   4.046   4.304   6.000
14405TIP3    H243093   4.065   4.173   6.071
14406TIP3   OH243094   5.180   4.879   5.241
14406TIP3    H143095   5.170   4.976   5.236
14406TIP3    H243096   5.276   4.868   5.251
14407TIP3   OH243097   3.892   4.642   6.964
14407TIP3    H143098   3.825   4.620   6.895
14407TIP3    H243099   3.927   4.554   6.988
14408TIP3   OH243100   3.745   4.838   6.592
14408TIP3    H143101   3.841   4.829   6.588
14408TIP3    H243102   3.734   4.914   6.651
14409TIP3   OH243103   5.611   5.285   6.652
14409TIP3    H143104   5.608   5.189   6.664
14409TIP3    H243105   5.527   5.311   6.697
14410TIP3   OH243106   4.717   5.072   6.788
14410TIP3    H143107   4.716   5.165   6.819
14410TIP3    H243108   4.645   5.034   6.842
14411TIP3   OH243109   4.461   5.196   5.746
14411TIP3    H143110   4.429   5.183   5.655
14411TIP3    H243111   4.444   5.291   5.762
14412TIP3   OH243112   3.912   5.052   6.123
14412TIP3    H143113   3.962   5.043   6.207
14412TIP3    H243114   3.860   4.970   6.125
14413TIP3   OH243115   4.718   5.161   5.658
14413TIP3    H143116   4.633   5.159   5.706
14413TIP3    H243117   4.774   5.104   5.712
14414TIP3   OH243118   5.501   4.419   6.926
14414TIP3    H143119   5.420   4.433   6.875
14414TIP3    H243120   5.514   4.322   6.916
14415TIP3   OH243121   4.097   4.825   6.954
14415TIP3    H143122   4.146   4.808   7.037
14415TIP3    H243123   4.022   4.761   6.961
14416TIP3   OH243124   4.496   3.649   6.735
14416TIP3    H143125   4.407   3.618   6.710
14416TIP3    H243126   4.472   3.733   6.779
14417TIP3   OH243127   5.028   3.765   6.930
14417TIP3    H143128   5.095   3.738   6.997
14417TIP3    H243129   4.943   3.745   6.975
14418TIP3   OH243130   5.272   4.195   6.850
14418TIP3    H143131   5.222   4.190   6.935
14418TIP3    H243132   5.244   4.281   6.814
14419TIP3   OH243133   4.928   4.321   5.405
14419TIP3    H143134   4.898   4.292   5.317
14419TIP3    H243135   4.999   4.383   5.382
14420TIP3   OH243136   4.644   3.697   5.707
14420TIP3    H143137   4.609   3.697   5.798
14420TIP3    H243138   4.602   3.615   5.674
14421TIP3   OH243139   4.429   4.163   6.756
14421TIP3    H143140   4.376   4.184   6.836
14421TIP3    H243141   4.413   4.244   6.701
14422TIP3   OH243142   4.312   4.049   6.269
14422TIP3    H143143   4.218   4.025   6.286
14422TIP3    H243144   4.324   4.010   6.180
14423TIP3   OH243145   4.801   4.137   5.996
14423TIP3    H143146   4.746   4.208   5.956
14423TIP3    H243147   4.854   4.109   5.919
14424TIP3   OH243148   4.976   4.416   7.084
14424TIP3    H143149   4.953   4.343   7.145
14424TIP3    H243150   5.070   4.430   7.106
14425TIP3   OH243151   4.960   4.167   6.237
14425TIP3    H143152   4.901   4.199   6.166
14425TIP3    H243153   4.990   4.084   6.194
14426TIP3   OH243154   4.248   4.194   6.964
14426TIP3    H143155   4.267   4.259   7.033
14426TIP3    H243156   4.233   4.112   7.015
14427TIP3   OH243157   4.297   3.671   5.674
14427TIP3    H143158   4.288   3.667   5.772
14427TIP3    H243159   4.217   3.721   5.650
14428TIP3   OH243160   3.839   3.718   6.544
14428TIP3    H143161   3.916   3.747   6.596
14428TIP3    H243162   3.877   3.682   6.463
14429TIP3   OH243163   3.817   3.698   6.064
14429TIP3    H143164   3.861   3.738   5.986
14429TIP3    H243165   3.754   3.769   6.086
14430TIP3   OH243166   4.972   4.413   6.661
14430TIP3    H143167   5.003   4.340   6.602
14430TIP3    H243168   4.942   4.361   6.738
14431TIP3   OH243169   4.637   3.871   6.332
14431TIP3    H143170   4.552   3.870   6.381
14431TIP3    H243171   4.701   3.876   6.404
14432TIP3   OH243172   4.073   3.928   6.339
14432TIP3    H143173   3.978   3.936   6.313
14432TIP3    H243174   4.094   3.836   6.316
14433TIP3   OH243175   4.345   3.926   6.026
14433TIP3    H143176   4.438   3.942   6.002
14433TIP3    H243177   4.296   3.949   5.944
14434TIP3   OH243178   5.130   3.946   6.530
14434TIP3    H143179   5.096   3.959   6.622
14434TIP3    H243180   5.063   3.885   6.495
14435TIP3   OH243181   4.182   3.956   5.807
14435TIP3    H143182   4.109   3.914   5.760
14435TIP3    H243183   4.233   3.993   5.732
14436TIP3   OH243184   5.299   5.636   6.750
14436TIP3    H143185   5.295   5.659   6.655
14436TIP3    H243186   5.375   5.689   6.781
14437TIP3   OH243187   4.258   4.746   7.173
14437TIP3    H143188   4.336   4.778   7.222
14437TIP3    H243189   4.192   4.746   7.246
14438TIP3   OH243190   4.722   4.199   6.429
14438TIP3    H143191   4.794   4.159   6.377
14438TIP3    H243192   4.733   4.159   6.516
14439TIP3   OH243193   4.249   3.688   6.306
14439TIP3    H143194   4.213   3.608   6.350
14439TIP3    H243195   4.295   3.651   6.229
14440TIP3   OH243196   4.699   4.094   6.720
14440TIP3    H143197   4.609   4.131   6.732
14440TIP3    H243198   4.755   4.156   6.770
14441TIP3   OH243199   4.435   4.486   5.813
14441TIP3    H143200   4.360   4.423   5.802
14441TIP3    H243201   4.417   4.522   5.903
14442TIP3   OH243202   5.337   4.723   6.444
14442TIP3    H143203   5.360   4.773   6.362
14442TIP3    H243204   5.250   4.683   6.420
14443TIP3   OH243205   4.894   3.801   5.672
14443TIP3    H143206   4.797   3.785   5.680
14443TIP3    H243207   4.903   3.896   5.695
14444TIP3   OH243208   4.837   4.807   6.810
14444TIP3    H143209   4.852   4.783   6.903
14444TIP3    H243210   4.796   4.895   6.816
14445TIP3   OH243211   4.964   4.046   5.777
14445TIP3    H143212   5.060   4.055   5.792
14445TIP3    H243213   4.943   4.126   5.725
14446TIP3   OH243214   4.129   4.512   6.491
14446TIP3    H143215   4.165   4.482   6.405
14446TIP3    H243216   4.162   4.444   6.552
14447TIP3   OH243217   4.601   4.647   5.655
14447TIP3    H143218   4.545   4.727   5.647
14447TIP3    H243219   4.538   4.583   5.692
14448TIP3   OH243220   4.007   4.429   7.101
14448TIP3    H143221   4.026   4.416   7.196
14448TIP3    H243222   3.936   4.365   7.085
14449TIP3   OH243223   4.731   4.543   7.123
14449TIP3    H143224   4.672   4.486   7.072
14449TIP3    H243225   4.819   4.511   7.093
14450TIP3   OH243226   4.997   5.065   6.705
14450TIP3    H143227   4.900   5.063   6.716
14450TIP3    H243228   5.023   5.117   6.784
14451TIP3   OH243229   5.408   4.135   5.613
14451TIP3    H143230   5.345   4.090   5.552
14451TIP3    H243231   5.403   4.225   5.573
14452TIP3   OH243232   5.624   4.994   6.696
14452TIP3    H143233   5.526   4.989   6.688
14452TIP3    H243234   5.649   4.964   6.605
14453TIP3   OH243235   5.128   4.950   5.522
14453TIP3    H143236   5.075   4.894   5.581
14453TIP3    H243237   5.096   4.922   5.434
14454TIP3   OH243238   5.101   4.585   6.365
14454TIP3    H143239   5.008   4.560   6.377
14454TIP3    H243240   5.135   4.507   6.317
14455TIP3   OH243241   4.228   4.813   6.117
14455TIP3    H143242   4.232   4.892   6.060
14455TIP3    H243243   4.133   4.796   6.118
14456TIP3   OH243244   3.790   4.119   5.816
14456TIP3    H143245   3.837   4.202   5.837
14456TIP3    H243246   3.713   4.124   5.877
14457TIP3   OH243247   4.371   4.580   6.062
14457TIP3    H143248   4.335   4.670   6.077
14457TIP3    H243249   4.330   4.531   6.135
14458TIP3   OH243250   4.496   5.158   6.584
14458TIP3    H143251   4.536   5.230   6.532
14458TIP3    H243252   4.573   5.125   6.632
14459TIP3   OH243253   4.147   5.053   5.966
14459TIP3    H143254   4.062   5.061   6.013
14459TIP3    H243255   4.179   5.145   5.970
14460TIP3   OH243256   4.887   4.792   6.541
14460TIP3    H143257   4.879   4.790   6.639
14460TIP3    H243258   4.967   4.738   6.528
14461TIP3   OH243259   4.849   4.665   5.423
14461TIP3    H143260   4.909   4.653   5.500
14461TIP3    H243261   4.763   4.660   5.467
14462TIP3   OH243262   5.135   5.327   6.592
14462TIP3    H143263   5.056   5.270   6.584
14462TIP3    H243264   5.120   5.392   6.520
14463TIP3   OH243265   5.199   5.162   5.242
14463TIP3    H143266   5.223   5.237   5.185
14463TIP3    H243267   5.115   5.198   5.280
14464TIP3   OH243268   4.220   3.936   7.112
14464TIP3    H143269   4.123   3.943   7.124
14464TIP3    H243270   4.245   3.874   7.182
14465TIP3   OH243271   5.017   4.618   5.640
14465TIP3    H143272   5.009   4.552   5.712
14465TIP3    H243273   5.114   4.620   5.628
14466TIP3   OH243274   3.936   5.021   6.742
14466TIP3    H143275   3.987   4.945   6.773
14466TIP3    H243276   3.962   5.089   6.806
14467TIP3   OH243277   4.154   4.673   5.724
14467TIP3    H143278   4.243   4.640   5.743
14467TIP3    H243279   4.171   4.768   5.708
14468TIP3   OH243280   3.910   4.363   5.898
14468TIP3    H143281   3.843   4.408   5.954
14468TIP3    H243282   3.928   4.434   5.833
14469TIP3   OH243283   5.057   3.999   6.789
14469TIP3    H143284   5.134   4.038   6.832
14469TIP3    H243285   5.039   3.920   6.843
14470TIP3   OH243286   4.937   3.752   5.953
14470TIP3    H143287   4.920   3.777   5.860
14470TIP3    H243288   4.974   3.836   5.989
14471TIP3   OH243289   4.435   4.868   5.645
14471TIP3    H143290   4.348   4.895   5.680
14471TIP3    H243291   4.462   4.950   5.600
14472TIP3   OH243292   4.630   3.928   6.057
14472TIP3    H143293   4.693   4.002   6.039
14472TIP3    H243294   4.631   3.925   6.155
14473TIP3   OH243295   4.894   4.251   6.867
14473TIP3    H143296   4.911   4.307   6.945
14473TIP3    H243297   4.951   4.173   6.884
14474TIP3   OH243298   4.774   3.662   6.164
14474TIP3    H143299   4.759   3.741   6.219
14474TIP3    H243300   4.832   3.699   6.094
14475TIP3   OH243301   4.179   4.947   5.710
14475TIP3    H143302   4.150   5.018   5.649
14475TIP3    H243303   4.164   4.988   5.798
14476TIP3   OH243304   4.281   3.655   5.951
14476TIP3    H143305   4.278   3.746   5.985
14476TIP3    H243306   4.378   3.638   5.959
14477TIP3   OH243307   5.537   4.149   6.846
14477TIP3    H143308   5.439   4.148   6.854
14477TIP3    H243309   5.546   4.113   6.756
14478TIP3   OH243310   5.187   4.344   6.235
14478TIP3    H143311   5.110   4.286   6.247
14478TIP3    H243312   5.258   4.296   6.283
14479TIP3   OH243313   3.899   4.582   5.701
14479TIP3    H143314   3.979   4.635   5.721
14479TIP3    H243315   3.939   4.523   5.634
14480TIP3   OH243316   3.845   3.849   5.836
14480TIP3    H143317   3.842   3.947   5.832
14480TIP3    H243318   3.758   3.825   5.801
14481TIP3   OH243319   5.155   5.299   6.186
14481TIP3    H143320   5.111   5.346   6.111
14481TIP3    H243321   5.248   5.317   6.163
14482TIP3   OH243322   4.233   3.569   6.712
14482TIP3    H143323   4.199   3.537   6.626
14482TIP3    H243324   4.220   3.490   6.769
14483TIP3   OH243325   3.779   4.795   6.100
14483TIP3    H143326   3.696   4.816   6.146
14483TIP3    H243327   3.758   4.827   6.009
14484TIP3   OH243328   3.925   5.326   7.163
14484TIP3    H143329   4.010   5.324   7.210
14484TIP3    H243330   3.902   5.231   7.162
14485TIP3   OH243331   4.411   5.296   7.208
14485TIP3    H143332   4.505   5.273   7.214
14485TIP3    H243333   4.384   5.238   7.133
14486TIP3   OH243334   5.048   5.200   6.941
14486TIP3    H143335   5.038   5.129   7.009
14486TIP3    H243336   5.125   5.250   6.973
14487TIP3   OH243337   4.905   4.924   5.304
14487TIP3    H143338   4.876   4.832   5.306
14487TIP3    H243339   4.900   4.949   5.211
14488TIP3   OH243340   4.057   4.735   7.364
14488TIP3    H143341   4.073   4.638   7.367
14488TIP3    H243342   3.969   4.738   7.322
14489TIP3   OH243343   4.032   4.390   5.558
14489TIP3    H143344   4.089   4.356   5.629
14489TIP3    H243345   4.100   4.397   5.487
14490TIP3   OH243346   4.666   4.819   7.137
14490TIP3    H143347   4.622   4.834   7.051
14490TIP3    H243348   4.696   4.725   7.130
14491TIP3   OH243349   5.159   4.825   6.744
14491TIP3    H143350   5.230   4.873   6.699
14491TIP3    H243351   5.085   4.888   6.733
14492TIP3   OH243352   4.175   4.468   7.346
14492TIP3    H143353   4.248   4.408   7.328
14492TIP3    H243354   4.199   4.501   7.435
14493TIP3   OH243355   4.242   4.287   5.782
14493TIP3    H143356   4.216   4.243   5.864
14493TIP3    H243357   4.277   4.213   5.728
14494TIP3   OH243358   4.512   4.355   7.010
14494TIP3    H143359   4.433   4.413   7.013
14494TIP3    H243360   4.557   4.387   6.928
14495TIP3   OH243361   4.341   4.080   5.621
14495TIP3    H143362   4.313   4.083   5.527
14495TIP3    H243363   4.438   4.091   5.613
14496TIP3   OH243364   5.027   4.755   7.143
14496TIP3    H143365   5.107   4.735   7.094
14496TIP3    H243366   5.026   4.687   7.212
14497TIP3   OH243367   5.178   4.416   5.277
14497TIP3    H143368   5.148   4.371   5.196
14497TIP3    H243369   5.139   4.506   5.259
14498TIP3   OH243370   4.635   4.141   7.134
14498TIP3    H143371   4.633   4.061   7.079
14498TIP3    H243372   4.591   4.207   7.077
14499TIP3   OH243373   4.637   3.926   6.940
14499TIP3    H143374   4.663   3.969   6.856
14499TIP3    H243375   4.543   3.904   6.923
14500TIP3   OH243376   4.668   4.465   6.814
14500TIP3    H143377   4.748   4.473   6.760
14500TIP3    H243378   4.609   4.532   6.771
14501TIP3   OH243379   5.248   4.432   7.197
14501TIP3    H143380   5.297   4.349   7.205
14501TIP3    H243381   5.316   4.492   7.163
14502TIP3   OH243382   5.288   4.683   6.932
14502TIP3    H143383   5.230   4.736   6.873
14502TIP3    H243384   5.375   4.703   6.891
14503TIP3   OH243385   4.513   4.255   7.364
14503TIP3    H143386   4.443   4.189   7.377
14503TIP3    H243387   4.547   4.231   7.275
14504TIP3   OH243388   4.769   3.692   7.007
14504TIP3    H143389   4.721   3.775   6.984
14504TIP3    H243390   4.698   3.625   6.995
14505TIP3   OH243391   4.895   4.197   7.224
14505TIP3    H143392   4.883   4.187   7.320
14505TIP3    H243393   4.805   4.173   7.193
14506TIP3   OH243394   5.134   4.144   7.078
14506TIP3    H143395   5.058   4.147   7.138
14506TIP3    H243396   5.206   4.114   7.137
14507TIP3   OH243397   5.365   4.085   7.231
14507TIP3    H143398   5.376   3.990   7.251
14507TIP3    H243399   5.359   4.126   7.320
14508TIP3   OH243400   4.352   4.036   7.415
14508TIP3    H143401   4.358   3.945   7.378
14508TIP3    H243402   4.385   4.022   7.506
14509TIP3   OH243403   4.864   3.701   7.264
14509TIP3    H143404   4.932   3.631   7.257
14509TIP3    H243405   4.823   3.695   7.175
14510TIP3   OH243406   4.928   3.916   7.425
14510TIP3    H143407   4.905   3.846   7.359
14510TIP3    H243408   4.852   3.976   7.417
14511TIP3   OH243409   4.145   5.144   5.522
14511TIP3    H143410   4.241   5.143   5.510
14511TIP3    H243411   4.118   5.188   5.439
14512TIP3   OH243412   3.634   4.525   5.749
14512TIP3    H143413   3.725   4.554   5.726
14512TIP3    H243414   3.629   4.440   5.700
14513TIP3   OH243415   3.535   5.126   6.149
14513TIP3    H143416   3.464   5.061   6.143
14513TIP3    H243417   3.591   5.084   6.219
14514TIP3   OH243418   3.675   5.000   6.343
14514TIP3    H143419   3.670   4.921   6.399
14514TIP3    H243420   3.728   5.058   6.400
14515TIP3   OH243421   5.408   5.388   6.139
14515TIP3    H143422   5.432   5.425   6.226
14515TIP3    H243423   5.463   5.440   6.079
14516TIP3   OH243424   5.437   5.413   6.422
14516TIP3    H143425   5.393   5.325   6.416
14516TIP3    H243426   5.511   5.390   6.479
14517TIP3   OH243427   5.484   5.088   6.995
14517TIP3    H143428   5.409   5.096   7.058
14517TIP3    H243429   5.523   5.177   7.000
14518TIP3   OH243430   5.300   4.598   5.615
14518TIP3    H143431   5.365   4.668   5.592
14518TIP3    H243432   5.342   4.560   5.695
14519TIP3   OH243433   5.428   4.467   5.819
14519TIP3    H143434   5.361   4.426   5.877
14519TIP3    H243435   5.489   4.509   5.883
14520TIP3   OH243436   5.481   4.860   6.254
14520TIP3    H143437   5.532   4.798   6.199
14520TIP3    H243438   5.469   4.936   6.193
14521TIP3   OH243439   5.313   5.161   6.448
14521TIP3    H143440   5.242   5.204   6.499
14521TIP3    H243441   5.263   5.113   6.378
14522TIP3   OH243442   5.368   4.375   5.467
14522TIP3    H143443   5.296   4.379   5.399
14522TIP3    H243444   5.339   4.451   5.522
14523TIP3   OH243445   5.241   4.048   5.419
14523TIP3    H143446   5.192   4.092   5.349
14523TIP3    H243447   5.211   3.955   5.407
14524TIP3   OH243448   5.243   4.324   5.966
14524TIP3    H143449   5.248   4.227   5.963
14524TIP3    H243450   5.228   4.340   6.062
14525TIP3   OH243451   3.868   4.398   6.712
14525TIP3    H143452   3.866   4.369   6.618
14525TIP3    H243453   3.965   4.400   6.728
14526TIP3   OH243454   5.530   4.749   6.822
14526TIP3    H143455   5.603   4.685   6.813
14526TIP3    H243456   5.556   4.820   6.761
14527TIP3   OH243457   5.717   4.557   6.842
14527TIP3    H143458   5.642   4.507   6.881
14527TIP3    H243459   5.789   4.492   6.855
14528TIP3   OH243460   5.181   3.781   5.406
14528TIP3    H143461   5.253   3.752   5.466
14528TIP3    H243462   5.105   3.727   5.433
14529TIP3   OH243463   5.237   4.041   5.864
14529TIP3    H143464   5.278   3.952   5.878
14529TIP3    H243465   5.295   4.074   5.793
14530TIP3   OH243466   5.401   4.215   6.356
14530TIP3    H143467   5.486   4.243   6.317
14530TIP3    H243468   5.411   4.253   6.446
14531TIP3   OH243469   5.466   4.359   6.589
14531TIP3    H143470   5.388   4.393   6.637
14531TIP3    H243471   5.498   4.440   6.544
14532TIP3   OH243472   4.084   4.086   7.388
14532TIP3    H143473   4.182   4.078   7.388
14532TIP3    H243474   4.059   4.001   7.430
14533TIP3   OH243475   5.917   3.947   7.145
14533TIP3    H143476   5.976   3.883   7.101
14533TIP3    H243477   5.891   4.006   7.070
14534TIP3   OH243478   5.348   3.790   5.898
14534TIP3    H143479   5.393   3.774   5.983
14534TIP3    H243480   5.285   3.714   5.896
14535TIP3   OH243481   4.047   3.776   6.717
14535TIP3    H143482   4.110   3.703   6.728
14535TIP3    H243483   4.108   3.852   6.713
14536TIP3   OH243484   3.852   4.051   6.794
14536TIP3    H143485   3.898   4.044   6.708
14536TIP3    H243486   3.877   4.140   6.821
14537TIP3   OH243487   5.792   4.092   6.952
14537TIP3    H143488   5.705   4.131   6.975
14537TIP3    H243489   5.763   4.021   6.892
14538TIP3   OH243490   5.430   3.726   5.533
14538TIP3    H143491   5.468   3.655   5.478
14538TIP3    H243492   5.495   3.798   5.521
14539TIP3   OH243493   3.832   3.558   6.295
14539TIP3    H143494   3.738   3.553   6.318
14539TIP3    H243495   3.830   3.614   6.214
14540TIP3   OH243496   4.997   5.252   5.803
14540TIP3    H143497   5.039   5.237   5.716
14540TIP3    H243498   5.047   5.329   5.835
14541TIP3   OH243499   4.052   3.634   7.107
14541TIP3    H143500   4.001   3.629   7.190
14541TIP3    H243501   3.986   3.674   7.047
14542TIP3   OH243502   4.093   5.059   7.185
14542TIP3    H143503   4.001   5.032   7.166
14542TIP3    H243504   4.099   5.043   7.280
14543TIP3   OH243505   4.270   5.092   6.732
14543TIP3    H143506   4.220   5.166   6.693
14543TIP3    H243507   4.355   5.107   6.687
14544TIP3   OH243508   4.717   5.338   6.869
14544TIP3    H143509   4.758   5.341   6.958
14544TIP3    H243510   4.783   5.389   6.817
14545TIP3   OH243511   4.895   5.489   6.727
14545TIP3    H143512   4.966   5.439   6.685
14545TIP3    H243513   4.946   5.547   6.787
14546TIP3   OH243514   5.690   3.854   6.827
14546TIP3    H143515   5.598   3.852   6.795
14546TIP3    H243516   5.716   3.760   6.814
14547TIP3   OH243517   3.948   5.352   6.753
14547TIP3    H143518   3.859   5.386   6.730
14547TIP3    H243519   3.954   5.382   6.845
14548TIP3   OH243520   4.184   5.329   6.612
14548TIP3    H143521   4.098   5.343   6.657
14548TIP3    H243522   4.163   5.363   6.522
14549TIP3   OH243523   4.610   5.360   6.410
14549TIP3    H143524   4.542   5.380   6.343
14549TIP3    H243525   4.622   5.447   6.452
14550TIP3   OH243526   4.877   5.300   6.461
14550TIP3    H143527   4.783   5.315   6.441
14550TIP3    H243528   4.918   5.376   6.418
14551TIP3   OH243529   5.089   5.493   6.377
14551TIP3    H143530   5.072   5.577   6.330
14551TIP3    H243531   5.111   5.432   6.303
14552TIP3   OH243532   3.859   5.146   6.499
14552TIP3    H143533   3.884   5.120   6.590
14552TIP3    H243534   3.931   5.101   6.449
14553TIP3   OH243535   4.051   5.016   6.354
14553TIP3    H143536   4.067   4.932   6.402
14553TIP3    H243537   4.142   5.053   6.350
14554TIP3   OH243538   4.317   5.113   6.357
14554TIP3    H143539   4.348   5.022   6.344
14554TIP3    H243540   4.359   5.133   6.443
14555TIP3   OH243541   4.897   3.770   6.451
14555TIP3    H143542   4.850   3.702   6.501
14555TIP3    H243543   4.962   3.717   6.400
14556TIP3   OH243544   5.421   3.646   6.353
14556TIP3    H143545   5.455   3.701   6.278
14556TIP3    H243546   5.325   3.664   6.347
14557TIP3   OH243547   5.514   3.748   6.116
14557TIP3    H143548   5.588   3.699   6.073
14557TIP3    H243549   5.545   3.841   6.102
14558TIP3   OH243550   4.143   3.477   6.464
14558TIP3    H143551   4.051   3.444   6.464
14558TIP3    H243552   4.192   3.392   6.460
14559TIP3   OH243553   3.931   3.345   6.111
14559TIP3    H143554   3.958   3.404   6.038
14559TIP3    H243555   3.898   3.409   6.177
14560TIP3   OH243556   4.587   3.508   6.342
14560TIP3    H143557   4.646   3.562   6.287
14560TIP3    H243558   4.600   3.547   6.429
14561TIP3   OH243559   5.141   3.654   6.327
14561TIP3    H143560   5.125   3.622   6.238
14561TIP3    H243561   5.122   3.574   6.381
14562TIP3   OH243562   5.163   3.577   5.890
14562TIP3    H143563   5.077   3.621   5.899
14562TIP3    H243564   5.146   3.492   5.936
14563TIP3   OH243565   3.652   4.911   5.893
14563TIP3    H143566   3.572   4.873   5.853
14563TIP3    H243567   3.632   5.006   5.888
14564TIP3   OH243568   4.044   3.507   5.875
14564TIP3    H143569   4.094   3.444   5.818
14564TIP3    H243570   4.117   3.561   5.912
14565TIP3   OH243571   4.559   3.679   5.973
14565TIP3    H143572   4.617   3.632   6.034
14565TIP3    H243573   4.580   3.772   5.998
14566TIP3   OH243574   4.420   5.111   5.473
14566TIP3    H143575   4.503   5.149   5.441
14566TIP3    H243576   4.394   5.053   5.399
14567TIP3   OH243577   5.139   5.223   5.567
14567TIP3    H143578   5.133   5.126   5.548
14567TIP3    H243579   5.090   5.261   5.491
14568TIP3   OH243580   4.350   3.759   7.355
14568TIP3    H143581   4.317   3.688   7.412
14568TIP3    H243582   4.445   3.759   7.381
14569TIP3   OH243583   4.599   3.755   7.475
14569TIP3    H143584   4.683   3.730   7.433
14569TIP3    H243585   4.587   3.683   7.539
14570TIP3   OH243586   3.748   4.955   5.531
14570TIP3    H143587   3.709   4.975   5.617
14570TIP3    H243588   3.816   4.890   5.555
14571TIP3   OH243589   5.423   3.814   7.262
14571TIP3    H143590   5.443   3.784   7.353
14571TIP3    H243591   5.511   3.811   7.219
14572TIP3   OH243592   5.365   5.368   6.754
14572TIP3    H143593   5.286   5.335   6.706
14572TIP3    H243594   5.344   5.464   6.756
14573TIP3   OH243595   6.632   4.740   5.523
14573TIP3    H143596   6.606   4.832   5.504
14573TIP3    H243597   6.552   4.693   5.493
14574TIP3   OH243598   6.627   4.738   5.898
14574TIP3    H143599   6.658   4.711   5.987
14574TIP3    H243600   6.585   4.658   5.866
14575TIP3   OH243601   5.930   4.636   6.263
14575TIP3    H143602   5.961   4.570   6.328
14575TIP3    H243603   6.005   4.697   6.262
14576TIP3   OH243604   6.870   5.039   5.582
14576TIP3    H143605   6.860   4.973   5.651
14576TIP3    H243606   6.899   5.117   5.633
14577TIP3   OH243607   5.899   5.045   5.992
14577TIP3    H143608   5.889   4.948   5.996
14577TIP3    H243609   5.996   5.053   5.988
14578TIP3   OH243610   5.607   4.251   5.778
14578TIP3    H143611   5.557   4.333   5.792
14578TIP3    H243612   5.536   4.195   5.742
14579TIP3   OH243613   5.667   4.538   5.947
14579TIP3    H143614   5.715   4.461   5.985
14579TIP3    H243615   5.724   4.563   5.874
14580TIP3   OH243616   6.515   5.501   5.594
14580TIP3    H143617   6.567   5.431   5.550
14580TIP3    H243618   6.515   5.472   5.686
14581TIP3   OH243619   6.428   4.964   5.948
14581TIP3    H143620   6.467   4.889   5.901
14581TIP3    H243621   6.511   5.010   5.973
14582TIP3   OH243622   7.438   4.287   5.946
14582TIP3    H143623   7.466   4.368   5.993
14582TIP3    H243624   7.458   4.311   5.854
14583TIP3   OH243625   6.839   4.468   5.983
14583TIP3    H143626   6.882   4.383   6.003
14583TIP3    H243627   6.809   4.454   5.892
14584TIP3   OH243628   6.176   4.127   5.948
14584TIP3    H143629   6.155   4.200   5.886
14584TIP3    H243630   6.128   4.054   5.904
14585TIP3   OH243631   6.870   4.216   5.571
14585TIP3    H143632   6.943   4.201   5.636
14585TIP3    H243633   6.921   4.253   5.497
14586TIP3   OH243634   5.811   4.330   6.054
14586TIP3    H143635   5.893   4.309   6.101
14586TIP3    H243636   5.822   4.273   5.975
14587TIP3   OH243637   6.253   4.527   5.842
14587TIP3    H143638   6.346   4.501   5.859
14587TIP3    H243639   6.213   4.443   5.813
14588TIP3   OH243640   7.510   4.490   6.119
14588TIP3    H143641   7.428   4.541   6.100
14588TIP3    H243642   7.533   4.523   6.207
14589TIP3   OH243643   6.173   4.109   6.381
14589TIP3    H143644   6.114   4.148   6.314
14589TIP3    H243645   6.122   4.128   6.463
14590TIP3   OH243646   6.518   4.961   5.397
14590TIP3    H143647   6.461   4.940   5.323
14590TIP3    H243648   6.487   5.051   5.418
14591TIP3   OH243649   6.280   4.885   6.179
14591TIP3    H143650   6.216   4.949   6.217
14591TIP3    H243651   6.322   4.938   6.109
14592TIP3   OH243652   7.084   4.218   5.740
14592TIP3    H143653   7.073   4.171   5.824
14592TIP3    H243654   7.137   4.295   5.767
14593TIP3   OH243655   6.044   4.225   6.166
14593TIP3    H143656   6.106   4.299   6.189
14593TIP3    H243657   6.093   4.184   6.092
14594TIP3   OH243658   6.106   5.077   6.273
14594TIP3    H143659   6.081   5.163   6.234
14594TIP3    H243660   6.028   5.063   6.331
14595TIP3   OH243661   5.510   4.768   5.517
14595TIP3    H143662   5.461   4.790   5.435
14595TIP3    H243663   5.531   4.857   5.552
14596TIP3   OH243664   6.942   5.282   5.749
14596TIP3    H143665   6.852   5.276   5.788
14596TIP3    H243666   6.936   5.369   5.705
14597TIP3   OH243667   7.232   4.185   6.111
14597TIP3    H143668   7.145   4.218   6.084
14597TIP3    H243669   7.291   4.218   6.040
14598TIP3   OH243670   6.532   3.833   6.094
14598TIP3    H143671   6.520   3.737   6.111
14598TIP3    H243672   6.454   3.869   6.141
14599TIP3   OH243673   6.647   5.331   5.425
14599TIP3    H143674   6.698   5.250   5.402
14599TIP3    H243675   6.708   5.398   5.386
14600TIP3   OH243676   6.784   5.115   5.330
14600TIP3    H143677   6.757   5.035   5.284
14600TIP3    H243678   6.821   5.079   5.414
14601TIP3   OH243679   7.167   5.199   6.095
14601TIP3    H143680   7.159   5.122   6.034
14601TIP3    H243681   7.152   5.274   6.034
14602TIP3   OH243682   6.460   4.590   5.353
14602TIP3    H143683   6.381   4.640   5.327
14602TIP3    H243684   6.511   4.586   5.270
14603TIP3   OH243685   6.417   4.376   5.080
14603TIP3    H143686   6.490   4.425   5.121
14603TIP3    H243687   6.468   4.319   5.019
14604TIP3   OH243688   7.363   4.830   5.935
14604TIP3    H143689   7.282   4.886   5.942
14604TIP3    H243690   7.394   4.857   5.846
14605TIP3   OH243691   6.806   4.668   5.325
14605TIP3    H143692   6.754   4.697   5.403
14605TIP3    H243693   6.891   4.645   5.369
14606TIP3   OH243694   7.043   4.714   6.233
14606TIP3    H143695   7.042   4.799   6.281
14606TIP3    H243696   6.956   4.720   6.187
14607TIP3   OH243697   6.041   4.673   5.736
14607TIP3    H143698   6.000   4.614   5.670
14607TIP3    H243699   6.118   4.620   5.766
14608TIP3   OH243700   6.170   5.084   5.887
14608TIP3    H143701   6.149   5.036   5.806
14608TIP3    H243702   6.261   5.052   5.907
14609TIP3   OH243703   6.181   4.642   6.093
14609TIP3    H143704   6.212   4.626   6.001
14609TIP3    H243705   6.220   4.729   6.114
14610TIP3   OH243706   6.700   5.281   5.870
14610TIP3    H143707   6.687   5.362   5.923
14610TIP3    H243708   6.687   5.209   5.934
14611TIP3   OH243709   6.312   5.200   6.418
14611TIP3    H143710   6.253   5.263   6.464
14611TIP3    H243711   6.246   5.147   6.369
14612TIP3   OH243712   6.647   4.536   5.148
14612TIP3    H143713   6.708   4.592   5.202
14612TIP3    H243714   6.675   4.561   5.057
14613TIP3   OH243715   6.066   4.757   6.515
14613TIP3    H143716   6.072   4.843   6.562
14613TIP3    H243717   5.971   4.738   6.525
14614TIP3   OH243718   6.390   5.215   5.421
14614TIP3    H143719   6.468   5.267   5.446
14614TIP3    H243720   6.327   5.282   5.393
14615TIP3   OH243721   6.108   5.371   6.504
14615TIP3    H143722   6.074   5.367   6.413
14615TIP3    H243723   6.029   5.348   6.557
14616TIP3   OH243724   7.164   3.774   5.196
14616TIP3    H143725   7.083   3.793   5.248
14616TIP3    H243726   7.176   3.858   5.148
14617TIP3   OH243727   5.909   4.514   5.537
14617TIP3    H143728   5.839   4.560   5.486
14617TIP3    H243729   5.864   4.432   5.560
14618TIP3   OH243730   6.962   5.145   4.746
14618TIP3    H143731   6.964   5.241   4.725
14618TIP3    H243732   7.056   5.122   4.732
14619TIP3   OH243733   5.688   4.899   6.451
14619TIP3    H143734   5.622   4.877   6.382
14619TIP3    H243735   5.723   4.811   6.475
14620TIP3   OH243736   5.541   5.090   6.088
14620TIP3    H143737   5.637   5.090   6.076
14620TIP3    H243738   5.527   5.172   6.136
14621TIP3   OH243739   7.405   5.541   6.140
14621TIP3    H143740   7.404   5.444   6.153
14621TIP3    H243741   7.322   5.567   6.185
14622TIP3   OH243742   6.513   5.329   6.274
14622TIP3    H143743   6.513   5.422   6.306
14622TIP3    H243744   6.441   5.291   6.329
14623TIP3   OH243745   6.265   5.456   5.225
14623TIP3    H143746   6.224   5.448   5.137
14623TIP3    H243747   6.242   5.547   5.251
14624TIP3   OH243748   5.712   5.307   5.606
14624TIP3    H143749   5.757   5.298   5.693
14624TIP3    H243750   5.646   5.236   5.614
14625TIP3   OH243751   6.463   5.358   4.910
14625TIP3    H143752   6.542   5.342   4.857
14625TIP3    H243753   6.503   5.378   4.998
14626TIP3   OH243754   6.527   5.415   5.162
14626TIP3    H143755   6.439   5.418   5.203
14626TIP3    H243756   6.581   5.373   5.231
14627TIP3   OH243757   7.294   4.673   6.416
14627TIP3    H143758   7.218   4.689   6.359
14627TIP3    H243759   7.310   4.577   6.403
14628TIP3   OH243760   5.893   5.082   6.442
14628TIP3    H143761   5.942   5.064   6.524
14628TIP3    H243762   5.819   5.018   6.449
14629TIP3   OH243763   6.293   3.906   6.222
14629TIP3    H143764   6.202   3.875   6.198
14629TIP3    H243765   6.269   3.989   6.267
14630TIP3   OH243766   6.825   4.021   6.417
14630TIP3    H143767   6.893   3.994   6.483
14630TIP3    H243768   6.741   4.001   6.463
14631TIP3   OH243769   7.064   4.449   6.334
14631TIP3    H143770   7.017   4.446   6.420
14631TIP3    H243771   7.041   4.537   6.300
14632TIP3   OH243772   6.720   4.589   4.892
14632TIP3    H143773   6.687   4.556   4.806
14632TIP3    H243774   6.804   4.631   4.865
14633TIP3   OH243775   6.438   3.955   5.193
14633TIP3    H143776   6.406   3.955   5.286
14633TIP3    H243777   6.399   3.872   5.162
14634TIP3   OH243778   6.223   4.420   6.242
14634TIP3    H143779   6.173   4.442   6.323
14634TIP3    H243780   6.208   4.501   6.188
14635TIP3   OH243781   6.107   4.306   5.756
14635TIP3    H143782   6.014   4.280   5.773
14635TIP3    H243783   6.120   4.265   5.667
14636TIP3   OH243784   6.599   4.391   5.483
14636TIP3    H143785   6.545   4.463   5.445
14636TIP3    H243786   6.653   4.364   5.407
14637TIP3   OH243787   6.771   4.673   6.571
14637TIP3    H143788   6.749   4.600   6.633
14637TIP3    H243789   6.865   4.686   6.591
14638TIP3   OH243790   6.756   4.422   5.724
14638TIP3    H143791   6.698   4.454   5.653
14638TIP3    H243792   6.787   4.339   5.681
14639TIP3   OH243793   6.043   4.450   6.451
14639TIP3    H143794   6.065   4.515   6.520
14639TIP3    H243795   6.030   4.369   6.503
14640TIP3   OH243796   6.094   3.928   5.160
14640TIP3    H143797   6.085   3.924   5.258
14640TIP3    H243798   6.013   3.976   5.136
14641TIP3   OH243799   5.635   3.973   6.031
14641TIP3    H143800   5.711   4.004   6.084
14641TIP3    H243801   5.675   3.941   5.949
14642TIP3   OH243802   5.613   3.955   5.550
14642TIP3    H143803   5.657   3.996   5.472
14642TIP3    H243804   5.550   4.026   5.573
14643TIP3   OH243805   6.764   4.670   6.146
14643TIP3    H143806   6.798   4.597   6.089
14643TIP3    H243807   6.736   4.618   6.225
14644TIP3   OH243808   6.432   4.128   5.818
14644TIP3    H143809   6.349   4.127   5.870
14644TIP3    H243810   6.499   4.132   5.887
14645TIP3   OH243811   5.869   4.185   5.825
14645TIP3    H143812   5.774   4.193   5.800
14645TIP3    H243813   5.890   4.093   5.802
14646TIP3   OH243814   6.140   4.180   5.514
14646TIP3    H143815   6.234   4.197   5.493
14646TIP3    H243816   6.093   4.206   5.431
14647TIP3   OH243817   6.926   4.204   6.017
14647TIP3    H143818   6.892   4.216   6.109
14647TIP3    H243819   6.859   4.143   5.981
14648TIP3   OH243820   5.978   4.216   5.294
14648TIP3    H143821   5.903   4.171   5.251
14648TIP3    H243822   6.028   4.247   5.216
14649TIP3   OH243823   7.094   5.894   6.237
14649TIP3    H143824   7.094   5.917   6.142
14649TIP3    H243825   7.175   5.941   6.267
14650TIP3   OH243826   6.054   5.003   6.660
14650TIP3    H143827   6.133   5.035   6.708
14650TIP3    H243828   5.988   5.003   6.733
14651TIP3   OH243829   6.518   4.455   5.914
14651TIP3    H143830   6.592   4.417   5.864
14651TIP3    H243831   6.530   4.416   6.003
14652TIP3   OH243832   6.044   3.945   5.791
14652TIP3    H143833   6.010   3.865   5.836
14652TIP3    H243834   6.094   3.909   5.718
14653TIP3   OH243835   6.495   4.351   6.207
14653TIP3    H143836   6.405   4.389   6.219
14653TIP3    H243837   6.552   4.412   6.257
14654TIP3   OH243838   6.231   4.737   5.283
14654TIP3    H143839   6.157   4.673   5.291
14654TIP3    H243840   6.223   4.781   5.372
14655TIP3   OH243841   7.134   4.981   5.930
14655TIP3    H143842   7.159   5.030   5.849
14655TIP3    H243843   7.047   4.942   5.905
14656TIP3   OH243844   6.690   4.059   5.158
14656TIP3    H143845   6.593   4.044   5.167
14656TIP3    H243846   6.700   4.154   5.182
14657TIP3   OH243847   6.629   5.061   6.297
14657TIP3    H143848   6.650   5.041   6.389
14657TIP3    H243849   6.593   5.151   6.303
14658TIP3   OH243850   6.760   4.305   5.262
14658TIP3    H143851   6.856   4.310   5.280
14658TIP3    H243852   6.744   4.385   5.208
14659TIP3   OH243853   5.924   4.766   5.977
14659TIP3    H143854   5.962   4.737   5.892
14659TIP3    H243855   5.960   4.701   6.039
14660TIP3   OH243856   5.803   4.686   6.588
14660TIP3    H143857   5.823   4.673   6.683
14660TIP3    H243858   5.733   4.621   6.574
14661TIP3   OH243859   6.527   4.800   6.610
14661TIP3    H143860   6.468   4.742   6.558
14661TIP3    H243861   6.615   4.768   6.581
14662TIP3   OH243862   6.792   5.318   6.194
14662TIP3    H143863   6.695   5.321   6.205
14662TIP3    H243864   6.820   5.373   6.270
14663TIP3   OH243865   7.204   4.391   5.100
14663TIP3    H143866   7.140   4.347   5.039
14663TIP3    H243867   7.200   4.480   5.060
14664TIP3   OH243868   7.418   5.248   6.184
14664TIP3    H143869   7.320   5.245   6.174
14664TIP3    H243870   7.445   5.221   6.094
14665TIP3   OH243871   6.893   5.213   5.007
14665TIP3    H143872   6.878   5.138   5.066
14665TIP3    H243873   6.912   5.171   4.921
14666TIP3   OH243874   6.897   4.843   5.850
14666TIP3    H143875   6.803   4.817   5.862
14666TIP3    H243876   6.932   4.764   5.804
14667TIP3   OH243877   6.022   5.066   5.595
14667TIP3    H143878   6.024   5.151   5.547
14667TIP3    H243879   5.928   5.057   5.613
14668TIP3   OH243880   5.583   4.379   5.298
14668TIP3    H143881   5.631   4.459   5.326
14668TIP3    H243882   5.507   4.380   5.359
14669TIP3   OH243883   6.165   4.835   5.535
14669TIP3    H143884   6.131   4.925   5.556
14669TIP3    H243885   6.132   4.786   5.612
14670TIP3   OH243886   6.293   5.414   6.070
14670TIP3    H143887   6.332   5.487   6.019
14670TIP3    H243888   6.370   5.382   6.119
14671TIP3   OH243889   5.944   5.308   5.451
14671TIP3    H143890   5.859   5.315   5.498
14671TIP3    H243891   5.976   5.401   5.457
14672TIP3   OH243892   6.683   5.048   6.028
14672TIP3    H143893   6.675   5.046   6.126
14672TIP3    H243894   6.765   4.998   6.015
14673TIP3   OH243895   6.930   5.584   6.079
14673TIP3    H143896   6.851   5.528   6.068
14673TIP3    H243897   6.917   5.649   6.007
14674TIP3   OH243898   6.995   5.419   4.731
14674TIP3    H143899   7.027   5.487   4.670
14674TIP3    H243900   6.908   5.459   4.752
14675TIP3   OH243901   6.017   4.192   6.598
14675TIP3    H143902   5.921   4.199   6.613
14675TIP3    H243903   6.044   4.132   6.670
14676TIP3   OH243904   6.813   4.877   5.138
14676TIP3    H143905   6.808   4.805   5.203
14676TIP3    H243906   6.908   4.874   5.114
14677TIP3   OH243907   5.734   5.279   6.229
14677TIP3    H143908   5.782   5.201   6.261
14677TIP3    H243909   5.761   5.346   6.293
14678TIP3   OH243910   6.080   4.882   4.928
14678TIP3    H143911   6.012   4.846   4.868
14678TIP3    H243912   6.027   4.918   5.003
14679TIP3   OH243913   5.968   4.927   5.179
14679TIP3    H143914   6.034   4.902   5.245
14679TIP3    H243915   5.971   5.026   5.187
14680TIP3   OH243916   5.704   4.623   5.385
14680TIP3    H143917   5.638   4.664   5.444
14680TIP3    H243918   5.718   4.697   5.322
14681TIP3   OH243919   6.851   4.256   6.276
14681TIP3    H143920   6.931   4.296   6.315
14681TIP3    H243921   6.837   4.176   6.331
14682TIP3   OH243922   6.732   4.010   5.440
14682TIP3    H143923   6.718   4.035   5.347
14682TIP3    H243924   6.771   4.091   5.478
14683TIP3   OH243925   6.225   5.116   5.114
14683TIP3    H143926   6.147   5.150   5.161
14683TIP3    H243927   6.267   5.198   5.086
14684TIP3   OH243928   6.423   4.186   5.544
14684TIP3    H143929   6.488   4.257   5.527
14684TIP3    H243930   6.427   4.180   5.642
14685TIP3   OH243931   6.691   4.507   6.354
14685TIP3    H143932   6.708   4.562   6.433
14685TIP3    H243933   6.747   4.430   6.369
14686TIP3   OH243934   6.568   3.917   5.649
14686TIP3    H143935   6.561   3.993   5.710
14686TIP3    H243936   6.628   3.955   5.580
14687TIP3   OH243937   5.970   5.198   5.199
14687TIP3    H143938   5.939   5.267   5.137
14687TIP3    H243939   5.957   5.241   5.286
14688TIP3   OH243940   6.078   3.911   5.437
14688TIP3    H143941   6.075   4.002   5.473
14688TIP3    H243942   6.174   3.894   5.446
14689TIP3   OH243943   7.332   4.406   6.336
14689TIP3    H143944   7.233   4.403   6.339
14689TIP3    H243945   7.347   4.374   6.246
14690TIP3   OH243946   6.983   4.601   5.722
14690TIP3    H143947   6.907   4.542   5.735
14690TIP3    H243948   7.055   4.555   5.770
14691TIP3   OH243949   5.696   4.838   5.184
14691TIP3    H143950   5.762   4.905   5.208
14691TIP3    H243951   5.749   4.784   5.122
14692TIP3   OH243952   5.641   4.108   5.321
14692TIP3    H143953   5.635   4.206   5.316
14692TIP3    H243954   5.554   4.082   5.288
14693TIP3   OH243955   6.951   5.554   5.672
14693TIP3    H143956   6.909   5.601   5.597
14693TIP3    H243957   7.045   5.574   5.652
14694TIP3   OH243958   6.029   3.826   6.199
14694TIP3    H143959   5.995   3.794   6.113
14694TIP3    H243960   6.016   3.747   6.257
14695TIP3   OH243961   5.566   5.045   5.580
14695TIP3    H143962   5.491   5.073   5.636
14695TIP3    H243963   5.540   5.084   5.494
14696TIP3   OH243964   5.721   5.582   6.650
14696TIP3    H143965   5.807   5.580   6.697
14696TIP3    H243966   5.698   5.488   6.648
14697TIP3   OH243967   6.208   5.553   6.694
14697TIP3    H143968   6.301   5.530   6.701
14697TIP3    H243969   6.181   5.495   6.620
14698TIP3   OH243970   6.842   5.457   6.428
14698TIP3    H143971   6.835   5.387   6.496
14698TIP3    H243972   6.921   5.507   6.457
14699TIP3   OH243973   5.853   4.991   6.851
14699TIP3    H143974   5.870   4.895   6.855
14699TIP3    H243975   5.765   4.994   6.808
14700TIP3   OH243976   5.839   4.649   5.043
14700TIP3    H143977   5.883   4.608   5.119
14700TIP3    H243978   5.907   4.641   4.973
14701TIP3   OH243979   6.462   5.075   6.624
14701TIP3    H143980   6.419   5.091   6.537
14701TIP3    H243981   6.492   4.982   6.617
14702TIP3   OH243982   6.953   5.081   6.230
14702TIP3    H143983   7.028   5.127   6.186
14702TIP3    H243984   6.883   5.148   6.218
14703TIP3   OH243985   5.972   4.724   6.832
14703TIP3    H143986   6.045   4.664   6.815
14703TIP3    H243987   5.995   4.757   6.921
14704TIP3   OH243988   6.036   4.544   5.263
14704TIP3    H143989   6.007   4.511   5.349
14704TIP3    H243990   6.070   4.462   5.220
14705TIP3   OH243991   6.308   4.611   6.495
14705TIP3    H143992   6.230   4.670   6.499
14705TIP3    H243993   6.354   4.644   6.414
14706TIP3   OH243994   6.139   4.339   5.106
14706TIP3    H143995   6.114   4.330   5.012
14706TIP3    H243996   6.237   4.341   5.101
14707TIP3   OH243997   6.823   5.012   6.629
14707TIP3    H143998   6.904   4.993   6.580
14707TIP3    H243999   6.823   4.943   6.697
14708TIP3   OH244000   6.964   4.667   4.770
14708TIP3    H144001   6.944   4.625   4.684
14708TIP3    H244002   6.934   4.759   4.749
14709TIP3   OH244003   6.431   4.398   6.621
14709TIP3    H144004   6.429   4.317   6.566
14709TIP3    H244005   6.387   4.464   6.564
14710TIP3   OH244006   6.433   4.182   6.427
14710TIP3    H144007   6.459   4.226   6.343
14710TIP3    H244008   6.338   4.161   6.409
14711TIP3   OH244009   6.463   4.721   6.299
14711TIP3    H144010   6.545   4.729   6.248
14711TIP3    H244011   6.406   4.789   6.258
14712TIP3   OH244012   7.050   4.688   6.690
14712TIP3    H144013   7.096   4.603   6.683
14712TIP3    H244014   7.114   4.747   6.647
14713TIP3   OH244015   7.084   4.939   6.419
14713TIP3    H144016   7.026   4.993   6.359
14713TIP3    H244017   7.171   4.960   6.379
14714TIP3   OH244018   6.308   4.513   6.850
14714TIP3    H144019   6.238   4.446   6.864
14714TIP3    H244020   6.343   4.486   6.762
14715TIP3   OH244021   6.565   3.948   6.493
14715TIP3    H144022   6.517   4.032   6.471
14715TIP3    H244023   6.494   3.882   6.482
14716TIP3   OH244024   6.691   4.454   6.711
14716TIP3    H144025   6.679   4.443   6.807
14716TIP3    H244026   6.601   4.430   6.681
14717TIP3   OH244027   6.932   4.404   6.566
14717TIP3    H144028   6.854   4.404   6.626
14717TIP3    H244029   7.003   4.371   6.624
14718TIP3   OH244030   7.158   4.343   6.722
14718TIP3    H144031   7.172   4.248   6.738
14718TIP3    H244032   7.156   4.381   6.812
14719TIP3   OH244033   6.148   4.292   6.901
14719TIP3    H144034   6.156   4.202   6.866
14719TIP3    H244035   6.183   4.280   6.992
14720TIP3   OH244036   6.661   3.959   6.750
14720TIP3    H144037   6.729   3.888   6.745
14720TIP3    H244038   6.621   3.951   6.661
14721TIP3   OH244039   6.726   4.174   6.909
14721TIP3    H144040   6.702   4.103   6.846
14721TIP3    H244041   6.648   4.233   6.903
14722TIP3   OH244042   5.928   5.388   4.989
14722TIP3    H144043   6.025   5.386   4.982
14722TIP3    H244044   5.908   5.481   4.977
14723TIP3   OH244045   5.438   4.784   5.252
14723TIP3    H144046   5.528   4.808   5.221
14723TIP3    H244047   5.419   4.701   5.206
14724TIP3   OH244048   5.342   5.395   5.636
14724TIP3    H144049   5.270   5.336   5.604
14724TIP3    H244050   5.383   5.338   5.705
14725TIP3   OH244051   5.479   5.250   5.825
14725TIP3    H144052   5.460   5.176   5.885
14725TIP3    H244053   5.526   5.310   5.884
14726TIP3   OH244054   7.201   5.648   5.627
14726TIP3    H144055   7.229   5.684   5.713
14726TIP3    H244056   7.261   5.694   5.566
14727TIP3   OH244057   7.231   5.670   5.910
14727TIP3    H144058   7.193   5.579   5.905
14727TIP3    H244059   7.310   5.651   5.963
14728TIP3   OH244060   7.280   5.345   6.482
14728TIP3    H144061   7.205   5.354   6.545
14728TIP3    H244062   7.321   5.433   6.486
14729TIP3   OH244063   7.096   4.857   5.101
14729TIP3    H144064   7.163   4.923   5.075
14729TIP3    H244065   7.137   4.818   5.181
14730TIP3   OH244066   7.223   4.724   5.304
14730TIP3    H144067   7.158   4.684   5.366
14730TIP3    H244068   7.288   4.764   5.365
14731TIP3   OH244069   7.273   5.115   5.737
14731TIP3    H144070   7.329   5.055   5.684
14731TIP3    H244071   7.267   5.193   5.678
14732TIP3   OH244072   7.109   5.416   5.935
14732TIP3    H144073   7.039   5.461   5.985
14732TIP3    H244074   7.058   5.369   5.865
14733TIP3   OH244075   7.163   4.631   4.954
14733TIP3    H144076   7.090   4.635   4.887
14733TIP3    H244077   7.137   4.708   5.009
14734TIP3   OH244078   7.032   4.305   4.908
14734TIP3    H144079   6.992   4.348   4.832
14734TIP3    H244080   7.004   4.212   4.894
14735TIP3   OH244081   7.038   4.580   5.454
14735TIP3    H144082   7.046   4.484   5.452
14735TIP3    H244083   7.024   4.598   5.549
14736TIP3   OH244084   5.665   4.653   6.200
14736TIP3    H144085   5.662   4.626   6.106
14736TIP3    H244086   5.762   4.655   6.215
14737TIP3   OH244087   7.325   5.005   6.309
14737TIP3    H144088   7.399   4.941   6.301
14737TIP3    H244089   7.353   5.077   6.250
14738TIP3   OH244090   7.509   4.813   6.332
14738TIP3    H144091   7.437   4.760   6.371
14738TIP3    H244092   7.584   4.750   6.342
14739TIP3   OH244093   6.977   4.038   4.893
14739TIP3    H144094   7.051   4.010   4.950
14739TIP3    H244095   6.903   3.982   4.922
14740TIP3   OH244096   7.031   4.295   5.349
14740TIP3    H144097   7.073   4.207   5.364
14740TIP3    H244098   7.090   4.331   5.280
14741TIP3   OH244099   7.196   4.473   5.843
14741TIP3    H144100   7.282   4.500   5.803
14741TIP3    H244101   7.208   4.510   5.932
14742TIP3   OH244102   7.262   4.615   6.077
14742TIP3    H144103   7.183   4.651   6.124
14742TIP3    H244104   7.294   4.695   6.030
14743TIP3   OH244105   5.880   4.343   6.872
14743TIP3    H144106   5.978   4.336   6.875
14743TIP3    H244107   5.856   4.259   6.916
14744TIP3   OH244108   7.713   4.203   6.633
14744TIP3    H144109   7.773   4.138   6.589
14744TIP3    H244110   7.688   4.261   6.558
14745TIP3   OH244111   7.144   4.046   5.384
14745TIP3    H144112   7.191   4.031   5.469
14745TIP3    H244113   7.082   3.970   5.384
14746TIP3   OH244114   5.843   4.033   6.202
14746TIP3    H144115   5.907   3.960   6.215
14746TIP3    H244116   5.903   4.110   6.200
14747TIP3   OH244117   5.647   4.308   6.280
14747TIP3    H144118   5.695   4.302   6.195
14747TIP3    H244119   5.672   4.396   6.309
14748TIP3   OH244120   7.587   4.348   6.440
14748TIP3    H144121   7.498   4.386   6.457
14748TIP3    H244122   7.563   4.275   6.379
14749TIP3   OH244123   7.225   3.984   5.017
14749TIP3    H144124   7.263   3.911   4.966
14749TIP3    H244125   7.291   4.055   5.008
14750TIP3   OH244126   5.628   3.812   5.780
14750TIP3    H144127   5.534   3.810   5.805
14750TIP3    H244128   5.626   3.870   5.700
14751TIP3   OH244129   6.789   5.513   5.287
14751TIP3    H144130   6.838   5.497   5.203
14751TIP3    H244131   6.842   5.583   5.328
14752TIP3   OH244132   5.847   3.888   6.592
14752TIP3    H144133   5.799   3.886   6.676
14752TIP3    H244134   5.781   3.931   6.534
14753TIP3   OH244135   5.889   5.317   6.672
14753TIP3    H144136   5.797   5.289   6.653
14753TIP3    H244137   5.895   5.299   6.767
14754TIP3   OH244138   6.066   5.348   6.219
14754TIP3    H144139   6.016   5.423   6.180
14754TIP3    H244140   6.152   5.364   6.174
14755TIP3   OH244141   6.513   5.595   6.356
14755TIP3    H144142   6.555   5.597   6.445
14755TIP3    H244143   6.580   5.645   6.304
14756TIP3   OH244144   6.692   5.745   6.214
14756TIP3    H144145   6.764   5.696   6.171
14756TIP3    H244146   6.743   5.804   6.274
14757TIP3   OH244147   7.485   4.110   6.315
14757TIP3    H144148   7.394   4.106   6.282
14757TIP3    H244149   7.515   4.017   6.301
14758TIP3   OH244150   5.745   5.608   6.241
14758TIP3    H144151   5.656   5.642   6.215
14758TIP3    H244152   5.748   5.638   6.333
14759TIP3   OH244153   5.980   5.585   6.098
14759TIP3    H144154   5.894   5.599   6.144
14759TIP3    H244155   5.959   5.620   6.009
14760TIP3   OH244156   6.406   5.617   5.896
14760TIP3    H144157   6.336   5.637   5.830
14760TIP3    H244158   6.419   5.704   5.938
14761TIP3   OH244159   6.674   5.555   5.947
14761TIP3    H144160   6.579   5.573   5.927
14761TIP3    H244161   6.717   5.631   5.906
14762TIP3   OH244162   6.880   5.747   5.864
14762TIP3    H144163   6.867   5.833   5.817
14762TIP3    H244164   6.907   5.689   5.790
14763TIP3   OH244165   5.656   5.403   5.986
14763TIP3    H144166   5.681   5.377   6.078
14763TIP3    H244167   5.727   5.359   5.936
14764TIP3   OH244168   5.847   5.272   5.841
14764TIP3    H144169   5.863   5.189   5.891
14764TIP3    H244170   5.938   5.311   5.839
14765TIP3   OH244171   6.113   5.368   5.844
14765TIP3    H144172   6.146   5.277   5.834
14765TIP3    H244173   6.154   5.392   5.929
14766TIP3   OH244174   6.690   4.025   5.931
14766TIP3    H144175   6.646   3.957   5.985
14766TIP3    H244176   6.762   3.975   5.888
14767TIP3   OH244177   7.215   3.901   5.837
14767TIP3    H144178   7.251   3.956   5.764
14767TIP3    H244179   7.120   3.923   5.833
14768TIP3   OH244180   7.309   4.006   5.602
14768TIP3    H144181   7.383   3.955   5.562
14768TIP3    H244182   7.342   4.098   5.588
14769TIP3   OH244183   5.940   3.734   5.951
14769TIP3    H144184   5.848   3.701   5.950
14769TIP3    H244185   5.989   3.650   5.944
14770TIP3   OH244186   5.731   3.601   5.599
14770TIP3    H144187   5.755   3.660   5.525
14770TIP3    H244188   5.694   3.664   5.664
14771TIP3   OH244189   6.382   3.765   5.830
14771TIP3    H144190   6.440   3.817   5.773
14771TIP3    H244191   6.400   3.804   5.917
14772TIP3   OH244192   6.931   3.911   5.816
14772TIP3    H144193   6.927   3.876   5.726
14772TIP3    H244194   6.916   3.830   5.869
14773TIP3   OH244195   6.959   3.833   5.376
14773TIP3    H144196   6.872   3.876   5.387
14773TIP3    H244197   6.944   3.749   5.424
14774TIP3   OH244198   5.446   5.167   5.372
14774TIP3    H144199   5.358   5.136   5.343
14774TIP3    H244200   5.433   5.263   5.362
14775TIP3   OH244201   5.841   3.763   5.362
14775TIP3    H144202   5.890   3.701   5.305
14775TIP3    H244203   5.913   3.817   5.399
14776TIP3   OH244204   6.356   3.936   5.460
14776TIP3    H144205   6.416   3.891   5.521
14776TIP3    H244206   6.376   4.029   5.485
14777TIP3   OH244207   6.199   5.372   4.950
14777TIP3    H144208   6.296   5.386   4.934
14777TIP3    H244209   6.185   5.298   4.889
14778TIP3   OH244210   6.934   5.479   5.055
14778TIP3    H144211   6.922   5.382   5.037
14778TIP3    H244212   6.891   5.516   4.975
14779TIP3   OH244213   6.147   4.013   6.839
14779TIP3    H144214   6.113   3.944   6.899
14779TIP3    H244215   6.241   4.015   6.867
14780TIP3   OH244216   6.395   4.011   6.960
14780TIP3    H144217   6.480   3.985   6.922
14780TIP3    H244218   6.382   3.941   7.028
14781TIP3   OH244219   5.554   5.236   5.031
14781TIP3    H144220   5.486   5.260   5.097
14781TIP3    H244221   5.599   5.164   5.078
14782TIP3   OH244222   7.219   4.073   6.748
14782TIP3    H144223   7.240   4.041   6.839
14782TIP3    H244224   7.307   4.068   6.705
14783TIP3   OH244225   7.159   5.625   6.242
14783TIP3    H144226   7.080   5.594   6.193
14783TIP3    H244227   7.143   5.722   6.242
14784TIP3   OH244228   8.428   5.002   5.000
14784TIP3    H144229   8.399   5.094   4.988
14784TIP3    H244230   8.347   4.953   4.982
14785TIP3   OH244231   8.402   5.001   5.391
14785TIP3    H144232   8.451   4.973   5.471
14785TIP3    H244233   8.396   4.918   5.342
14786TIP3   OH244234   7.725   4.893   5.753
14786TIP3    H144235   7.757   4.828   5.818
14786TIP3    H244236   7.801   4.954   5.750
14787TIP3   OH244237   8.672   5.297   5.067
14787TIP3    H144238   8.659   5.228   5.135
14787TIP3    H244239   8.696   5.373   5.123
14788TIP3   OH244240   7.692   5.299   5.476
14788TIP3    H144241   7.685   5.202   5.482
14788TIP3    H244242   7.789   5.310   5.478
14789TIP3   OH244243   7.404   4.506   5.264
14789TIP3    H144244   7.357   4.590   5.280
14789TIP3    H244245   7.330   4.452   5.228
14790TIP3   OH244246   7.461   4.792   5.430
14790TIP3    H144247   7.511   4.718   5.471
14790TIP3    H244248   7.526   4.830   5.370
14791TIP3   OH244249   8.312   5.756   5.080
14791TIP3    H144250   8.365   5.684   5.042
14791TIP3    H244251   8.311   5.734   5.174
14792TIP3   OH244252   8.224   5.221   5.433
14792TIP3    H144253   8.266   5.140   5.398
14792TIP3    H244254   8.305   5.269   5.458
14793TIP3   OH244255   9.230   4.548   5.431
14793TIP3    H144256   9.258   4.627   5.481
14793TIP3    H244257   9.244   4.580   5.340
14794TIP3   OH244258   7.964   4.382   5.437
14794TIP3    H144259   7.950   4.456   5.374
14794TIP3    H244260   7.908   4.314   5.394
14795TIP3   OH244261   8.671   4.442   5.052
14795TIP3    H144262   8.733   4.445   5.128
14795TIP3    H244263   8.698   4.521   5.005
14796TIP3   OH244264   7.606   4.587   5.540
14796TIP3    H144265   7.689   4.568   5.589
14796TIP3    H244266   7.620   4.530   5.462
14797TIP3   OH244267   8.050   4.783   5.328
14797TIP3    H144268   8.144   4.760   5.344
14797TIP3    H244269   8.013   4.697   5.301
14798TIP3   OH244270   9.310   4.744   5.609
14798TIP3    H144271   9.229   4.797   5.591
14798TIP3    H244272   9.333   4.778   5.697
14799TIP3   OH244273   7.969   4.365   5.867
14799TIP3    H144274   7.909   4.406   5.801
14799TIP3    H244275   7.920   4.384   5.949
14800TIP3   OH244276   8.333   5.234   4.865
14800TIP3    H144277   8.274   5.195   4.799
14800TIP3    H244278   8.281   5.312   4.893
14801TIP3   OH244279   8.073   5.141   5.665
14801TIP3    H144280   8.011   5.206   5.704
14801TIP3    H244281   8.120   5.195   5.598
14802TIP3   OH244282   8.877   4.454   5.242
14802TIP3    H144283   8.852   4.444   5.336
14802TIP3    H244284   8.902   4.549   5.241
14803TIP3   OH244285   7.838   4.483   5.655
14803TIP3    H144286   7.898   4.558   5.678
14803TIP3    H244287   7.890   4.442   5.582
14804TIP3   OH244288   7.899   5.333   5.757
14804TIP3    H144289   7.878   5.422   5.721
14804TIP3    H244290   7.822   5.321   5.817
14805TIP3   OH244291   7.303   5.024   5.001
14805TIP3    H144292   7.260   5.048   4.916
14805TIP3    H244293   7.329   5.112   5.036
14806TIP3   OH244294   8.735   5.537   5.230
14806TIP3    H144295   8.648   5.531   5.274
14806TIP3    H244296   8.731   5.627   5.192
14807TIP3   OH244297   9.031   4.435   5.596
14807TIP3    H144298   8.943   4.469   5.572
14807TIP3    H244299   9.089   4.476   5.528
14808TIP3   OH244300   8.324   4.082   5.576
14808TIP3    H144301   8.315   3.990   5.605
14808TIP3    H244302   8.249   4.123   5.625
14809TIP3   OH244303   8.446   5.582   4.909
14809TIP3    H144304   8.503   5.506   4.890
14809TIP3    H244305   8.502   5.654   4.870
14810TIP3   OH244306   8.594   5.347   4.808
14810TIP3    H144307   8.509   5.299   4.809
14810TIP3    H244308   8.626   5.330   4.899
14811TIP3   OH244309   8.965   5.456   5.581
14811TIP3    H144310   8.953   5.378   5.522
14811TIP3    H244311   8.948   5.530   5.520
14812TIP3   OH244312   8.253   4.850   4.834
14812TIP3    H144313   8.174   4.902   4.809
14812TIP3    H244314   8.303   4.848   4.751
14813TIP3   OH244315   8.215   4.632   4.556
14813TIP3    H144316   8.282   4.679   4.609
14813TIP3    H244317   8.273   4.570   4.507
14814TIP3   OH244318   9.162   5.091   5.419
14814TIP3    H144319   9.078   5.140   5.432
14814TIP3    H244320   9.184   5.115   5.328
14815TIP3   OH244321   8.608   4.931   4.812
14815TIP3    H144322   8.550   4.957   4.887
14815TIP3    H244323   8.687   4.899   4.861
14816TIP3   OH244324   8.833   4.969   5.723
14816TIP3    H144325   8.837   5.049   5.779
14816TIP3    H244326   8.756   4.990   5.668
14817TIP3   OH244327   7.837   4.928   5.225
14817TIP3    H144328   7.799   4.869   5.157
14817TIP3    H244329   7.916   4.878   5.255
14818TIP3   OH244330   7.967   5.340   5.374
14818TIP3    H144331   7.950   5.290   5.293
14818TIP3    H244332   8.057   5.311   5.396
14819TIP3   OH244333   7.972   4.901   5.576
14819TIP3    H144334   8.011   4.885   5.488
14819TIP3    H244335   8.015   4.986   5.603
14820TIP3   OH244336   8.497   5.536   5.355
14820TIP3    H144337   8.484   5.618   5.406
14820TIP3    H244338   8.484   5.466   5.422
14821TIP3   OH244339   8.111   5.453   5.902
14821TIP3    H144340   8.060   5.518   5.955
14821TIP3    H244341   8.039   5.405   5.858
14822TIP3   OH244342   8.447   4.790   4.637
14822TIP3    H144343   8.507   4.848   4.689
14822TIP3    H244344   8.473   4.815   4.545
14823TIP3   OH244345   7.862   5.014   6.003
14823TIP3    H144346   7.869   5.101   6.048
14823TIP3    H244347   7.766   4.998   6.012
14824TIP3   OH244348   8.186   5.470   4.906
14824TIP3    H144349   8.262   5.523   4.934
14824TIP3    H244350   8.122   5.537   4.878
14825TIP3   OH244351   7.904   5.622   5.987
14825TIP3    H144352   7.867   5.621   5.897
14825TIP3    H244353   7.825   5.604   6.042
14826TIP3   OH244354   8.960   4.032   4.682
14826TIP3    H144355   8.880   4.053   4.735
14826TIP3    H244356   8.973   4.116   4.633
14827TIP3   OH244357   7.706   4.765   5.023
14827TIP3    H144358   7.641   4.817   4.971
14827TIP3    H244359   7.651   4.690   5.049
14828TIP3   OH244360   8.758   5.398   4.232
14828TIP3    H144361   8.765   5.495   4.217
14828TIP3    H244362   8.851   5.370   4.221
14829TIP3   OH244363   7.482   5.155   5.939
14829TIP3    H144364   7.420   5.131   5.867
14829TIP3    H244365   7.520   5.069   5.965
14830TIP3   OH244366   7.338   5.346   5.575
14830TIP3    H144367   7.434   5.343   5.562
14830TIP3    H244368   7.328   5.428   5.626
14831TIP3   OH244369   9.204   5.797   5.624
14831TIP3    H144370   9.202   5.701   5.643
14831TIP3    H244371   9.121   5.825   5.669
14832TIP3   OH244372   8.307   5.587   5.757
14832TIP3    H144373   8.309   5.680   5.790
14832TIP3    H244374   8.240   5.548   5.817
14833TIP3   OH244375   8.065   5.715   4.711
14833TIP3    H144376   8.021   5.702   4.626
14833TIP3    H244377   8.037   5.805   4.737
14834TIP3   OH244378   7.507   5.564   5.094
14834TIP3    H144379   7.556   5.555   5.179
14834TIP3    H244380   7.440   5.494   5.105
14835TIP3   OH244381   8.268   5.613   4.355
14835TIP3    H144382   8.329   5.546   4.317
14835TIP3    H244383   8.304   5.625   4.445
14836TIP3   OH244384   8.318   5.662   4.625
14836TIP3    H144385   8.231   5.673   4.668
14836TIP3    H244386   8.372   5.629   4.699
14837TIP3   OH244387   9.094   4.930   5.903
14837TIP3    H144388   9.024   4.946   5.838
14837TIP3    H244389   9.110   4.835   5.892
14838TIP3   OH244390   7.689   5.337   5.927
14838TIP3    H144391   7.739   5.324   6.011
14838TIP3    H244392   7.615   5.274   5.938
14839TIP3   OH244393   8.087   4.163   5.707
14839TIP3    H144394   7.996   4.133   5.687
14839TIP3    H244395   8.067   4.246   5.754
14840TIP3   OH244396   8.623   4.277   5.902
14840TIP3    H144397   8.692   4.255   5.967
14840TIP3    H244398   8.540   4.259   5.951
14841TIP3   OH244399   8.858   4.703   5.819
14841TIP3    H144400   8.815   4.702   5.907
14841TIP3    H244401   8.842   4.795   5.789
14842TIP3   OH244402   8.518   4.839   4.378
14842TIP3    H144403   8.488   4.810   4.290
14842TIP3    H244404   8.599   4.889   4.355
14843TIP3   OH244405   8.220   4.223   4.673
14843TIP3    H144406   8.262   4.211   4.759
14843TIP3    H244407   8.191   4.133   4.650
14844TIP3   OH244408   8.016   4.678   5.726
14844TIP3    H144409   7.973   4.703   5.810
14844TIP3    H244410   8.002   4.760   5.673
14845TIP3   OH244411   7.903   4.557   5.238
14845TIP3    H144412   7.810   4.537   5.260
14845TIP3    H244413   7.911   4.519   5.149
14846TIP3   OH244414   8.370   4.629   4.947
14846TIP3    H144415   8.331   4.715   4.921
14846TIP3    H244416   8.448   4.622   4.891
14847TIP3   OH244417   8.568   4.927   6.053
14847TIP3    H144418   8.548   4.855   6.118
14847TIP3    H244419   8.660   4.948   6.077
14848TIP3   OH244420   7.835   4.707   5.939
14848TIP3    H144421   7.871   4.772   6.002
14848TIP3    H244422   7.828   4.627   5.993
14849TIP3   OH244423   7.881   4.183   4.652
14849TIP3    H144424   7.863   4.204   4.744
14849TIP3    H244425   7.812   4.236   4.608
14850TIP3   OH244426   7.431   4.230   5.516
14850TIP3    H144427   7.506   4.262   5.572
14850TIP3    H244428   7.474   4.196   5.437
14851TIP3   OH244429   7.411   4.213   5.036
14851TIP3    H144430   7.450   4.256   4.957
14851TIP3    H244431   7.347   4.283   5.062
14852TIP3   OH244432   8.551   4.915   5.615
14852TIP3    H144433   8.611   4.854   5.569
14852TIP3    H244434   8.534   4.869   5.699
14853TIP3   OH244435   8.211   4.379   5.303
14853TIP3    H144436   8.142   4.387   5.371
14853TIP3    H244437   8.292   4.382   5.357
14854TIP3   OH244438   7.665   4.440   5.310
14854TIP3    H144439   7.569   4.452   5.288
14854TIP3    H244440   7.681   4.347   5.287
14855TIP3   OH244441   7.956   4.400   4.987
14855TIP3    H144442   8.029   4.463   4.972
14855TIP3    H244443   7.890   4.431   4.919
14856TIP3   OH244444   8.740   4.429   5.510
14856TIP3    H144445   8.705   4.467   5.593
14856TIP3    H244446   8.660   4.425   5.457
14857TIP3   OH244447   7.778   4.461   4.783
14857TIP3    H144448   7.701   4.428   4.733
14857TIP3    H244449   7.828   4.504   4.710
14858TIP3   OH244450   8.892   6.149   5.724
14858TIP3    H144451   8.891   6.177   5.631
14858TIP3    H244452   8.968   6.199   5.759
14859TIP3   OH244453   7.849   5.257   6.148
14859TIP3    H144454   7.931   5.288   6.192
14859TIP3    H244455   7.787   5.265   6.223
14860TIP3   OH244456   8.313   4.698   5.396
14860TIP3    H144457   8.398   4.678   5.355
14860TIP3    H244458   8.328   4.673   5.489
14861TIP3   OH244459   7.837   4.192   5.279
14861TIP3    H144460   7.789   4.123   5.329
14861TIP3    H244461   7.921   4.147   5.262
14862TIP3   OH244462   8.290   4.606   5.698
14862TIP3    H144463   8.203   4.650   5.709
14862TIP3    H244464   8.351   4.667   5.745
14863TIP3   OH244465   8.026   5.004   4.784
14863TIP3    H144466   7.954   4.938   4.774
14863TIP3    H244467   8.010   5.037   4.876
14864TIP3   OH244468   8.929   5.238   5.415
14864TIP3    H144469   8.952   5.286   5.333
14864TIP3    H244470   8.844   5.194   5.391
14865TIP3   OH244471   8.483   4.315   4.645
14865TIP3    H144472   8.386   4.320   4.636
14865TIP3    H244473   8.508   4.408   4.666
14866TIP3   OH244474   8.422   5.316   5.786
14866TIP3    H144475   8.454   5.300   5.876
14866TIP3    H244476   8.389   5.407   5.791
14867TIP3   OH244477   8.563   4.556   4.741
14867TIP3    H144478   8.657   4.565   4.765
14867TIP3    H244479   8.544   4.640   4.695
14868TIP3   OH244480   7.713   5.015   5.463
14868TIP3    H144481   7.758   4.993   5.379
14868TIP3    H244482   7.763   4.960   5.527
14869TIP3   OH244483   8.170   5.150   4.601
14869TIP3    H144484   8.125   5.237   4.610
14869TIP3    H244485   8.117   5.096   4.664
14870TIP3   OH244486   7.597   4.946   6.077
14870TIP3    H144487   7.625   4.933   6.170
14870TIP3    H244488   7.531   4.875   6.066
14871TIP3   OH244489   8.325   5.052   6.097
14871TIP3    H144490   8.273   4.997   6.037
14871TIP3    H244491   8.416   5.027   6.072
14872TIP3   OH244492   8.586   5.574   5.676
14872TIP3    H144493   8.490   5.580   5.692
14872TIP3    H244494   8.619   5.624   5.754
14873TIP3   OH244495   8.995   4.646   4.590
14873TIP3    H144496   8.933   4.600   4.529
14873TIP3    H244497   8.996   4.733   4.546
14874TIP3   OH244498   9.215   5.505   5.670
14874TIP3    H144499   9.117   5.502   5.664
14874TIP3    H244500   9.239   5.478   5.579
14875TIP3   OH244501   8.700   5.470   4.497
14875TIP3    H144502   8.657   5.405   4.553
14875TIP3    H244503   8.710   5.425   4.411
14876TIP3   OH244504   8.696   5.097   5.334
14876TIP3    H144505   8.602   5.079   5.342
14876TIP3    H244506   8.729   5.005   5.321
14877TIP3   OH244507   7.817   5.322   5.079
14877TIP3    H144508   7.821   5.408   5.033
14877TIP3    H244509   7.723   5.317   5.101
14878TIP3   OH244510   7.381   4.633   4.784
14878TIP3    H144511   7.428   4.715   4.808
14878TIP3    H244512   7.304   4.637   4.846
14879TIP3   OH244513   7.962   5.093   5.030
14879TIP3    H144514   7.924   5.182   5.046
14879TIP3    H244515   7.927   5.045   5.108
14880TIP3   OH244516   8.089   5.669   5.557
14880TIP3    H144517   8.130   5.744   5.510
14880TIP3    H244518   8.164   5.638   5.611
14881TIP3   OH244519   7.741   5.566   4.939
14881TIP3    H144520   7.655   5.573   4.985
14881TIP3    H244521   7.772   5.659   4.944
14882TIP3   OH244522   8.478   5.304   5.516
14882TIP3    H144523   8.467   5.305   5.614
14882TIP3    H244524   8.563   5.259   5.507
14883TIP3   OH244525   8.444   5.195   4.395
14883TIP3    H144526   8.499   5.161   4.470
14883TIP3    H244527   8.356   5.175   4.430
14884TIP3   OH244528   8.729   5.836   5.564
14884TIP3    H144529   8.648   5.781   5.559
14884TIP3    H244530   8.711   5.903   5.494
14885TIP3   OH244531   8.791   5.673   4.218
14885TIP3    H144532   8.833   5.744   4.167
14885TIP3    H244533   8.711   5.722   4.249
14886TIP3   OH244534   7.815   4.448   6.085
14886TIP3    H144535   7.719   4.454   6.102
14886TIP3    H244536   7.844   4.389   6.157
14887TIP3   OH244537   8.603   5.112   4.603
14887TIP3    H144538   8.590   5.053   4.680
14887TIP3    H244539   8.672   5.170   4.637
14888TIP3   OH244540   7.527   5.534   5.718
14888TIP3    H144541   7.582   5.461   5.750
14888TIP3    H244542   7.558   5.606   5.775
14889TIP3   OH244543   7.808   5.168   4.383
14889TIP3    H144544   7.842   5.077   4.371
14889TIP3    H244545   7.792   5.170   4.480
14890TIP3   OH244546   7.766   5.185   4.663
14890TIP3    H144547   7.832   5.157   4.727
14890TIP3    H244548   7.770   5.283   4.673
14891TIP3   OH244549   7.501   4.878   4.873
14891TIP3    H144550   7.435   4.922   4.931
14891TIP3    H244551   7.515   4.948   4.807
14892TIP3   OH244552   8.645   4.517   5.759
14892TIP3    H144553   8.725   4.559   5.796
14892TIP3    H244554   8.636   4.437   5.815
14893TIP3   OH244555   8.515   4.262   4.922
14893TIP3    H144556   8.517   4.295   4.830
14893TIP3    H244557   8.567   4.333   4.967
14894TIP3   OH244558   8.026   5.379   4.613
14894TIP3    H144559   7.943   5.409   4.654
14894TIP3    H244560   8.051   5.459   4.564
14895TIP3   OH244561   8.224   4.430   5.035
14895TIP3    H144562   8.283   4.502   5.000
14895TIP3    H244563   8.240   4.442   5.131
14896TIP3   OH244564   8.488   4.763   5.839
14896TIP3    H144565   8.507   4.819   5.917
14896TIP3    H244566   8.546   4.687   5.855
14897TIP3   OH244567   8.349   4.181   5.128
14897TIP3    H144568   8.379   4.232   5.206
14897TIP3    H244569   8.414   4.213   5.061
14898TIP3   OH244570   7.768   5.456   4.686
14898TIP3    H144571   7.740   5.526   4.624
14898TIP3    H244572   7.754   5.499   4.773
14899TIP3   OH244573   9.127   4.661   5.824
14899TIP3    H144574   9.029   4.658   5.826
14899TIP3    H244575   9.143   4.642   5.730
14900TIP3   OH244576   7.492   5.095   4.675
14900TIP3    H144577   7.561   5.161   4.693
14900TIP3    H244578   7.542   5.036   4.614
14901TIP3   OH244579   7.437   4.364   4.808
14901TIP3    H144580   7.434   4.462   4.803
14901TIP3    H244581   7.350   4.340   4.773
14902TIP3   OH244582   8.747   5.808   5.156
14902TIP3    H144583   8.705   5.857   5.081
14902TIP3    H244584   8.841   5.830   5.138
14903TIP3   OH244585   7.824   4.081   5.686
14903TIP3    H144586   7.789   4.047   5.601
14903TIP3    H244587   7.814   4.003   5.745
14904TIP3   OH244588   7.361   5.296   5.068
14904TIP3    H144589   7.289   5.331   5.122
14904TIP3    H244590   7.341   5.338   4.981
14905TIP3   OH244591   7.518   5.840   6.141
14905TIP3    H144592   7.605   5.842   6.187
14905TIP3    H244593   7.502   5.744   6.137
14906TIP3   OH244594   7.994   5.813   6.177
14906TIP3    H144595   8.087   5.796   6.202
14906TIP3    H244596   7.984   5.749   6.104
14907TIP3   OH244597   7.978   5.383   4.310
14907TIP3    H144598   7.928   5.312   4.354
14907TIP3    H244599   8.057   5.334   4.280
14908TIP3   OH244600   8.652   5.704   5.905
14908TIP3    H144601   8.632   5.642   5.979
14908TIP3    H244602   8.720   5.761   5.944
14909TIP3   OH244603   8.416   5.425   4.219
14909TIP3    H144604   8.467   5.364   4.275
14909TIP3    H244605   8.471   5.429   4.138
14910TIP3   OH244606   7.647   5.247   6.340
14910TIP3    H144607   7.667   5.151   6.339
14910TIP3    H244608   7.561   5.250   6.295
14911TIP3   OH244609   7.635   4.912   4.535
14911TIP3    H144610   7.688   4.869   4.605
14911TIP3    H244611   7.696   4.905   4.459
14912TIP3   OH244612   8.258   5.327   6.111
14912TIP3    H144613   8.220   5.346   6.023
14912TIP3    H244614   8.291   5.235   6.103
14913TIP3   OH244615   8.123   5.094   4.337
14913TIP3    H144616   8.134   5.110   4.433
14913TIP3    H244617   8.131   4.996   4.334
14914TIP3   OH244618   8.747   5.337   5.711
14914TIP3    H144619   8.824   5.385   5.672
14914TIP3    H244620   8.679   5.406   5.706
14915TIP3   OH244621   7.766   4.974   6.320
14915TIP3    H144622   7.848   4.929   6.296
14915TIP3    H244623   7.791   5.012   6.406
14916TIP3   OH244624   7.834   4.802   4.752
14916TIP3    H144625   7.806   4.765   4.837
14916TIP3    H244626   7.870   4.725   4.705
14917TIP3   OH244627   8.097   4.859   5.974
14917TIP3    H144628   8.028   4.927   5.984
14917TIP3    H244629   8.151   4.897   5.900
14918TIP3   OH244630   7.934   4.592   4.597
14918TIP3    H144631   7.908   4.592   4.502
14918TIP3    H244632   8.031   4.601   4.588
14919TIP3   OH244633   8.612   5.258   6.113
14919TIP3    H144634   8.700   5.259   6.075
14919TIP3    H244635   8.621   5.199   6.189
14920TIP3   OH244636   8.760   4.927   4.257
14920TIP3    H144637   8.742   4.879   4.175
14920TIP3    H244638   8.728   5.017   4.230
14921TIP3   OH244639   8.222   4.653   6.111
14921TIP3    H144640   8.228   4.574   6.054
14921TIP3    H244641   8.182   4.719   6.050
14922TIP3   OH244642   8.228   4.438   5.914
14922TIP3    H144643   8.257   4.483   5.832
14922TIP3    H244644   8.134   4.418   5.894
14923TIP3   OH244645   8.256   4.973   5.786
14923TIP3    H144646   8.340   4.981   5.739
14923TIP3    H244647   8.204   5.045   5.744
14924TIP3   OH244648   8.840   4.945   6.170
14924TIP3    H144649   8.892   4.863   6.178
14924TIP3    H244650   8.906   5.007   6.137
14925TIP3   OH244651   8.880   5.194   5.900
14925TIP3    H144652   8.821   5.249   5.843
14925TIP3    H244653   8.967   5.216   5.861
14926TIP3   OH244654   8.098   4.771   6.336
14926TIP3    H144655   8.032   4.700   6.349
14926TIP3    H244656   8.138   4.745   6.251
14927TIP3   OH244657   8.361   4.205   5.979
14927TIP3    H144658   8.314   4.288   5.958
14927TIP3    H244659   8.290   4.139   5.969
14928TIP3   OH244660   8.488   4.710   6.198
14928TIP3    H144661   8.484   4.703   6.295
14928TIP3    H244662   8.396   4.685   6.174
14929TIP3   OH244663   8.726   4.655   6.051
14929TIP3    H144664   8.652   4.661   6.114
14929TIP3    H244665   8.800   4.628   6.109
14930TIP3   OH244666   8.950   4.597   6.205
14930TIP3    H144667   8.966   4.503   6.225
14930TIP3    H244668   8.950   4.639   6.294
14931TIP3   OH244669   7.941   4.548   6.390
14931TIP3    H144670   7.955   4.459   6.353
14931TIP3    H244671   7.979   4.538   6.480
14932TIP3   OH244672   8.454   4.214   6.237
14932TIP3    H144673   8.525   4.146   6.233
14932TIP3    H244674   8.417   4.206   6.147
14933TIP3   OH244675   8.518   4.427   6.400
14933TIP3    H144676   8.497   4.358   6.333
14933TIP3    H244677   8.443   4.489   6.391
14934TIP3   OH244678   7.736   5.648   4.489
14934TIP3    H144679   7.833   5.650   4.477
14934TIP3    H244680   7.709   5.701   4.412
14935TIP3   OH244681   7.227   5.040   4.731
14935TIP3    H144682   7.316   5.070   4.705
14935TIP3    H244683   7.215   4.963   4.674
14936TIP3   OH244684   7.136   5.652   5.126
14936TIP3    H144685   7.067   5.590   5.092
14936TIP3    H244686   7.179   5.595   5.193
14937TIP3   OH244687   7.275   5.505   5.312
14937TIP3    H144688   7.261   5.432   5.375
14937TIP3    H244689   7.324   5.567   5.368
14938TIP3   OH244690   8.998   5.903   5.112
14938TIP3    H144691   9.022   5.936   5.201
14938TIP3    H244692   9.058   5.954   5.056
14939TIP3   OH244693   9.030   5.924   5.392
14939TIP3    H144694   8.988   5.835   5.393
14939TIP3    H244695   9.102   5.908   5.455
14940TIP3   OH244696   9.076   5.601   5.965
14940TIP3    H144697   9.003   5.609   6.029
14940TIP3    H244698   9.117   5.690   5.971
14941TIP3   OH244699   9.065   5.368   5.216
14941TIP3    H144700   9.134   5.314   5.173
14941TIP3    H244701   9.065   5.450   5.163
14942TIP3   OH244702   8.905   5.672   5.419
14942TIP3    H144703   8.838   5.717   5.474
14942TIP3    H244704   8.850   5.625   5.353
14943TIP3   OH244705   8.957   4.903   4.446
14943TIP3    H144706   8.885   4.881   4.382
14943TIP3    H244707   8.942   4.998   4.453
14944TIP3   OH244708   8.825   4.567   4.394
14944TIP3    H144709   8.788   4.600   4.311
14944TIP3    H244710   8.801   4.472   4.388
14945TIP3   OH244711   8.840   4.840   4.945
14945TIP3    H144712   8.843   4.744   4.932
14945TIP3    H244713   8.824   4.845   5.042
14946TIP3   OH244714   7.461   4.910   5.686
14946TIP3    H144715   7.460   4.885   5.592
14946TIP3    H244716   7.558   4.913   5.703
14947TIP3   OH244717   9.121   5.262   5.794
14947TIP3    H144718   9.194   5.197   5.787
14947TIP3    H244719   9.152   5.335   5.738
14948TIP3   OH244720   9.308   5.071   5.815
14948TIP3    H144721   9.234   5.020   5.855
14948TIP3    H244722   9.381   5.007   5.828
14949TIP3   OH244723   8.770   4.302   4.389
14949TIP3    H144724   8.851   4.270   4.434
14949TIP3    H244725   8.704   4.235   4.410
14950TIP3   OH244726   8.831   4.560   4.828
14950TIP3    H144727   8.864   4.471   4.854
14950TIP3    H244728   8.894   4.581   4.757
14951TIP3   OH244729   9.075   4.881   5.589
14951TIP3    H144730   8.982   4.899   5.609
14951TIP3    H244731   9.094   4.946   5.519
14952TIP3   OH244732   7.674   4.597   6.356
14952TIP3    H144733   7.772   4.594   6.360
14952TIP3    H244734   7.652   4.514   6.402
14953TIP3   OH244735   9.512   4.461   6.119
14953TIP3    H144736   9.568   4.393   6.075
14953TIP3    H244737   9.484   4.517   6.045
14954TIP3   OH244738   8.940   4.306   4.870
14954TIP3    H144739   8.988   4.293   4.955
14954TIP3    H244740   8.880   4.229   4.872
14955TIP3   OH244741   7.639   4.289   5.687
14955TIP3    H144742   7.702   4.217   5.703
14955TIP3    H244743   7.699   4.366   5.687
14956TIP3   OH244744   7.442   4.564   5.766
14956TIP3    H144745   7.492   4.560   5.681
14956TIP3    H244746   7.469   4.651   5.798
14957TIP3   OH244747   9.384   4.605   5.928
14957TIP3    H144748   9.296   4.642   5.949
14957TIP3    H244749   9.358   4.535   5.866
14958TIP3   OH244750   9.020   4.241   4.501
14958TIP3    H144751   9.061   4.167   4.453
14958TIP3    H244752   9.089   4.310   4.497
14959TIP3   OH244753   7.424   4.067   5.263
14959TIP3    H144754   7.331   4.066   5.292
14959TIP3    H244755   7.421   4.127   5.186
14960TIP3   OH244756   8.582   5.768   4.771
14960TIP3    H144757   8.636   5.759   4.690
14960TIP3    H244758   8.630   5.837   4.820
14961TIP3   OH244759   7.643   4.146   6.079
14961TIP3    H144760   7.595   4.143   6.164
14961TIP3    H244761   7.576   4.186   6.021
14962TIP3   OH244762   7.684   5.570   6.154
14962TIP3    H144763   7.590   5.544   6.145
14962TIP3    H244764   7.699   5.563   6.249
14963TIP3   OH244765   7.859   5.602   5.700
14963TIP3    H144766   7.814   5.681   5.664
14963TIP3    H244767   7.948   5.617   5.660
14964TIP3   OH244768   8.305   5.853   5.834
14964TIP3    H144769   8.342   5.849   5.926
14964TIP3    H244770   8.375   5.905   5.789
14965TIP3   OH244771   8.491   6.003   5.696
14965TIP3    H144772   8.566   5.951   5.666
14965TIP3    H244773   8.535   6.062   5.761
14966TIP3   OH244774   9.283   4.368   5.803
14966TIP3    H144775   9.192   4.367   5.768
14966TIP3    H244776   9.312   4.275   5.788
14967TIP3   OH244777   7.538   5.861   5.729
14967TIP3    H144778   7.450   5.897   5.706
14967TIP3    H244779   7.553   5.903   5.815
14968TIP3   OH244780   7.774   5.840   5.584
14968TIP3    H144781   7.688   5.854   5.630
14968TIP3    H244782   7.755   5.877   5.495
14969TIP3   OH244783   8.202   5.874   5.380
14969TIP3    H144784   8.131   5.899   5.318
14969TIP3    H244785   8.216   5.958   5.428
14970TIP3   OH244786   8.470   5.809   5.426
14970TIP3    H144787   8.375   5.829   5.413
14970TIP3    H244788   8.512   5.892   5.398
14971TIP3   OH244789   8.678   6.004   5.351
14971TIP3    H144790   8.664   6.090   5.305
14971TIP3    H244791   8.703   5.945   5.277
14972TIP3   OH244792   7.450   5.657   5.473
14972TIP3    H144793   7.477   5.635   5.564
14972TIP3    H244794   7.524   5.615   5.423
14973TIP3   OH244795   7.644   5.529   5.328
14973TIP3    H144796   7.660   5.445   5.377
14973TIP3    H244797   7.734   5.568   5.326
14974TIP3   OH244798   7.909   5.624   5.332
14974TIP3    H144799   7.942   5.533   5.324
14974TIP3    H244800   7.951   5.650   5.416
14975TIP3   OH244801   8.462   4.270   5.389
14975TIP3    H144802   8.438   4.216   5.466
14975TIP3    H244803   8.552   4.237   5.369
14976TIP3   OH244804   8.999   4.152   5.314
14976TIP3    H144805   9.053   4.202   5.248
14976TIP3    H244806   8.931   4.219   5.332
14977TIP3   OH244807   9.108   4.265   5.088
14977TIP3    H144808   9.181   4.214   5.047
14977TIP3    H244809   9.140   4.357   5.076
14978TIP3   OH244810   7.735   3.990   5.435
14978TIP3    H144811   7.643   3.956   5.437
14978TIP3    H244812   7.785   3.905   5.435
14979TIP3   OH244813   7.521   3.858   5.086
14979TIP3    H144814   7.541   3.915   5.010
14979TIP3    H244815   7.489   3.922   5.153
14980TIP3   OH244816   8.161   4.053   5.301
14980TIP3    H144817   8.245   4.081   5.261
14980TIP3    H244818   8.183   4.063   5.395
14981TIP3   OH244819   8.696   4.149   5.302
14981TIP3    H144820   8.730   4.160   5.213
14981TIP3    H244821   8.754   4.080   5.337
14982TIP3   OH244822   8.754   4.092   4.861
14982TIP3    H144823   8.668   4.135   4.873
14982TIP3    H244824   8.739   4.007   4.906
14983TIP3   OH244825   7.239   5.426   4.863
14983TIP3    H144826   7.152   5.398   4.830
14983TIP3    H244827   7.231   5.522   4.848
14984TIP3   OH244828   7.620   4.013   4.844
14984TIP3    H144829   7.678   3.955   4.790
14984TIP3    H244830   7.683   4.070   4.889
14985TIP3   OH244831   8.008   5.622   4.445
14985TIP3    H144832   8.098   5.643   4.412
14985TIP3    H244833   7.989   5.545   4.388
14986TIP3   OH244834   8.727   5.738   4.539
14986TIP3    H144835   8.721   5.640   4.523
14986TIP3    H244836   8.685   5.772   4.457
14987TIP3   OH244837   7.942   4.267   6.325
14987TIP3    H144838   7.911   4.199   6.386
14987TIP3    H244839   8.037   4.271   6.351
14988TIP3   OH244840   8.190   4.267   6.446
14988TIP3    H144841   8.277   4.247   6.407
14988TIP3    H244842   8.182   4.196   6.512
14989TIP3   OH244843   7.354   5.480   4.520
14989TIP3    H144844   7.291   5.511   4.587
14989TIP3    H244845   7.397   5.408   4.567
14990TIP3   OH244846   9.014   4.327   6.235
14990TIP3    H144847   9.036   4.296   6.326
14990TIP3    H244848   9.102   4.325   6.192
14991TIP3   OH244849   8.961   5.882   5.723
14991TIP3    H144850   8.878   5.849   5.682
14991TIP3    H244851   8.939   5.978   5.730
14992TIP3   OH244852   9.526   5.150   5.234
14992TIP3    H144853   9.551   5.079   5.296
14992TIP3    H244854   9.590   5.218   5.259
14993TIP3   OH244855   9.481   5.554   4.969
14993TIP3    H144856   9.479   5.457   4.974
14993TIP3    H244857   9.577   5.570   4.957
14994TIP3   OH244858   9.196   4.771   4.746
14994TIP3    H144859   9.157   4.814   4.824
14994TIP3    H244860   9.127   4.709   4.718
14995TIP3   OH244861   9.246   5.046   4.887
14995TIP3    H144862   9.283   4.974   4.943
14995TIP3    H244863   9.328   5.080   4.848
14996TIP3   OH244864  10.025   6.008   4.614
14996TIP3    H144865  10.016   5.934   4.550
14996TIP3    H244866  10.071   5.964   4.687
14997TIP3   OH244867   9.970   5.494   4.918
14997TIP3    H144868   9.987   5.439   4.839
14997TIP3    H244869  10.063   5.502   4.949
14998TIP3   OH244870   9.750   4.645   4.932
14998TIP3    H144871   9.750   4.707   4.858
14998TIP3    H244872   9.724   4.563   4.887
14999TIP3   OH244873   9.398   4.854   5.018
14999TIP3    H144874   9.474   4.834   5.076
14999TIP3    H244875   9.417   4.790   4.946
15000TIP3   OH244876   9.835   5.048   4.755
15000TIP3    H144877   9.898   5.024   4.827
15000TIP3    H244878   9.779   4.966   4.754
15001TIP3   OH244879   9.760   4.622   5.358
15001TIP3    H144880   9.698   4.658   5.292
15001TIP3    H244881   9.711   4.640   5.440
15002TIP3   OH244882   9.841   5.405   5.141
15002TIP3    H144883   9.785   5.473   5.186
15002TIP3    H244884   9.887   5.459   5.074
15003TIP3   OH244885   9.624   4.743   5.146
15003TIP3    H144886   9.691   4.812   5.168
15003TIP3    H244887   9.671   4.698   5.072
15004TIP3   OH244888   9.692   5.598   5.250
15004TIP3    H144889   9.668   5.686   5.214
15004TIP3    H244890   9.615   5.583   5.309
15005TIP3   OH244891   9.092   5.272   4.503
15005TIP3    H144892   9.052   5.291   4.416
15005TIP3    H244893   9.118   5.363   4.529
15006TIP3   OH244894   9.611   5.196   4.707
15006TIP3    H144895   9.567   5.141   4.638
15006TIP3    H244896   9.693   5.145   4.721
15007TIP3   OH244897   9.731   5.608   4.854
15007TIP3    H144898   9.720   5.568   4.766
15007TIP3    H244899   9.819   5.575   4.881
15008TIP3   OH244900   9.783   5.155   5.051
15008TIP3    H144901   9.799   5.178   4.959
15008TIP3    H244902   9.804   5.240   5.096
15009TIP3   OH244903   9.902   5.716   5.391
15009TIP3    H144904   9.844   5.778   5.440
15009TIP3    H244905   9.836   5.663   5.343
15010TIP3   OH244906   9.651   5.277   5.483
15010TIP3    H144907   9.660   5.361   5.533
15010TIP3    H244908   9.559   5.253   5.505
15011TIP3   OH244909   9.972   5.752   4.449
15011TIP3    H144910  10.061   5.751   4.412
15011TIP3    H244911   9.922   5.758   4.366
15012TIP3   OH244912   9.700   5.883   5.478
15012TIP3    H144913   9.662   5.880   5.388
15012TIP3    H244914   9.622   5.862   5.534
15013TIP3   OH244915   9.493   5.027   4.519
15013TIP3    H144916   9.432   5.071   4.456
15013TIP3    H244917   9.455   4.939   4.526
15014TIP3   OH244918   9.280   5.409   5.424
15014TIP3    H144919   9.213   5.381   5.360
15014TIP3    H244920   9.317   5.324   5.456
15015TIP3   OH244921   9.136   5.600   5.059
15015TIP3    H144922   9.233   5.605   5.051
15015TIP3    H244923   9.118   5.681   5.110
15016TIP3   OH244924  10.091   5.847   5.243
15016TIP3    H144925  10.095   5.937   5.280
15016TIP3    H244926  10.024   5.805   5.300
15017TIP3   OH244927   9.759   6.018   4.177
15017TIP3    H144928   9.828   5.950   4.160
15017TIP3    H244929   9.813   6.089   4.216
15018TIP3   OH244930   9.300   5.821   4.579
15018TIP3    H144931   9.352   5.814   4.662
15018TIP3    H244932   9.226   5.763   4.601
15019TIP3   OH244933   9.482   5.595   5.417
15019TIP3    H144934   9.532   5.581   5.500
15019TIP3    H244935   9.409   5.531   5.426
15020TIP3   OH244936   9.872   4.420   5.206
15020TIP3    H144937   9.784   4.390   5.178
15020TIP3    H244938   9.848   4.501   5.254
15021TIP3   OH244939   9.817   4.927   5.204
15021TIP3    H144940   9.776   4.948   5.290
15021TIP3    H244941   9.806   5.012   5.156
15022TIP3   OH244942   9.695   4.818   4.723
15022TIP3    H144943   9.606   4.786   4.751
15022TIP3    H244944   9.698   4.785   4.631
15023TIP3   OH244945   9.631   4.960   5.421
15023TIP3    H144946   9.665   5.019   5.490
15023TIP3    H244947   9.619   4.877   5.471
15024TIP3   OH244948   9.672   4.477   4.142
15024TIP3    H144949   9.641   4.418   4.212
15024TIP3    H244950   9.601   4.471   4.076
15025TIP3   OH244951   9.228   4.494   4.993
15025TIP3    H144952   9.299   4.519   5.056
15025TIP3    H244953   9.275   4.444   4.925
15026TIP3   OH244954   9.204   4.467   4.528
15026TIP3    H144955   9.245   4.506   4.447
15026TIP3    H244956   9.142   4.539   4.549
15027TIP3   OH244957   9.461   4.697   4.797
15027TIP3    H144958   9.368   4.697   4.767
15027TIP3    H244959   9.489   4.604   4.783
15028TIP3   OH244960   9.723   4.729   4.461
15028TIP3    H144961   9.787   4.711   4.389
15028TIP3    H244962   9.642   4.739   4.406
15029TIP3   OH244963   9.545   4.734   4.262
15029TIP3    H144964   9.483   4.684   4.206
15029TIP3    H244965   9.612   4.757   4.194
15030TIP3   OH244966   9.648   5.516   5.634
15030TIP3    H144967   9.726   5.547   5.684
15030TIP3    H244968   9.581   5.515   5.706
15031TIP3   OH244969   9.630   4.461   4.758
15031TIP3    H144970   9.597   4.385   4.811
15031TIP3    H244971   9.691   4.417   4.696
15032TIP3   OH244972   9.807   5.253   4.277
15032TIP3    H144973   9.732   5.191   4.274
15032TIP3    H244974   9.804   5.289   4.367
15033TIP3   OH244975  10.172   5.577   5.285
15033TIP3    H144976  10.208   5.553   5.372
15033TIP3    H244977  10.153   5.672   5.294
15034TIP3   OH244978   9.498   5.267   4.953
15034TIP3    H144979   9.545   5.249   4.869
15034TIP3    H244980   9.548   5.215   5.018
15035TIP3   OH244981   9.395   5.200   5.563
15035TIP3    H144982   9.419   5.188   5.657
15035TIP3    H244983   9.326   5.132   5.551
15036TIP3   OH244984  10.085   5.278   5.605
15036TIP3    H144985  10.008   5.230   5.567
15036TIP3    H244986  10.155   5.212   5.592
15037TIP3   OH244987   9.618   5.579   4.572
15037TIP3    H144988   9.628   5.662   4.521
15037TIP3    H244989   9.522   5.573   4.576
15038TIP3   OH244990   9.179   4.888   4.274
15038TIP3    H144991   9.228   4.971   4.291
15038TIP3    H244992   9.104   4.897   4.335
15039TIP3   OH244993   9.780   5.356   4.543
15039TIP3    H144994   9.735   5.443   4.537
15039TIP3    H244995   9.717   5.308   4.600
15040TIP3   OH244996   9.885   5.923   5.043
15040TIP3    H144997   9.920   5.999   4.993
15040TIP3    H244998   9.962   5.896   5.095
15041TIP3   OH244999   9.541   5.823   4.436
15041TIP3    H145000   9.452   5.833   4.474
15041TIP3    H245001   9.571   5.917   4.432
15042TIP3   OH245002   9.608   4.705   5.574
15042TIP3    H145003   9.512   4.710   5.589
15042TIP3    H245004   9.635   4.643   5.644
15043TIP3   OH245005   9.325   5.789   5.203
15043TIP3    H145006   9.378   5.716   5.240
15043TIP3    H245007   9.346   5.860   5.265
15044TIP3   OH245008   9.598   5.429   3.882
15044TIP3    H145009   9.632   5.342   3.856
15044TIP3    H245010   9.604   5.425   3.979
15045TIP3   OH245011   9.557   5.436   4.168
15045TIP3    H145012   9.649   5.416   4.195
15045TIP3    H245013   9.558   5.534   4.166
15046TIP3   OH245014   9.295   5.135   4.360
15046TIP3    H145015   9.234   5.187   4.414
15046TIP3    H245016   9.316   5.199   4.289
15047TIP3   OH245017   9.767   5.625   4.061
15047TIP3    H145018   9.698   5.673   4.112
15047TIP3    H245019   9.847   5.679   4.083
15048TIP3   OH245020   9.537   5.715   4.177
15048TIP3    H145021   9.522   5.787   4.111
15048TIP3    H245022   9.539   5.765   4.261
15049TIP3   OH245023   9.672   4.425   4.421
15049TIP3    H145024   9.634   4.508   4.453
15049TIP3    H245025   9.755   4.458   4.381
15050TIP3   OH245026   9.283   5.348   4.167
15050TIP3    H145027   9.350   5.418   4.180
15050TIP3    H245028   9.330   5.296   4.099
15051TIP3   OH245029   9.230   4.618   4.306
15051TIP3    H145030   9.233   4.715   4.291
15051TIP3    H245031   9.158   4.591   4.247
15052TIP3   OH245032   9.609   4.338   5.175
15052TIP3    H145033   9.583   4.303   5.088
15052TIP3    H245034   9.606   4.258   5.232
15053TIP3   OH245035   9.151   5.536   4.559
15053TIP3    H145036   9.083   5.589   4.603
15053TIP3    H245037   9.155   5.583   4.473
15054TIP3   OH245038   9.315   6.096   5.621
15054TIP3    H145039   9.399   6.097   5.671
15054TIP3    H245040   9.292   6.002   5.624
15055TIP3   OH245041   9.801   6.072   5.660
15055TIP3    H145042   9.891   6.043   5.681
15055TIP3    H245043   9.775   6.008   5.591
15056TIP3   OH245044   9.771   5.640   3.781
15056TIP3    H145045   9.723   5.590   3.851
15056TIP3    H245046   9.863   5.612   3.803
15057TIP3   OH245047   9.447   5.504   5.822
15057TIP3    H145048   9.462   5.408   5.833
15057TIP3    H245049   9.357   5.506   5.783
15058TIP3   OH245050   9.416   5.156   4.022
15058TIP3    H145051   9.477   5.126   4.092
15058TIP3    H245052   9.479   5.167   3.948
15059TIP3   OH245053  10.046   5.584   5.598
15059TIP3    H145054  10.009   5.602   5.510
15059TIP3    H245055  10.057   5.488   5.599
15060TIP3   OH245056   9.567   5.233   5.803
15060TIP3    H145057   9.643   5.174   5.792
15060TIP3    H245058   9.587   5.270   5.892
15061TIP3   OH245059   9.620   5.051   4.243
15061TIP3    H145060   9.599   5.007   4.327
15061TIP3    H245061   9.658   4.977   4.191
15062TIP3   OH245062   9.873   5.118   5.483
15062TIP3    H145063   9.797   5.179   5.488
15062TIP3    H245064   9.918   5.154   5.402
15063TIP3   OH245065   9.728   4.847   4.090
15063TIP3    H145066   9.687   4.840   4.001
15063TIP3    H245067   9.821   4.862   4.067
15064TIP3   OH245068   9.990   4.911   5.615
15064TIP3    H145069  10.015   4.829   5.566
15064TIP3    H245070   9.938   4.961   5.549
15065TIP3   OH245071  10.008   4.724   5.409
15065TIP3    H145072  10.058   4.692   5.333
15065TIP3    H245073   9.925   4.674   5.401
15066TIP3   OH245074   9.994   5.237   5.283
15066TIP3    H145075  10.066   5.217   5.221
15066TIP3    H245076   9.952   5.315   5.241
15067TIP3   OH245077   9.874   5.042   5.820
15067TIP3    H145078   9.814   4.967   5.840
15067TIP3    H245079   9.920   5.007   5.741
15068TIP3   OH245080   9.738   4.809   5.877
15068TIP3    H145081   9.752   4.722   5.835
15068TIP3    H245082   9.771   4.792   5.967
15069TIP3   OH245083   9.535   5.908   3.976
15069TIP3    H145084   9.631   5.921   3.976
15069TIP3    H245085   9.513   5.960   3.897
15070TIP3   OH245086   9.020   5.287   4.216
15070TIP3    H145087   9.111   5.318   4.195
15070TIP3    H245088   9.016   5.204   4.163
15071TIP3   OH245089   8.929   5.907   4.614
15071TIP3    H145090   8.862   5.844   4.580
15071TIP3    H245091   8.975   5.852   4.681
15072TIP3   OH245092   9.072   5.760   4.798
15072TIP3    H145093   9.059   5.691   4.865
15072TIP3    H245094   9.119   5.827   4.852
15073TIP3   OH245095   9.261   5.174   5.163
15073TIP3    H145096   9.273   5.150   5.070
15073TIP3    H245097   9.355   5.173   5.193
15074TIP3   OH245098   9.470   4.855   5.843
15074TIP3    H145099   9.568   4.850   5.848
15074TIP3    H245100   9.448   4.772   5.890
15075TIP3   OH245101   9.431   4.545   5.168
15075TIP3    H145102   9.492   4.472   5.186
15075TIP3    H245103   9.491   4.622   5.176
15076TIP3   OH245104   9.253   4.810   5.259
15076TIP3    H145105   9.294   4.815   5.171
15076TIP3    H245106   9.264   4.899   5.294
15077TIP3   OH245107   9.220   4.320   4.752
15077TIP3    H145108   9.127   4.322   4.780
15077TIP3    H245109   9.219   4.380   4.675
15078TIP3   OH245110   9.435   4.404   5.564
15078TIP3    H145111   9.390   4.402   5.649
15078TIP3    H245112   9.368   4.446   5.507
15079TIP3   OH245113   9.482   5.828   5.645
15079TIP3    H145114   9.389   5.803   5.630
15079TIP3    H245115   9.491   5.813   5.740
15080TIP3   OH245116   9.657   5.863   5.190
15080TIP3    H145117   9.608   5.939   5.153
15080TIP3    H245118   9.743   5.876   5.145
15081TIP3   OH245119  10.117   6.114   5.323
15081TIP3    H145120  10.139   6.108   5.419
15081TIP3    H245121  10.196   6.157   5.290
15082TIP3   OH245122   9.336   6.120   5.214
15082TIP3    H145123   9.247   6.155   5.191
15082TIP3    H245124   9.346   6.155   5.304
15083TIP3   OH245125   9.573   6.100   5.072
15083TIP3    H145126   9.487   6.113   5.118
15083TIP3    H245127   9.551   6.133   4.983
15084TIP3   OH245128   9.978   6.129   4.880
15084TIP3    H145129   9.926   6.144   4.798
15084TIP3    H245130   9.993   6.220   4.911
15085TIP3   OH245131  10.246   6.093   4.911
15085TIP3    H145132  10.149   6.087   4.899
15085TIP3    H245133  10.266   6.175   4.866
15086TIP3   OH245134   9.246   5.914   4.959
15086TIP3    H145135   9.273   5.890   5.051
15086TIP3    H245136   9.319   5.872   4.909
15087TIP3   OH245137   9.438   5.785   4.813
15087TIP3    H145138   9.456   5.703   4.863
15087TIP3    H245139   9.527   5.826   4.810
15088TIP3   OH245140   9.701   5.888   4.818
15088TIP3    H145141   9.729   5.796   4.803
15088TIP3    H245142   9.746   5.906   4.903
15089TIP3   OH245143   9.524   4.256   4.917
15089TIP3    H145144   9.432   4.223   4.919
15089TIP3    H245145   9.571   4.169   4.924
15090TIP3   OH245146   9.312   4.115   4.567
15090TIP3    H145147   9.344   4.175   4.498
15090TIP3    H245148   9.287   4.177   4.638
15091TIP3   OH245149   9.032   5.685   4.359
15091TIP3    H145150   8.948   5.655   4.319
15091TIP3    H245151   9.025   5.780   4.341
15092TIP3   OH245152   9.429   4.281   4.338
15092TIP3    H145153   9.468   4.212   4.282
15092TIP3    H245154   9.507   4.323   4.378
15093TIP3   OH245155   9.809   5.898   3.884
15093TIP3    H145156   9.880   5.885   3.951
15093TIP3    H245157   9.787   5.807   3.860
15094TIP3   OH245158   9.707   4.521   5.794
15094TIP3    H145159   9.674   4.457   5.859
15094TIP3    H245160   9.801   4.526   5.823
15095TIP3   OH245161   9.942   4.528   5.924
15095TIP3    H145162  10.039   4.536   5.913
15095TIP3    H245163   9.939   4.458   5.993
15096TIP3   OH245164   9.110   5.709   3.993
15096TIP3    H145165   9.117   5.743   4.084
15096TIP3    H245166   9.199   5.671   3.978
15097TIP3   OH245167   0.878   5.782   6.699
15097TIP3    H145168   0.851   5.875   6.681
15097TIP3    H245169   0.800   5.735   6.664
15098TIP3   OH245170   0.884   5.780   7.071
15098TIP3    H145171   0.909   5.754   7.162
15098TIP3    H245172   0.838   5.701   7.039
15099TIP3   OH245173   1.118   6.087   6.759
15099TIP3    H145174   1.107   6.016   6.824
15099TIP3    H245175   1.148   6.161   6.814
15100TIP3   OH245176   0.773   6.562   6.769
15100TIP3    H145177   0.816   6.483   6.729
15100TIP3    H245178   0.753   6.529   6.858
15101TIP3   OH245179   0.665   5.961   7.101
15101TIP3    H145180   0.744   5.911   7.071
15101TIP3    H245181   0.709   6.038   7.141
15102TIP3   OH245182   1.686   5.332   7.122
15102TIP3    H145183   1.716   5.414   7.166
15102TIP3    H245184   1.710   5.351   7.030
15103TIP3   OH245185   1.086   5.513   7.161
15103TIP3    H145186   1.130   5.428   7.180
15103TIP3    H245187   1.058   5.498   7.068
15104TIP3   OH245188   0.458   5.169   7.129
15104TIP3    H145189   0.421   5.248   7.084
15104TIP3    H245190   0.420   5.098   7.073
15105TIP3   OH245191   1.118   5.262   6.747
15105TIP3    H145192   1.191   5.246   6.812
15105TIP3    H245193   1.169   5.298   6.672
15106TIP3   OH245194   0.503   5.579   7.036
15106TIP3    H145195   0.596   5.548   7.040
15106TIP3    H245196   0.459   5.503   6.993
15107TIP3   OH245197   1.762   5.538   7.292
15107TIP3    H145198   1.678   5.586   7.274
15107TIP3    H245199   1.772   5.557   7.386
15108TIP3   OH245200   0.769   6.003   6.570
15108TIP3    H145201   0.734   5.981   6.483
15108TIP3    H245202   0.726   6.089   6.588
15109TIP3   OH245203   1.330   5.264   6.917
15109TIP3    H145204   1.327   5.212   6.998
15109TIP3    H245205   1.387   5.339   6.942
15110TIP3   OH245206   1.192   6.327   6.927
15110TIP3    H145207   1.102   6.319   6.968
15110TIP3    H245208   1.184   6.414   6.883
15111TIP3   OH245209   1.481   5.233   7.289
15111TIP3    H145210   1.393   5.263   7.260
15111TIP3    H245211   1.540   5.263   7.217
15112TIP3   OH245212   0.778   4.872   7.267
15112TIP3    H145213   0.775   4.776   7.287
15112TIP3    H245214   0.706   4.905   7.324
15113TIP3   OH245215   0.892   6.378   6.601
15113TIP3    H145216   0.942   6.295   6.582
15113TIP3    H245217   0.953   6.443   6.560
15114TIP3   OH245218   1.031   6.163   6.507
15114TIP3    H145219   1.009   6.082   6.459
15114TIP3    H245220   1.068   6.127   6.591
15115TIP3   OH245221   1.419   6.244   7.271
15115TIP3    H145222   1.407   6.166   7.212
15115TIP3    H245223   1.401   6.318   7.209
15116TIP3   OH245224   0.709   5.635   6.525
15116TIP3    H145225   0.629   5.686   6.498
15116TIP3    H245226   0.760   5.631   6.442
15117TIP3   OH245227   0.669   5.418   6.248
15117TIP3    H145228   0.738   5.470   6.294
15117TIP3    H245229   0.727   5.356   6.198
15118TIP3   OH245230   1.613   5.879   7.115
15118TIP3    H145231   1.530   5.932   7.120
15118TIP3    H245232   1.642   5.902   7.024
15119TIP3   OH245233   1.055   5.718   6.500
15119TIP3    H145234   1.002   5.743   6.579
15119TIP3    H245235   1.139   5.691   6.543
15120TIP3   OH245236   1.291   5.760   7.409
15120TIP3    H145237   1.289   5.843   7.459
15120TIP3    H245238   1.205   5.765   7.362
15121TIP3   OH245239   0.426   5.679   7.277
15121TIP3    H145240   0.467   5.644   7.194
15121TIP3    H245241   0.483   5.754   7.298
15122TIP3   OH245242   0.951   6.326   7.046
15122TIP3    H145243   0.936   6.402   7.105
15122TIP3    H245244   0.936   6.250   7.107
15123TIP3   OH245245   0.896   5.578   6.325
15123TIP3    H145246   0.957   5.635   6.377
15123TIP3    H245247   0.923   5.602   6.233
15124TIP3   OH245248   0.635   6.262   6.605
15124TIP3    H145249   0.721   6.303   6.626
15124TIP3    H245250   0.589   6.333   6.559
15125TIP3   OH245251   1.413   4.819   6.373
15125TIP3    H145252   1.332   4.839   6.424
15125TIP3    H245253   1.425   4.902   6.322
15126TIP3   OH245254   1.211   6.187   5.925
15126TIP3    H145255   1.220   6.283   5.907
15126TIP3    H245256   1.303   6.156   5.910
15127TIP3   OH245257   1.657   6.587   7.316
15127TIP3    H145258   1.654   6.491   7.328
15127TIP3    H245259   1.573   6.613   7.360
15128TIP3   OH245260   0.782   6.355   7.461
15128TIP3    H145261   0.787   6.450   7.488
15128TIP3    H245262   0.686   6.343   7.453
15129TIP3   OH245263   0.544   6.491   6.425
15129TIP3    H145264   0.519   6.456   6.337
15129TIP3    H245265   0.479   6.562   6.436
15130TIP3   OH245266   0.726   6.404   6.046
15130TIP3    H145267   0.782   6.334   6.003
15130TIP3    H245268   0.768   6.409   6.134
15131TIP3   OH245269   0.788   6.447   6.312
15131TIP3    H145270   0.707   6.452   6.367
15131TIP3    H245271   0.848   6.401   6.373
15132TIP3   OH245272   1.546   5.721   7.589
15132TIP3    H145273   1.465   5.734   7.537
15132TIP3    H245274   1.561   5.625   7.579
15133TIP3   OH245275   0.534   4.950   7.405
15133TIP3    H145276   0.456   4.921   7.355
15133TIP3    H245277   0.534   5.045   7.389
15134TIP3   OH245278   1.074   5.066   7.594
15134TIP3    H145279   1.143   5.039   7.658
15134TIP3    H245280   0.991   5.044   7.641
15135TIP3   OH245281   1.314   5.494   7.512
15135TIP3    H145282   1.266   5.490   7.598
15135TIP3    H245283   1.289   5.582   7.478
15136TIP3   OH245284   0.975   5.632   6.073
15136TIP3    H145285   0.939   5.603   5.987
15136TIP3    H245286   1.057   5.675   6.044
15137TIP3   OH245287   0.683   5.002   6.370
15137TIP3    H145288   0.655   4.999   6.463
15137TIP3    H245289   0.650   4.916   6.339
15138TIP3   OH245290   0.464   5.453   7.431
15138TIP3    H145291   0.405   5.471   7.506
15138TIP3    H245292   0.448   5.531   7.374
15139TIP3   OH245293   0.351   5.341   6.936
15139TIP3    H145294   0.255   5.349   6.925
15139TIP3    H245295   0.374   5.300   6.850
15140TIP3   OH245296   0.845   5.435   6.658
15140TIP3    H145297   0.793   5.508   6.617
15140TIP3    H245298   0.902   5.408   6.583
15141TIP3   OH245299   1.023   5.717   7.747
15141TIP3    H145300   1.000   5.645   7.809
15141TIP3    H245301   1.117   5.730   7.769
15142TIP3   OH245302   1.003   5.467   6.901
15142TIP3    H145303   0.946   5.498   6.828
15142TIP3    H245304   1.036   5.384   6.858
15143TIP3   OH245305   0.346   4.976   6.338
15143TIP3    H145306   0.337   4.972   6.435
15143TIP3    H245307   0.255   4.988   6.308
15144TIP3   OH245308   1.010   5.714   7.323
15144TIP3    H145309   1.045   5.643   7.265
15144TIP3    H245310   0.987   5.662   7.402
15145TIP3   OH245311   0.695   5.178   6.989
15145TIP3    H145312   0.615   5.178   7.045
15145TIP3    H245313   0.765   5.173   7.056
15146TIP3   OH245314   0.392   5.228   6.685
15146TIP3    H145315   0.489   5.241   6.677
15146TIP3    H245316   0.357   5.269   6.604
15147TIP3   OH245317   1.175   5.251   7.196
15147TIP3    H145318   1.140   5.261   7.287
15147TIP3    H245319   1.112   5.188   7.158
15148TIP3   OH245320   0.209   5.295   6.469
15148TIP3    H145321   0.173   5.204   6.459
15148TIP3    H245322   0.270   5.303   6.392
15149TIP3   OH245323   1.343   6.937   7.415
15149TIP3    H145324   1.349   6.966   7.323
15149TIP3    H245325   1.408   6.996   7.459
15150TIP3   OH245326   0.768   5.499   7.089
15150TIP3    H145327   0.841   5.463   7.037
15150TIP3    H245328   0.783   5.460   7.176
15151TIP3   OH245329   0.326   4.993   6.969
15151TIP3    H145330   0.261   4.921   6.984
15151TIP3    H245331   0.376   4.958   6.894
15152TIP3   OH245332   0.743   5.394   7.389
15152TIP3    H145333   0.654   5.434   7.399
15152TIP3    H245334   0.802   5.456   7.435
15153TIP3   OH245335   0.483   5.786   6.463
15153TIP3    H145336   0.409   5.722   6.460
15153TIP3    H245337   0.474   5.823   6.554
15154TIP3   OH245338   1.382   6.026   7.107
15154TIP3    H145339   1.406   6.074   7.025
15154TIP3    H245340   1.295   5.985   7.083
15155TIP3   OH245341   0.939   5.101   6.339
15155TIP3    H145342   0.842   5.089   6.343
15155TIP3    H245343   0.951   5.197   6.358
15156TIP3   OH245344   0.877   6.097   7.478
15156TIP3    H145345   0.901   6.088   7.571
15156TIP3    H245346   0.843   6.189   7.475
15157TIP3   OH245347   1.009   5.349   6.440
15157TIP3    H145348   1.105   5.354   6.455
15157TIP3    H245349   0.992   5.427   6.384
15158TIP3   OH245350   0.632   5.934   6.291
15158TIP3    H145351   0.590   6.022   6.306
15158TIP3    H245352   0.578   5.878   6.350
15159TIP3   OH245353   0.788   5.854   7.793
15159TIP3    H145354   0.728   5.786   7.755
15159TIP3    H245355   0.875   5.821   7.761
15160TIP3   OH245356   1.045   6.368   7.366
15160TIP3    H145357   0.949   6.360   7.384
15160TIP3    H245358   1.073   6.418   7.445
15161TIP3   OH245359   1.451   5.437   6.278
15161TIP3    H145360   1.388   5.392   6.217
15161TIP3    H245361   1.448   5.526   6.235
15162TIP3   OH245362   1.669   6.296   7.360
15162TIP3    H145363   1.571   6.291   7.352
15162TIP3    H245364   1.694   6.266   7.269
15163TIP3   OH245365   1.144   6.257   6.186
15163TIP3    H145366   1.129   6.181   6.243
15163TIP3    H245367   1.163   6.216   6.099
15164TIP3   OH245368   1.147   5.887   7.027
15164TIP3    H145369   1.054   5.861   7.038
15164TIP3    H245370   1.182   5.808   6.981
15165TIP3   OH245371   0.453   5.881   6.711
15165TIP3    H145372   0.441   5.975   6.733
15165TIP3    H245373   0.425   5.838   6.792
15166TIP3   OH245374   0.936   6.095   7.205
15166TIP3    H145375   0.922   6.090   7.302
15166TIP3    H245376   1.014   6.039   7.194
15167TIP3   OH245377   0.903   5.987   6.089
15167TIP3    H145378   0.957   5.962   6.167
15167TIP3    H245379   0.816   5.955   6.117
15168TIP3   OH245380   1.182   6.625   7.256
15168TIP3    H145381   1.104   6.568   7.252
15168TIP3    H245382   1.163   6.691   7.186
15169TIP3   OH245383   1.244   6.459   5.910
15169TIP3    H145384   1.285   6.523   5.848
15169TIP3    H245385   1.166   6.512   5.937
15170TIP3   OH245386   1.063   5.926   6.311
15170TIP3    H145387   1.054   5.854   6.376
15170TIP3    H245388   1.159   5.920   6.292
15171TIP3   OH245389   0.323   5.944   6.116
15171TIP3    H145390   0.348   5.863   6.067
15171TIP3    H245391   0.304   5.907   6.203
15172TIP3   OH245392   1.098   5.302   7.454
15172TIP3    H145393   1.178   5.340   7.493
15172TIP3    H245394   1.085   5.221   7.508
15173TIP3   OH245395   0.975   5.057   6.618
15173TIP3    H145396   0.966   5.079   6.523
15173TIP3    H245397   1.019   5.138   6.654
15174TIP3   OH245398   0.494   6.165   6.317
15174TIP3    H145399   0.400   6.174   6.333
15174TIP3    H245400   0.504   6.204   6.228
15175TIP3   OH245401   0.666   5.234   6.721
15175TIP3    H145402   0.734   5.302   6.700
15175TIP3    H245403   0.680   5.224   6.817
15176TIP3   OH245404   0.936   5.554   7.530
15176TIP3    H145405   0.955   5.606   7.611
15176TIP3    H245406   0.992   5.476   7.544
15177TIP3   OH245407   0.816   4.962   6.825
15177TIP3    H145408   0.813   5.037   6.887
15177TIP3    H245409   0.877   4.999   6.755
15178TIP3   OH245410   0.330   4.967   6.621
15178TIP3    H145411   0.348   5.055   6.660
15178TIP3    H245412   0.422   4.931   6.623
15179TIP3   OH245413   1.581   5.453   7.507
15179TIP3    H145414   1.483   5.451   7.516
15179TIP3    H245415   1.590   5.409   7.422
15180TIP3   OH245416   1.231   5.646   6.899
15180TIP3    H145417   1.156   5.586   6.911
15180TIP3    H245418   1.304   5.600   6.946
15181TIP3   OH245419   1.199   6.600   6.848
15181TIP3    H145420   1.157   6.648   6.773
15181TIP3    H245421   1.293   6.619   6.829
15182TIP3   OH245422   0.466   6.163   6.023
15182TIP3    H145423   0.419   6.081   6.050
15182TIP3    H245424   0.528   6.127   5.957
15183TIP3   OH245425   1.102   6.497   7.600
15183TIP3    H145426   1.093   6.427   7.669
15183TIP3    H245427   1.174   6.552   7.636
15184TIP3   OH245428   0.872   6.215   5.911
15184TIP3    H145429   0.918   6.151   5.968
15184TIP3    H245430   0.927   6.215   5.830
15185TIP3   OH245431   0.727   6.127   7.789
15185TIP3    H145432   0.659   6.108   7.724
15185TIP3    H245433   0.760   6.036   7.808
15186TIP3   OH245434   0.595   5.877   6.023
15186TIP3    H145435   0.600   5.893   6.120
15186TIP3    H245436   0.599   5.779   6.020
15187TIP3   OH245437   1.203   6.126   7.406
15187TIP3    H145438   1.276   6.174   7.362
15187TIP3    H245439   1.130   6.191   7.394
15188TIP3   OH245440   0.293   5.587   6.446
15188TIP3    H145441   0.266   5.530   6.518
15188TIP3    H245442   0.327   5.522   6.382
15189TIP3   OH245443   0.631   5.665   7.669
15189TIP3    H145444   0.535   5.686   7.673
15189TIP3    H245445   0.652   5.688   7.576
15190TIP3   OH245446   0.392   5.381   6.283
15190TIP3    H145447   0.368   5.388   6.188
15190TIP3    H245448   0.490   5.389   6.278
15191TIP3   OH245449   1.071   6.051   7.806
15191TIP3    H145450   1.153   6.034   7.758
15191TIP3    H245451   1.073   5.984   7.877
15192TIP3   OH245452   1.211   5.719   5.950
15192TIP3    H145453   1.191   5.670   5.867
15192TIP3    H245454   1.179   5.808   5.921
15193TIP3   OH245455   0.703   5.428   7.805
15193TIP3    H145456   0.672   5.352   7.754
15193TIP3    H245457   0.659   5.504   7.763
15194TIP3   OH245458   0.669   5.212   7.589
15194TIP3    H145459   0.710   5.265   7.518
15194TIP3    H245460   0.576   5.235   7.579
15195TIP3   OH245461   0.705   5.781   7.423
15195TIP3    H145462   0.798   5.766   7.402
15195TIP3    H245463   0.700   5.877   7.417
15196TIP3   OH245464   1.293   5.733   7.861
15196TIP3    H145465   1.341   5.649   7.870
15196TIP3    H245466   1.362   5.791   7.826
15197TIP3   OH245467   1.333   5.984   7.595
15197TIP3    H145468   1.275   6.038   7.536
15197TIP3    H245469   1.420   6.004   7.554
15198TIP3   OH245470   0.815   4.992   7.670
15198TIP3    H145471   0.764   5.072   7.645
15198TIP3    H245472   0.746   4.923   7.663
15199TIP3   OH245473   0.948   5.501   7.891
15199TIP3    H145474   0.931   5.492   7.987
15199TIP3    H245475   0.860   5.472   7.857
15200TIP3   OH245476   1.180   5.446   7.742
15200TIP3    H145477   1.104   5.450   7.803
15200TIP3    H245478   1.252   5.415   7.800
15201TIP3   OH245479   1.409   5.387   7.894
15201TIP3    H145480   1.421   5.292   7.913
15201TIP3    H245481   1.405   5.426   7.984
15202TIP3   OH245482   0.910   5.004   7.927
15202TIP3    H145483   0.979   4.934   7.923
15202TIP3    H245484   0.871   4.996   7.838
15203TIP3   OH245485   0.972   5.218   8.088
15203TIP3    H145486   0.951   5.147   8.023
15203TIP3    H245487   0.898   5.280   8.075
15204TIP3   OH245488   1.448   6.698   6.801
15204TIP3    H145489   1.478   6.727   6.890
15204TIP3    H245490   1.515   6.736   6.743
15205TIP3   OH245491   1.482   6.713   7.083
15205TIP3    H145492   1.439   6.624   7.081
15205TIP3    H245493   1.556   6.694   7.142
15206TIP3   OH245494   1.530   6.390   7.659
15206TIP3    H145495   1.455   6.396   7.721
15206TIP3    H245496   1.567   6.480   7.663
15207TIP3   OH245497   1.342   5.905   6.280
15207TIP3    H145498   1.412   5.966   6.250
15207TIP3    H245499   1.385   5.864   6.358
15208TIP3   OH245500   1.471   5.772   6.482
15208TIP3    H145501   1.406   5.728   6.541
15208TIP3    H245502   1.536   5.809   6.545
15209TIP3   OH245503   1.524   6.161   6.915
15209TIP3    H145504   1.578   6.098   6.863
15209TIP3    H245505   1.515   6.236   6.853
15210TIP3   OH245506   1.358   6.462   7.111
15210TIP3    H145507   1.288   6.504   7.164
15210TIP3    H245508   1.307   6.413   7.043
15211TIP3   OH245509   1.410   5.678   6.132
15211TIP3    H145510   1.339   5.680   6.064
15211TIP3    H245511   1.383   5.755   6.186
15212TIP3   OH245512   1.279   5.353   6.086
15212TIP3    H145513   1.242   5.393   6.007
15212TIP3    H245514   1.252   5.259   6.074
15213TIP3   OH245515   1.285   5.625   6.629
15213TIP3    H145516   1.295   5.529   6.625
15213TIP3    H245517   1.273   5.640   6.726
15214TIP3   OH245518   1.574   6.050   7.486
15214TIP3    H145519   1.648   5.985   7.477
15214TIP3    H245520   1.601   6.120   7.424
15215TIP3   OH245521   1.763   5.859   7.507
15215TIP3    H145522   1.687   5.809   7.544
15215TIP3    H245523   1.834   5.794   7.520
15216TIP3   OH245524   1.225   5.087   6.076
15216TIP3    H145525   1.302   5.055   6.126
15216TIP3    H245526   1.155   5.024   6.099
15217TIP3   OH245527   1.281   5.342   6.526
15217TIP3    H145528   1.322   5.253   6.541
15217TIP3    H245529   1.339   5.375   6.455
15218TIP3   OH245530   1.444   5.519   7.019
15218TIP3    H145531   1.531   5.545   6.979
15218TIP3    H245532   1.458   5.554   7.109
15219TIP3   OH245533   1.511   5.660   7.253
15219TIP3    H145534   1.433   5.695   7.301
15219TIP3    H245535   1.543   5.741   7.207
15220TIP3   OH245536   1.961   5.250   7.808
15220TIP3    H145537   2.021   5.183   7.766
15220TIP3    H245538   1.937   5.307   7.732
15221TIP3   OH245539   1.390   5.092   6.563
15221TIP3    H145540   1.439   5.075   6.646
15221TIP3    H245541   1.331   5.014   6.561
15222TIP3   OH245542   1.837   5.394   7.613
15222TIP3    H145543   1.749   5.430   7.635
15222TIP3    H245544   1.811   5.320   7.555
15223TIP3   OH245545   1.474   5.028   6.195
15223TIP3    H145546   1.513   4.955   6.142
15223TIP3    H245547   1.540   5.099   6.185
15224TIP3   OH245548   1.026   6.571   6.461
15224TIP3    H145549   1.076   6.547   6.380
15224TIP3    H245550   1.093   6.622   6.510
15225TIP3   OH245551   0.796   6.614   7.537
15225TIP3    H145552   0.802   6.650   7.628
15225TIP3    H245553   0.840   6.685   7.486
15226TIP3   OH245554   0.939   6.799   7.385
15226TIP3    H145555   1.007   6.738   7.353
15226TIP3    H245556   0.992   6.851   7.450
15227TIP3   OH245557   1.734   5.154   7.491
15227TIP3    H145558   1.642   5.147   7.460
15227TIP3    H245559   1.765   5.061   7.479
15228TIP3   OH245560   0.655   6.698   7.028
15228TIP3    H145561   0.559   6.697   7.044
15228TIP3    H245562   0.683   6.764   7.096
15229TIP3   OH245563   0.920   6.606   7.122
15229TIP3    H145564   0.831   6.622   7.087
15229TIP3    H245565   0.971   6.681   7.086
15230TIP3   OH245566   1.128   6.791   7.041
15230TIP3    H145567   1.119   6.876   6.993
15230TIP3    H245568   1.158   6.731   6.970
15231TIP3   OH245569   0.936   5.068   7.105
15231TIP3    H145570   0.896   4.997   7.159
15231TIP3    H245571   1.012   5.022   7.064
15232TIP3   OH245572   1.462   4.951   7.016
15232TIP3    H145573   1.500   5.001   6.940
15232TIP3    H245574   1.367   4.969   7.008
15233TIP3   OH245575   1.557   5.051   6.780
15233TIP3    H145576   1.630   4.999   6.740
15233TIP3    H245577   1.591   5.142   6.764
15234TIP3   OH245578   0.632   4.819   7.005
15234TIP3    H145579   0.694   4.866   6.947
15234TIP3    H245580   0.664   4.844   7.093
15235TIP3   OH245581   1.177   4.956   6.992
15235TIP3    H145582   1.179   4.919   6.903
15235TIP3    H245583   1.164   4.875   7.047
15236TIP3   OH245584   1.208   4.878   6.553
15236TIP3    H145585   1.120   4.918   6.561
15236TIP3    H245586   1.194   4.793   6.601
15237TIP3   OH245587   0.113   4.737   6.576
15237TIP3    H145588   0.125   4.719   6.481
15237TIP3    H245589   0.166   4.816   6.590
15238TIP3   OH245590   0.605   4.980   6.638
15238TIP3    H145591   0.667   4.934   6.697
15238TIP3    H245592   0.628   5.073   6.662
15239TIP3   OH245593   0.475   6.422   6.167
15239TIP3    H145594   0.562   6.416   6.121
15239TIP3    H245595   0.418   6.387   6.095
15240TIP3   OH245596   1.174   6.523   6.232
15240TIP3    H145597   1.170   6.426   6.217
15240TIP3    H245598   1.139   6.556   6.147
15241TIP3   OH245599   0.637   5.028   8.119
15241TIP3    H145600   0.724   5.021   8.078
15241TIP3    H245601   0.651   4.978   8.201
15242TIP3   OH245602   1.467   5.117   7.925
15242TIP3    H145603   1.488   5.085   8.016
15242TIP3    H245604   1.555   5.112   7.882
15243TIP3   OH245605   1.412   6.670   7.417
15243TIP3    H145606   1.331   6.638   7.371
15243TIP3    H245607   1.393   6.766   7.420
15244TIP3   OH245608   2.673   6.039   6.186
15244TIP3    H145609   2.650   6.132   6.165
15244TIP3    H245610   2.595   5.994   6.150
15245TIP3   OH245611   2.677   6.039   6.560
15245TIP3    H145612   2.702   6.010   6.649
15245TIP3    H245613   2.630   5.962   6.525
15246TIP3   OH245614   1.973   5.938   6.930
15246TIP3    H145615   2.006   5.871   6.993
15246TIP3    H245616   2.052   5.994   6.919
15247TIP3   OH245617   2.917   6.340   6.246
15247TIP3    H145618   2.899   6.277   6.317
15247TIP3    H245619   2.939   6.420   6.297
15248TIP3   OH245620   1.944   6.346   6.659
15248TIP3    H145621   1.936   6.248   6.661
15248TIP3    H245622   2.040   6.354   6.647
15249TIP3   OH245623   1.650   5.552   6.443
15249TIP3    H145624   1.600   5.635   6.453
15249TIP3    H245625   1.581   5.495   6.404
15250TIP3   OH245626   1.711   5.838   6.610
15250TIP3    H145627   1.759   5.761   6.647
15250TIP3    H245628   1.768   5.863   6.536
15251TIP3   OH245629   2.471   6.265   6.613
15251TIP3    H145630   2.508   6.193   6.561
15251TIP3    H245631   2.555   6.309   6.638
15252TIP3   OH245632   3.485   5.589   6.609
15252TIP3    H145633   3.512   5.669   6.657
15252TIP3    H245634   3.503   5.615   6.517
15253TIP3   OH245635   2.887   5.770   6.646
15253TIP3    H145636   2.925   5.682   6.665
15253TIP3    H245637   2.853   5.757   6.556
15254TIP3   OH245638   2.222   5.428   6.611
15254TIP3    H145639   2.199   5.500   6.548
15254TIP3    H245640   2.174   5.354   6.568
15255TIP3   OH245641   2.918   5.517   6.235
15255TIP3    H145642   2.991   5.506   6.300
15255TIP3    H245643   2.964   5.565   6.163
15256TIP3   OH245644   1.855   5.631   6.718
15256TIP3    H145645   1.938   5.609   6.764
15256TIP3    H245646   1.866   5.575   6.638
15257TIP3   OH245647   2.296   5.829   6.509
15257TIP3    H145648   2.389   5.802   6.523
15257TIP3    H245649   2.256   5.745   6.477
15258TIP3   OH245650   3.556   5.794   6.780
15258TIP3    H145651   3.473   5.843   6.761
15258TIP3    H245652   3.570   5.818   6.872
15259TIP3   OH245653   2.219   5.412   7.045
15259TIP3    H145654   2.158   5.447   6.978
15259TIP3    H245655   2.168   5.428   7.126
15260TIP3   OH245656   2.582   6.266   6.047
15260TIP3    H145657   2.526   6.246   5.970
15260TIP3    H245658   2.558   6.358   6.066
15261TIP3   OH245659   2.325   6.186   6.843
15261TIP3    H145660   2.261   6.251   6.879
15261TIP3    H245661   2.367   6.237   6.770
15262TIP3   OH245662   3.134   5.519   6.401
15262TIP3    H145663   3.112   5.473   6.484
15262TIP3    H245664   3.181   5.597   6.434
15263TIP3   OH245665   2.089   5.526   6.829
15263TIP3    H145666   2.152   5.599   6.851
15263TIP3    H245667   2.137   5.485   6.754
15264TIP3   OH245668   2.153   6.379   6.940
15264TIP3    H145669   2.127   6.462   6.896
15264TIP3    H245670   2.074   6.365   6.995
15265TIP3   OH245671   1.548   6.069   6.174
15265TIP3    H145672   1.509   6.092   6.088
15265TIP3    H245673   1.577   6.155   6.209
15266TIP3   OH245674   2.994   6.585   6.414
15266TIP3    H145675   2.905   6.576   6.456
15266TIP3    H245676   2.982   6.671   6.368
15267TIP3   OH245677   3.277   5.488   6.775
15267TIP3    H145678   3.189   5.519   6.748
15267TIP3    H245679   3.334   5.520   6.702
15268TIP3   OH245680   2.578   5.132   6.758
15268TIP3    H145681   2.565   5.037   6.775
15268TIP3    H245682   2.499   5.169   6.804
15269TIP3   OH245683   2.866   6.387   5.962
15269TIP3    H145684   2.777   6.351   5.958
15269TIP3    H245685   2.881   6.388   6.058
15270TIP3   OH245686   3.216   6.499   6.757
15270TIP3    H145687   3.202   6.423   6.697
15270TIP3    H245688   3.194   6.575   6.699
15271TIP3   OH245689   2.505   5.892   6.014
15271TIP3    H145690   2.423   5.942   5.994
15271TIP3    H245691   2.548   5.891   5.927
15272TIP3   OH245692   2.463   5.676   5.740
15272TIP3    H145693   2.534   5.727   5.781
15272TIP3    H245694   2.514   5.613   5.686
15273TIP3   OH245695   3.409   6.134   6.600
15273TIP3    H145696   3.327   6.187   6.607
15273TIP3    H245697   3.438   6.160   6.510
15274TIP3   OH245698   2.851   5.972   5.991
15274TIP3    H145699   2.795   6.002   6.066
15274TIP3    H245700   2.935   5.952   6.036
15275TIP3   OH245701   3.088   6.016   6.895
15275TIP3    H145702   3.085   6.101   6.943
15275TIP3    H245703   3.001   6.019   6.850
15276TIP3   OH245704   2.083   5.974   6.403
15276TIP3    H145705   2.041   5.917   6.335
15276TIP3    H245706   2.161   5.921   6.429
15277TIP3   OH245707   2.210   6.379   6.555
15277TIP3    H145708   2.191   6.341   6.467
15277TIP3    H245709   2.302   6.350   6.570
15278TIP3   OH245710   2.223   5.944   6.758
15278TIP3    H145711   2.253   5.926   6.666
15278TIP3    H245712   2.264   6.031   6.777
15279TIP3   OH245713   2.759   6.580   6.541
15279TIP3    H145714   2.727   6.661   6.584
15279TIP3    H245715   2.734   6.509   6.602
15280TIP3   OH245716   2.357   6.502   7.085
15280TIP3    H145717   2.294   6.565   7.126
15280TIP3    H245718   2.294   6.448   7.033
15281TIP3   OH245719   2.698   5.828   5.814
15281TIP3    H145720   2.752   5.892   5.865
15281TIP3    H245721   2.722   5.855   5.721
15282TIP3   OH245722   2.112   6.058   7.180
15282TIP3    H145723   2.115   6.144   7.226
15282TIP3    H245724   2.017   6.039   7.186
15283TIP3   OH245725   2.153   6.673   7.168
15283TIP3    H145726   2.119   6.670   7.076
15283TIP3    H245727   2.073   6.649   7.220
15284TIP3   OH245728   1.949   5.816   6.210
15284TIP3    H145729   1.887   5.863   6.151
15284TIP3    H245730   1.907   5.730   6.218
15285TIP3   OH245731   3.005   6.442   5.403
15285TIP3    H145732   3.012   6.539   5.395
15285TIP3    H245733   3.099   6.415   5.394
15286TIP3   OH245734   1.732   6.200   7.114
15286TIP3    H145735   1.667   6.177   7.045
15286TIP3    H245736   1.768   6.113   7.139
15287TIP3   OH245737   1.586   6.392   6.749
15287TIP3    H145738   1.682   6.385   6.736
15287TIP3    H245739   1.580   6.472   6.803
15288TIP3   OH245740   3.450   6.842   6.805
15288TIP3    H145741   3.451   6.745   6.813
15288TIP3    H245742   3.370   6.863   6.856
15289TIP3   OH245743   2.557   6.631   6.938
15289TIP3    H145744   2.558   6.724   6.969
15289TIP3    H245745   2.485   6.593   6.991
15290TIP3   OH245746   2.207   6.790   5.870
15290TIP3    H145747   2.255   6.738   5.805
15290TIP3    H245748   2.281   6.835   5.917
15291TIP3   OH245749   1.751   6.612   6.273
15291TIP3    H145750   1.801   6.600   6.356
15291TIP3    H245751   1.696   6.532   6.275
15292TIP3   OH245752   2.525   6.657   5.534
15292TIP3    H145753   2.580   6.589   5.491
15292TIP3    H245754   2.559   6.654   5.625
15293TIP3   OH245755   3.342   5.977   7.076
15293TIP3    H145756   3.261   5.992   7.025
15293TIP3    H245757   3.355   5.880   7.066
15294TIP3   OH245758   1.937   6.384   7.105
15294TIP3    H145759   1.986   6.365   7.187
15294TIP3    H245760   1.863   6.320   7.111
15295TIP3   OH245761   2.337   5.208   6.884
15295TIP3    H145762   2.247   5.176   6.860
15295TIP3    H245763   2.311   5.290   6.931
15296TIP3   OH245764   2.869   5.324   7.081
15296TIP3    H145765   2.935   5.295   7.147
15296TIP3    H245766   2.784   5.302   7.126
15297TIP3   OH245767   3.113   5.752   7.001
15297TIP3    H145768   3.063   5.748   7.085
15297TIP3    H245769   3.085   5.839   6.964
15298TIP3   OH245770   2.776   5.873   5.558
15298TIP3    H145771   2.737   5.854   5.470
15298TIP3    H245772   2.841   5.941   5.536
15299TIP3   OH245773   2.493   5.256   5.860
15299TIP3    H145774   2.452   5.256   5.948
15299TIP3    H245775   2.457   5.174   5.824
15300TIP3   OH245776   2.270   5.721   6.906
15300TIP3    H145777   2.217   5.741   6.986
15300TIP3    H245778   2.253   5.802   6.852
15301TIP3   OH245779   2.152   5.608   6.419
15301TIP3    H145780   2.059   5.583   6.436
15301TIP3    H245781   2.165   5.568   6.330
15302TIP3   OH245782   2.644   5.695   6.146
15302TIP3    H145783   2.588   5.767   6.109
15302TIP3    H245784   2.693   5.667   6.067
15303TIP3   OH245785   2.818   5.977   7.238
15303TIP3    H145786   2.794   5.902   7.297
15303TIP3    H245787   2.913   5.985   7.256
15304TIP3   OH245788   2.801   5.724   6.387
15304TIP3    H145789   2.742   5.758   6.317
15304TIP3    H245790   2.827   5.640   6.345
15305TIP3   OH245791   2.088   5.751   7.115
15305TIP3    H145792   2.111   5.814   7.185
15305TIP3    H245793   2.075   5.669   7.165
15306TIP3   OH245794   2.143   5.229   5.824
15306TIP3    H145795   2.129   5.225   5.921
15306TIP3    H245796   2.062   5.277   5.796
15307TIP3   OH245797   1.679   5.276   6.695
15307TIP3    H145798   1.757   5.305   6.747
15307TIP3    H245799   1.718   5.240   6.614
15308TIP3   OH245800   1.657   5.256   6.215
15308TIP3    H145801   1.700   5.294   6.136
15308TIP3    H245802   1.594   5.328   6.237
15309TIP3   OH245803   2.813   5.970   6.811
15309TIP3    H145804   2.845   5.898   6.752
15309TIP3    H245805   2.783   5.918   6.888
15310TIP3   OH245806   2.479   5.431   6.482
15310TIP3    H145807   2.394   5.428   6.530
15310TIP3    H245808   2.542   5.433   6.556
15311TIP3   OH245809   1.913   5.485   6.490
15311TIP3    H145810   1.819   5.493   6.464
15311TIP3    H245811   1.937   5.394   6.466
15312TIP3   OH245812   2.185   5.485   6.176
15312TIP3    H145813   2.279   5.499   6.152
15312TIP3    H245814   2.137   5.507   6.094
15313TIP3   OH245815   2.969   5.504   6.678
15313TIP3    H145816   2.938   5.517   6.771
15313TIP3    H245817   2.901   5.442   6.646
15314TIP3   OH245818   2.023   5.515   5.958
15314TIP3    H145819   1.951   5.470   5.909
15314TIP3    H245820   2.074   5.551   5.882
15315TIP3   OH245821   2.098   6.304   7.323
15315TIP3    H145822   2.175   6.341   7.370
15315TIP3    H245823   2.032   6.303   7.395
15316TIP3   OH245824   2.563   5.758   6.580
15316TIP3    H145825   2.633   5.715   6.529
15316TIP3    H245826   2.572   5.717   6.668
15317TIP3   OH245827   2.089   5.246   6.455
15317TIP3    H145828   2.055   5.166   6.500
15317TIP3    H245829   2.137   5.209   6.380
15318TIP3   OH245830   2.540   5.654   6.867
15318TIP3    H145831   2.450   5.689   6.881
15318TIP3    H245832   2.596   5.714   6.920
15319TIP3   OH245833   2.278   6.045   5.965
15319TIP3    H145834   2.204   5.981   5.952
15319TIP3    H245835   2.258   6.079   6.056
15320TIP3   OH245836   3.178   6.280   6.594
15320TIP3    H145837   3.201   6.330   6.513
15320TIP3    H245838   3.091   6.241   6.571
15321TIP3   OH245839   2.736   5.367   5.802
15321TIP3    H145840   2.643   5.340   5.823
15321TIP3    H245841   2.741   5.457   5.841
15322TIP3   OH245842   2.672   6.361   6.962
15322TIP3    H145843   2.694   6.343   7.054
15322TIP3    H245844   2.642   6.453   6.963
15323TIP3   OH245845   2.806   5.603   5.926
15323TIP3    H145846   2.900   5.619   5.943
15323TIP3    H245847   2.779   5.684   5.876
15324TIP3   OH245848   1.968   6.068   6.641
15324TIP3    H145849   2.005   6.041   6.554
15324TIP3    H245850   2.005   6.001   6.700
15325TIP3   OH245851   2.423   6.196   5.785
15325TIP3    H145852   2.373   6.281   5.789
15325TIP3    H245853   2.368   6.140   5.844
15326TIP3   OH245854   1.847   5.988   7.252
15326TIP3    H145855   1.867   5.973   7.346
15326TIP3    H245856   1.778   5.922   7.235
15327TIP3   OH245857   2.571   6.100   7.273
15327TIP3    H145858   2.512   6.043   7.222
15327TIP3    H245859   2.659   6.067   7.244
15328TIP3   OH245860   2.838   6.610   6.867
15328TIP3    H145861   2.741   6.622   6.869
15328TIP3    H245862   2.866   6.676   6.934
15329TIP3   OH245863   3.243   5.693   5.764
15329TIP3    H145864   3.183   5.649   5.700
15329TIP3    H245865   3.240   5.783   5.726
15330TIP3   OH245866   3.465   6.552   6.846
15330TIP3    H145867   3.367   6.547   6.838
15330TIP3    H245868   3.490   6.522   6.755
15331TIP3   OH245869   2.946   6.512   5.675
15331TIP3    H145870   2.918   6.452   5.747
15331TIP3    H245871   2.952   6.455   5.597
15332TIP3   OH245872   2.942   6.143   6.517
15332TIP3    H145873   2.848   6.117   6.528
15332TIP3    H245874   2.976   6.065   6.467
15333TIP3   OH245875   2.070   6.371   6.266
15333TIP3    H145876   2.074   6.452   6.213
15333TIP3    H245877   1.975   6.355   6.268
15334TIP3   OH245878   1.632   5.676   5.966
15334TIP3    H145879   1.678   5.760   5.985
15334TIP3    H245880   1.554   5.683   6.026
15335TIP3   OH245881   2.211   6.139   6.212
15335TIP3    H145882   2.174   6.228   6.228
15335TIP3    H245883   2.171   6.089   6.285
15336TIP3   OH245884   2.337   6.716   6.734
15336TIP3    H145885   2.376   6.788   6.680
15336TIP3    H245886   2.417   6.682   6.779
15337TIP3   OH245887   1.991   6.606   6.123
15337TIP3    H145888   1.903   6.621   6.163
15337TIP3    H245889   2.024   6.698   6.114
15338TIP3   OH245890   2.725   6.346   6.693
15338TIP3    H145891   2.719   6.345   6.791
15338TIP3    H245892   2.808   6.298   6.678
15339TIP3   OH245893   2.697   6.241   5.570
15339TIP3    H145894   2.750   6.211   5.647
15339TIP3    H245895   2.608   6.218   5.601
15340TIP3   OH245896   2.970   6.875   6.727
15340TIP3    H145897   2.885   6.828   6.714
15340TIP3    H245898   2.961   6.950   6.666
15341TIP3   OH245899   3.041   6.717   5.392
15341TIP3    H145900   3.079   6.793   5.344
15341TIP3    H245901   2.962   6.762   5.430
15342TIP3   OH245902   2.061   5.495   7.262
15342TIP3    H145903   1.965   5.498   7.275
15342TIP3    H245904   2.089   5.432   7.331
15343TIP3   OH245905   2.856   6.151   5.773
15343TIP3    H145906   2.846   6.106   5.858
15343TIP3    H245907   2.950   6.176   5.777
15344TIP3   OH245908   1.775   6.580   6.894
15344TIP3    H145909   1.827   6.503   6.920
15344TIP3    H245910   1.806   6.646   6.957
15345TIP3   OH245911   2.069   6.222   5.573
15345TIP3    H145912   2.081   6.130   5.544
15345TIP3    H245913   2.050   6.211   5.668
15346TIP3   OH245914   2.014   6.227   5.845
15346TIP3    H145915   2.085   6.204   5.907
15346TIP3    H245916   2.015   6.325   5.849
15347TIP3   OH245917   1.751   5.923   6.049
15347TIP3    H145918   1.684   5.967   6.106
15347TIP3    H245919   1.765   5.992   5.981
15348TIP3   OH245920   2.899   5.557   6.938
15348TIP3    H145921   2.976   5.595   6.983
15348TIP3    H245922   2.880   5.477   6.992
15349TIP3   OH245923   2.765   5.322   6.108
15349TIP3    H145924   2.753   5.337   6.013
15349TIP3    H245925   2.803   5.406   6.139
15350TIP3   OH245926   2.275   6.422   5.794
15350TIP3    H145927   2.191   6.454   5.833
15350TIP3    H245928   2.301   6.501   5.743
15351TIP3   OH245929   2.471   5.486   6.208
15351TIP3    H145930   2.533   5.560   6.190
15351TIP3    H245931   2.471   5.483   6.306
15352TIP3   OH245932   2.736   5.808   7.018
15352TIP3    H145933   2.751   5.863   7.097
15352TIP3    H245934   2.791   5.730   7.034
15353TIP3   OH245935   2.616   5.220   6.317
15353TIP3    H145936   2.598   5.300   6.369
15353TIP3    H245937   2.670   5.257   6.244
15354TIP3   OH245938   2.017   6.499   5.862
15354TIP3    H145939   1.991   6.568   5.797
15354TIP3    H245940   2.008   6.548   5.946
15355TIP3   OH245941   2.122   5.212   6.102
15355TIP3    H145942   2.118   5.304   6.135
15355TIP3    H245943   2.218   5.196   6.109
15356TIP3   OH245944   3.379   5.707   6.996
15356TIP3    H145945   3.281   5.707   7.006
15356TIP3    H245946   3.386   5.669   6.908
15357TIP3   OH245947   3.028   5.902   6.384
15357TIP3    H145948   2.950   5.846   6.399
15357TIP3    H245949   3.098   5.855   6.435
15358TIP3   OH245950   1.738   6.133   5.857
15358TIP3    H145951   1.796   6.210   5.861
15358TIP3    H245952   1.785   6.081   5.789
15359TIP3   OH245953   1.685   5.407   5.990
15359TIP3    H145954   1.683   5.504   5.983
15359TIP3    H245955   1.603   5.383   5.944
15360TIP3   OH245956   2.996   6.858   6.336
15360TIP3    H145957   2.951   6.907   6.264
15360TIP3    H245958   3.090   6.877   6.313
15361TIP3   OH245959   2.072   5.127   6.863
15361TIP3    H145960   2.040   5.094   6.777
15361TIP3    H245961   2.062   5.049   6.921
15362TIP3   OH245962   1.616   6.349   6.249
15362TIP3    H145963   1.535   6.379   6.292
15362TIP3    H245964   1.601   6.384   6.158
15363TIP3   OH245965   1.775   6.878   7.292
15363TIP3    H145966   1.853   6.881   7.352
15363TIP3    H245967   1.744   6.787   7.305
15364TIP3   OH245968   2.253   6.845   7.367
15364TIP3    H145969   2.349   6.836   7.361
15364TIP3    H245970   2.224   6.795   7.288
15365TIP3   OH245971   2.232   6.426   5.485
15365TIP3    H145972   2.173   6.360   5.528
15365TIP3    H245973   2.305   6.369   5.457
15366TIP3   OH245974   2.880   6.769   7.093
15366TIP3    H145975   2.895   6.698   7.159
15366TIP3    H245976   2.957   6.828   7.103
15367TIP3   OH245977   2.668   6.470   5.397
15367TIP3    H145978   2.710   6.405   5.456
15367TIP3    H245979   2.727   6.470   5.319
15368TIP3   OH245980   1.899   6.293   7.515
15368TIP3    H145981   1.915   6.197   7.518
15368TIP3    H245982   1.811   6.296   7.472
15369TIP3   OH245983   1.873   5.945   5.706
15369TIP3    H145984   1.928   5.911   5.778
15369TIP3    H245985   1.941   5.950   5.634
15370TIP3   OH245986   2.504   6.372   7.288
15370TIP3    H145987   2.464   6.390   7.201
15370TIP3    H245988   2.536   6.280   7.278
15371TIP3   OH245989   2.384   6.145   5.514
15371TIP3    H145990   2.384   6.157   5.611
15371TIP3    H245991   2.382   6.047   5.508
15372TIP3   OH245992   2.999   6.383   6.893
15372TIP3    H145993   3.073   6.430   6.849
15372TIP3    H245994   2.928   6.450   6.884
15373TIP3   OH245995   2.017   6.028   7.495
15373TIP3    H145996   2.086   5.963   7.477
15373TIP3    H245997   2.040   6.057   7.585
15374TIP3   OH245998   2.087   5.846   5.932
15374TIP3    H145999   2.057   5.801   6.013
15374TIP3    H246000   2.119   5.771   5.878
15375TIP3   OH246001   2.353   5.914   7.160
15375TIP3    H146002   2.274   5.971   7.162
15375TIP3    H246003   2.398   5.945   7.078
15376TIP3   OH246004   2.181   5.639   5.771
15376TIP3    H146005   2.154   5.639   5.677
15376TIP3    H246006   2.279   5.647   5.762
15377TIP3   OH246007   2.872   6.315   7.298
15377TIP3    H146008   2.946   6.294   7.240
15377TIP3    H246009   2.871   6.239   7.359
15378TIP3   OH246010   3.016   5.973   5.426
15378TIP3    H146011   2.983   5.927   5.347
15378TIP3    H246012   2.981   6.063   5.407
15379TIP3   OH246013   2.476   5.699   7.286
15379TIP3    H146014   2.474   5.618   7.231
15379TIP3    H246015   2.431   5.764   7.227
15380TIP3   OH246016   2.478   5.486   7.091
15380TIP3    H146017   2.504   5.526   7.005
15380TIP3    H246018   2.384   5.462   7.074
15381TIP3   OH246019   2.509   6.024   6.964
15381TIP3    H146020   2.589   6.031   6.911
15381TIP3    H246021   2.451   6.091   6.922
15382TIP3   OH246022   3.088   5.991   7.349
15382TIP3    H146023   3.136   5.907   7.357
15382TIP3    H246024   3.157   6.049   7.312
15383TIP3   OH246025   3.128   6.242   7.083
15383TIP3    H146026   3.070   6.295   7.023
15383TIP3    H246027   3.215   6.261   7.043
15384TIP3   OH246028   2.352   5.816   7.513
15384TIP3    H146029   2.283   5.747   7.528
15384TIP3    H246030   2.388   5.789   7.426
15385TIP3   OH246031   2.610   5.250   7.155
15385TIP3    H146032   2.561   5.332   7.134
15385TIP3    H246033   2.540   5.182   7.145
15386TIP3   OH246034   2.735   5.758   7.374
15386TIP3    H146035   2.724   5.741   7.469
15386TIP3    H246036   2.645   5.731   7.344
15387TIP3   OH246037   2.976   5.705   7.229
15387TIP3    H146038   2.899   5.704   7.289
15387TIP3    H246039   3.048   5.671   7.287
15388TIP3   OH246040   3.209   5.644   7.381
15388TIP3    H146041   3.217   5.548   7.401
15388TIP3    H246042   3.201   5.683   7.471
15389TIP3   OH246043   2.194   5.594   7.565
15389TIP3    H146044   2.199   5.503   7.530
15389TIP3    H246045   2.230   5.580   7.656
15390TIP3   OH246046   2.707   5.262   7.412
15390TIP3    H146047   2.772   5.189   7.409
15390TIP3    H246048   2.665   5.252   7.324
15391TIP3   OH246049   2.774   5.480   7.564
15391TIP3    H146050   2.749   5.405   7.505
15391TIP3    H246051   2.693   5.535   7.564
15392TIP3   OH246052   1.985   6.697   5.669
15392TIP3    H146053   2.081   6.709   5.671
15392TIP3    H246054   1.963   6.743   5.586
15393TIP3   OH246055   1.471   6.082   5.896
15393TIP3    H146056   1.564   6.106   5.879
15393TIP3    H246057   1.465   5.995   5.851
15394TIP3   OH246058   1.379   6.698   6.306
15394TIP3    H146059   1.315   6.633   6.270
15394TIP3    H246060   1.427   6.642   6.371
15395TIP3   OH246061   1.516   6.554   6.492
15395TIP3    H146062   1.512   6.475   6.549
15395TIP3    H246063   1.570   6.613   6.549
15396TIP3   OH246064   3.250   6.946   6.288
15396TIP3    H146065   3.271   6.978   6.378
15396TIP3    H246066   3.306   7.002   6.232
15397TIP3   OH246067   3.282   6.968   6.567
15397TIP3    H146068   3.234   6.883   6.568
15397TIP3    H246069   3.352   6.949   6.631
15398TIP3   OH246070   3.323   6.648   7.148
15398TIP3    H146071   3.243   6.657   7.203
15398TIP3    H246072   3.359   6.739   7.152
15399TIP3   OH246073   3.146   6.156   5.763
15399TIP3    H146074   3.212   6.225   5.740
15399TIP3    H246075   3.184   6.119   5.845
15400TIP3   OH246076   3.270   6.023   5.968
15400TIP3    H146077   3.202   5.985   6.028
15400TIP3    H246078   3.330   6.068   6.031
15401TIP3   OH246079   3.323   6.418   6.405
15401TIP3    H146080   3.373   6.357   6.348
15401TIP3    H246081   3.306   6.493   6.346
15402TIP3   OH246082   3.156   6.719   6.602
15402TIP3    H146083   3.088   6.766   6.655
15402TIP3    H246084   3.102   6.675   6.534
15403TIP3   OH246085   3.204   5.929   5.618
15403TIP3    H146086   3.135   5.939   5.548
15403TIP3    H246087   3.181   6.007   5.673
15404TIP3   OH246088   3.083   5.588   5.566
15404TIP3    H146089   3.043   5.661   5.515
15404TIP3    H246090   3.036   5.512   5.529
15405TIP3   OH246091   3.085   5.882   6.118
15405TIP3    H146092   3.089   5.786   6.119
15405TIP3    H246093   3.069   5.903   6.213
15406TIP3   OH246094   1.709   5.956   6.862
15406TIP3    H146095   1.707   5.927   6.769
15406TIP3    H246096   1.806   5.958   6.879
15407TIP3   OH246097   3.370   6.307   6.974
15407TIP3    H146098   3.444   6.243   6.964
15407TIP3    H246099   3.394   6.377   6.912
15408TIP3   OH246100   3.558   6.115   6.992
15408TIP3    H146101   3.482   6.066   7.031
15408TIP3    H246102   3.630   6.049   7.005
15409TIP3   OH246103   3.030   5.282   5.537
15409TIP3    H146104   3.092   5.307   5.609
15409TIP3    H246105   2.945   5.272   5.585
15410TIP3   OH246106   3.082   5.599   6.013
15410TIP3    H146107   3.133   5.518   6.026
15410TIP3    H246108   3.133   5.643   5.943
15411TIP3   OH246109   3.241   5.771   6.506
15411TIP3    H146110   3.327   5.800   6.467
15411TIP3    H246111   3.251   5.810   6.595
15412TIP3   OH246112   3.306   5.916   6.738
15412TIP3    H146113   3.229   5.950   6.787
15412TIP3    H246114   3.338   5.998   6.694
15413TIP3   OH246115   1.927   5.647   7.540
15413TIP3    H146116   2.025   5.636   7.539
15413TIP3    H246117   1.901   5.561   7.579
15414TIP3   OH246118   3.764   5.509   7.296
15414TIP3    H146119   3.818   5.441   7.251
15414TIP3    H246120   3.733   5.564   7.221
15415TIP3   OH246121   3.166   5.299   6.057
15415TIP3    H146122   3.236   5.306   6.127
15415TIP3    H246123   3.087   5.315   6.111
15416TIP3   OH246124   1.887   5.335   6.870
15416TIP3    H146125   1.949   5.260   6.879
15416TIP3    H246126   1.949   5.410   6.864
15417TIP3   OH246127   1.691   5.610   6.942
15417TIP3    H146128   1.739   5.601   6.858
15417TIP3    H246129   1.721   5.697   6.971
15418TIP3   OH246130   3.633   5.648   7.104
15418TIP3    H146131   3.546   5.687   7.125
15418TIP3    H246132   3.604   5.578   7.043
15419TIP3   OH246133   3.277   5.274   5.679
15419TIP3    H146134   3.355   5.224   5.651
15419TIP3    H246135   3.320   5.361   5.693
15420TIP3   OH246136   1.673   5.117   6.446
15420TIP3    H146137   1.578   5.112   6.467
15420TIP3    H246138   1.673   5.172   6.365
15421TIP3   OH246139   2.834   6.873   5.912
15421TIP3    H146140   2.859   6.786   5.878
15421TIP3    H246141   2.875   6.872   5.999
15422TIP3   OH246142   1.894   5.197   7.259
15422TIP3    H146143   1.843   5.186   7.341
15422TIP3    H246144   1.826   5.231   7.198
15423TIP3   OH246145   1.936   6.611   7.341
15423TIP3    H146146   1.846   6.589   7.312
15423TIP3    H246147   1.929   6.600   7.436
15424TIP3   OH246148   2.111   6.652   6.884
15424TIP3    H146149   2.062   6.726   6.844
15424TIP3    H246150   2.197   6.665   6.838
15425TIP3   OH246151   2.561   6.899   7.020
15425TIP3    H146152   2.604   6.900   7.108
15425TIP3    H246153   2.629   6.946   6.967
15426TIP3   OH246154   2.750   7.045   6.881
15426TIP3    H146155   2.808   6.984   6.832
15426TIP3    H246156   2.817   7.090   6.936
15427TIP3   OH246157   3.531   5.411   6.977
15427TIP3    H146158   3.438   5.407   6.947
15427TIP3    H246159   3.558   5.317   6.965
15428TIP3   OH246160   1.788   6.910   6.904
15428TIP3    H146161   1.700   6.946   6.881
15428TIP3    H246162   1.794   6.936   6.997
15429TIP3   OH246163   2.025   6.888   6.763
15429TIP3    H146164   1.939   6.902   6.808
15429TIP3    H246165   2.006   6.920   6.673
15430TIP3   OH246166   2.446   6.918   6.566
15430TIP3    H146167   2.382   6.937   6.495
15430TIP3    H246168   2.462   7.007   6.603
15431TIP3   OH246169   2.714   6.857   6.615
15431TIP3    H146170   2.621   6.868   6.587
15431TIP3    H246171   2.758   6.928   6.566
15432TIP3   OH246172   2.925   7.053   6.525
15432TIP3    H146173   2.914   7.138   6.478
15432TIP3    H246174   2.951   6.993   6.453
15433TIP3   OH246175   1.698   6.703   6.652
15433TIP3    H146176   1.727   6.678   6.742
15433TIP3    H246177   1.770   6.660   6.599
15434TIP3   OH246178   1.890   6.574   6.507
15434TIP3    H146179   1.908   6.490   6.553
15434TIP3    H246180   1.980   6.613   6.501
15435TIP3   OH246181   2.154   6.673   6.509
15435TIP3    H146182   2.191   6.586   6.487
15435TIP3    H246183   2.200   6.690   6.593
15436TIP3   OH246184   2.740   5.328   6.603
15436TIP3    H146185   2.690   5.261   6.654
15436TIP3    H246186   2.798   5.272   6.548
15437TIP3   OH246187   3.261   5.195   6.494
15437TIP3    H146188   3.293   5.255   6.424
15437TIP3    H246189   3.165   5.216   6.495
15438TIP3   OH246190   3.352   5.313   6.255
15438TIP3    H146191   3.427   5.258   6.227
15438TIP3    H246192   3.390   5.403   6.248
15439TIP3   OH246193   1.984   5.035   6.615
15439TIP3    H146194   1.892   5.001   6.614
15439TIP3    H246195   2.033   4.950   6.612
15440TIP3   OH246196   1.770   4.903   6.261
15440TIP3    H146197   1.800   4.960   6.188
15440TIP3    H246198   1.740   4.969   6.327
15441TIP3   OH246199   2.425   5.068   6.492
15441TIP3    H146200   2.487   5.118   6.437
15441TIP3    H246201   2.444   5.104   6.580
15442TIP3   OH246202   2.985   5.207   6.472
15442TIP3    H146203   2.957   5.171   6.387
15442TIP3    H246204   2.964   5.132   6.533
15443TIP3   OH246205   1.484   6.475   6.049
15443TIP3    H146206   1.403   6.439   6.008
15443TIP3    H246207   1.474   6.568   6.023
15444TIP3   OH246208   1.885   5.063   6.027
15444TIP3    H146209   1.933   5.001   5.969
15444TIP3    H246210   1.958   5.117   6.062
15445TIP3   OH246211   2.399   5.238   6.123
15445TIP3    H146212   2.457   5.188   6.183
15445TIP3    H246213   2.422   5.330   6.149
15446TIP3   OH246214   2.264   6.662   5.621
15446TIP3    H146215   2.352   6.683   5.583
15446TIP3    H246216   2.238   6.587   5.564
15447TIP3   OH246217   3.003   6.775   5.696
15447TIP3    H146218   2.982   6.680   5.692
15447TIP3    H246219   2.938   6.813   5.634
15448TIP3   OH246220   2.191   5.318   7.507
15448TIP3    H146221   2.158   5.245   7.562
15448TIP3    H246222   2.286   5.317   7.532
15449TIP3   OH246223   2.440   5.312   7.625
15449TIP3    H146224   2.526   5.284   7.588
15449TIP3    H246225   2.426   5.243   7.693
15450TIP3   OH246226   1.554   6.489   5.691
15450TIP3    H146227   1.573   6.529   5.776
15450TIP3    H246228   1.643   6.463   5.660
15451TIP3   OH246229   3.264   5.373   7.412
15451TIP3    H146230   3.283   5.342   7.503
15451TIP3    H246231   3.352   5.367   7.370
15452TIP3   OH246232   4.471   6.297   5.672
15452TIP3    H146233   4.443   6.389   5.652
15452TIP3    H246234   4.393   6.249   5.638
15453TIP3   OH246235   4.469   6.298   6.049
15453TIP3    H146236   4.498   6.266   6.136
15453TIP3    H246237   4.427   6.219   6.011
15454TIP3   OH246238   3.772   6.193   6.414
15454TIP3    H146239   3.803   6.128   6.479
15454TIP3    H246240   3.846   6.255   6.411
15455TIP3   OH246241   4.711   6.599   5.731
15455TIP3    H146242   4.699   6.530   5.797
15455TIP3    H246243   4.740   6.674   5.785
15456TIP3   OH246244   3.740   6.603   6.143
15456TIP3    H146245   3.730   6.505   6.146
15456TIP3    H246246   3.837   6.610   6.137
15457TIP3   OH246247   3.447   5.804   5.928
15457TIP3    H146248   3.404   5.891   5.945
15457TIP3    H246249   3.371   5.756   5.890
15458TIP3   OH246250   3.508   6.094   6.095
15458TIP3    H146251   3.558   6.019   6.135
15458TIP3    H246252   3.568   6.124   6.025
15459TIP3   OH246253   4.359   7.062   5.747
15459TIP3    H146254   4.408   6.991   5.700
15459TIP3    H246255   4.354   7.027   5.837
15460TIP3   OH246256   4.268   6.523   6.099
15460TIP3    H146257   4.305   6.447   6.050
15460TIP3    H246258   4.352   6.567   6.122
15461TIP3   OH246259   5.282   5.843   6.096
15461TIP3    H146260   5.309   5.928   6.138
15461TIP3    H246261   5.300   5.863   6.003
15462TIP3   OH246262   4.680   6.026   6.134
15462TIP3    H146263   4.723   5.940   6.152
15462TIP3    H246264   4.650   6.012   6.042
15463TIP3   OH246265   4.015   5.684   6.098
15463TIP3    H146266   3.997   5.757   6.036
15463TIP3    H246267   3.966   5.612   6.054
15464TIP3   OH246268   4.710   5.775   5.722
15464TIP3    H146269   4.784   5.758   5.785
15464TIP3    H246270   4.759   5.808   5.645
15465TIP3   OH246271   3.652   5.887   6.204
15465TIP3    H146272   3.735   5.868   6.252
15465TIP3    H246273   3.665   5.832   6.125
15466TIP3   OH246274   4.094   6.085   5.994
15466TIP3    H146275   4.187   6.059   6.009
15466TIP3    H246276   4.054   6.001   5.963
15467TIP3   OH246277   5.355   6.052   6.267
15467TIP3    H146278   5.272   6.100   6.245
15467TIP3    H246279   5.364   6.074   6.361
15468TIP3   OH246280   4.015   5.668   6.532
15468TIP3    H146281   3.954   5.706   6.465
15468TIP3    H246282   3.963   5.686   6.613
15469TIP3   OH246283   4.364   6.519   5.541
15469TIP3    H146284   4.320   6.496   5.458
15469TIP3    H246285   4.321   6.604   5.562
15470TIP3   OH246286   4.121   6.442   6.329
15470TIP3    H146287   4.057   6.507   6.367
15470TIP3    H246288   4.162   6.495   6.258
15471TIP3   OH246289   4.925   5.776   5.890
15471TIP3    H146290   4.919   5.724   5.971
15471TIP3    H246291   4.979   5.852   5.918
15472TIP3   OH246292   3.884   5.783   6.317
15472TIP3    H146293   3.946   5.856   6.339
15472TIP3    H246294   3.934   5.742   6.242
15473TIP3   OH246295   3.948   6.635   6.424
15473TIP3    H146296   3.923   6.720   6.385
15473TIP3    H246297   3.869   6.620   6.481
15474TIP3   OH246298   3.349   6.327   5.661
15474TIP3    H146299   3.302   6.353   5.580
15474TIP3    H246300   3.375   6.414   5.698
15475TIP3   OH246301   4.784   6.841   5.902
15475TIP3    H146302   4.694   6.833   5.940
15475TIP3    H246303   4.777   6.927   5.856
15476TIP3   OH246304   5.074   5.746   6.264
15476TIP3    H146305   4.985   5.773   6.234
15476TIP3    H246306   5.131   5.775   6.190
15477TIP3   OH246307   4.373   5.388   6.244
15477TIP3    H146308   4.361   5.293   6.262
15477TIP3    H246309   4.295   5.425   6.291
15478TIP3   OH246310   4.488   6.890   5.577
15478TIP3    H146311   4.538   6.808   5.554
15478TIP3    H246312   4.547   6.956   5.534
15479TIP3   OH246313   4.628   6.675   5.479
15479TIP3    H146314   4.590   6.595   5.439
15479TIP3    H246315   4.663   6.640   5.563
15480TIP3   OH246316   5.011   6.757   6.245
15480TIP3    H146317   5.000   6.679   6.185
15480TIP3    H246318   4.993   6.831   6.183
15481TIP3   OH246319   4.301   6.149   5.500
15481TIP3    H146320   4.221   6.201   5.477
15481TIP3    H246321   4.348   6.147   5.415
15482TIP3   OH246322   4.259   5.933   5.220
15482TIP3    H146323   4.328   5.982   5.268
15482TIP3    H246324   4.315   5.868   5.172
15483TIP3   OH246325   5.205   6.392   6.088
15483TIP3    H146326   5.123   6.445   6.094
15483TIP3    H246327   5.235   6.415   5.998
15484TIP3   OH246328   4.647   6.232   5.473
15484TIP3    H146329   4.593   6.257   5.552
15484TIP3    H246330   4.731   6.205   5.517
15485TIP3   OH246331   4.884   6.273   6.382
15485TIP3    H146332   4.880   6.358   6.430
15485TIP3    H246333   4.797   6.275   6.336
15486TIP3   OH246334   3.880   6.230   5.889
15486TIP3    H146335   3.839   6.173   5.821
15486TIP3    H246336   3.958   6.177   5.916
15487TIP3   OH246337   4.011   6.642   6.038
15487TIP3    H146338   3.989   6.597   5.955
15487TIP3    H246339   4.101   6.609   6.056
15488TIP3   OH246340   4.022   6.200   6.243
15488TIP3    H146341   4.053   6.183   6.152
15488TIP3    H246342   4.061   6.287   6.264
15489TIP3   OH246343   4.542   6.839   6.020
15489TIP3    H146344   4.528   6.919   6.074
15489TIP3    H246345   4.528   6.766   6.083
15490TIP3   OH246346   4.153   6.758   6.568
15490TIP3    H146347   4.094   6.821   6.614
15490TIP3    H246348   4.087   6.705   6.519
15491TIP3   OH246349   4.489   6.091   5.298
15491TIP3    H146350   4.548   6.149   5.351
15491TIP3    H246351   4.515   6.117   5.206
15492TIP3   OH246352   3.907   6.315   6.666
15492TIP3    H146353   3.912   6.401   6.712
15492TIP3    H246354   3.812   6.296   6.675
15493TIP3   OH246355   4.231   6.771   5.574
15493TIP3    H146356   4.308   6.826   5.595
15493TIP3    H246357   4.169   6.834   5.536
15494TIP3   OH246358   3.949   6.929   6.655
15494TIP3    H146359   3.914   6.925   6.564
15494TIP3    H246360   3.870   6.905   6.708
15495TIP3   OH246361   5.016   5.341   5.351
15495TIP3    H146362   4.922   5.313   5.352
15495TIP3    H246363   5.010   5.416   5.289
15496TIP3   OH246364   3.748   6.072   5.693
15496TIP3    H146365   3.684   6.120   5.636
15496TIP3    H246366   3.701   5.989   5.708
15497TIP3   OH246367   4.803   6.699   4.893
15497TIP3    H146368   4.811   6.797   4.881
15497TIP3    H246369   4.896   6.671   4.882
15498TIP3   OH246370   3.529   6.457   6.601
15498TIP3    H146371   3.462   6.436   6.533
15498TIP3    H246372   3.564   6.368   6.624
15499TIP3   OH246373   3.382   6.649   6.236
15499TIP3    H146374   3.478   6.650   6.227
15499TIP3    H246375   3.366   6.730   6.286
15500TIP3   OH246376   5.249   7.100   6.291
15500TIP3    H146377   5.245   7.004   6.301
15500TIP3    H246378   5.164   7.126   6.334
15501TIP3   OH246379   4.354   6.887   6.425
15501TIP3    H146380   4.353   6.980   6.457
15501TIP3    H246381   4.281   6.848   6.479
15502TIP3   OH246382   4.111   7.017   5.376
15502TIP3    H146383   4.066   6.997   5.292
15502TIP3    H246384   4.080   7.106   5.397
15503TIP3   OH246385   3.551   6.867   5.758
15503TIP3    H146386   3.598   6.856   5.844
15503TIP3    H246387   3.488   6.793   5.763
15504TIP3   OH246388   4.315   6.917   5.017
15504TIP3    H146389   4.374   6.847   4.981
15504TIP3    H246390   4.349   6.926   5.108
15505TIP3   OH246391   4.364   6.965   5.287
15505TIP3    H146392   4.276   6.974   5.330
15505TIP3    H246393   4.415   6.923   5.358
15506TIP3   OH246394   5.138   6.233   6.563
15506TIP3    H146395   5.058   6.248   6.511
15506TIP3    H246396   5.151   6.137   6.551
15507TIP3   OH246397   3.734   6.639   6.592
15507TIP3    H146398   3.783   6.623   6.675
15507TIP3    H246399   3.660   6.576   6.598
15508TIP3   OH246400   4.133   5.464   6.372
15508TIP3    H146401   4.043   5.433   6.349
15508TIP3    H246402   4.110   5.547   6.417
15509TIP3   OH246403   4.665   5.580   6.568
15509TIP3    H146404   4.732   5.552   6.633
15509TIP3    H246405   4.581   5.559   6.612
15510TIP3   OH246406   4.909   6.009   6.488
15510TIP3    H146407   4.859   6.005   6.572
15510TIP3    H246408   4.882   6.095   6.451
15511TIP3   OH246409   4.566   6.138   5.042
15511TIP3    H146410   4.533   6.111   4.954
15511TIP3    H246411   4.644   6.191   5.017
15512TIP3   OH246412   4.270   5.523   5.342
15512TIP3    H146413   4.246   5.521   5.436
15512TIP3    H246414   4.258   5.430   5.317
15513TIP3   OH246415   4.064   5.978   6.392
15513TIP3    H146416   4.013   5.999   6.473
15513TIP3    H246417   4.049   6.059   6.338
15514TIP3   OH246418   3.949   5.864   5.906
15514TIP3    H146419   3.856   5.840   5.922
15514TIP3    H246420   3.963   5.824   5.817
15515TIP3   OH246421   4.437   5.951   5.635
15515TIP3    H146422   4.385   6.022   5.592
15515TIP3    H246423   4.494   5.921   5.561
15516TIP3   OH246424   4.613   6.231   6.722
15516TIP3    H146425   4.590   6.158   6.783
15516TIP3    H246426   4.707   6.243   6.743
15517TIP3   OH246427   4.597   5.981   5.873
15517TIP3    H146428   4.537   6.010   5.802
15517TIP3    H246429   4.629   5.898   5.832
15518TIP3   OH246430   3.884   6.008   6.602
15518TIP3    H146431   3.905   6.073   6.670
15518TIP3    H246432   3.871   5.927   6.654
15519TIP3   OH246433   3.933   5.480   5.310
15519TIP3    H146434   3.928   5.482   5.408
15519TIP3    H246435   3.857   5.537   5.287
15520TIP3   OH246436   3.483   5.531   6.172
15520TIP3    H146437   3.546   5.568   6.238
15520TIP3    H246438   3.544   5.505   6.101
15521TIP3   OH246439   3.447   5.513   5.702
15521TIP3    H146440   3.495   5.548   5.624
15521TIP3    H246441   3.390   5.590   5.723
15522TIP3   OH246442   4.609   6.227   6.298
15522TIP3    H146443   4.640   6.154   6.239
15522TIP3    H246444   4.578   6.175   6.375
15523TIP3   OH246445   4.273   5.688   5.969
15523TIP3    H146446   4.191   5.685   6.022
15523TIP3    H246447   4.342   5.688   6.037
15524TIP3   OH246448   3.710   5.743   5.977
15524TIP3    H146449   3.616   5.750   5.949
15524TIP3    H246450   3.735   5.652   5.950
15525TIP3   OH246451   3.980   5.737   5.664
15525TIP3    H146452   4.075   5.754   5.647
15525TIP3    H246453   3.936   5.764   5.581
15526TIP3   OH246454   4.769   5.762   6.171
15526TIP3    H146455   4.731   5.774   6.261
15526TIP3    H246456   4.705   5.701   6.131
15527TIP3   OH246457   3.819   5.770   5.442
15527TIP3    H146458   3.748   5.727   5.391
15527TIP3    H246459   3.872   5.809   5.370
15528TIP3   OH246460   4.936   7.450   6.387
15528TIP3    H146461   4.933   7.474   6.293
15528TIP3    H246462   5.011   7.503   6.419
15529TIP3   OH246463   3.895   6.560   6.810
15529TIP3    H146464   3.973   6.593   6.859
15529TIP3    H246465   3.829   6.560   6.882
15530TIP3   OH246466   4.359   6.014   6.065
15530TIP3    H146467   4.431   5.975   6.012
15530TIP3    H246468   4.372   5.972   6.152
15531TIP3   OH246469   3.880   5.504   5.939
15531TIP3    H146470   3.854   5.422   5.986
15531TIP3    H246471   3.942   5.472   5.872
15532TIP3   OH246472   4.335   5.908   6.358
15532TIP3    H146473   4.246   5.946   6.369
15532TIP3    H246474   4.393   5.970   6.407
15533TIP3   OH246475   4.073   6.303   5.450
15533TIP3    H146476   4.000   6.239   5.439
15533TIP3    H246477   4.055   6.337   5.541
15534TIP3   OH246478   4.974   6.538   6.081
15534TIP3    H146479   4.998   6.587   5.999
15534TIP3    H246480   4.888   6.498   6.057
15535TIP3   OH246481   4.517   5.644   5.287
15535TIP3    H146482   4.429   5.609   5.310
15535TIP3    H246483   4.527   5.724   5.342
15536TIP3   OH246484   4.474   6.621   6.447
15536TIP3    H146485   4.489   6.598   6.540
15536TIP3    H246486   4.433   6.709   6.453
15537TIP3   OH246487   4.599   5.868   5.423
15537TIP3    H146488   4.697   5.867   5.433
15537TIP3    H246489   4.584   5.944   5.364
15538TIP3   OH246490   3.764   6.323   6.128
15538TIP3    H146491   3.802   6.295   6.042
15538TIP3    H246492   3.802   6.259   6.189
15539TIP3   OH246493   4.217   6.452   5.269
15539TIP3    H146494   4.171   6.539   5.277
15539TIP3    H246495   4.163   6.397   5.330
15540TIP3   OH246496   3.645   6.243   6.738
15540TIP3    H146497   3.663   6.231   6.833
15540TIP3    H246498   3.573   6.178   6.723
15541TIP3   OH246499   4.368   6.358   6.760
15541TIP3    H146500   4.309   6.300   6.709
15541TIP3    H246501   4.456   6.325   6.731
15542TIP3   OH246502   4.634   6.879   6.343
15542TIP3    H146503   4.537   6.878   6.354
15542TIP3    H246504   4.660   6.932   6.421
15543TIP3   OH246505   5.048   5.948   5.247
15543TIP3    H146506   4.985   5.900   5.190
15543TIP3    H246507   5.039   6.037   5.208
15544TIP3   OH246508   5.261   6.808   6.334
15544TIP3    H146509   5.163   6.804   6.325
15544TIP3    H246510   5.287   6.779   6.243
15545TIP3   OH246511   4.738   6.770   5.157
15545TIP3    H146512   4.719   6.699   5.220
15545TIP3    H246513   4.754   6.722   5.074
15546TIP3   OH246514   4.738   6.400   6.002
15546TIP3    H146515   4.645   6.374   6.013
15546TIP3    H246516   4.773   6.321   5.955
15547TIP3   OH246517   3.863   6.626   5.749
15547TIP3    H146518   3.865   6.709   5.697
15547TIP3    H246519   3.768   6.613   5.760
15548TIP3   OH246520   3.429   5.932   5.454
15548TIP3    H146521   3.474   6.017   5.473
15548TIP3    H246522   3.350   5.940   5.513
15549TIP3   OH246523   4.006   6.395   5.697
15549TIP3    H146524   3.970   6.484   5.713
15549TIP3    H246525   3.968   6.345   5.772
15550TIP3   OH246526   4.133   6.972   6.221
15550TIP3    H146527   4.173   7.045   6.169
15550TIP3    H246528   4.211   6.939   6.269
15551TIP3   OH246529   3.786   6.866   5.604
15551TIP3    H146530   3.699   6.873   5.649
15551TIP3    H246531   3.815   6.959   5.607
15552TIP3   OH246532   4.525   6.606   6.178
15552TIP3    H146533   4.517   6.604   6.276
15552TIP3    H246534   4.604   6.553   6.164
15553TIP3   OH246535   4.495   6.496   5.061
15553TIP3    H146536   4.548   6.473   5.140
15553TIP3    H246537   4.406   6.472   5.092
15554TIP3   OH246538   4.772   7.142   6.230
15554TIP3    H146539   4.693   7.085   6.221
15554TIP3    H246540   4.757   7.206   6.158
15555TIP3   OH246541   4.837   6.975   4.881
15555TIP3    H146542   4.879   7.050   4.835
15555TIP3    H246543   4.756   7.021   4.913
15556TIP3   OH246544   3.857   5.750   6.749
15556TIP3    H146545   3.761   5.756   6.763
15556TIP3    H246546   3.884   5.689   6.819
15557TIP3   OH246547   4.655   6.433   5.278
15557TIP3    H146548   4.646   6.366   5.349
15557TIP3    H246549   4.753   6.431   5.266
15558TIP3   OH246550   3.576   6.837   6.378
15558TIP3    H146551   3.624   6.759   6.411
15558TIP3    H246552   3.598   6.902   6.445
15559TIP3   OH246553   3.864   6.480   5.059
15559TIP3    H146554   3.878   6.388   5.030
15559TIP3    H246555   3.846   6.467   5.155
15560TIP3   OH246556   3.811   6.484   5.332
15560TIP3    H146557   3.879   6.458   5.395
15560TIP3    H246558   3.814   6.582   5.339
15561TIP3   OH246559   3.546   6.179   5.535
15561TIP3    H146560   3.480   6.224   5.593
15561TIP3    H246561   3.560   6.248   5.468
15562TIP3   OH246562   4.691   5.817   6.429
15562TIP3    H146563   4.772   5.852   6.468
15562TIP3    H246564   4.676   5.735   6.482
15563TIP3   OH246565   4.548   5.580   5.585
15563TIP3    H146566   4.560   5.590   5.490
15563TIP3    H246567   4.606   5.651   5.621
15564TIP3   OH246568   4.074   6.683   5.282
15564TIP3    H146569   3.988   6.711   5.317
15564TIP3    H246570   4.091   6.753   5.218
15565TIP3   OH246571   4.260   5.745   5.694
15565TIP3    H146572   4.328   5.813   5.674
15565TIP3    H246573   4.268   5.738   5.792
15566TIP3   OH246574   4.531   6.065   6.504
15566TIP3    H146575   4.549   6.119   6.583
15566TIP3    H246576   4.587   5.987   6.518
15567TIP3   OH246577   4.409   5.475   5.798
15567TIP3    H146578   4.403   5.551   5.859
15567TIP3    H246579   4.464   5.514   5.726
15568TIP3   OH246580   3.816   6.757   5.348
15568TIP3    H146581   3.786   6.826   5.285
15568TIP3    H246582   3.800   6.801   5.434
15569TIP3   OH246583   3.918   5.471   5.587
15569TIP3    H146584   3.917   5.562   5.622
15569TIP3    H246585   4.014   5.451   5.597
15570TIP3   OH246586   5.175   5.964   6.482
15570TIP3    H146587   5.077   5.964   6.492
15570TIP3    H246588   5.183   5.925   6.394
15571TIP3   OH246589   4.824   6.159   5.873
15571TIP3    H146590   4.748   6.099   5.883
15571TIP3    H246591   4.895   6.111   5.920
15572TIP3   OH246592   3.535   6.389   5.343
15572TIP3    H146593   3.596   6.465   5.352
15572TIP3    H246594   3.583   6.338   5.275
15573TIP3   OH246595   3.478   5.662   5.473
15573TIP3    H146596   3.485   5.759   5.471
15573TIP3    H246597   3.390   5.649   5.437
15574TIP3   OH246598   4.791   7.113   5.823
15574TIP3    H146599   4.749   7.160   5.747
15574TIP3    H246600   4.885   7.133   5.802
15575TIP3   OH246601   3.868   5.384   6.351
15575TIP3    H146602   3.836   5.350   6.264
15575TIP3    H246603   3.859   5.305   6.408
15576TIP3   OH246604   3.408   6.603   5.732
15576TIP3    H146605   3.334   6.633   5.786
15576TIP3    H246606   3.385   6.642   5.645
15577TIP3   OH246607   3.564   7.136   6.791
15577TIP3    H146608   3.646   7.138   6.843
15577TIP3    H246609   3.539   7.042   6.797
15578TIP3   OH246610   4.052   7.109   6.845
15578TIP3    H146611   4.145   7.084   6.849
15578TIP3    H246612   4.021   7.053   6.771
15579TIP3   OH246613   4.027   6.685   4.975
15579TIP3    H146614   3.970   6.614   5.013
15579TIP3    H246615   4.102   6.632   4.942
15580TIP3   OH246616   4.683   7.015   6.579
15580TIP3    H146617   4.676   6.944   6.646
15580TIP3    H246618   4.761   7.066   6.609
15581TIP3   OH246619   4.463   6.726   4.884
15581TIP3    H146620   4.510   6.664   4.943
15581TIP3    H246621   4.521   6.727   4.805
15582TIP3   OH246622   3.695   6.549   7.001
15582TIP3    H146623   3.710   6.453   7.004
15582TIP3    H246624   3.606   6.553   6.960
15583TIP3   OH246625   3.671   6.201   5.192
15583TIP3    H146626   3.726   6.169   5.266
15583TIP3    H246627   3.739   6.206   5.121
15584TIP3   OH246628   4.304   6.633   6.773
15584TIP3    H146629   4.259   6.648   6.688
15584TIP3    H246630   4.333   6.540   6.767
15585TIP3   OH246631   4.178   6.398   5.000
15585TIP3    H146632   4.181   6.412   5.097
15585TIP3    H246633   4.176   6.300   4.996
15586TIP3   OH246634   4.796   6.639   6.381
15586TIP3    H146635   4.868   6.687   6.335
15586TIP3    H246636   4.722   6.703   6.369
15587TIP3   OH246637   3.812   6.281   6.983
15587TIP3    H146638   3.886   6.222   6.965
15587TIP3    H246639   3.836   6.315   7.071
15588TIP3   OH246640   3.881   6.103   5.417
15588TIP3    H146641   3.853   6.062   5.501
15588TIP3    H246642   3.915   6.027   5.367
15589TIP3   OH246643   4.149   6.169   6.646
15589TIP3    H146644   4.070   6.228   6.650
15589TIP3    H246645   4.195   6.202   6.565
15590TIP3   OH246646   3.979   5.893   5.258
15590TIP3    H146647   3.952   5.898   5.164
15590TIP3    H246648   4.076   5.904   5.251
15591TIP3   OH246649   4.665   6.570   6.780
15591TIP3    H146650   4.743   6.548   6.729
15591TIP3    H246651   4.663   6.501   6.848
15592TIP3   OH246652   4.804   6.229   4.917
15592TIP3    H146653   4.780   6.183   4.835
15592TIP3    H246654   4.773   6.320   4.894
15593TIP3   OH246655   4.272   5.955   6.772
15593TIP3    H146656   4.270   5.875   6.716
15593TIP3    H246657   4.228   6.021   6.714
15594TIP3   OH246658   4.274   5.741   6.578
15594TIP3    H146659   4.300   5.783   6.494
15594TIP3    H246660   4.180   5.719   6.560
15595TIP3   OH246661   4.304   6.280   6.451
15595TIP3    H146662   4.385   6.286   6.398
15595TIP3    H246663   4.247   6.347   6.408
15596TIP3   OH246664   4.886   6.247   6.835
15596TIP3    H146665   4.933   6.162   6.840
15596TIP3    H246666   4.953   6.305   6.798
15597TIP3   OH246667   4.925   6.498   6.571
15597TIP3    H146668   4.867   6.551   6.511
15597TIP3    H246669   5.012   6.518   6.529
15598TIP3   OH246670   4.150   6.070   7.001
15598TIP3    H146671   4.080   6.003   7.014
15598TIP3    H246672   4.184   6.045   6.913
15599TIP3   OH246673   4.406   5.507   6.644
15599TIP3    H146674   4.358   5.589   6.621
15599TIP3    H246675   4.336   5.439   6.632
15600TIP3   OH246676   4.532   6.012   6.861
15600TIP3    H146677   4.519   6.001   6.957
15600TIP3    H246678   4.442   5.987   6.830
15601TIP3   OH246679   4.773   5.961   6.716
15601TIP3    H146680   4.695   5.962   6.776
15601TIP3    H246681   4.844   5.928   6.775
15602TIP3   OH246682   5.005   5.901   6.869
15602TIP3    H146683   5.014   5.805   6.888
15602TIP3    H246684   4.998   5.940   6.958
15603TIP3   OH246685   3.989   5.850   7.052
15603TIP3    H146686   3.995   5.760   7.016
15603TIP3    H246687   4.023   5.837   7.143
15604TIP3   OH246688   4.502   5.516   6.901
15604TIP3    H146689   4.569   5.445   6.895
15604TIP3    H246690   4.461   5.510   6.812
15605TIP3   OH246691   4.566   5.731   7.061
15605TIP3    H146692   4.543   5.660   6.996
15605TIP3    H246693   4.489   5.791   7.054
15606TIP3   OH246694   3.786   6.960   5.161
15606TIP3    H146695   3.882   6.958   5.141
15606TIP3    H246696   3.754   7.007   5.082
15607TIP3   OH246697   3.267   6.341   5.378
15607TIP3    H146698   3.361   6.363   5.366
15607TIP3    H246699   3.262   6.253   5.336
15608TIP3   OH246700   3.182   6.958   5.791
15608TIP3    H146701   3.115   6.896   5.754
15608TIP3    H246702   3.224   6.900   5.858
15609TIP3   OH246703   3.319   6.808   5.976
15609TIP3    H146704   3.302   6.734   6.035
15609TIP3    H246705   3.365   6.869   6.037
15610TIP3   OH246706   5.041   7.208   5.776
15610TIP3    H146707   5.072   7.243   5.862
15610TIP3    H246708   5.105   7.247   5.714
15611TIP3   OH246709   5.073   7.228   6.060
15611TIP3    H146710   5.031   7.140   6.054
15611TIP3    H246711   5.151   7.206   6.113
15612TIP3   OH246712   5.122   6.902   6.633
15612TIP3    H146713   5.047   6.910   6.695
15612TIP3    H246714   5.160   6.992   6.636
15613TIP3   OH246715   4.936   6.416   5.252
15613TIP3    H146716   5.005   6.480   5.225
15613TIP3    H246717   4.978   6.376   5.331
15614TIP3   OH246718   5.063   6.283   5.455
15614TIP3    H146719   4.998   6.241   5.515
15614TIP3    H246720   5.128   6.322   5.517
15615TIP3   OH246721   5.117   6.674   5.889
15615TIP3    H146722   5.170   6.611   5.836
15615TIP3    H246723   5.109   6.750   5.829
15616TIP3   OH246724   4.951   6.974   6.086
15616TIP3    H146725   4.879   7.018   6.136
15616TIP3    H246726   4.901   6.927   6.016
15617TIP3   OH246727   5.001   6.189   5.104
15617TIP3    H146728   4.930   6.196   5.036
15617TIP3    H246729   4.977   6.266   5.159
15618TIP3   OH246730   4.879   5.856   5.055
15618TIP3    H146731   4.832   5.907   4.988
15618TIP3    H246732   4.838   5.769   5.047
15619TIP3   OH246733   4.878   6.138   5.603
15619TIP3    H146734   4.885   6.041   5.598
15619TIP3    H246735   4.865   6.153   5.699
15620TIP3   OH246736   3.506   6.208   6.350
15620TIP3    H146737   3.504   6.183   6.255
15620TIP3    H246738   3.603   6.212   6.365
15621TIP3   OH246739   5.167   6.563   6.460
15621TIP3    H146740   5.240   6.499   6.450
15621TIP3    H246741   5.191   6.633   6.397
15622TIP3   OH246742   5.354   6.372   6.481
15622TIP3    H146743   5.278   6.322   6.519
15622TIP3    H246744   5.426   6.306   6.495
15623TIP3   OH246745   4.873   5.855   5.500
15623TIP3    H146746   4.912   5.765   5.517
15623TIP3    H246747   4.933   5.885   5.430
15624TIP3   OH246748   5.038   6.031   5.994
15624TIP3    H146749   5.124   6.058   5.953
15624TIP3    H246750   5.050   6.068   6.083
15625TIP3   OH246751   5.105   6.174   6.228
15625TIP3    H146752   5.026   6.208   6.274
15625TIP3    H246753   5.136   6.254   6.181
15626TIP3   OH246754   3.721   5.900   7.024
15626TIP3    H146755   3.819   5.893   7.025
15626TIP3    H246756   3.697   5.816   7.066
15627TIP3   OH246757   5.560   5.766   6.783
15627TIP3    H146758   5.614   5.698   6.738
15627TIP3    H246759   5.529   5.820   6.707
15628TIP3   OH246760   4.984   5.608   5.538
15628TIP3    H146761   5.028   5.586   5.623
15628TIP3    H246762   4.927   5.529   5.527
15629TIP3   OH246763   3.681   5.591   6.352
15629TIP3    H146764   3.745   5.518   6.365
15629TIP3    H246765   3.742   5.668   6.349
15630TIP3   OH246766   3.488   5.865   6.429
15630TIP3    H146767   3.537   5.863   6.345
15630TIP3    H246768   3.510   5.953   6.461
15631TIP3   OH246769   5.429   5.905   6.590
15631TIP3    H146770   5.341   5.944   6.609
15631TIP3    H246771   5.402   5.834   6.529
15632TIP3   OH246772   5.087   5.545   5.164
15632TIP3    H146773   5.120   5.474   5.108
15632TIP3    H246774   5.147   5.619   5.148
15633TIP3   OH246775   3.467   5.353   5.916
15633TIP3    H146776   3.389   5.381   5.965
15633TIP3    H246777   3.473   5.421   5.845
15634TIP3   OH246778   4.628   7.072   5.435
15634TIP3    H146779   4.677   7.055   5.353
15634TIP3    H246780   4.683   7.139   5.479
15635TIP3   OH246781   3.689   5.450   6.744
15635TIP3    H146782   3.639   5.443   6.827
15635TIP3    H246783   3.622   5.488   6.685
15636TIP3   OH246784   3.731   6.870   6.824
15636TIP3    H146785   3.639   6.846   6.803
15636TIP3    H246786   3.733   6.857   6.919
15637TIP3   OH246787   3.908   6.906   6.370
15637TIP3    H146788   3.856   6.979   6.332
15637TIP3    H246789   3.992   6.923   6.324
15638TIP3   OH246790   4.355   7.153   6.507
15638TIP3    H146791   4.397   7.156   6.596
15638TIP3    H246792   4.420   7.203   6.454
15639TIP3   OH246793   4.532   7.303   6.364
15639TIP3    H146794   4.604   7.253   6.322
15639TIP3    H246795   4.583   7.361   6.424
15640TIP3   OH246796   5.326   5.668   6.465
15640TIP3    H146797   5.234   5.665   6.431
15640TIP3    H246798   5.354   5.575   6.452
15641TIP3   OH246799   3.587   7.168   6.391
15641TIP3    H146800   3.498   7.202   6.366
15641TIP3    H246801   3.588   7.192   6.484
15642TIP3   OH246802   3.822   7.145   6.249
15642TIP3    H146803   3.736   7.157   6.296
15642TIP3    H246804   3.799   7.177   6.159
15643TIP3   OH246805   4.247   7.174   6.046
15643TIP3    H146806   4.177   7.195   5.981
15643TIP3    H246807   4.260   7.262   6.089
15644TIP3   OH246808   4.515   7.114   6.098
15644TIP3    H146809   4.420   7.130   6.078
15644TIP3    H246810   4.557   7.190   6.056
15645TIP3   OH246811   4.724   7.306   6.015
15645TIP3    H146812   4.709   7.391   5.967
15645TIP3    H246813   4.749   7.246   5.941
15646TIP3   OH246814   3.498   6.963   6.137
15646TIP3    H146815   3.523   6.935   6.228
15646TIP3    H246816   3.568   6.916   6.086
15647TIP3   OH246817   3.688   6.830   5.992
15647TIP3    H146818   3.704   6.746   6.041
15647TIP3    H246819   3.779   6.867   5.988
15648TIP3   OH246820   3.955   6.928   5.994
15648TIP3    H146821   3.986   6.836   5.981
15648TIP3    H246822   3.996   6.948   6.080
15649TIP3   OH246823   4.531   5.583   6.083
15649TIP3    H146824   4.488   5.513   6.135
15649TIP3    H246825   4.602   5.534   6.036
15650TIP3   OH246826   5.056   5.469   5.996
15650TIP3    H146827   5.093   5.516   5.918
15650TIP3    H246828   4.960   5.480   5.983
15651TIP3   OH246829   5.153   5.561   5.757
15651TIP3    H146830   5.224   5.512   5.711
15651TIP3    H246831   5.182   5.654   5.740
15652TIP3   OH246832   3.778   5.289   6.101
15652TIP3    H146833   3.688   5.253   6.098
15652TIP3    H246834   3.831   5.207   6.101
15653TIP3   OH246835   3.543   5.161   5.730
15653TIP3    H146836   3.597   5.217   5.670
15653TIP3    H246837   3.530   5.223   5.805
15654TIP3   OH246838   4.218   5.328   5.981
15654TIP3    H146839   4.280   5.373   5.922
15654TIP3    H246840   4.245   5.361   6.067
15655TIP3   OH246841   4.774   5.469   5.963
15655TIP3    H146842   4.769   5.436   5.872
15655TIP3    H246843   4.758   5.387   6.015
15656TIP3   OH246844   4.801   5.398   5.547
15656TIP3    H146845   4.721   5.415   5.496
15656TIP3    H246846   4.784   5.308   5.580
15657TIP3   OH246847   3.287   6.727   5.525
15657TIP3    H146848   3.200   6.694   5.496
15657TIP3    H246849   3.270   6.822   5.518
15658TIP3   OH246850   3.679   5.323   5.526
15658TIP3    H146851   3.726   5.267   5.462
15658TIP3    H246852   3.753   5.380   5.557
15659TIP3   OH246853   4.197   5.492   5.612
15659TIP3    H146854   4.260   5.449   5.672
15659TIP3    H246855   4.216   5.586   5.635
15660TIP3   OH246856   4.055   6.923   5.110
15660TIP3    H146857   4.144   6.944   5.074
15660TIP3    H246858   4.033   6.847   5.051
15661TIP3   OH246859   4.770   7.035   5.202
15661TIP3    H146860   4.761   6.938   5.187
15661TIP3    H246861   4.728   7.070   5.121
15662TIP3   OH246862   3.988   5.573   6.992
15662TIP3    H146863   3.954   5.502   7.049
15662TIP3    H246864   4.082   5.574   7.018
15663TIP3   OH246865   4.236   5.570   7.111
15663TIP3    H146866   4.320   5.543   7.071
15663TIP3    H246867   4.223   5.499   7.178
15664TIP3   OH246868   3.359   6.760   5.168
15664TIP3    H146869   3.354   6.783   5.262
15664TIP3    H246870   3.448   6.719   5.161
15665TIP3   OH246871   5.060   5.629   6.899
15665TIP3    H146872   5.080   5.598   6.990
15665TIP3    H246873   5.148   5.624   6.856
15666TIP3   OH246874   5.002   7.182   6.392
15666TIP3    H146875   4.923   7.150   6.343
15666TIP3    H246876   4.983   7.278   6.392
15667TIP3   OH246877   6.265   6.557   5.159
15667TIP3    H146878   6.238   6.648   5.134
15667TIP3    H246879   6.182   6.509   5.144
15668TIP3   OH246880   6.274   6.558   5.538
15668TIP3    H146881   6.288   6.505   5.618
15668TIP3    H246882   6.223   6.497   5.483
15669TIP3   OH246883   5.564   6.455   5.909
15669TIP3    H146884   5.600   6.387   5.968
15669TIP3    H246885   5.646   6.500   5.881
15670TIP3   OH246886   6.508   6.846   5.210
15670TIP3    H146887   6.490   6.778   5.276
15670TIP3    H246888   6.485   6.928   5.255
15671TIP3   OH246889   5.537   6.856   5.638
15671TIP3    H146890   5.528   6.758   5.636
15671TIP3    H246891   5.631   6.866   5.615
15672TIP3   OH246892   5.243   6.065   5.414
15672TIP3    H146893   5.194   6.148   5.428
15672TIP3    H246894   5.172   6.009   5.379
15673TIP3   OH246895   5.302   6.350   5.582
15673TIP3    H146896   5.352   6.275   5.621
15673TIP3    H246897   5.364   6.383   5.515
15674TIP3   OH246898   6.152   7.318   5.230
15674TIP3    H146899   6.207   7.248   5.188
15674TIP3    H246900   6.155   7.293   5.323
15675TIP3   OH246901   6.059   6.780   5.589
15675TIP3    H146902   6.071   6.707   5.526
15675TIP3    H246903   6.149   6.814   5.596
15676TIP3   OH246904   7.074   6.100   5.583
15676TIP3    H146905   7.104   6.182   5.627
15676TIP3    H246906   7.098   6.120   5.490
15677TIP3   OH246907   6.477   6.285   5.622
15677TIP3    H146908   6.520   6.199   5.639
15677TIP3    H246909   6.446   6.272   5.531
15678TIP3   OH246910   5.814   5.940   5.586
15678TIP3    H146911   5.795   6.015   5.525
15678TIP3    H246912   5.762   5.870   5.541
15679TIP3   OH246913   6.506   6.028   5.207
15679TIP3    H146914   6.579   6.014   5.272
15679TIP3    H246915   6.557   6.065   5.133
15680TIP3   OH246916   5.448   6.144   5.693
15680TIP3    H146917   5.532   6.124   5.738
15680TIP3    H246918   5.458   6.089   5.612
15681TIP3   OH246919   5.892   6.328   5.527
15681TIP3    H146920   5.985   6.311   5.505
15681TIP3    H246921   5.845   6.292   5.449
15682TIP3   OH246922   7.148   6.303   5.757
15682TIP3    H146923   7.067   6.355   5.738
15682TIP3    H246924   7.173   6.339   5.844
15683TIP3   OH246925   5.811   5.925   6.019
15683TIP3    H146926   5.752   5.962   5.950
15683TIP3    H246927   5.758   5.944   6.099
15684TIP3   OH246928   6.167   6.781   5.027
15684TIP3    H146929   6.111   6.748   4.955
15684TIP3    H246930   6.121   6.865   5.048
15685TIP3   OH246931   5.922   6.701   5.820
15685TIP3    H146932   5.855   6.765   5.855
15685TIP3    H246933   5.957   6.750   5.743
15686TIP3   OH246934   6.718   6.033   5.377
15686TIP3    H146935   6.715   5.984   5.460
15686TIP3    H246936   6.775   6.109   5.401
15687TIP3   OH246937   5.683   6.040   5.804
15687TIP3    H146938   5.745   6.114   5.823
15687TIP3    H246939   5.730   5.999   5.727
15688TIP3   OH246940   5.746   6.892   5.914
15688TIP3    H146941   5.719   6.973   5.867
15688TIP3    H246942   5.666   6.878   5.969
15689TIP3   OH246943   5.140   6.584   5.150
15689TIP3    H146944   5.100   6.612   5.066
15689TIP3    H246945   5.170   6.670   5.188
15690TIP3   OH246946   6.869   5.999   5.749
15690TIP3    H146947   6.782   6.031   5.719
15690TIP3    H246948   6.929   6.032   5.678
15691TIP3   OH246949   6.171   5.646   5.733
15691TIP3    H146950   6.157   5.550   5.748
15691TIP3    H246951   6.092   5.683   5.778
15692TIP3   OH246952   6.292   7.144   5.070
15692TIP3    H146953   6.338   7.064   5.037
15692TIP3    H246954   6.346   7.213   5.024
15693TIP3   OH246955   6.427   6.930   4.961
15693TIP3    H146956   6.376   6.856   4.926
15693TIP3    H246957   6.467   6.891   5.041
15694TIP3   OH246958   6.094   6.398   4.984
15694TIP3    H146959   6.013   6.452   4.976
15694TIP3    H246960   6.138   6.415   4.899
15695TIP3   OH246961   6.058   6.185   4.704
15695TIP3    H146962   6.117   6.239   4.761
15695TIP3    H246963   6.125   6.134   4.655
15696TIP3   OH246964   6.986   6.649   5.566
15696TIP3    H146965   6.928   6.726   5.567
15696TIP3    H246966   7.030   6.663   5.480
15697TIP3   OH246967   6.442   6.487   4.960
15697TIP3    H146968   6.387   6.513   5.038
15697TIP3    H246969   6.525   6.462   5.005
15698TIP3   OH246970   6.684   6.528   5.872
15698TIP3    H146971   6.678   6.607   5.930
15698TIP3    H246972   6.595   6.529   5.830
15699TIP3   OH246973   5.797   6.888   5.526
15699TIP3    H146974   5.772   6.857   5.437
15699TIP3    H246975   5.887   6.853   5.535
15700TIP3   OH246976   5.802   6.463   5.741
15700TIP3    H146977   5.836   6.427   5.656
15700TIP3    H246978   5.853   6.546   5.751
15701TIP3   OH246979   6.375   7.090   5.516
15701TIP3    H146980   6.350   7.185   5.527
15701TIP3    H246981   6.314   7.046   5.577
15702TIP3   OH246982   5.950   7.011   6.060
15702TIP3    H146983   5.890   7.077   6.101
15702TIP3    H246984   5.885   6.960   6.008
15703TIP3   OH246985   6.291   6.341   4.784
15703TIP3    H146986   6.345   6.402   4.839
15703TIP3    H246987   6.316   6.370   4.693
15704TIP3   OH246988   5.707   6.568   6.160
15704TIP3    H146989   5.708   6.656   6.201
15704TIP3    H246990   5.611   6.552   6.156
15705TIP3   OH246991   6.031   7.028   5.057
15705TIP3    H146992   6.102   7.089   5.084
15705TIP3    H246993   5.963   7.088   5.024
15706TIP3   OH246994   5.746   7.184   6.140
15706TIP3    H146995   5.713   7.182   6.048
15706TIP3    H246996   5.666   7.161   6.192
15707TIP3   OH246997   6.803   5.587   4.844
15707TIP3    H146998   6.717   5.613   4.882
15707TIP3    H246999   6.815   5.654   4.773
15708TIP3   OH247000   5.542   6.284   5.139
15708TIP3    H147001   5.495   6.367   5.118
15708TIP3    H247002   5.480   6.243   5.200
15709TIP3   OH247003   6.598   6.956   4.381
15709TIP3    H147004   6.606   7.053   4.368
15709TIP3    H247005   6.691   6.927   4.369
15710TIP3   OH247006   5.324   6.713   6.088
15710TIP3    H147007   5.260   6.692   6.017
15710TIP3    H247008   5.361   6.625   6.111
15711TIP3   OH247009   5.179   6.903   5.726
15711TIP3    H147010   5.274   6.899   5.709
15711TIP3    H247011   5.171   6.987   5.775
15712TIP3   OH247012   6.152   7.141   5.911
15712TIP3    H147013   6.154   7.235   5.941
15712TIP3    H247014   6.079   7.106   5.966
15713TIP3   OH247015   5.909   7.275   4.861
15713TIP3    H147016   5.860   7.259   4.779
15713TIP3    H247017   5.878   7.364   4.888
15714TIP3   OH247018   5.350   7.122   5.242
15714TIP3    H147019   5.400   7.113   5.326
15714TIP3    H247020   5.284   7.052   5.254
15715TIP3   OH247021   6.111   7.173   4.503
15715TIP3    H147022   6.170   7.104   4.468
15715TIP3    H247023   6.145   7.183   4.595
15716TIP3   OH247024   6.160   7.221   4.773
15716TIP3    H147025   6.072   7.232   4.815
15716TIP3    H247026   6.210   7.180   4.845
15717TIP3   OH247027   6.929   6.486   6.053
15717TIP3    H147028   6.856   6.497   5.990
15717TIP3    H247029   6.948   6.391   6.043
15718TIP3   OH247030   5.529   6.896   6.079
15718TIP3    H147031   5.579   6.877   6.161
15718TIP3    H247032   5.455   6.833   6.084
15719TIP3   OH247033   5.930   5.720   5.858
15719TIP3    H147034   5.839   5.689   5.835
15719TIP3    H247035   5.906   5.804   5.901
15720TIP3   OH247036   6.462   5.836   6.054
15720TIP3    H147037   6.529   5.808   6.119
15720TIP3    H247038   6.377   5.815   6.100
15721TIP3   OH247039   6.701   6.261   5.970
15721TIP3    H147040   6.655   6.260   6.057
15721TIP3    H247041   6.679   6.349   5.935
15722TIP3   OH247042   6.359   6.394   4.527
15722TIP3    H147043   6.330   6.369   4.437
15722TIP3    H247044   6.438   6.447   4.506
15723TIP3   OH247045   6.035   5.754   4.815
15723TIP3    H147046   6.027   5.783   4.907
15723TIP3    H247047   6.106   5.687   4.822
15724TIP3   OH247048   5.863   6.236   5.880
15724TIP3    H147049   5.809   6.256   5.959
15724TIP3    H247050   5.845   6.315   5.824
15725TIP3   OH247051   5.746   6.113   5.390
15725TIP3    H147052   5.651   6.098   5.407
15725TIP3    H247053   5.755   6.080   5.299
15726TIP3   OH247054   6.234   6.206   5.119
15726TIP3    H147055   6.178   6.278   5.081
15726TIP3    H247056   6.288   6.182   5.043
15727TIP3   OH247057   6.417   6.500   6.228
15727TIP3    H147058   6.390   6.418   6.275
15727TIP3    H247059   6.514   6.496   6.242
15728TIP3   OH247060   6.396   6.237   5.360
15728TIP3    H147061   6.335   6.269   5.290
15728TIP3    H247062   6.426   6.155   5.317
15729TIP3   OH247063   5.683   6.265   6.088
15729TIP3    H147064   5.699   6.331   6.156
15729TIP3    H247065   5.668   6.184   6.140
15730TIP3   OH247066   5.270   5.789   5.671
15730TIP3    H147067   5.350   5.818   5.719
15730TIP3    H247068   5.304   5.756   5.587
15731TIP3   OH247069   5.258   5.772   5.182
15731TIP3    H147070   5.300   5.818   5.107
15731TIP3    H247071   5.192   5.839   5.210
15732TIP3   OH247072   6.415   6.487   5.790
15732TIP3    H147073   6.441   6.415   5.728
15732TIP3    H247074   6.378   6.433   5.863
15733TIP3   OH247075   6.069   5.936   5.454
15733TIP3    H147076   5.985   5.943   5.503
15733TIP3    H247077   6.134   5.947   5.525
15734TIP3   OH247078   5.503   5.998   5.467
15734TIP3    H147079   5.409   6.006   5.439
15734TIP3    H247080   5.527   5.907   5.441
15735TIP3   OH247081   5.782   5.983   5.146
15735TIP3    H147082   5.872   6.019   5.133
15735TIP3    H247083   5.731   6.020   5.071
15736TIP3   OH247084   6.562   6.020   5.658
15736TIP3    H147085   6.525   6.031   5.748
15736TIP3    H247086   6.498   5.958   5.618
15737TIP3   OH247087   5.622   6.000   4.923
15737TIP3    H147088   5.531   5.995   4.893
15737TIP3    H247089   5.663   6.058   4.855
15738TIP3   OH247090   6.719   7.731   5.883
15738TIP3    H147091   6.727   7.718   5.787
15738TIP3    H247092   6.810   7.755   5.907
15739TIP3   OH247093   5.688   6.816   6.296
15739TIP3    H147094   5.766   6.853   6.341
15739TIP3    H247095   5.623   6.818   6.369
15740TIP3   OH247096   6.169   6.273   5.554
15740TIP3    H147097   6.237   6.229   5.501
15740TIP3    H247098   6.173   6.225   5.639
15741TIP3   OH247099   5.677   5.760   5.429
15741TIP3    H147100   5.645   5.679   5.474
15741TIP3    H247101   5.733   5.725   5.359
15742TIP3   OH247102   6.132   6.162   5.846
15742TIP3    H147103   6.042   6.200   5.853
15742TIP3    H247104   6.188   6.227   5.893
15743TIP3   OH247105   5.868   6.556   4.934
15743TIP3    H147106   5.794   6.494   4.921
15743TIP3    H247107   5.857   6.574   5.031
15744TIP3   OH247108   6.312   5.875   4.788
15744TIP3    H147109   6.217   5.888   4.786
15744TIP3    H247110   6.347   5.964   4.811
15745TIP3   OH247111   6.274   6.878   5.927
15745TIP3    H147112   6.272   6.851   6.019
15745TIP3    H247113   6.234   6.967   5.929
15746TIP3   OH247114   6.399   6.112   4.894
15746TIP3    H147115   6.494   6.121   4.915
15746TIP3    H247116   6.379   6.195   4.846
15747TIP3   OH247117   5.559   6.572   5.611
15747TIP3    H147118   5.610   6.565   5.529
15747TIP3    H247119   5.608   6.513   5.670
15748TIP3   OH247120   6.011   6.707   4.754
15748TIP3    H147121   5.966   6.794   4.762
15748TIP3    H247122   5.957   6.653   4.816
15749TIP3   OH247123   5.438   6.500   6.226
15749TIP3    H147124   5.457   6.486   6.320
15749TIP3    H247125   5.368   6.435   6.208
15750TIP3   OH247126   6.162   6.620   6.245
15750TIP3    H147127   6.103   6.559   6.198
15750TIP3    H247128   6.250   6.581   6.227
15751TIP3   OH247129   6.434   7.135   5.820
15751TIP3    H147130   6.338   7.140   5.837
15751TIP3    H247131   6.467   7.188   5.895
15752TIP3   OH247132   6.840   6.205   4.737
15752TIP3    H147133   6.778   6.157   4.677
15752TIP3    H247134   6.835   6.294   4.695
15753TIP3   OH247135   6.537   7.028   4.645
15753TIP3    H147136   6.514   6.957   4.708
15753TIP3    H247137   6.551   6.980   4.561
15754TIP3   OH247138   6.526   6.672   5.489
15754TIP3    H147139   6.438   6.629   5.499
15754TIP3    H247140   6.576   6.598   5.448
15755TIP3   OH247141   5.640   6.918   5.277
15755TIP3    H147142   5.662   6.969   5.198
15755TIP3    H247143   5.577   6.854   5.243
15756TIP3   OH247144   5.225   6.188   4.942
15756TIP3    H147145   5.272   6.272   4.961
15756TIP3    H247146   5.147   6.197   5.001
15757TIP3   OH247147   5.930   7.228   5.708
15757TIP3    H147148   5.966   7.302   5.655
15757TIP3    H247149   6.009   7.200   5.757
15758TIP3   OH247150   5.579   7.127   5.078
15758TIP3    H147151   5.497   7.130   5.131
15758TIP3    H247152   5.611   7.219   5.087
15759TIP3   OH247153   6.374   6.851   5.676
15759TIP3    H147154   6.339   6.861   5.768
15759TIP3    H247155   6.374   6.754   5.666
15760TIP3   OH247156   6.290   6.751   4.548
15760TIP3    H147157   6.344   6.728   4.627
15760TIP3    H247158   6.201   6.731   4.581
15761TIP3   OH247159   6.532   7.430   5.739
15761TIP3    H147160   6.522   7.338   5.712
15761TIP3    H247161   6.550   7.476   5.655
15762TIP3   OH247162   6.633   7.231   4.369
15762TIP3    H147163   6.671   7.302   4.315
15762TIP3    H247164   6.553   7.278   4.401
15763TIP3   OH247165   5.653   6.008   6.237
15763TIP3    H147166   5.556   6.013   6.247
15763TIP3    H247167   5.677   5.943   6.305
15764TIP3   OH247168   6.451   6.686   4.763
15764TIP3    H147169   6.443   6.622   4.836
15764TIP3    H247170   6.549   6.687   4.752
15765TIP3   OH247171   5.366   7.094   5.869
15765TIP3    H147172   5.420   7.016   5.891
15765TIP3    H247173   5.403   7.160   5.930
15766TIP3   OH247174   5.660   6.736   4.547
15766TIP3    H147175   5.674   6.644   4.519
15766TIP3    H247176   5.643   6.725   4.643
15767TIP3   OH247177   5.608   6.738   4.819
15767TIP3    H147178   5.672   6.710   4.886
15767TIP3    H247179   5.612   6.836   4.828
15768TIP3   OH247180   5.335   6.435   5.021
15768TIP3    H147181   5.272   6.482   5.080
15768TIP3    H247182   5.356   6.507   4.958
15769TIP3   OH247183   6.485   6.074   5.917
15769TIP3    H147184   6.569   6.109   5.951
15769TIP3    H247185   6.473   5.992   5.969
15770TIP3   OH247186   6.362   5.827   5.072
15770TIP3    H147187   6.359   5.853   4.978
15770TIP3    H247188   6.406   5.905   5.113
15771TIP3   OH247189   5.871   6.939   4.766
15771TIP3    H147190   5.785   6.965   4.804
15771TIP3    H247191   5.888   7.016   4.709
15772TIP3   OH247192   6.063   5.996   5.178
15772TIP3    H147193   6.126   6.071   5.162
15772TIP3    H247194   6.063   5.993   5.276
15773TIP3   OH247195   6.328   6.323   5.990
15773TIP3    H147196   6.345   6.372   6.072
15773TIP3    H247197   6.384   6.244   6.000
15774TIP3   OH247198   6.205   5.731   5.284
15774TIP3    H147199   6.194   5.807   5.345
15774TIP3    H247200   6.264   5.772   5.216
15775TIP3   OH247201   5.612   7.011   4.834
15775TIP3    H147202   5.582   7.080   4.772
15775TIP3    H247203   5.597   7.055   4.920
15776TIP3   OH247204   5.723   5.718   5.057
15776TIP3    H147205   5.705   5.809   5.089
15776TIP3    H247206   5.818   5.714   5.080
15777TIP3   OH247207   6.969   6.221   5.974
15777TIP3    H147208   6.871   6.217   5.975
15777TIP3    H247209   6.987   6.189   5.884
15778TIP3   OH247210   6.620   6.421   5.362
15778TIP3    H147211   6.545   6.360   5.371
15778TIP3    H247212   6.692   6.372   5.407
15779TIP3   OH247213   5.330   6.649   4.828
15779TIP3    H147214   5.392   6.723   4.839
15779TIP3    H247215   5.379   6.596   4.762
15780TIP3   OH247216   5.283   5.921   4.943
15780TIP3    H147217   5.276   6.019   4.951
15780TIP3    H247218   5.191   5.896   4.933
15781TIP3   OH247219   6.588   7.381   5.314
15781TIP3    H147220   6.546   7.421   5.235
15781TIP3    H247221   6.682   7.391   5.290
15782TIP3   OH247222   5.666   5.640   5.836
15782TIP3    H147223   5.632   5.608   5.750
15782TIP3    H247224   5.653   5.561   5.893
15783TIP3   OH247225   5.201   6.852   5.221
15783TIP3    H147226   5.126   6.892   5.267
15783TIP3    H247227   5.193   6.894   5.133
15784TIP3   OH247228   5.358   7.396   6.287
15784TIP3    H147229   5.444   7.395   6.334
15784TIP3    H247230   5.336   7.301   6.285
15785TIP3   OH247231   5.843   7.363   6.336
15785TIP3    H147232   5.939   7.350   6.336
15785TIP3    H247233   5.817   7.309   6.259
15786TIP3   OH247234   5.822   6.941   4.459
15786TIP3    H147235   5.766   6.871   4.500
15786TIP3    H247236   5.898   6.889   4.429
15787TIP3   OH247237   6.474   7.270   6.065
15787TIP3    H147238   6.473   7.202   6.135
15787TIP3    H247239   6.553   7.323   6.086
15788TIP3   OH247240   6.259   6.982   4.370
15788TIP3    H147241   6.308   6.921   4.428
15788TIP3    H247242   6.314   6.985   4.290
15789TIP3   OH247243   5.490   6.805   6.490
15789TIP3    H147244   5.507   6.709   6.488
15789TIP3    H247245   5.402   6.809   6.446
15790TIP3   OH247246   5.468   6.456   4.681
15790TIP3    H147247   5.523   6.428   4.756
15790TIP3    H247248   5.537   6.462   4.611
15791TIP3   OH247249   6.099   6.889   6.262
15791TIP3    H147250   6.055   6.909   6.177
15791TIP3    H247251   6.124   6.795   6.252
15792TIP3   OH247252   5.974   6.652   4.486
15792TIP3    H147253   5.976   6.668   4.583
15792TIP3    H247254   5.967   6.554   4.484
15793TIP3   OH247255   5.606   6.541   6.472
15793TIP3    H147256   5.677   6.480   6.449
15793TIP3    H247257   5.632   6.572   6.560
15794TIP3   OH247258   5.669   6.359   4.898
15794TIP3    H147259   5.645   6.334   4.990
15794TIP3    H247260   5.707   6.276   4.864
15795TIP3   OH247261   5.947   6.428   6.137
15795TIP3    H147262   5.867   6.483   6.139
15795TIP3    H247263   5.991   6.459   6.055
15796TIP3   OH247264   5.776   6.138   4.742
15796TIP3    H147265   5.747   6.158   4.649
15796TIP3    H247266   5.870   6.163   4.738
15797TIP3   OH247267   6.470   6.817   6.282
15797TIP3    H147268   6.545   6.834   6.224
15797TIP3    H247269   6.466   6.720   6.281
15798TIP3   OH247270   6.599   6.485   4.405
15798TIP3    H147271   6.577   6.439   4.322
15798TIP3    H247272   6.569   6.576   4.381
15799TIP3   OH247273   6.069   6.211   6.257
15799TIP3    H147274   6.066   6.131   6.201
15799TIP3    H247275   6.025   6.277   6.199
15800TIP3   OH247276   6.069   5.998   6.066
15800TIP3    H147277   6.096   6.040   5.982
15800TIP3    H247278   5.976   5.975   6.047
15801TIP3   OH247279   6.102   6.539   5.941
15801TIP3    H147280   6.176   6.540   5.880
15801TIP3    H247281   6.042   6.605   5.900
15802TIP3   OH247282   6.684   6.506   6.317
15802TIP3    H147283   6.730   6.421   6.323
15802TIP3    H247284   6.755   6.566   6.292
15803TIP3   OH247285   6.716   6.760   6.042
15803TIP3    H147286   6.672   6.836   6.001
15803TIP3    H247287   6.808   6.772   6.008
15804TIP3   OH247288   5.952   6.326   6.485
15804TIP3    H147289   5.879   6.262   6.500
15804TIP3    H247290   5.980   6.302   6.395
15805TIP3   OH247291   6.202   5.764   6.131
15805TIP3    H147292   6.154   5.846   6.108
15805TIP3    H247293   6.132   5.696   6.119
15806TIP3   OH247294   6.326   6.271   6.347
15806TIP3    H147295   6.311   6.252   6.441
15806TIP3    H247296   6.237   6.246   6.312
15807TIP3   OH247297   6.568   6.222   6.203
15807TIP3    H147298   6.492   6.217   6.264
15807TIP3    H247299   6.642   6.189   6.259
15808TIP3   OH247300   6.790   6.155   6.357
15808TIP3    H147301   6.808   6.060   6.374
15808TIP3    H247302   6.793   6.194   6.446
15809TIP3   OH247303   5.787   6.109   6.539
15809TIP3    H147304   5.790   6.019   6.500
15809TIP3    H247305   5.820   6.091   6.629
15810TIP3   OH247306   6.298   5.774   6.388
15810TIP3    H147307   6.366   5.703   6.382
15810TIP3    H247308   6.258   5.767   6.299
15811TIP3   OH247309   6.362   5.988   6.547
15811TIP3    H147310   6.340   5.917   6.483
15811TIP3    H247311   6.285   6.048   6.539
15812TIP3   OH247312   5.583   7.210   4.646
15812TIP3    H147313   5.680   7.209   4.634
15812TIP3    H247314   5.558   7.265   4.570
15813TIP3   OH247315   5.063   6.598   4.865
15813TIP3    H147316   5.157   6.621   4.853
15813TIP3    H247317   5.059   6.509   4.823
15814TIP3   OH247318   4.969   7.208   5.277
15814TIP3    H147319   4.903   7.142   5.245
15814TIP3    H247320   5.019   7.155   5.343
15815TIP3   OH247321   5.112   7.065   5.462
15815TIP3    H147322   5.103   6.990   5.522
15815TIP3    H247323   5.163   7.127   5.517
15816TIP3   OH247324   6.843   7.460   5.263
15816TIP3    H147325   6.866   7.490   5.353
15816TIP3    H247326   6.903   7.512   5.208
15817TIP3   OH247327   6.868   7.486   5.545
15817TIP3    H147328   6.819   7.404   5.550
15817TIP3    H247329   6.935   7.461   5.611
15818TIP3   OH247330   6.921   7.149   6.132
15818TIP3    H147331   6.844   7.170   6.188
15818TIP3    H247332   6.955   7.237   6.109
15819TIP3   OH247333   6.733   6.672   4.739
15819TIP3    H147334   6.801   6.737   4.712
15819TIP3    H247335   6.775   6.633   4.818
15820TIP3   OH247336   6.859   6.540   4.942
15820TIP3    H147337   6.795   6.498   5.003
15820TIP3    H247338   6.925   6.578   5.003
15821TIP3   OH247339   6.903   6.928   5.382
15821TIP3    H147340   6.956   6.864   5.332
15821TIP3    H247341   6.907   7.006   5.323
15822TIP3   OH247342   6.797   6.445   4.590
15822TIP3    H147343   6.726   6.452   4.522
15822TIP3    H247344   6.773   6.522   4.646
15823TIP3   OH247345   6.670   6.108   4.544
15823TIP3    H147346   6.632   6.163   4.475
15823TIP3    H247347   6.636   6.020   4.521
15824TIP3   OH247348   6.673   6.396   5.091
15824TIP3    H147349   6.683   6.299   5.087
15824TIP3    H247350   6.662   6.412   5.187
15825TIP3   OH247351   5.301   6.467   5.837
15825TIP3    H147352   5.300   6.440   5.742
15825TIP3    H247353   5.398   6.472   5.853
15826TIP3   OH247354   6.958   6.826   5.936
15826TIP3    H147355   7.032   6.762   5.931
15826TIP3    H247356   6.983   6.893   5.870
15827TIP3   OH247357   7.141   6.631   5.972
15827TIP3    H147358   7.071   6.575   6.010
15827TIP3    H247359   7.218   6.571   5.981
15828TIP3   OH247360   6.668   6.112   4.986
15828TIP3    H147361   6.709   6.024   5.003
15828TIP3    H247362   6.728   6.145   4.918
15829TIP3   OH247363   6.833   6.289   5.479
15829TIP3    H147364   6.919   6.315   5.438
15829TIP3    H247365   6.848   6.323   5.569
15830TIP3   OH247366   6.902   6.431   5.714
15830TIP3    H147367   6.823   6.465   5.760
15830TIP3    H247368   6.930   6.509   5.662
15831TIP3   OH247369   5.519   6.159   6.515
15831TIP3    H147370   5.616   6.149   6.512
15831TIP3    H247371   5.493   6.073   6.554
15832TIP3   OH247372   7.347   6.016   6.270
15832TIP3    H147373   7.409   5.952   6.227
15832TIP3    H247374   7.325   6.075   6.195
15833TIP3   OH247375   6.775   5.865   5.028
15833TIP3    H147376   6.827   5.846   5.109
15833TIP3    H247377   6.722   5.783   5.020
15834TIP3   OH247378   5.481   5.848   5.844
15834TIP3    H147379   5.545   5.775   5.853
15834TIP3    H247380   5.542   5.924   5.837
15835TIP3   OH247381   5.285   6.123   5.918
15835TIP3    H147382   5.332   6.113   5.833
15835TIP3    H247383   5.311   6.213   5.943
15836TIP3   OH247384   7.224   6.163   6.077
15836TIP3    H147385   7.135   6.200   6.093
15836TIP3    H247386   7.202   6.090   6.016
15837TIP3   OH247387   6.890   5.782   4.667
15837TIP3    H147388   6.848   5.736   4.590
15837TIP3    H247389   6.931   5.860   4.628
15838TIP3   OH247390   5.264   5.636   5.421
15838TIP3    H147391   5.170   5.620   5.440
15838TIP3    H247392   5.260   5.686   5.337
15839TIP3   OH247393   6.424   7.326   4.922
15839TIP3    H147394   6.476   7.313   4.840
15839TIP3    H247395   6.474   7.394   4.968
15840TIP3   OH247396   5.486   5.707   6.232
15840TIP3    H147397   5.434   5.701   6.314
15840TIP3    H247398   5.420   5.745   6.171
15841TIP3   OH247399   5.527   7.128   6.310
15841TIP3    H147400   5.435   7.103   6.288
15841TIP3    H247401   5.528   7.117   6.406
15842TIP3   OH247402   5.703   7.165   5.857
15842TIP3    H147403   5.654   7.239   5.817
15842TIP3    H247404   5.788   7.178   5.811
15843TIP3   OH247405   6.151   7.407   5.993
15843TIP3    H147406   6.194   7.413   6.081
15843TIP3    H247407   6.216   7.459   5.939
15844TIP3   OH247408   6.323   7.562   5.850
15844TIP3    H147409   6.397   7.512   5.809
15844TIP3    H247410   6.375   7.619   5.910
15845TIP3   OH247411   7.122   5.924   5.953
15845TIP3    H147412   7.031   5.921   5.917
15845TIP3    H247413   7.152   5.832   5.939
15846TIP3   OH247414   5.381   7.422   5.878
15846TIP3    H147415   5.293   7.457   5.852
15846TIP3    H247416   5.386   7.455   5.969
15847TIP3   OH247417   5.617   7.401   5.736
15847TIP3    H147418   5.531   7.414   5.780
15847TIP3    H247419   5.597   7.432   5.645
15848TIP3   OH247420   6.038   7.432   5.535
15848TIP3    H147421   5.970   7.453   5.469
15848TIP3    H247422   6.053   7.520   5.576
15849TIP3   OH247423   6.302   7.350   5.556
15849TIP3    H147424   6.210   7.385   5.555
15849TIP3    H247425   6.354   7.432   5.550
15850TIP3   OH247426   6.523   7.567   5.502
15850TIP3    H147427   6.507   7.649   5.451
15850TIP3    H247428   6.545   7.503   5.430
15851TIP3   OH247429   5.288   7.216   5.627
15851TIP3    H147430   5.318   7.190   5.716
15851TIP3    H247431   5.360   7.175   5.573
15852TIP3   OH247432   5.481   7.093   5.483
15852TIP3    H147433   5.501   7.003   5.517
15852TIP3    H247434   5.572   7.127   5.467
15853TIP3   OH247435   5.751   7.186   5.478
15853TIP3    H147436   5.774   7.094   5.458
15853TIP3    H247437   5.794   7.198   5.564
15854TIP3   OH247438   6.330   5.840   5.571
15854TIP3    H147439   6.285   5.771   5.623
15854TIP3    H247440   6.401   5.790   5.526
15855TIP3   OH247441   6.852   5.719   5.478
15855TIP3    H147442   6.890   5.770   5.403
15855TIP3    H247443   6.757   5.739   5.470
15856TIP3   OH247444   6.947   5.819   5.242
15856TIP3    H147445   7.020   5.769   5.198
15856TIP3    H247446   6.979   5.911   5.226
15857TIP3   OH247447   5.578   5.547   5.588
15857TIP3    H147448   5.485   5.516   5.587
15857TIP3    H247449   5.625   5.461   5.585
15858TIP3   OH247450   5.378   5.417   5.232
15858TIP3    H147451   5.379   5.485   5.163
15858TIP3    H247452   5.327   5.463   5.302
15859TIP3   OH247453   6.020   5.579   5.464
15859TIP3    H147454   6.079   5.634   5.412
15859TIP3    H247455   6.029   5.618   5.552
15860TIP3   OH247456   6.568   5.726   5.453
15860TIP3    H147457   6.567   5.693   5.362
15860TIP3    H247458   6.553   5.643   5.504
15861TIP3   OH247459   6.595   5.648   5.018
15861TIP3    H147460   6.507   5.689   5.019
15861TIP3    H247461   6.582   5.568   5.072
15862TIP3   OH247462   5.080   6.985   5.017
15862TIP3    H147463   4.995   6.954   4.980
15862TIP3    H247464   5.068   7.080   5.007
15863TIP3   OH247465   5.479   5.592   4.988
15863TIP3    H147466   5.531   5.512   4.972
15863TIP3    H247467   5.543   5.646   5.039
15864TIP3   OH247468   5.998   5.744   5.096
15864TIP3    H147469   6.061   5.710   5.163
15864TIP3    H247470   6.007   5.839   5.119
15865TIP3   OH247471   5.851   7.178   4.595
15865TIP3    H147472   5.940   7.200   4.561
15865TIP3    H247473   5.830   7.102   4.537
15866TIP3   OH247474   6.570   7.295   4.689
15866TIP3    H147475   6.561   7.197   4.675
15866TIP3    H247476   6.525   7.328   4.609
15867TIP3   OH247477   5.783   5.831   6.481
15867TIP3    H147478   5.751   5.758   6.537
15867TIP3    H247479   5.878   5.831   6.505
15868TIP3   OH247480   6.034   5.828   6.599
15868TIP3    H147481   6.117   5.799   6.557
15868TIP3    H247482   6.020   5.756   6.665
15869TIP3   OH247483   5.147   7.015   4.655
15869TIP3    H147484   5.155   7.037   4.748
15869TIP3    H247485   5.238   6.985   4.633
15870TIP3   OH247486   6.857   5.887   6.385
15870TIP3    H147487   6.879   5.855   6.476
15870TIP3    H247488   6.945   5.883   6.341
15871TIP3   OH247489   8.065   6.813   4.641
15871TIP3    H147490   8.038   6.905   4.627
15871TIP3    H247491   7.983   6.766   4.616
15872TIP3   OH247492   8.060   6.808   5.023
15872TIP3    H147493   8.092   6.786   5.112
15872TIP3    H247494   8.017   6.726   4.995
15873TIP3   OH247495   7.361   6.706   5.390
15873TIP3    H147496   7.394   6.641   5.454
15873TIP3    H247497   7.435   6.769   5.387
15874TIP3   OH247498   8.303   7.117   4.705
15874TIP3    H147499   8.293   7.045   4.769
15874TIP3    H247500   8.332   7.190   4.762
15875TIP3   OH247501   7.330   7.114   5.111
15875TIP3    H147502   7.321   7.017   5.118
15875TIP3    H247503   7.426   7.124   5.117
15876TIP3   OH247504   7.039   6.321   4.902
15876TIP3    H147505   6.991   6.404   4.915
15876TIP3    H247506   6.969   6.265   4.865
15877TIP3   OH247507   7.097   6.606   5.068
15877TIP3    H147508   7.147   6.532   5.109
15877TIP3    H247509   7.160   6.639   5.003
15878TIP3   OH247510   7.957   7.581   4.720
15878TIP3    H147511   8.003   7.506   4.678
15878TIP3    H247512   7.946   7.549   4.811
15879TIP3   OH247513   7.862   7.036   5.069
15879TIP3    H147514   7.902   6.959   5.026
15879TIP3    H247515   7.945   7.081   5.096
15880TIP3   OH247516   8.871   6.359   5.070
15880TIP3    H147517   8.900   6.440   5.118
15880TIP3    H247518   8.892   6.384   4.978
15881TIP3   OH247519   8.272   6.540   5.106
15881TIP3    H147520   8.315   6.455   5.128
15881TIP3    H247521   8.243   6.523   5.015
15882TIP3   OH247522   7.609   6.198   5.072
15882TIP3    H147523   7.588   6.271   5.010
15882TIP3    H247524   7.560   6.125   5.027
15883TIP3   OH247525   8.304   6.285   4.695
15883TIP3    H147526   8.376   6.271   4.760
15883TIP3    H247527   8.355   6.324   4.622
15884TIP3   OH247528   7.243   6.400   5.178
15884TIP3    H147529   7.326   6.381   5.225
15884TIP3    H247530   7.256   6.345   5.098
15885TIP3   OH247531   7.687   6.598   4.965
15885TIP3    H147532   7.779   6.572   4.983
15885TIP3    H247533   7.647   6.514   4.937
15886TIP3   OH247534   8.944   6.563   5.241
15886TIP3    H147535   8.861   6.613   5.224
15886TIP3    H247536   8.962   6.589   5.332
15887TIP3   OH247537   7.606   6.180   5.504
15887TIP3    H147538   7.547   6.219   5.437
15887TIP3    H247539   7.556   6.200   5.586
15888TIP3   OH247540   7.969   7.044   4.501
15888TIP3    H147541   7.910   7.008   4.432
15888TIP3    H247542   7.916   7.121   4.531
15889TIP3   OH247543   7.711   6.956   5.302
15889TIP3    H147544   7.647   7.019   5.341
15889TIP3    H247545   7.756   7.012   5.236
15890TIP3   OH247546   8.516   6.288   4.865
15890TIP3    H147547   8.502   6.246   4.951
15890TIP3    H247548   8.570   6.366   4.890
15891TIP3   OH247549   7.476   6.296   5.290
15891TIP3    H147550   7.536   6.370   5.313
15891TIP3    H247551   7.527   6.256   5.216
15892TIP3   OH247552   7.534   7.146   5.393
15892TIP3    H147553   7.512   7.235   5.359
15892TIP3    H247554   7.458   7.134   5.454
15893TIP3   OH247555   6.938   6.839   4.635
15893TIP3    H147556   6.896   6.866   4.551
15893TIP3    H247557   6.967   6.925   4.672
15894TIP3   OH247558   8.374   7.352   4.871
15894TIP3    H147559   8.286   7.345   4.914
15894TIP3    H247560   8.367   7.442   4.832
15895TIP3   OH247561   8.666   6.253   5.233
15895TIP3    H147562   8.580   6.292   5.210
15895TIP3    H247563   8.725   6.289   5.163
15896TIP3   OH247564   7.965   5.903   5.216
15896TIP3    H147565   7.954   5.808   5.236
15896TIP3    H247566   7.887   5.940   5.264
15897TIP3   OH247567   8.082   7.401   4.548
15897TIP3    H147568   8.134   7.320   4.530
15897TIP3    H247569   8.139   7.468   4.505
15898TIP3   OH247570   8.224   7.172   4.447
15898TIP3    H147571   8.146   7.114   4.450
15898TIP3    H247572   8.265   7.151   4.533
15899TIP3   OH247573   8.602   7.272   5.217
15899TIP3    H147574   8.592   7.193   5.160
15899TIP3    H247575   8.587   7.345   5.154
15900TIP3   OH247576   7.890   6.660   4.474
15900TIP3    H147577   7.808   6.711   4.456
15900TIP3    H247578   7.932   6.661   4.387
15901TIP3   OH247579   7.852   6.439   4.195
15901TIP3    H147580   7.918   6.486   4.249
15901TIP3    H247581   7.911   6.380   4.144
15902TIP3   OH247582   8.797   6.903   5.059
15902TIP3    H147583   8.716   6.956   5.068
15902TIP3    H247584   8.826   6.929   4.969
15903TIP3   OH247585   8.239   6.731   4.447
15903TIP3    H147586   8.186   6.768   4.522
15903TIP3    H247587   8.325   6.715   4.492
15904TIP3   OH247588   8.476   6.786   5.356
15904TIP3    H147589   8.476   6.867   5.412
15904TIP3    H247590   8.389   6.795   5.312
15905TIP3   OH247591   7.474   6.744   4.861
15905TIP3    H147592   7.433   6.685   4.794
15905TIP3    H247593   7.551   6.691   4.890
15906TIP3   OH247594   7.606   7.159   5.009
15906TIP3    H147595   7.584   7.106   4.931
15906TIP3    H247596   7.695   7.126   5.031
15907TIP3   OH247597   7.610   6.715   5.215
15907TIP3    H147598   7.646   6.698   5.125
15907TIP3    H247599   7.653   6.800   5.240
15908TIP3   OH247600   8.135   7.351   4.993
15908TIP3    H147601   8.121   7.431   5.048
15908TIP3    H247602   8.121   7.278   5.058
15909TIP3   OH247603   7.742   7.279   5.524
15909TIP3    H147604   7.689   7.336   5.585
15909TIP3    H247605   7.672   7.222   5.487
15910TIP3   OH247606   8.085   6.597   4.274
15910TIP3    H147607   8.141   6.650   4.336
15910TIP3    H247608   8.089   6.650   4.194
15911TIP3   OH247609   7.497   6.829   5.641
15911TIP3    H147610   7.506   6.916   5.686
15911TIP3    H247611   7.400   6.819   5.642
15912TIP3   OH247612   7.825   7.281   4.547
15912TIP3    H147613   7.899   7.340   4.572
15912TIP3    H247614   7.760   7.342   4.510
15913TIP3   OH247615   7.536   7.442   5.629
15913TIP3    H147616   7.505   7.435   5.537
15913TIP3    H247617   7.456   7.421   5.680
15914TIP3   OH247618   8.596   5.845   4.319
15914TIP3    H147619   8.516   5.866   4.371
15914TIP3    H247620   8.610   5.929   4.271
15915TIP3   OH247621   7.341   6.584   4.665
15915TIP3    H147622   7.275   6.632   4.609
15915TIP3    H247623   7.294   6.502   4.683
15916TIP3   OH247624   8.396   7.198   3.888
15916TIP3    H147625   8.396   7.292   3.860
15916TIP3    H247626   8.486   7.173   3.857
15917TIP3   OH247627   7.141   6.967   5.553
15917TIP3    H147628   7.057   6.949   5.508
15917TIP3    H247629   7.158   6.886   5.605
15918TIP3   OH247630   6.974   7.159   5.215
15918TIP3    H147631   7.070   7.155   5.204
15918TIP3    H247632   6.963   7.241   5.264
15919TIP3   OH247633   8.839   7.612   5.259
15919TIP3    H147634   8.839   7.516   5.278
15919TIP3    H247635   8.757   7.638   5.307
15920TIP3   OH247636   7.945   7.404   5.393
15920TIP3    H147637   7.945   7.495   5.430
15920TIP3    H247638   7.875   7.362   5.447
15921TIP3   OH247639   7.706   7.532   4.347
15921TIP3    H147640   7.658   7.507   4.266
15921TIP3    H247641   7.668   7.619   4.370
15922TIP3   OH247642   7.143   7.380   4.732
15922TIP3    H147643   7.192   7.370   4.817
15922TIP3    H247644   7.081   7.305   4.739
15923TIP3   OH247645   7.912   7.430   3.989
15923TIP3    H147646   7.964   7.353   3.958
15923TIP3    H247647   7.942   7.437   4.082
15924TIP3   OH247648   7.958   7.479   4.262
15924TIP3    H147649   7.868   7.487   4.300
15924TIP3    H247650   8.005   7.434   4.334
15925TIP3   OH247651   8.734   6.747   5.536
15925TIP3    H147652   8.648   6.761   5.492
15925TIP3    H247653   8.744   6.650   5.529
15926TIP3   OH247654   7.330   7.158   5.568
15926TIP3    H147655   7.376   7.136   5.651
15926TIP3    H247656   7.252   7.098   5.571
15927TIP3   OH247657   7.725   5.976   5.346
15927TIP3    H147658   7.634   5.947   5.323
15927TIP3    H247659   7.703   6.060   5.391
15928TIP3   OH247660   8.259   6.089   5.540
15928TIP3    H147661   8.328   6.067   5.606
15928TIP3    H247662   8.176   6.071   5.589
15929TIP3   OH247663   8.498   6.522   5.458
15929TIP3    H147664   8.452   6.515   5.545
15929TIP3    H247665   8.473   6.611   5.428
15930TIP3   OH247666   7.870   6.029   4.319
15930TIP3    H147667   7.840   6.030   4.412
15930TIP3    H247668   7.839   5.942   4.291
15931TIP3   OH247669   7.653   6.491   5.363
15931TIP3    H147670   7.612   6.517   5.448
15931TIP3    H247671   7.640   6.572   5.310
15932TIP3   OH247672   7.540   6.377   4.879
15932TIP3    H147673   7.447   6.352   4.897
15932TIP3    H247674   7.553   6.335   4.791
15933TIP3   OH247675   8.030   6.463   4.606
15933TIP3    H147676   7.976   6.535   4.567
15933TIP3    H247677   8.085   6.436   4.531
15934TIP3   OH247678   8.201   6.742   5.690
15934TIP3    H147679   8.182   6.674   5.757
15934TIP3    H247680   8.291   6.769   5.717
15935TIP3   OH247681   8.189   6.492   4.848
15935TIP3    H147682   8.130   6.524   4.777
15935TIP3    H247683   8.220   6.409   4.805
15936TIP3   OH247684   7.470   6.522   5.577
15936TIP3    H147685   7.512   6.586   5.637
15936TIP3    H247686   7.467   6.441   5.631
15937TIP3   OH247687   7.528   5.995   4.286
15937TIP3    H147688   7.518   5.998   4.383
15937TIP3    H247689   7.450   6.049   4.259
15938TIP3   OH247690   7.066   6.046   5.159
15938TIP3    H147691   7.146   6.075   5.207
15938TIP3    H247692   7.099   6.013   5.074
15939TIP3   OH247693   7.054   6.031   4.674
15939TIP3    H147694   7.094   6.073   4.596
15939TIP3    H247695   6.989   6.099   4.700
15940TIP3   OH247696   8.195   6.741   5.268
15940TIP3    H147697   8.230   6.668   5.213
15940TIP3    H247698   8.171   6.692   5.350
15941TIP3   OH247699   7.863   6.198   4.941
15941TIP3    H147700   7.782   6.199   4.995
15941TIP3    H247701   7.932   6.202   5.009
15942TIP3   OH247702   7.302   6.255   4.950
15942TIP3    H147703   7.207   6.263   4.924
15942TIP3    H247704   7.324   6.163   4.927
15943TIP3   OH247705   7.574   6.249   4.637
15943TIP3    H147706   7.668   6.270   4.618
15943TIP3    H247707   7.527   6.276   4.555
15944TIP3   OH247708   8.359   6.275   5.137
15944TIP3    H147709   8.330   6.287   5.231
15944TIP3    H247710   8.290   6.214   5.105
15945TIP3   OH247711   7.412   6.283   4.418
15945TIP3    H147712   7.338   6.241   4.370
15945TIP3    H247713   7.462   6.320   4.343
15946TIP3   OH247714   8.528   7.965   5.361
15946TIP3    H147715   8.528   7.989   5.267
15946TIP3    H247716   8.606   8.012   5.395
15947TIP3   OH247717   7.491   7.072   5.787
15947TIP3    H147718   7.573   7.101   5.832
15947TIP3    H247719   7.427   7.079   5.861
15948TIP3   OH247720   7.951   6.526   5.037
15948TIP3    H147721   8.027   6.488   4.990
15948TIP3    H247722   7.962   6.490   5.127
15949TIP3   OH247723   7.475   6.017   4.915
15949TIP3    H147724   7.441   5.937   4.961
15949TIP3    H247725   7.530   5.979   4.845
15950TIP3   OH247726   7.928   6.423   5.331
15950TIP3    H147727   7.840   6.464   5.344
15950TIP3    H247728   7.988   6.483   5.381
15951TIP3   OH247729   7.664   6.814   4.426
15951TIP3    H147730   7.591   6.750   4.413
15951TIP3    H247731   7.645   6.848   4.517
15952TIP3   OH247732   8.567   7.052   5.054
15952TIP3    H147733   8.591   7.101   4.972
15952TIP3    H247734   8.481   7.013   5.031
15953TIP3   OH247735   8.123   6.129   4.280
15953TIP3    H147736   8.026   6.116   4.291
15953TIP3    H247737   8.137   6.222   4.306
15954TIP3   OH247738   8.065   7.133   5.422
15954TIP3    H147739   8.090   7.105   5.511
15954TIP3    H247740   8.024   7.219   5.437
15955TIP3   OH247741   8.195   6.369   4.388
15955TIP3    H147742   8.291   6.377   4.407
15955TIP3    H247743   8.177   6.450   4.336
15956TIP3   OH247744   7.353   6.832   5.101
15956TIP3    H147745   7.395   6.807   5.016
15956TIP3    H247746   7.398   6.774   5.164
15957TIP3   OH247747   7.812   6.965   4.252
15957TIP3    H147748   7.765   7.051   4.255
15957TIP3    H247749   7.752   6.910   4.307
15958TIP3   OH247750   7.225   6.764   5.722
15958TIP3    H147751   7.265   6.751   5.810
15958TIP3    H247752   7.174   6.682   5.711
15959TIP3   OH247753   7.951   6.882   5.713
15959TIP3    H147754   7.916   6.807   5.663
15959TIP3    H247755   8.044   6.856   5.724
15960TIP3   OH247756   8.224   7.398   5.311
15960TIP3    H147757   8.128   7.393   5.328
15960TIP3    H247758   8.253   7.445   5.393
15961TIP3   OH247759   8.633   6.456   4.227
15961TIP3    H147760   8.570   6.415   4.164
15961TIP3    H247761   8.640   6.544   4.185
15962TIP3   OH247762   8.852   7.321   5.307
15962TIP3    H147763   8.754   7.317   5.300
15962TIP3    H247764   8.877   7.292   5.216
15963TIP3   OH247765   8.309   7.284   4.133
15963TIP3    H147766   8.329   7.228   4.209
15963TIP3    H247767   8.359   7.245   4.058
15964TIP3   OH247768   8.330   6.915   4.970
15964TIP3    H147769   8.238   6.889   4.986
15964TIP3    H247770   8.365   6.834   4.928
15965TIP3   OH247771   7.455   7.138   4.719
15965TIP3    H147772   7.456   7.222   4.670
15965TIP3    H247773   7.361   7.127   4.736
15966TIP3   OH247774   7.020   6.446   4.427
15966TIP3    H147775   7.067   6.530   4.446
15966TIP3    H247776   6.943   6.453   4.487
15967TIP3   OH247777   7.601   6.909   4.671
15967TIP3    H147778   7.562   6.997   4.686
15967TIP3    H247779   7.563   6.858   4.745
15968TIP3   OH247780   7.726   7.484   5.194
15968TIP3    H147781   7.769   7.557   5.146
15968TIP3    H247782   7.800   7.450   5.247
15969TIP3   OH247783   7.377   7.380   4.577
15969TIP3    H147784   7.291   7.386   4.623
15969TIP3    H247785   7.407   7.473   4.581
15970TIP3   OH247786   8.116   7.119   5.153
15970TIP3    H147787   8.105   7.120   5.251
15970TIP3    H247788   8.199   7.070   5.144
15971TIP3   OH247789   8.365   7.653   5.204
15971TIP3    H147790   8.287   7.593   5.200
15971TIP3    H247791   8.345   7.716   5.132
15972TIP3   OH247792   8.425   7.481   3.857
15972TIP3    H147793   8.465   7.549   3.800
15972TIP3    H247794   8.348   7.533   3.889
15973TIP3   OH247795   7.452   6.263   5.723
15973TIP3    H147796   7.357   6.268   5.738
15973TIP3    H247797   7.481   6.204   5.795
15974TIP3   OH247798   7.169   7.349   5.350
15974TIP3    H147799   7.212   7.271   5.387
15974TIP3    H247800   7.185   7.414   5.420
15975TIP3   OH247801   7.458   6.993   4.034
15975TIP3    H147802   7.468   6.902   4.001
15975TIP3    H247803   7.438   6.978   4.128
15976TIP3   OH247804   7.402   6.997   4.307
15976TIP3    H147805   7.470   6.972   4.372
15976TIP3    H247806   7.406   7.095   4.312
15977TIP3   OH247807   7.138   6.692   4.509
15977TIP3    H147808   7.072   6.737   4.567
15977TIP3    H247809   7.153   6.762   4.442
15978TIP3   OH247810   8.290   6.322   5.396
15978TIP3    H147811   8.360   6.368   5.444
15978TIP3    H247812   8.272   6.245   5.454
15979TIP3   OH247813   8.167   6.080   4.563
15979TIP3    H147814   8.153   6.108   4.471
15979TIP3    H247815   8.206   6.161   4.603
15980TIP3   OH247816   7.669   7.196   4.259
15980TIP3    H147817   7.581   7.224   4.292
15980TIP3    H247818   7.679   7.253   4.182
15981TIP3   OH247819   7.856   6.256   4.667
15981TIP3    H147820   7.921   6.328   4.651
15981TIP3    H247821   7.860   6.249   4.765
15982TIP3   OH247822   8.125   6.578   5.478
15982TIP3    H147823   8.141   6.638   5.555
15982TIP3    H247824   8.182   6.503   5.501
15983TIP3   OH247825   8.002   5.987   4.771
15983TIP3    H147826   7.998   6.060   4.836
15983TIP3    H247827   8.061   6.026   4.704
15984TIP3   OH247828   7.410   7.270   4.321
15984TIP3    H147829   7.379   7.339   4.258
15984TIP3    H247830   7.392   7.314   4.408
15985TIP3   OH247831   7.513   5.982   4.561
15985TIP3    H147832   7.506   6.073   4.597
15985TIP3    H247833   7.609   5.968   4.573
15986TIP3   OH247834   8.765   6.476   5.457
15986TIP3    H147835   8.667   6.475   5.465
15986TIP3    H247836   8.775   6.442   5.367
15987TIP3   OH247837   8.416   6.672   4.844
15987TIP3    H147838   8.341   6.613   4.860
15987TIP3    H247839   8.489   6.627   4.893
15988TIP3   OH247840   7.127   6.903   4.317
15988TIP3    H147841   7.189   6.977   4.324
15988TIP3    H247842   7.173   6.850   4.248
15989TIP3   OH247843   7.075   6.178   4.444
15989TIP3    H147844   7.074   6.275   4.442
15989TIP3    H247845   6.987   6.156   4.410
15990TIP3   OH247846   8.384   7.624   4.796
15990TIP3    H147847   8.343   7.670   4.720
15990TIP3    H247848   8.479   7.646   4.778
15991TIP3   OH247849   7.460   5.897   5.324
15991TIP3    H147850   7.428   5.864   5.237
15991TIP3    H247851   7.449   5.818   5.381
15992TIP3   OH247852   7.001   7.114   4.706
15992TIP3    H147853   6.927   7.147   4.759
15992TIP3    H247854   6.980   7.154   4.618
15993TIP3   OH247855   7.157   7.659   5.775
15993TIP3    H147856   7.243   7.657   5.821
15993TIP3    H247857   7.137   7.563   5.773
15994TIP3   OH247858   7.639   7.627   5.815
15994TIP3    H147859   7.731   7.601   5.832
15994TIP3    H247860   7.616   7.565   5.743
15995TIP3   OH247861   7.620   7.202   3.959
15995TIP3    H147862   7.567   7.123   3.986
15995TIP3    H247863   7.692   7.159   3.908
15996TIP3   OH247864   8.281   7.523   5.549
15996TIP3    H147865   8.268   7.455   5.619
15996TIP3    H247866   8.356   7.575   5.584
15997TIP3   OH247867   8.073   7.229   3.860
15997TIP3    H147868   8.162   7.230   3.898
15997TIP3    H247869   8.093   7.242   3.765
15998TIP3   OH247870   7.285   7.063   5.974
15998TIP3    H147871   7.301   6.967   5.973
15998TIP3    H247872   7.196   7.071   5.936
15999TIP3   OH247873   7.262   6.715   4.166
15999TIP3    H147874   7.318   6.682   4.238
15999TIP3    H247875   7.329   6.720   4.094
16000TIP3   OH247876   7.894   7.158   5.738
16000TIP3    H147877   7.856   7.143   5.651
16000TIP3    H247878   7.935   7.071   5.758
16001TIP3   OH247879   7.775   6.908   3.973
16001TIP3    H147880   7.779   6.927   4.069
16001TIP3    H247881   7.776   6.810   3.974
16002TIP3   OH247882   8.387   7.149   5.349
16002TIP3    H147883   8.460   7.201   5.310
16002TIP3    H247884   8.314   7.213   5.346
16003TIP3   OH247885   7.402   6.785   5.956
16003TIP3    H147886   7.486   6.745   5.931
16003TIP3    H247887   7.426   6.825   6.042
16004TIP3   OH247888   7.474   6.615   4.392
16004TIP3    H147889   7.444   6.575   4.475
16004TIP3    H247890   7.506   6.538   4.342
16005TIP3   OH247891   7.732   6.669   5.608
16005TIP3    H147892   7.669   6.742   5.624
16005TIP3    H247893   7.786   6.707   5.534
16006TIP3   OH247894   7.570   6.406   4.231
16006TIP3    H147895   7.542   6.411   4.138
16006TIP3    H247896   7.667   6.417   4.222
16007TIP3   OH247897   8.249   7.079   5.739
16007TIP3    H147898   8.343   7.059   5.732
16007TIP3    H247899   8.225   7.038   5.823
16008TIP3   OH247900   7.858   6.467   5.749
16008TIP3    H147901   7.865   6.388   5.692
16008TIP3    H247902   7.818   6.533   5.688
16009TIP3   OH247903   7.866   6.253   5.550
16009TIP3    H147904   7.893   6.297   5.467
16009TIP3    H247905   7.772   6.233   5.531
16010TIP3   OH247906   7.891   6.782   5.417
16010TIP3    H147907   7.978   6.798   5.379
16010TIP3    H247908   7.839   6.856   5.381
16011TIP3   OH247909   8.483   6.755   5.795
16011TIP3    H147910   8.533   6.676   5.821
16011TIP3    H247911   8.553   6.818   5.772
16012TIP3   OH247912   8.521   7.006   5.537
16012TIP3    H147913   8.459   7.060   5.483
16012TIP3    H247914   8.607   7.031   5.495
16013TIP3   OH247915   7.730   6.587   5.971
16013TIP3    H147916   7.667   6.514   5.984
16013TIP3    H247917   7.774   6.561   5.888
16014TIP3   OH247918   7.998   6.018   5.614
16014TIP3    H147919   7.951   6.102   5.594
16014TIP3    H247920   7.926   5.953   5.605
16015TIP3   OH247921   8.127   6.522   5.832
16015TIP3    H147922   8.128   6.519   5.930
16015TIP3    H247923   8.034   6.498   5.815
16016TIP3   OH247924   8.362   6.462   5.684
16016TIP3    H147925   8.288   6.476   5.746
16016TIP3    H247926   8.435   6.439   5.745
16017TIP3   OH247927   8.594   6.412   5.840
16017TIP3    H147928   8.604   6.317   5.862
16017TIP3    H247929   8.586   6.455   5.928
16018TIP3   OH247930   7.576   6.363   6.028
16018TIP3    H147931   7.593   6.275   5.990
16018TIP3    H247932   7.615   6.352   6.117
16019TIP3   OH247933   8.090   6.030   5.873
16019TIP3    H147934   8.160   5.962   5.872
16019TIP3    H247935   8.054   6.020   5.783
16020TIP3   OH247936   8.155   6.243   6.035
16020TIP3    H147937   8.134   6.173   5.970
16020TIP3    H247938   8.079   6.304   6.026
16021TIP3   OH247939   7.379   7.475   4.136
16021TIP3    H147940   7.474   7.472   4.113
16021TIP3    H247941   7.345   7.519   4.056
16022TIP3   OH247942   6.859   6.854   4.353
16022TIP3    H147943   6.953   6.877   4.339
16022TIP3    H247944   6.854   6.766   4.310
16023TIP3   OH247945   6.773   7.467   4.764
16023TIP3    H147946   6.705   7.405   4.730
16023TIP3    H247947   6.817   7.411   4.831
16024TIP3   OH247948   6.911   7.322   4.950
16024TIP3    H147949   6.898   7.247   5.011
16024TIP3    H247950   6.959   7.383   5.009
16025TIP3   OH247951   8.632   7.727   4.748
16025TIP3    H147952   8.660   7.751   4.838
16025TIP3    H247953   8.703   7.764   4.693
16026TIP3   OH247954   8.668   7.739   5.029
16026TIP3    H147955   8.624   7.651   5.030
16026TIP3    H247956   8.740   7.720   5.091
16027TIP3   OH247957   8.710   7.416   5.603
16027TIP3    H147958   8.638   7.423   5.669
16027TIP3    H247959   8.753   7.504   5.610
16028TIP3   OH247960   8.521   6.925   4.198
16028TIP3    H147961   8.595   6.990   4.186
16028TIP3    H247962   8.546   6.892   4.287
16029TIP3   OH247963   8.647   6.806   4.423
16029TIP3    H147964   8.589   6.759   4.486
16029TIP3    H247965   8.718   6.840   4.482
16030TIP3   OH247966   8.707   7.187   4.859
16030TIP3    H147967   8.764   7.125   4.810
16030TIP3    H247968   8.699   7.262   4.797
16031TIP3   OH247969   8.542   7.489   5.055
16031TIP3    H147970   8.473   7.529   5.112
16031TIP3    H247971   8.489   7.439   4.990
16032TIP3   OH247972   8.608   6.694   4.079
16032TIP3    H147973   8.535   6.685   4.016
16032TIP3    H247974   8.582   6.772   4.133
16033TIP3   OH247975   8.455   6.386   4.027
16033TIP3    H147976   8.429   6.406   3.937
16033TIP3    H247977   8.435   6.290   4.030
16034TIP3   OH247978   8.473   6.652   4.576
16034TIP3    H147979   8.482   6.555   4.575
16034TIP3    H247980   8.459   6.669   4.672
16035TIP3   OH247981   7.095   6.722   5.325
16035TIP3    H147982   7.095   6.698   5.230
16035TIP3    H247983   7.192   6.730   5.342
16036TIP3   OH247984   8.760   7.078   5.429
16036TIP3    H147985   8.834   7.012   5.423
16036TIP3    H247986   8.792   7.150   5.373
16037TIP3   OH247987   8.947   6.885   5.449
16037TIP3    H147988   8.873   6.835   5.490
16037TIP3    H247989   9.020   6.821   5.464
16038TIP3   OH247990   8.409   6.118   4.027
16038TIP3    H147991   8.489   6.084   4.072
16038TIP3    H247992   8.340   6.053   4.048
16039TIP3   OH247993   8.466   6.367   4.471
16039TIP3    H147994   8.506   6.279   4.488
16039TIP3    H247995   8.527   6.401   4.404
16040TIP3   OH247996   8.627   6.543   4.966
16040TIP3    H147997   8.714   6.570   4.928
16040TIP3    H247998   8.639   6.580   5.056
16041TIP3   OH247999   8.693   6.685   5.199
16041TIP3    H148000   8.618   6.720   5.250
16041TIP3    H248001   8.727   6.767   5.155
16042TIP3   OH248002   7.309   6.414   5.993
16042TIP3    H148003   7.407   6.411   5.996
16042TIP3    H248004   7.288   6.330   6.039
16043TIP3   OH248005   9.148   6.275   5.755
16043TIP3    H148006   9.206   6.210   5.711
16043TIP3    H248007   9.121   6.334   5.681
16044TIP3   OH248008   8.575   6.118   4.509
16044TIP3    H148009   8.625   6.104   4.592
16044TIP3    H248010   8.516   6.040   4.510
16045TIP3   OH248011   7.276   6.105   5.331
16045TIP3    H148012   7.340   6.031   5.341
16045TIP3    H248013   7.337   6.181   5.324
16046TIP3   OH248014   7.080   6.380   5.403
16046TIP3    H148015   7.127   6.368   5.318
16046TIP3    H248016   7.112   6.467   5.429
16047TIP3   OH248017   9.022   6.420   5.563
16047TIP3    H148018   8.937   6.458   5.592
16047TIP3    H248019   8.990   6.349   5.504
16048TIP3   OH248020   8.658   6.056   4.138
16048TIP3    H148021   8.701   5.982   4.091
16048TIP3    H248022   8.727   6.125   4.136
16049TIP3   OH248023   7.061   5.897   4.912
16049TIP3    H148024   6.966   5.878   4.921
16049TIP3    H248025   7.064   5.941   4.825
16050TIP3   OH248026   8.217   7.586   4.406
16050TIP3    H148027   8.273   7.571   4.327
16050TIP3    H248028   8.273   7.643   4.462
16051TIP3   OH248029   7.280   5.959   5.717
16051TIP3    H148030   7.231   5.958   5.801
16051TIP3    H248031   7.214   6.000   5.657
16052TIP3   OH248032   7.304   7.389   5.793
16052TIP3    H148033   7.225   7.333   5.775
16052TIP3    H248034   7.322   7.371   5.886
16053TIP3   OH248035   7.499   7.417   5.342
16053TIP3    H148036   7.450   7.492   5.305
16053TIP3    H248037   7.585   7.433   5.299
16054TIP3   OH248038   7.946   7.669   5.480
16054TIP3    H148039   7.987   7.666   5.569
16054TIP3    H248040   8.015   7.718   5.430
16055TIP3   OH248041   8.127   7.818   5.334
16055TIP3    H148042   8.200   7.763   5.301
16055TIP3    H248043   8.174   7.875   5.398
16056TIP3   OH248044   8.920   6.182   5.437
16056TIP3    H148045   8.827   6.179   5.408
16056TIP3    H248046   8.947   6.088   5.425
16057TIP3   OH248047   7.178   7.682   5.361
16057TIP3    H148048   7.088   7.716   5.342
16057TIP3    H248049   7.185   7.706   5.455
16058TIP3   OH248050   7.414   7.658   5.222
16058TIP3    H148051   7.328   7.670   5.269
16058TIP3    H248052   7.391   7.691   5.133
16059TIP3   OH248053   7.841   7.690   5.016
16059TIP3    H148054   7.767   7.712   4.957
16059TIP3    H248055   7.853   7.775   5.065
16060TIP3   OH248056   8.108   7.626   5.066
16060TIP3    H148057   8.013   7.643   5.050
16060TIP3    H248058   8.148   7.708   5.035
16061TIP3   OH248059   8.316   7.820   4.989
16061TIP3    H148060   8.303   7.904   4.940
16061TIP3    H248061   8.341   7.758   4.917
16062TIP3   OH248062   7.090   7.474   5.110
16062TIP3    H148063   7.116   7.448   5.201
16062TIP3    H248064   7.162   7.429   5.060
16063TIP3   OH248065   7.282   7.343   4.964
16063TIP3    H148066   7.296   7.259   5.014
16063TIP3    H248067   7.372   7.380   4.963
16064TIP3   OH248068   7.549   7.441   4.967
16064TIP3    H148069   7.578   7.348   4.958
16064TIP3    H248070   7.589   7.462   5.054
16065TIP3   OH248071   8.120   6.094   5.049
16065TIP3    H148072   8.079   6.028   5.108
16065TIP3    H248073   8.197   6.046   5.013
16066TIP3   OH248074   8.647   5.968   4.958
16066TIP3    H148075   8.685   6.026   4.888
16066TIP3    H248076   8.554   5.997   4.959
16067TIP3   OH248077   8.742   6.077   4.725
16067TIP3    H148078   8.816   6.026   4.685
16067TIP3    H248079   8.775   6.169   4.712
16068TIP3   OH248080   7.374   5.805   5.075
16068TIP3    H148081   7.281   5.773   5.072
16068TIP3    H248082   7.422   5.719   5.070
16069TIP3   OH248083   7.174   5.669   4.715
16069TIP3    H148084   7.188   5.735   4.646
16069TIP3    H248085   7.115   5.718   4.775
16070TIP3   OH248086   7.815   5.836   4.954
16070TIP3    H148087   7.874   5.891   4.899
16070TIP3    H248088   7.832   5.873   5.042
16071TIP3   OH248089   8.362   5.982   4.941
16071TIP3    H148090   8.360   5.949   4.851
16071TIP3    H248091   8.348   5.900   4.994
16072TIP3   OH248092   8.391   5.903   4.499
16072TIP3    H148093   8.306   5.949   4.512
16072TIP3    H248094   8.376   5.820   4.548
16073TIP3   OH248095   6.876   7.242   4.503
16073TIP3    H148096   6.791   7.210   4.468
16073TIP3    H248097   6.864   7.337   4.488
16074TIP3   OH248098   7.272   5.838   4.482
16074TIP3    H148099   7.326   5.776   4.431
16074TIP3    H248100   7.340   5.893   4.525
16075TIP3   OH248101   7.791   6.005   4.584
16075TIP3    H148102   7.852   5.964   4.648
16075TIP3    H248103   7.807   6.099   4.608
16076TIP3   OH248104   7.648   7.441   4.081
16076TIP3    H148105   7.736   7.458   4.043
16076TIP3    H248106   7.624   7.362   4.027
16077TIP3   OH248107   8.365   7.548   4.176
16077TIP3    H148108   8.346   7.453   4.162
16077TIP3    H248109   8.321   7.587   4.097
16078TIP3   OH248110   7.580   6.079   5.961
16078TIP3    H148111   7.549   6.012   6.024
16078TIP3    H248112   7.675   6.084   5.987
16079TIP3   OH248113   7.827   6.080   6.083
16079TIP3    H148114   7.914   6.064   6.044
16079TIP3    H248115   7.823   6.008   6.148
16080TIP3   OH248116   6.952   7.271   4.142
16080TIP3    H148117   6.951   7.298   4.234
16080TIP3    H248118   7.041   7.230   4.132
16081TIP3   OH248119   8.651   6.141   5.872
16081TIP3    H148120   8.669   6.112   5.964
16081TIP3    H248121   8.741   6.137   5.833
16082TIP3   OH248122   8.597   7.697   5.361
16082TIP3    H148123   8.515   7.663   5.319
16082TIP3    H248124   8.574   7.792   5.368
16083TIP3   OH248125   9.868   7.059   4.116
16083TIP3    H148126   9.846   7.154   4.106
16083TIP3    H248127   9.783   7.018   4.095
16084TIP3   OH248128   9.815   7.068   4.518
16084TIP3    H148129   9.878   7.051   4.590
16084TIP3    H248130   9.799   6.979   4.484
16085TIP3   OH248131   9.158   6.966   4.874
16085TIP3    H148132   9.187   6.899   4.939
16085TIP3    H248133   9.237   7.021   4.870
16086TIP3   OH248134   9.127   7.370   4.600
16086TIP3    H148135   9.120   7.272   4.607
16086TIP3    H248136   9.224   7.381   4.600
16087TIP3   OH248137   8.840   6.591   4.391
16087TIP3    H148138   8.783   6.669   4.400
16087TIP3    H248139   8.776   6.523   4.367
16088TIP3   OH248140   8.897   6.865   4.551
16088TIP3    H148141   8.939   6.789   4.596
16088TIP3    H248142   8.965   6.887   4.487
16089TIP3   OH248143   9.740   7.820   4.221
16089TIP3    H148144   9.785   7.743   4.185
16089TIP3    H248145   9.733   7.796   4.315
16090TIP3   OH248146   9.654   7.293   4.558
16090TIP3    H148147   9.698   7.211   4.527
16090TIP3    H248148   9.736   7.344   4.578
16091TIP3   OH248149  10.078   6.820   4.591
16091TIP3    H148150  10.079   6.725   4.612
16091TIP3    H248151  10.052   6.816   4.497
16092TIP3   OH248152  10.096   6.544   4.186
16092TIP3    H148153  10.159   6.509   4.250
16092TIP3    H248154  10.147   6.620   4.149
16093TIP3   OH248155   9.026   6.652   4.670
16093TIP3    H148156   9.121   6.648   4.693
16093TIP3    H248157   9.029   6.612   4.581
16094TIP3   OH248158   9.403   6.437   4.992
16094TIP3    H148159   9.343   6.477   4.926
16094TIP3    H248160   9.351   6.454   5.074
16095TIP3   OH248161   9.756   7.296   3.999
16095TIP3    H148162   9.710   7.268   3.920
16095TIP3    H248163   9.709   7.379   4.020
16096TIP3   OH248164   9.511   7.213   4.790
16096TIP3    H148165   9.447   7.278   4.827
16096TIP3    H248166   9.555   7.265   4.720
16097TIP3   OH248167   9.277   6.550   4.775
16097TIP3    H148168   9.328   6.631   4.798
16097TIP3    H248169   9.322   6.525   4.692
16098TIP3   OH248170   9.335   7.405   4.883
16098TIP3    H148171   9.311   7.492   4.846
16098TIP3    H248172   9.258   7.391   4.942
16099TIP3   OH248173   8.726   7.101   4.123
16099TIP3    H148174   8.700   7.130   4.034
16099TIP3    H248175   8.763   7.184   4.162
16100TIP3   OH248176   9.753   6.160   4.699
16100TIP3    H148177   9.750   6.064   4.717
16100TIP3    H248178   9.676   6.190   4.751
16101TIP3   OH248179   9.873   7.660   4.031
16101TIP3    H148180   9.946   7.598   4.041
16101TIP3    H248181   9.917   7.745   4.016
16102TIP3   OH248182   9.682   6.914   3.954
16102TIP3    H148183   9.600   6.967   3.945
16102TIP3    H248184   9.720   6.924   3.866
16103TIP3   OH248185   9.646   6.703   3.678
16103TIP3    H148186   9.709   6.741   3.741
16103TIP3    H248187   9.702   6.638   3.632
16104TIP3   OH248188   9.400   7.411   4.499
16104TIP3    H148189   9.385   7.367   4.414
16104TIP3    H248190   9.491   7.381   4.521
16105TIP3   OH248191   9.410   6.971   4.709
16105TIP3    H148192   9.440   6.951   4.619
16105TIP3    H248193   9.454   7.057   4.728
16106TIP3   OH248194   9.895   7.615   4.473
16106TIP3    H148195   9.925   7.691   4.526
16106TIP3    H248196   9.912   7.540   4.533
16107TIP3   OH248197   9.541   7.527   5.031
16107TIP3    H148198   9.480   7.591   5.075
16107TIP3    H248199   9.476   7.473   4.981
16108TIP3   OH248200   9.893   6.861   3.766
16108TIP3    H148201   9.928   6.927   3.828
16108TIP3    H248202   9.905   6.905   3.680
16109TIP3   OH248203   9.296   7.086   5.126
16109TIP3    H148204   9.302   7.171   5.174
16109TIP3    H248205   9.201   7.066   5.137
16110TIP3   OH248206   9.614   7.540   4.033
16110TIP3    H148207   9.687   7.597   4.062
16110TIP3    H248208   9.553   7.604   3.992
16111TIP3   OH248209   9.337   7.697   5.114
16111TIP3    H148210   9.301   7.694   5.024
16111TIP3    H248211   9.258   7.676   5.169
16112TIP3   OH248212   9.137   6.816   4.110
16112TIP3    H148213   9.065   6.871   4.073
16112TIP3    H248214   9.097   6.782   4.191
16113TIP3   OH248215   8.917   7.226   5.061
16113TIP3    H148216   8.852   7.200   4.993
16113TIP3    H248217   8.955   7.140   5.090
16114TIP3   OH248218   8.771   7.422   4.690
16114TIP3    H148219   8.867   7.411   4.686
16114TIP3    H248220   8.763   7.496   4.752
16115TIP3   OH248221   9.740   7.656   4.885
16115TIP3    H148222   9.741   7.749   4.917
16115TIP3    H248223   9.670   7.618   4.942
16116TIP3   OH248224   9.497   7.788   3.835
16116TIP3    H148225   9.453   7.769   3.750
16116TIP3    H248226   9.466   7.878   3.856
16117TIP3   OH248227   8.937   7.636   4.220
16117TIP3    H148228   8.990   7.628   4.303
16117TIP3    H248229   8.878   7.560   4.230
16118TIP3   OH248230   9.708   7.688   3.491
16118TIP3    H148231   9.774   7.629   3.452
16118TIP3    H248232   9.743   7.701   3.581
16119TIP3   OH248233   9.750   7.734   3.761
16119TIP3    H148234   9.658   7.748   3.794
16119TIP3    H248235   9.785   7.679   3.832
16120TIP3   OH248236   9.122   7.410   5.052
16120TIP3    H148237   9.172   7.394   5.135
16120TIP3    H248238   9.048   7.346   5.061
16121TIP3   OH248239   9.520   6.238   4.835
16121TIP3    H148240   9.431   6.204   4.811
16121TIP3    H248241   9.492   6.316   4.887
16122TIP3   OH248242  10.045   6.352   5.035
16122TIP3    H148243  10.092   6.329   5.116
16122TIP3    H248244   9.953   6.330   5.061
16123TIP3   OH248245   9.674   6.285   3.806
16123TIP3    H148246   9.641   6.284   3.898
16123TIP3    H248247   9.638   6.200   3.775
16124TIP3   OH248248   9.452   6.746   4.852
16124TIP3    H148249   9.403   6.770   4.933
16124TIP3    H248250   9.436   6.826   4.796
16125TIP3   OH248251   9.818   6.712   4.087
16125TIP3    H148252   9.768   6.789   4.053
16125TIP3    H248253   9.881   6.695   4.015
16126TIP3   OH248254  10.003   6.998   5.179
16126TIP3    H148255   9.976   6.929   5.244
16126TIP3    H248256  10.095   7.014   5.205
16127TIP3   OH248257   9.970   6.743   4.346
16127TIP3    H148258   9.932   6.795   4.272
16127TIP3    H248259  10.002   6.665   4.297
16128TIP3   OH248260   9.271   6.779   5.062
16128TIP3    H148261   9.296   6.843   5.130
16128TIP3    H248262   9.259   6.697   5.114
16129TIP3   OH248263   9.320   6.253   3.766
16129TIP3    H148264   9.315   6.242   3.862
16129TIP3    H248265   9.242   6.308   3.748
16130TIP3   OH248266   8.864   6.301   4.640
16130TIP3    H148267   8.937   6.332   4.696
16130TIP3    H248268   8.910   6.268   4.561
16131TIP3   OH248269   8.841   6.280   4.162
16131TIP3    H148270   8.884   6.320   4.083
16131TIP3    H248271   8.782   6.353   4.188
16132TIP3   OH248272   9.972   7.006   4.756
16132TIP3    H148273  10.025   6.947   4.698
16132TIP3    H248274   9.959   6.948   4.834
16133TIP3   OH248275   9.663   6.465   4.435
16133TIP3    H148276   9.594   6.464   4.503
16133TIP3    H248277   9.742   6.468   4.491
16134TIP3   OH248278  10.070   6.552   4.627
16134TIP3    H148279  10.067   6.552   4.724
16134TIP3    H248280  10.020   6.470   4.603
16135TIP3   OH248281   9.206   6.517   3.909
16135TIP3    H148282   9.134   6.489   3.849
16135TIP3    H248283   9.261   6.568   3.847
16136TIP3   OH248284   9.284   7.332   5.270
16136TIP3    H148285   9.363   7.363   5.319
16136TIP3    H248286   9.218   7.330   5.343
16137TIP3   OH248287   9.763   6.781   4.529
16137TIP3    H148288   9.837   6.751   4.474
16137TIP3    H248289   9.779   6.738   4.614
16138TIP3   OH248290   9.725   6.673   4.827
16138TIP3    H148291   9.636   6.715   4.827
16138TIP3    H248292   9.781   6.741   4.869
16139TIP3   OH248293   9.459   7.069   3.911
16139TIP3    H148294   9.386   7.005   3.898
16139TIP3    H248295   9.439   7.105   4.001
16140TIP3   OH248296   9.919   6.400   3.760
16140TIP3    H148297   9.827   6.374   3.786
16140TIP3    H248298   9.930   6.487   3.802
16141TIP3   OH248299   9.858   7.387   4.911
16141TIP3    H148300   9.871   7.371   5.005
16141TIP3    H248301   9.826   7.479   4.909
16142TIP3   OH248302  10.018   6.637   3.862
16142TIP3    H148303  10.104   6.679   3.876
16142TIP3    H248304   9.972   6.709   3.813
16143TIP3   OH248305   9.155   7.086   4.590
16143TIP3    H148306   9.196   7.041   4.515
16143TIP3    H248307   9.181   7.027   4.663
16144TIP3   OH248308   9.605   7.220   3.737
16144TIP3    H148309   9.560   7.307   3.740
16144TIP3    H248310   9.546   7.166   3.794
16145TIP3   OH248311   9.032   7.016   5.199
16145TIP3    H148312   9.056   7.004   5.294
16145TIP3    H248313   8.964   6.947   5.189
16146TIP3   OH248314   9.757   7.128   5.219
16146TIP3    H148315   9.697   7.071   5.168
16146TIP3    H248316   9.844   7.096   5.188
16147TIP3   OH248317  10.023   7.649   4.803
16147TIP3    H148318   9.926   7.650   4.804
16147TIP3    H248319  10.044   7.702   4.883
16148TIP3   OH248320   9.251   7.393   4.211
16148TIP3    H148321   9.260   7.475   4.159
16148TIP3    H248322   9.155   7.387   4.219
16149TIP3   OH248323   8.822   6.703   3.909
16149TIP3    H148324   8.871   6.785   3.930
16149TIP3    H248325   8.752   6.705   3.978
16150TIP3   OH248326   9.394   7.163   4.153
16150TIP3    H148327   9.356   7.252   4.174
16150TIP3    H248328   9.378   7.115   4.235
16151TIP3   OH248329   9.522   7.742   4.681
16151TIP3    H148330   9.564   7.813   4.629
16151TIP3    H248331   9.599   7.706   4.728
16152TIP3   OH248332   9.174   7.636   4.066
16152TIP3    H148333   9.088   7.646   4.110
16152TIP3    H248334   9.207   7.729   4.068
16153TIP3   OH248335   9.909   7.380   4.638
16153TIP3    H148336   9.904   7.380   4.737
16153TIP3    H248337   9.983   7.319   4.624
16154TIP3   OH248338   9.248   6.518   5.209
16154TIP3    H148339   9.152   6.527   5.227
16154TIP3    H248340   9.276   6.461   5.282
16155TIP3   OH248341   8.960   7.605   4.841
16155TIP3    H148342   9.013   7.530   4.872
16155TIP3    H248343   8.988   7.673   4.904
16156TIP3   OH248344   9.251   7.248   3.522
16156TIP3    H148345   9.267   7.158   3.489
16156TIP3    H248346   9.233   7.233   3.616
16157TIP3   OH248347   9.195   7.253   3.798
16157TIP3    H148348   9.270   7.227   3.853
16157TIP3    H248349   9.201   7.351   3.800
16158TIP3   OH248350   8.925   6.951   3.994
16158TIP3    H148351   8.864   6.999   4.053
16158TIP3    H248352   8.946   7.020   3.928
16159TIP3   OH248353  10.105   6.586   4.909
16159TIP3    H148354  10.141   6.631   4.987
16159TIP3    H248355  10.069   6.504   4.949
16160TIP3   OH248356   9.923   6.366   4.054
16160TIP3    H148357   9.950   6.358   3.961
16160TIP3    H248358   9.991   6.425   4.092
16161TIP3   OH248359   9.463   7.452   3.745
16161TIP3    H148360   9.377   7.483   3.777
16161TIP3    H248361   9.478   7.512   3.671
16162TIP3   OH248362   9.640   6.515   4.167
16162TIP3    H148363   9.708   6.578   4.135
16162TIP3    H248364   9.660   6.512   4.263
16163TIP3   OH248365   9.919   6.832   4.965
16163TIP3    H148366   9.933   6.893   5.040
16163TIP3    H248367   9.982   6.761   4.984
16164TIP3   OH248368   9.816   6.266   4.283
16164TIP3    H148369   9.783   6.350   4.319
16164TIP3    H248370   9.860   6.295   4.200
16165TIP3   OH248371   9.203   7.526   3.809
16165TIP3    H148372   9.176   7.595   3.744
16165TIP3    H248373   9.190   7.572   3.894
16166TIP3   OH248374   9.302   6.235   4.041
16166TIP3    H148375   9.303   6.331   4.035
16166TIP3    H248376   9.396   6.215   4.060
16167TIP3   OH248377   8.921   7.163   3.801
16167TIP3    H148378   8.986   7.234   3.810
16167TIP3    H248379   8.968   7.108   3.735
16168TIP3   OH248380   8.868   6.432   3.938
16168TIP3    H148381   8.873   6.529   3.929
16168TIP3    H248382   8.788   6.410   3.888
16169TIP3   OH248383   9.259   6.155   4.816
16169TIP3    H148384   9.224   6.124   4.729
16169TIP3    H248385   9.246   6.076   4.872
16170TIP3   OH248386   8.797   7.367   4.193
16170TIP3    H148387   8.725   7.405   4.245
16170TIP3    H248388   8.781   7.409   4.106
16171TIP3   OH248389   8.952   7.910   5.259
16171TIP3    H148390   9.037   7.910   5.308
16171TIP3    H248391   8.930   7.815   5.260
16172TIP3   OH248392   9.435   7.879   5.306
16172TIP3    H148393   9.531   7.866   5.308
16172TIP3    H248394   9.410   7.820   5.231
16173TIP3   OH248395   9.417   7.455   3.443
16173TIP3    H148396   9.364   7.378   3.473
16173TIP3    H248397   9.490   7.412   3.394
16174TIP3   OH248398  10.080   7.780   5.042
16174TIP3    H148399  10.058   7.708   5.106
16174TIP3    H248400  10.153   7.824   5.087
16175TIP3   OH248401   9.084   7.319   5.460
16175TIP3    H148402   9.099   7.223   5.469
16175TIP3    H248403   8.994   7.321   5.420
16176TIP3   OH248404   9.058   6.971   3.656
16176TIP3    H148405   9.116   6.937   3.726
16176TIP3    H248406   9.123   6.976   3.582
16177TIP3   OH248407   9.694   7.404   5.233
16177TIP3    H148408   9.648   7.418   5.148
16177TIP3    H248409   9.722   7.310   5.227
16178TIP3   OH248410   9.564   7.165   3.463
16178TIP3    H148411   9.577   7.184   3.558
16178TIP3    H248412   9.559   7.067   3.464
16179TIP3   OH248413   9.202   7.050   5.441
16179TIP3    H148414   9.275   6.988   5.429
16179TIP3    H248415   9.223   7.085   5.531
16180TIP3   OH248416   9.268   6.875   3.875
16180TIP3    H148417   9.233   6.841   3.960
16180TIP3    H248418   9.300   6.794   3.831
16181TIP3   OH248419   9.537   6.937   5.104
16181TIP3    H148420   9.460   6.997   5.109
16181TIP3    H248421   9.584   6.971   5.024
16182TIP3   OH248422   9.362   6.661   3.723
16182TIP3    H148423   9.333   6.663   3.630
16182TIP3    H248424   9.458   6.674   3.713
16183TIP3   OH248425  10.047   7.341   5.244
16183TIP3    H148426  10.127   7.321   5.194
16183TIP3    H248427  10.046   7.272   5.313
16184TIP3   OH248428   9.664   6.726   5.230
16184TIP3    H148429   9.658   6.645   5.176
16184TIP3    H248430   9.618   6.792   5.173
16185TIP3   OH248431   9.661   6.508   5.040
16185TIP3    H148432   9.687   6.556   4.959
16185TIP3    H248433   9.567   6.488   5.022
16186TIP3   OH248434   9.696   7.049   4.910
16186TIP3    H148435   9.776   7.053   4.855
16186TIP3    H248436   9.639   7.117   4.868
16187TIP3   OH248437  10.283   7.020   5.296
16187TIP3    H148438  10.321   6.932   5.300
16187TIP3    H248439  10.363   7.075   5.286
16188TIP3   OH248440   9.537   6.840   5.457
16188TIP3    H148441   9.467   6.774   5.474
16188TIP3    H248442   9.572   6.810   5.371
16189TIP3   OH248443   9.793   6.276   5.101
16189TIP3    H148444   9.742   6.358   5.082
16189TIP3    H248445   9.724   6.208   5.090
16190TIP3   OH248446   9.923   6.780   5.319
16190TIP3    H148447   9.908   6.770   5.415
16190TIP3    H248448   9.833   6.758   5.288
16191TIP3   OH248449  10.155   6.700   5.168
16191TIP3    H148450  10.076   6.723   5.220
16191TIP3    H248451  10.222   6.692   5.238
16192TIP3   OH248452  10.368   6.667   5.351
16192TIP3    H148453  10.404   6.589   5.394
16192TIP3    H248454  10.370   6.731   5.426
16193TIP3   OH248455   9.377   6.620   5.511
16193TIP3    H148456   9.385   6.528   5.479
16193TIP3    H248457   9.411   6.610   5.603
16194TIP3   OH248458   9.896   6.290   5.355
16194TIP3    H148459   9.956   6.214   5.353
16194TIP3    H248460   9.849   6.280   5.270
16195TIP3   OH248461   9.960   6.506   5.515
16195TIP3    H148462   9.932   6.434   5.454
16195TIP3    H248463   9.881   6.564   5.515
16196TIP3   OH248464   9.174   7.726   3.622
16196TIP3    H148465   9.270   7.725   3.603
16196TIP3    H248466   9.143   7.773   3.543
16197TIP3   OH248467   8.655   7.104   3.842
16197TIP3    H148468   8.748   7.133   3.826
16197TIP3    H248469   8.655   7.017   3.796
16198TIP3   OH248470   8.551   7.729   4.264
16198TIP3    H148471   8.496   7.660   4.222
16198TIP3    H248472   8.606   7.674   4.324
16199TIP3   OH248473   8.704   7.579   4.436
16199TIP3    H148474   8.697   7.504   4.497
16199TIP3    H248475   8.756   7.639   4.492
16200TIP3   OH248476   8.894   6.986   4.806
16200TIP3    H148477   8.894   6.955   4.714
16200TIP3    H248478   8.990   6.985   4.827
16201TIP3   OH248479   9.110   6.669   5.478
16201TIP3    H148480   9.208   6.665   5.485
16201TIP3    H248481   9.085   6.587   5.525
16202TIP3   OH248482   9.070   6.361   4.814
16202TIP3    H148483   9.134   6.288   4.826
16202TIP3    H248484   9.130   6.438   4.810
16203TIP3   OH248485   8.873   6.635   4.894
16203TIP3    H148486   8.924   6.630   4.811
16203TIP3    H248487   8.902   6.720   4.928
16204TIP3   OH248488   8.855   6.132   4.387
16204TIP3    H148489   8.763   6.139   4.416
16204TIP3    H248490   8.858   6.195   4.312
16205TIP3   OH248491   9.077   6.215   5.202
16205TIP3    H148492   9.029   6.213   5.287
16205TIP3    H248493   9.010   6.258   5.145
16206TIP3   OH248494   9.118   7.645   5.283
16206TIP3    H148495   9.026   7.616   5.266
16206TIP3    H248496   9.127   7.626   5.378
16207TIP3   OH248497   9.295   7.675   4.828
16207TIP3    H148498   9.248   7.752   4.790
16207TIP3    H248499   9.382   7.690   4.785
16208TIP3   OH248500   9.743   7.922   4.969
16208TIP3    H148501   9.782   7.928   5.059
16208TIP3    H248502   9.808   7.974   4.917
16209TIP3   OH248503   9.921   8.072   4.824
16209TIP3    H148504   9.967   8.010   4.765
16209TIP3    H248505   9.994   8.133   4.844
16210TIP3   OH248506   8.972   7.935   4.850
16210TIP3    H148507   8.883   7.972   4.830
16210TIP3    H248508   8.982   7.964   4.941
16211TIP3   OH248509   9.208   7.912   4.708
16211TIP3    H148510   9.122   7.926   4.755
16211TIP3    H248511   9.188   7.947   4.620
16212TIP3   OH248512   9.636   7.942   4.499
16212TIP3    H148513   9.563   7.966   4.440
16212TIP3    H248514   9.649   8.025   4.550
16213TIP3   OH248515   9.905   7.889   4.563
16213TIP3    H148516   9.810   7.899   4.540
16213TIP3    H248517   9.945   7.966   4.522
16214TIP3   OH248518   8.883   7.729   4.597
16214TIP3    H148519   8.911   7.705   4.688
16214TIP3    H248520   8.956   7.686   4.547
16215TIP3   OH248521   9.077   7.600   4.451
16215TIP3    H148522   9.093   7.516   4.501
16215TIP3    H248523   9.167   7.638   4.449
16216TIP3   OH248524   9.341   7.696   4.458
16216TIP3    H148525   9.376   7.605   4.445
16216TIP3    H248526   9.386   7.718   4.542
16217TIP3   OH248527   9.920   6.330   4.546
16217TIP3    H148528   9.871   6.264   4.598
16217TIP3    H248529   9.939   6.278   4.466
16218TIP3   OH248530   9.162   6.063   4.580
16218TIP3    H148531   9.073   6.026   4.566
16218TIP3    H248532   9.219   5.988   4.555
16219TIP3   OH248533   8.948   5.928   4.206
16219TIP3    H148534   8.984   5.986   4.136
16219TIP3    H248535   8.923   5.993   4.275
16220TIP3   OH248536   9.604   6.101   4.448
16220TIP3    H148537   9.662   6.131   4.376
16220TIP3    H248538   9.652   6.132   4.527
16221TIP3   OH248539   8.667   7.499   3.994
16221TIP3    H148540   8.584   7.468   3.953
16221TIP3    H248541   8.662   7.593   3.971
16222TIP3   OH248542   9.069   6.088   3.971
16222TIP3    H148543   9.119   6.025   3.915
16222TIP3    H248544   9.142   6.141   4.010
16223TIP3   OH248545   9.578   6.262   4.070
16223TIP3    H148546   9.636   6.195   4.112
16223TIP3    H248547   9.615   6.346   4.104
16224TIP3   OH248548   9.443   7.696   3.569
16224TIP3    H148549   9.531   7.717   3.531
16224TIP3    H248550   9.421   7.620   3.511
16225TIP3   OH248551   9.377   6.341   5.449
16225TIP3    H148552   9.342   6.272   5.509
16225TIP3    H248553   9.471   6.342   5.478
16226TIP3   OH248554   9.625   6.337   5.571
16226TIP3    H148555   9.711   6.307   5.537
16226TIP3    H248556   9.608   6.269   5.640
16227TIP3   OH248557   8.747   7.522   3.630
16227TIP3    H148558   8.755   7.558   3.720
16227TIP3    H248559   8.836   7.483   3.615
16228TIP3   OH248560   0.845   7.906   6.368
16228TIP3    H148561   0.858   7.842   6.440
16228TIP3    H248562   0.786   7.970   6.410
16229TIP3   OH248563   1.322   7.149   6.759
16229TIP3    H148564   1.354   7.230   6.802
16229TIP3    H248565   1.347   7.166   6.667
16230TIP3   OH248566   0.802   7.324   6.790
16230TIP3    H148567   0.829   7.232   6.811
16230TIP3    H248568   0.775   7.313   6.698
16231TIP3   OH248569   0.760   7.077   6.400
16231TIP3    H148570   0.844   7.072   6.453
16231TIP3    H248571   0.798   7.113   6.317
16232TIP3   OH248572   1.404   7.353   6.928
16232TIP3    H148573   1.320   7.401   6.908
16232TIP3    H248574   1.404   7.360   7.025
16233TIP3   OH248575   0.973   7.076   6.561
16233TIP3    H148576   0.969   7.043   6.651
16233TIP3    H248577   1.030   7.154   6.571
16234TIP3   OH248578   1.122   7.040   6.922
16234TIP3    H148579   1.043   7.095   6.914
16234TIP3    H248580   1.181   7.077   6.852
16235TIP3   OH248581   0.680   7.973   6.124
16235TIP3    H148582   0.645   7.888   6.090
16235TIP3    H248583   0.735   7.942   6.198
16236TIP3   OH248584   1.069   8.063   6.914
16236TIP3    H148585   1.033   7.982   6.874
16236TIP3    H248586   1.043   8.130   6.848
16237TIP3   OH248587   1.269   7.685   6.751
16237TIP3    H148588   1.183   7.732   6.759
16237TIP3    H248589   1.292   7.710   6.659
16238TIP3   OH248590   0.951   7.597   7.021
16238TIP3    H148591   0.939   7.661   7.094
16238TIP3    H248592   0.859   7.582   6.994
16239TIP3   OH248593   0.609   7.380   5.976
16239TIP3    H148594   0.608   7.470   6.013
16239TIP3    H248595   0.579   7.400   5.886
16240TIP3   OH248596   1.052   6.635   6.009
16240TIP3    H148597   0.972   6.656   6.061
16240TIP3    H248598   1.063   6.718   5.957
16241TIP3   OH248599   0.849   8.004   5.558
16241TIP3    H148600   0.866   8.099   5.545
16241TIP3    H248601   0.938   7.967   5.542
16242TIP3   OH248602   1.309   8.395   6.955
16242TIP3    H148603   1.307   8.298   6.968
16242TIP3    H248604   1.215   8.418   6.973
16243TIP3   OH248605   1.195   7.540   7.215
16243TIP3    H148606   1.105   7.552   7.181
16243TIP3    H248607   1.202   7.443   7.214
16244TIP3   OH248608   0.726   6.873   7.229
16244TIP3    H148609   0.798   6.840   7.288
16244TIP3    H248610   0.648   6.858   7.285
16245TIP3   OH248611   0.980   7.322   7.126
16245TIP3    H148612   0.946   7.311   7.218
16245TIP3    H248613   0.918   7.391   7.095
16246TIP3   OH248614   0.601   7.447   5.692
16246TIP3    H148615   0.588   7.403   5.606
16246TIP3    H248616   0.691   7.484   5.683
16247TIP3   OH248617   0.654   7.289   6.546
16247TIP3    H148618   0.582   7.325   6.491
16247TIP3    H248619   0.681   7.212   6.492
16248TIP3   OH248620   0.812   7.047   6.808
16248TIP3    H148621   0.821   7.056   6.906
16248TIP3    H248622   0.739   6.983   6.803
16249TIP3   OH248623   1.041   7.824   6.744
16249TIP3    H148624   1.062   7.881   6.667
16249TIP3    H248625   0.943   7.829   6.746
16250TIP3   OH248626   0.539   6.916   5.986
16250TIP3    H148627   0.461   6.972   5.976
16250TIP3    H248628   0.605   6.988   5.999
16251TIP3   OH248629   0.680   7.130   6.062
16251TIP3    H148630   0.767   7.166   6.087
16251TIP3    H248631   0.634   7.213   6.035
16252TIP3   OH248632   1.090   7.251   5.915
16252TIP3    H148633   1.027   7.206   5.854
16252TIP3    H248634   1.084   7.340   5.874
16253TIP3   OH248635   1.315   8.119   6.996
16253TIP3    H148636   1.218   8.107   6.985
16253TIP3    H248637   1.345   8.083   6.910
16254TIP3   OH248638   0.804   8.074   5.830
16254TIP3    H148639   0.765   8.014   5.896
16254TIP3    H248640   0.802   8.020   5.749
16255TIP3   OH248641   0.772   7.708   6.636
16255TIP3    H148642   0.706   7.663   6.690
16255TIP3    H248643   0.824   7.633   6.602
16256TIP3   OH248644   0.898   8.289   5.558
16256TIP3    H148645   0.932   8.340   5.483
16256TIP3    H248646   0.803   8.311   5.550
16257TIP3   OH248647   0.821   7.084   7.072
16257TIP3    H148648   0.862   7.160   7.118
16257TIP3    H248649   0.807   7.020   7.144
16258TIP3   OH248650   0.613   6.883   6.254
16258TIP3    H148651   0.570   6.879   6.165
16258TIP3    H248652   0.658   6.969   6.243
16259TIP3   OH248653   1.237   7.262   7.142
16259TIP3    H148654   1.140   7.273   7.144
16259TIP3    H248655   1.247   7.216   7.057
16260TIP3   OH248656   0.871   7.468   6.531
16260TIP3    H148657   0.798   7.404   6.537
16260TIP3    H248658   0.944   7.421   6.578
16261TIP3   OH248659   0.903   8.350   6.482
16261TIP3    H148660   0.818   8.396   6.467
16261TIP3    H248661   0.968   8.414   6.445
16262TIP3   OH248662   0.846   7.533   5.580
16262TIP3    H148663   0.829   7.483   5.498
16262TIP3    H248664   0.821   7.622   5.550
16263TIP3   OH248665   0.964   7.540   7.463
16263TIP3    H148666   0.971   7.472   7.531
16263TIP3    H248667   1.011   7.614   7.503
16264TIP3   OH248668   0.975   7.796   7.212
16264TIP3    H148669   0.916   7.854   7.162
16264TIP3    H248670   1.064   7.821   7.176
16265TIP3   OH248671   0.858   7.276   7.353
16265TIP3    H148672   0.777   7.263   7.404
16265TIP3    H248673   0.925   7.248   7.421
16266TIP3   OH248674   1.008   7.179   7.547
16266TIP3    H148675   1.062   7.097   7.558
16266TIP3    H248676   1.046   7.238   7.615
16267TIP3   OH248677   1.100   8.529   6.432
16267TIP3    H148678   1.119   8.559   6.523
16267TIP3    H248679   1.166   8.578   6.381
16268TIP3   OH248680   1.120   8.531   6.713
16268TIP3    H148681   1.085   8.441   6.709
16268TIP3    H248682   1.188   8.521   6.780
16269TIP3   OH248683   1.171   8.206   7.299
16269TIP3    H148684   1.094   8.206   7.357
16269TIP3    H248685   1.201   8.299   7.300
16270TIP3   OH248686   0.997   7.717   5.902
16270TIP3    H148687   1.076   7.772   5.894
16270TIP3    H248688   1.011   7.677   5.990
16271TIP3   OH248689   1.113   7.590   6.117
16271TIP3    H148690   1.047   7.541   6.172
16271TIP3    H248691   1.172   7.627   6.185
16272TIP3   OH248692   1.157   7.978   6.549
16272TIP3    H148693   1.212   7.911   6.503
16272TIP3    H248694   1.155   8.051   6.484
16273TIP3   OH248695   0.975   8.264   6.739
16273TIP3    H148696   0.912   8.325   6.777
16273TIP3    H248697   0.954   8.272   6.643
16274TIP3   OH248698   1.047   7.488   5.764
16274TIP3    H148699   0.973   7.492   5.700
16274TIP3    H248700   1.023   7.566   5.820
16275TIP3   OH248701   0.924   7.165   5.718
16275TIP3    H148702   0.878   7.206   5.644
16275TIP3    H248703   0.893   7.072   5.712
16276TIP3   OH248704   0.951   7.436   6.268
16276TIP3    H148705   0.936   7.341   6.258
16276TIP3    H248706   0.919   7.455   6.359
16277TIP3   OH248707   1.222   7.873   7.133
16277TIP3    H148708   1.290   7.804   7.117
16277TIP3    H248709   1.245   7.940   7.066
16278TIP3   OH248710   1.416   7.682   7.153
16278TIP3    H148711   1.333   7.635   7.180
16278TIP3    H248712   1.477   7.605   7.160
16279TIP3   OH248713   0.858   6.901   5.718
16279TIP3    H148714   0.943   6.874   5.759
16279TIP3    H248715   0.799   6.828   5.738
16280TIP3   OH248716   0.929   7.162   6.180
16280TIP3    H148717   0.969   7.072   6.187
16280TIP3    H248718   0.980   7.197   6.104
16281TIP3   OH248719   1.081   7.331   6.649
16281TIP3    H148720   1.168   7.358   6.613
16281TIP3    H248721   1.091   7.366   6.740
16282TIP3   OH248722   1.155   7.469   6.883
16282TIP3    H148723   1.080   7.506   6.935
16282TIP3    H248724   1.189   7.549   6.839
16283TIP3   OH248725   1.610   7.034   7.449
16283TIP3    H148726   1.658   6.997   7.373
16283TIP3    H248727   1.583   7.123   7.419
16284TIP3   OH248728   1.027   6.907   6.203
16284TIP3    H148729   1.081   6.889   6.283
16284TIP3    H248730   0.971   6.826   6.199
16285TIP3   OH248731   1.489   7.208   7.251
16285TIP3    H148732   1.402   7.235   7.285
16285TIP3    H248733   1.463   7.131   7.198
16286TIP3   OH248734   1.109   6.843   5.829
16286TIP3    H148735   1.148   6.769   5.779
16286TIP3    H248736   1.178   6.912   5.821
16287TIP3   OH248737   1.374   6.968   7.126
16287TIP3    H148738   1.280   6.962   7.101
16287TIP3    H248739   1.403   6.875   7.116
16288TIP3   OH248740   0.622   6.844   6.776
16288TIP3    H148741   0.603   6.791   6.856
16288TIP3    H248742   0.697   6.791   6.742
16289TIP3   OH248743   1.100   6.765   6.653
16289TIP3    H148744   1.147   6.813   6.580
16289TIP3    H248745   1.012   6.803   6.645
16290TIP3   OH248746   1.194   6.866   6.418
16290TIP3    H148747   1.266   6.812   6.377
16290TIP3    H248748   1.230   6.956   6.402
16291TIP3   OH248749   0.797   6.746   6.574
16291TIP3    H148750   0.864   6.702   6.517
16291TIP3    H248751   0.793   6.676   6.645
16292TIP3   OH248752   0.848   6.691   6.191
16292TIP3    H148753   0.756   6.722   6.188
16292TIP3    H248754   0.838   6.605   6.236
16293TIP3   OH248755   0.837   8.340   5.838
16293TIP3    H148756   0.817   8.245   5.860
16293TIP3    H248757   0.750   8.368   5.804
16294TIP3   OH248758   1.108   6.923   7.561
16294TIP3    H148759   1.128   6.899   7.654
16294TIP3    H248760   1.198   6.925   7.521
16295TIP3   OH248761   1.054   8.477   6.998
16295TIP3    H148762   0.969   8.436   7.017
16295TIP3    H248763   1.048   8.553   7.058
16296TIP3   OH248764   2.312   7.857   5.821
16296TIP3    H148765   2.282   7.948   5.800
16296TIP3    H248766   2.236   7.806   5.789
16297TIP3   OH248767   2.308   7.857   6.201
16297TIP3    H148768   2.339   7.822   6.287
16297TIP3    H248769   2.269   7.777   6.162
16298TIP3   OH248770   1.609   7.754   6.567
16298TIP3    H148771   1.641   7.685   6.629
16298TIP3    H248772   1.689   7.806   6.555
16299TIP3   OH248773   2.553   8.157   5.881
16299TIP3    H148774   2.539   8.085   5.944
16299TIP3    H248775   2.580   8.230   5.939
16300TIP3   OH248776   1.580   8.161   6.291
16300TIP3    H148777   1.571   8.063   6.295
16300TIP3    H248778   1.677   8.169   6.289
16301TIP3   OH248779   1.287   7.368   6.080
16301TIP3    H148780   1.236   7.451   6.091
16301TIP3    H248781   1.218   7.310   6.044
16302TIP3   OH248782   1.353   7.655   6.250
16302TIP3    H148783   1.398   7.576   6.287
16302TIP3    H248784   1.404   7.670   6.169
16303TIP3   OH248785   2.202   8.621   5.898
16303TIP3    H148786   2.249   8.549   5.850
16303TIP3    H248787   2.194   8.584   5.987
16304TIP3   OH248788   2.109   8.082   6.249
16304TIP3    H148789   2.144   8.003   6.203
16304TIP3    H248790   2.194   8.125   6.271
16305TIP3   OH248791   3.120   7.404   6.246
16305TIP3    H148792   3.150   7.486   6.290
16305TIP3    H248793   3.141   7.424   6.153
16306TIP3   OH248794   2.523   7.586   6.283
16306TIP3    H148795   2.564   7.499   6.303
16306TIP3    H248796   2.490   7.570   6.193
16307TIP3   OH248797   1.855   7.242   6.249
16307TIP3    H148798   1.837   7.314   6.185
16307TIP3    H248799   1.810   7.168   6.204
16308TIP3   OH248800   2.550   7.335   5.871
16308TIP3    H148801   2.622   7.317   5.936
16308TIP3    H248802   2.604   7.368   5.796
16309TIP3   OH248803   1.493   7.445   6.355
16309TIP3    H148804   1.576   7.423   6.401
16309TIP3    H248805   1.503   7.389   6.275
16310TIP3   OH248806   1.933   7.643   6.147
16310TIP3    H148807   2.027   7.617   6.160
16310TIP3    H248808   1.894   7.559   6.115
16311TIP3   OH248809   3.197   7.613   6.414
16311TIP3    H148810   3.112   7.657   6.396
16311TIP3    H248811   3.197   7.614   6.511
16312TIP3   OH248812   1.856   7.227   6.682
16312TIP3    H148813   1.795   7.262   6.615
16312TIP3    H248814   1.804   7.244   6.764
16313TIP3   OH248815   2.206   8.079   5.690
16313TIP3    H148816   2.161   8.051   5.609
16313TIP3    H248817   2.159   8.162   5.711
16314TIP3   OH248818   1.963   8.001   6.479
16314TIP3    H148819   1.898   8.064   6.517
16314TIP3    H248820   2.004   8.053   6.407
16315TIP3   OH248821   2.761   7.336   6.040
16315TIP3    H148822   2.768   7.273   6.113
16315TIP3    H248823   2.820   7.408   6.070
16316TIP3   OH248824   1.725   7.341   6.467
16316TIP3    H148825   1.790   7.413   6.489
16316TIP3    H248826   1.773   7.299   6.392
16317TIP3   OH248827   1.789   8.193   6.574
16317TIP3    H148828   1.763   8.279   6.535
16317TIP3    H248829   1.711   8.177   6.631
16318TIP3   OH248830   1.200   7.882   5.804
16318TIP3    H148831   1.144   7.889   5.724
16318TIP3    H248832   1.182   7.964   5.851
16319TIP3   OH248833   2.626   8.400   6.054
16319TIP3    H148834   2.536   8.390   6.092
16319TIP3    H248835   2.616   8.485   6.007
16320TIP3   OH248836   2.911   7.311   6.416
16320TIP3    H148837   2.823   7.332   6.380
16320TIP3    H248838   2.970   7.334   6.341
16321TIP3   OH248839   2.215   6.948   6.393
16321TIP3    H148840   2.205   6.852   6.408
16321TIP3    H248841   2.135   6.981   6.439
16322TIP3   OH248842   2.328   8.448   5.727
16322TIP3    H148843   2.377   8.365   5.705
16322TIP3    H248844   2.387   8.513   5.683
16323TIP3   OH248845   2.469   8.234   5.629
16323TIP3    H148846   2.431   8.155   5.589
16323TIP3    H248847   2.504   8.198   5.714
16324TIP3   OH248848   2.852   8.316   6.393
16324TIP3    H148849   2.840   8.237   6.336
16324TIP3    H248850   2.835   8.389   6.330
16325TIP3   OH248851   2.142   7.709   5.650
16325TIP3    H148852   2.060   7.757   5.626
16325TIP3    H248853   2.189   7.704   5.564
16326TIP3   OH248854   2.100   7.492   5.369
16326TIP3    H148855   2.169   7.540   5.418
16326TIP3    H248856   2.156   7.426   5.322
16327TIP3   OH248857   3.047   7.953   6.239
16327TIP3    H148858   2.963   8.003   6.245
16327TIP3    H248859   3.073   7.973   6.147
16328TIP3   OH248860   2.489   7.791   5.624
16328TIP3    H148861   2.434   7.815   5.702
16328TIP3    H248862   2.572   7.762   5.668
16329TIP3   OH248863   2.725   7.831   6.532
16329TIP3    H148864   2.719   7.915   6.581
16329TIP3    H248865   2.638   7.831   6.487
16330TIP3   OH248866   1.722   7.790   6.039
16330TIP3    H148867   1.679   7.731   5.973
16330TIP3    H248868   1.798   7.735   6.068
16331TIP3   OH248869   1.853   8.202   6.187
16331TIP3    H148870   1.831   8.152   6.107
16331TIP3    H248871   1.943   8.168   6.207
16332TIP3   OH248872   1.859   7.759   6.395
16332TIP3    H148873   1.891   7.737   6.305
16332TIP3    H248874   1.902   7.845   6.414
16333TIP3   OH248875   2.384   8.397   6.171
16333TIP3    H148876   2.369   8.475   6.227
16333TIP3    H248877   2.370   8.322   6.232
16334TIP3   OH248878   1.996   8.315   6.717
16334TIP3    H148879   1.936   8.379   6.763
16334TIP3    H248880   1.929   8.262   6.669
16335TIP3   OH248881   2.331   7.648   5.449
16335TIP3    H148882   2.390   7.706   5.502
16335TIP3    H248883   2.357   7.673   5.357
16336TIP3   OH248884   1.749   7.874   6.817
16336TIP3    H148885   1.751   7.959   6.864
16336TIP3    H248886   1.654   7.854   6.821
16337TIP3   OH248887   2.070   8.331   5.727
16337TIP3    H148888   2.149   8.384   5.746
16337TIP3    H248889   2.012   8.394   5.683
16338TIP3   OH248890   1.793   8.485   6.801
16338TIP3    H148891   1.756   8.482   6.711
16338TIP3    H248892   1.715   8.462   6.856
16339TIP3   OH248893   2.844   6.888   5.496
16339TIP3    H148894   2.763   6.904   5.549
16339TIP3    H248895   2.854   6.974   5.449
16340TIP3   OH248896   1.586   7.632   5.849
16340TIP3    H148897   1.522   7.673   5.787
16340TIP3    H248898   1.549   7.543   5.858
16341TIP3   OH248899   2.644   8.257   5.045
16341TIP3    H148900   2.652   8.354   5.031
16341TIP3    H248901   2.736   8.228   5.032
16342TIP3   OH248902   1.371   8.014   6.752
16342TIP3    H148903   1.305   7.991   6.683
16342TIP3    H248904   1.407   7.927   6.778
16343TIP3   OH248905   1.225   8.206   6.386
16343TIP3    H148906   1.321   8.202   6.377
16343TIP3    H248907   1.213   8.289   6.435
16344TIP3   OH248908   3.087   8.658   6.436
16344TIP3    H148909   3.087   8.561   6.449
16344TIP3    H248910   3.004   8.681   6.484
16345TIP3   OH248911   2.194   8.445   6.574
16345TIP3    H148912   2.194   8.538   6.607
16345TIP3    H248913   2.122   8.406   6.629
16346TIP3   OH248914   1.951   8.574   5.527
16346TIP3    H148915   1.908   8.553   5.442
16346TIP3    H248916   1.921   8.664   5.545
16347TIP3   OH248917   2.157   8.476   5.167
16347TIP3    H148918   2.215   8.406   5.131
16347TIP3    H248919   2.190   8.482   5.260
16348TIP3   OH248920   2.205   8.524   5.439
16348TIP3    H148921   2.116   8.531   5.480
16348TIP3    H248922   2.254   8.478   5.508
16349TIP3   OH248923   2.978   7.792   6.712
16349TIP3    H148924   2.898   7.803   6.659
16349TIP3    H248925   2.996   7.697   6.700
16350TIP3   OH248926   1.574   8.197   6.739
16350TIP3    H148927   1.623   8.182   6.823
16350TIP3    H248928   1.500   8.133   6.746
16351TIP3   OH248929   1.974   7.021   6.524
16351TIP3    H148930   1.885   6.989   6.497
16351TIP3    H248931   1.948   7.104   6.568
16352TIP3   OH248932   2.506   7.141   6.720
16352TIP3    H148933   2.574   7.109   6.782
16352TIP3    H248934   2.422   7.116   6.763
16353TIP3   OH248935   2.749   7.566   6.638
16353TIP3    H148936   2.699   7.562   6.723
16353TIP3    H248937   2.720   7.652   6.601
16354TIP3   OH248938   2.406   7.699   5.193
16354TIP3    H148939   2.373   7.670   5.106
16354TIP3    H248940   2.487   7.747   5.167
16355TIP3   OH248941   2.116   7.075   5.492
16355TIP3    H148942   2.090   7.071   5.587
16355TIP3    H248943   2.081   6.988   5.463
16356TIP3   OH248944   1.906   7.536   6.543
16356TIP3    H148945   1.853   7.556   6.624
16356TIP3    H248946   1.889   7.616   6.489
16357TIP3   OH248947   1.788   7.424   6.057
16357TIP3    H148948   1.696   7.395   6.074
16357TIP3    H248949   1.803   7.383   5.969
16358TIP3   OH248950   2.281   7.512   5.785
16358TIP3    H148951   2.226   7.581   5.742
16358TIP3    H248952   2.334   7.479   5.709
16359TIP3   OH248953   2.454   7.791   6.875
16359TIP3    H148954   2.431   7.716   6.934
16359TIP3    H248955   2.550   7.799   6.893
16360TIP3   OH248956   2.439   7.540   6.022
16360TIP3    H148957   2.378   7.566   5.950
16360TIP3    H248958   2.472   7.457   5.984
16361TIP3   OH248959   1.723   7.566   6.751
16361TIP3    H148960   1.752   7.627   6.821
16361TIP3    H248961   1.711   7.482   6.800
16362TIP3   OH248962   1.766   7.042   5.457
16362TIP3    H148963   1.775   7.036   5.554
16362TIP3    H248964   1.684   7.095   5.450
16363TIP3   OH248965   1.317   7.089   6.333
16363TIP3    H148966   1.394   7.119   6.385
16363TIP3    H248967   1.356   7.055   6.251
16364TIP3   OH248968   1.294   7.069   5.850
16364TIP3    H148969   1.340   7.108   5.773
16364TIP3    H248970   1.233   7.142   5.872
16365TIP3   OH248971   2.451   7.786   6.448
16365TIP3    H148972   2.482   7.713   6.389
16365TIP3    H248973   2.420   7.733   6.525
16366TIP3   OH248974   2.117   7.262   6.122
16366TIP3    H148975   2.034   7.243   6.170
16366TIP3    H248976   2.184   7.242   6.189
16367TIP3   OH248977   1.551   7.299   6.127
16367TIP3    H148978   1.457   7.305   6.100
16367TIP3    H248979   1.576   7.208   6.103
16368TIP3   OH248980   1.822   7.300   5.816
16368TIP3    H148981   1.917   7.308   5.796
16368TIP3    H248982   1.778   7.321   5.731
16369TIP3   OH248983   2.606   7.322   6.323
16369TIP3    H148984   2.566   7.331   6.412
16369TIP3    H248985   2.546   7.257   6.282
16370TIP3   OH248986   1.658   7.334   5.596
16370TIP3    H148987   1.584   7.290   5.550
16370TIP3    H248988   1.710   7.366   5.519
16371TIP3   OH248989   2.776   9.010   6.538
16371TIP3    H148990   2.774   9.029   6.442
16371TIP3    H248991   2.855   9.058   6.568
16372TIP3   OH248992   1.728   8.120   6.963
16372TIP3    H148993   1.809   8.150   7.008
16372TIP3    H248994   1.672   8.097   7.038
16373TIP3   OH248995   2.202   7.577   6.218
16373TIP3    H148996   2.265   7.528   6.163
16373TIP3    H248997   2.209   7.530   6.303
16374TIP3   OH248998   1.724   7.061   6.090
16374TIP3    H148999   1.693   6.981   6.137
16374TIP3    H249000   1.789   7.025   6.028
16375TIP3   OH249001   2.177   7.467   6.505
16375TIP3    H149002   2.087   7.503   6.519
16375TIP3    H249003   2.233   7.527   6.556
16376TIP3   OH249004   1.911   7.863   5.599
16376TIP3    H149005   1.841   7.795   5.589
16376TIP3    H249006   1.895   7.894   5.691
16377TIP3   OH249007   2.814   8.098   6.231
16377TIP3    H149008   2.837   8.145   6.149
16377TIP3    H249009   2.729   8.054   6.208
16378TIP3   OH249010   2.368   7.178   5.453
16378TIP3    H149011   2.273   7.158   5.469
16378TIP3    H249012   2.379   7.270   5.485
16379TIP3   OH249013   2.319   8.182   6.596
16379TIP3    H149014   2.329   8.152   6.687
16379TIP3    H249015   2.273   8.267   6.606
16380TIP3   OH249016   2.441   7.419   5.565
16380TIP3    H149017   2.537   7.424   5.581
16380TIP3    H249018   2.424   7.499   5.511
16381TIP3   OH249019   1.607   7.885   6.277
16381TIP3    H149020   1.644   7.854   6.192
16381TIP3    H249021   1.639   7.817   6.338
16382TIP3   OH249022   2.059   8.012   5.423
16382TIP3    H149023   2.012   8.098   5.430
16382TIP3    H249024   2.004   7.955   5.480
16383TIP3   OH249025   1.485   7.803   6.889
16383TIP3    H149026   1.496   7.782   6.983
16383TIP3    H249027   1.418   7.737   6.862
16384TIP3   OH249028   2.209   7.916   6.911
16384TIP3    H149029   2.150   7.858   6.859
16384TIP3    H249030   2.297   7.882   6.883
16385TIP3   OH249031   2.475   8.445   6.488
16385TIP3    H149032   2.379   8.435   6.502
16385TIP3    H249033   2.500   8.492   6.570
16386TIP3   OH249034   2.886   7.507   5.400
16386TIP3    H149035   2.822   7.462   5.340
16386TIP3    H249036   2.881   7.596   5.359
16387TIP3   OH249037   3.102   8.370   6.481
16387TIP3    H149038   3.004   8.362   6.475
16387TIP3    H249039   3.127   8.337   6.392
16388TIP3   OH249040   2.585   8.329   5.310
16388TIP3    H149041   2.558   8.258   5.371
16388TIP3    H249042   2.594   8.282   5.225
16389TIP3   OH249043   2.579   7.958   6.151
16389TIP3    H149044   2.486   7.931   6.163
16389TIP3    H249045   2.614   7.878   6.106
16390TIP3   OH249046   1.710   8.184   5.903
16390TIP3    H149047   1.716   8.263   5.847
16390TIP3    H249048   1.615   8.172   5.911
16391TIP3   OH249049   1.269   7.489   5.603
16391TIP3    H149050   1.316   7.573   5.623
16391TIP3    H249051   1.192   7.495   5.663
16392TIP3   OH249052   1.850   7.952   5.848
16392TIP3    H149053   1.814   8.041   5.867
16392TIP3    H249054   1.812   7.900   5.921
16393TIP3   OH249055   1.974   8.530   6.372
16393TIP3    H149056   2.015   8.602   6.320
16393TIP3    H249057   2.051   8.496   6.420
16394TIP3   OH249058   1.626   8.427   5.755
16394TIP3    H149059   1.558   8.441   5.823
16394TIP3    H249060   1.667   8.517   5.753
16395TIP3   OH249061   2.367   8.166   6.327
16395TIP3    H149062   2.358   8.163   6.425
16395TIP3    H249063   2.443   8.107   6.313
16396TIP3   OH249064   2.336   8.058   5.210
16396TIP3    H149065   2.387   8.032   5.291
16396TIP3    H249066   2.248   8.028   5.236
16397TIP3   OH249067   2.613   8.701   6.382
16397TIP3    H149068   2.537   8.640   6.377
16397TIP3    H249069   2.595   8.762   6.308
16398TIP3   OH249070   2.678   8.533   5.032
16398TIP3    H149071   2.715   8.604   4.977
16398TIP3    H249072   2.598   8.578   5.065
16399TIP3   OH249073   1.698   7.311   6.899
16399TIP3    H149074   1.601   7.314   6.913
16399TIP3    H249075   1.725   7.248   6.968
16400TIP3   OH249076   2.496   7.993   5.430
16400TIP3    H149077   2.486   7.925   5.500
16400TIP3    H249078   2.593   7.989   5.417
16401TIP3   OH249079   1.414   8.394   6.529
16401TIP3    H149080   1.465   8.317   6.561
16401TIP3    H249081   1.442   8.462   6.591
16402TIP3   OH249082   1.713   8.042   5.219
16402TIP3    H149083   1.706   7.958   5.170
16402TIP3    H249084   1.685   8.016   5.308
16403TIP3   OH249085   1.645   8.043   5.493
16403TIP3    H149086   1.723   8.013   5.541
16403TIP3    H249087   1.656   8.140   5.492
16404TIP3   OH249088   1.392   7.733   5.681
16404TIP3    H149089   1.328   7.780   5.739
16404TIP3    H249090   1.409   7.802   5.614
16405TIP3   OH249091   2.528   7.380   6.584
16405TIP3    H149092   2.616   7.408   6.614
16405TIP3    H249093   2.515   7.295   6.633
16406TIP3   OH249094   2.414   7.129   5.738
16406TIP3    H149095   2.402   7.153   5.645
16406TIP3    H249096   2.454   7.210   5.777
16407TIP3   OH249097   1.916   8.242   5.436
16407TIP3    H149098   1.828   8.271   5.467
16407TIP3    H249099   1.930   8.301   5.361
16408TIP3   OH249100   2.104   7.304   5.846
16408TIP3    H149101   2.171   7.373   5.829
16408TIP3    H249102   2.108   7.296   5.944
16409TIP3   OH249103   2.372   7.624   6.653
16409TIP3    H149104   2.393   7.673   6.735
16409TIP3    H249105   2.427   7.543   6.662
16410TIP3   OH249106   2.257   7.053   5.960
16410TIP3    H149107   2.255   7.132   6.015
16410TIP3    H249108   2.314   7.079   5.885
16411TIP3   OH249109   1.657   8.317   5.498
16411TIP3    H149110   1.629   8.385   5.433
16411TIP3    H249111   1.643   8.363   5.583
16412TIP3   OH249112   1.761   7.027   5.734
16412TIP3    H149113   1.760   7.116   5.775
16412TIP3    H249114   1.856   7.005   5.746
16413TIP3   OH249115   3.016   7.527   6.626
16413TIP3    H149116   2.918   7.526   6.636
16413TIP3    H249117   3.023   7.467   6.550
16414TIP3   OH249118   2.664   7.719   6.022
16414TIP3    H149119   2.588   7.658   6.033
16414TIP3    H249120   2.736   7.670   6.069
16415TIP3   OH249121   1.376   7.953   5.494
16415TIP3    H149122   1.452   8.014   5.498
16415TIP3    H249123   1.413   7.893   5.425
16416TIP3   OH249124   1.324   7.220   5.622
16416TIP3    H149125   1.319   7.318   5.618
16416TIP3    H249126   1.237   7.195   5.587
16417TIP3   OH249127   2.631   8.674   5.974
16417TIP3    H149128   2.589   8.720   5.898
16417TIP3    H249129   2.726   8.691   5.952
16418TIP3   OH249130   1.707   6.942   6.502
16418TIP3    H149131   1.678   6.909   6.414
16418TIP3    H249132   1.698   6.863   6.558
16419TIP3   OH249133   1.405   8.693   6.953
16419TIP3    H149134   1.491   8.698   6.999
16419TIP3    H249135   1.392   8.597   6.947
16420TIP3   OH249136   1.885   8.671   6.991
16420TIP3    H149137   1.979   8.652   7.004
16420TIP3    H249138   1.863   8.610   6.919
16421TIP3   OH249139   1.872   8.243   5.129
16421TIP3    H149140   1.813   8.172   5.164
16421TIP3    H249141   1.942   8.189   5.089
16422TIP3   OH249142   2.527   8.571   6.728
16422TIP3    H149143   2.516   8.501   6.796
16422TIP3    H249144   2.603   8.621   6.761
16423TIP3   OH249145   2.307   8.286   5.036
16423TIP3    H149146   2.348   8.218   5.093
16423TIP3    H249147   2.361   8.283   4.955
16424TIP3   OH249148   1.511   7.766   5.347
16424TIP3    H149149   1.569   7.725   5.414
16424TIP3    H249150   1.573   7.770   5.271
16425TIP3   OH249151   2.143   8.191   6.924
16425TIP3    H149152   2.100   8.205   6.838
16425TIP3    H249153   2.173   8.098   6.919
16426TIP3   OH249154   2.027   7.956   5.150
16426TIP3    H149155   2.021   7.969   5.247
16426TIP3    H249156   2.019   7.859   5.145
16427TIP3   OH249157   2.638   8.197   6.532
16427TIP3    H149158   2.708   8.246   6.486
16427TIP3    H249159   2.562   8.257   6.519
16428TIP3   OH249160   1.677   7.846   7.146
16428TIP3    H149161   1.732   7.775   7.111
16428TIP3    H249162   1.609   7.800   7.197
16429TIP3   OH249163   1.725   7.660   5.570
16429TIP3    H149164   1.695   7.616   5.651
16429TIP3    H249165   1.757   7.584   5.517
16430TIP3   OH249166   1.989   7.727   6.797
16430TIP3    H149167   1.911   7.787   6.799
16430TIP3    H249168   2.036   7.759   6.717
16431TIP3   OH249169   1.819   7.453   5.408
16431TIP3    H149170   1.793   7.455   5.313
16431TIP3    H249171   1.917   7.462   5.401
16432TIP3   OH249172   2.507   8.129   6.931
16432TIP3    H149173   2.585   8.104   6.878
16432TIP3    H249174   2.503   8.058   6.997
16433TIP3   OH249175   2.645   7.788   5.068
16433TIP3    H149176   2.622   7.739   4.986
16433TIP3    H249177   2.612   7.877   5.042
16434TIP3   OH249178   2.112   7.513   6.924
16434TIP3    H149179   2.112   7.432   6.869
16434TIP3    H249180   2.068   7.578   6.865
16435TIP3   OH249181   2.114   7.301   6.729
16435TIP3    H149182   2.142   7.339   6.643
16435TIP3    H249183   2.021   7.277   6.711
16436TIP3   OH249184   2.145   7.839   6.604
16436TIP3    H149185   2.224   7.839   6.549
16436TIP3    H249186   2.089   7.905   6.558
16437TIP3   OH249187   2.728   7.806   6.987
16437TIP3    H149188   2.770   7.719   6.990
16437TIP3    H249189   2.798   7.860   6.947
16438TIP3   OH249190   2.766   8.058   6.723
16438TIP3    H149191   2.709   8.109   6.662
16438TIP3    H249192   2.853   8.074   6.681
16439TIP3   OH249193   1.987   7.630   7.152
16439TIP3    H149194   1.922   7.558   7.165
16439TIP3    H249195   2.024   7.606   7.064
16440TIP3   OH249196   2.247   7.067   6.797
16440TIP3    H149197   2.198   7.148   6.772
16440TIP3    H249198   2.179   6.998   6.782
16441TIP3   OH249199   2.371   7.572   7.012
16441TIP3    H149200   2.358   7.558   7.107
16441TIP3    H249201   2.282   7.545   6.980
16442TIP3   OH249202   2.617   7.526   6.871
16442TIP3    H149203   2.538   7.519   6.928
16442TIP3    H249204   2.686   7.483   6.926
16443TIP3   OH249205   2.842   7.445   7.026
16443TIP3    H149206   2.875   7.359   7.055
16443TIP3    H249207   2.839   7.497   7.109
16444TIP3   OH249208   1.832   7.409   7.199
16444TIP3    H149209   1.834   7.317   7.165
16444TIP3    H249210   1.865   7.393   7.291
16445TIP3   OH249211   2.342   7.073   7.054
16445TIP3    H149212   2.412   7.004   7.045
16445TIP3    H249213   2.302   7.068   6.964
16446TIP3   OH249214   2.408   7.288   7.212
16446TIP3    H149215   2.385   7.217   7.148
16446TIP3    H249216   2.330   7.348   7.204
16447TIP3   OH249217   1.627   8.520   5.313
16447TIP3    H149218   1.722   8.517   5.292
16447TIP3    H249219   1.594   8.564   5.233
16448TIP3   OH249220   1.108   7.899   5.532
16448TIP3    H149221   1.202   7.921   5.515
16448TIP3    H249222   1.102   7.810   5.490
16449TIP3   OH249223   1.161   8.377   6.102
16449TIP3    H149224   1.136   8.302   6.158
16449TIP3    H249225   1.209   8.431   6.167
16450TIP3   OH249226   2.883   8.766   5.926
16450TIP3    H149227   2.913   8.796   6.014
16450TIP3    H249228   2.947   8.809   5.867
16451TIP3   OH249229   2.918   8.785   6.209
16451TIP3    H149230   2.870   8.700   6.203
16451TIP3    H249231   2.990   8.758   6.269
16452TIP3   OH249232   2.961   8.462   6.781
16452TIP3    H149233   2.887   8.467   6.845
16452TIP3    H249234   3.001   8.551   6.788
16453TIP3   OH249235   2.777   7.975   5.403
16453TIP3    H149236   2.847   8.036   5.377
16453TIP3    H249237   2.817   7.933   5.483
16454TIP3   OH249238   2.904   7.843   5.607
16454TIP3    H149239   2.838   7.798   5.665
16454TIP3    H249240   2.967   7.880   5.671
16455TIP3   OH249241   2.959   8.233   6.040
16455TIP3    H149242   3.012   8.168   5.990
16455TIP3    H249243   2.946   8.304   5.974
16456TIP3   OH249244   2.792   8.536   6.233
16456TIP3    H149245   2.720   8.573   6.287
16456TIP3    H249246   2.742   8.485   6.165
16457TIP3   OH249247   2.843   7.750   5.254
16457TIP3    H149248   2.771   7.752   5.187
16457TIP3    H249249   2.815   7.825   5.310
16458TIP3   OH249250   2.714   7.422   5.208
16458TIP3    H149251   2.671   7.460   5.131
16458TIP3    H249252   2.689   7.328   5.200
16459TIP3   OH249253   2.720   7.695   5.753
16459TIP3    H149254   2.727   7.599   5.749
16459TIP3    H249255   2.706   7.710   5.849
16460TIP3   OH249256   1.345   7.777   6.499
16460TIP3    H149257   1.343   7.745   6.406
16460TIP3    H249258   1.442   7.777   6.515
16461TIP3   OH249259   3.008   8.122   6.611
16461TIP3    H149260   3.080   8.055   6.602
16461TIP3    H249261   3.035   8.189   6.546
16462TIP3   OH249262   3.196   7.930   6.633
16462TIP3    H149263   3.120   7.879   6.668
16462TIP3    H249264   3.267   7.864   6.645
16463TIP3   OH249265   2.658   7.156   5.195
16463TIP3    H149266   2.733   7.126   5.250
16463TIP3    H249267   2.585   7.098   5.222
16464TIP3   OH249268   2.715   7.411   5.649
16464TIP3    H149269   2.755   7.322   5.667
16464TIP3    H249270   2.775   7.442   5.580
16465TIP3   OH249271   2.878   7.592   6.142
16465TIP3    H149272   2.965   7.618   6.104
16465TIP3    H249273   2.891   7.624   6.234
16466TIP3   OH249274   2.946   7.732   6.377
16466TIP3    H149275   2.866   7.765   6.424
16466TIP3    H249276   2.977   7.813   6.332
16467TIP3   OH249277   1.568   7.464   7.183
16467TIP3    H149278   1.665   7.448   7.178
16467TIP3    H249279   1.540   7.378   7.219
16468TIP3   OH249280   3.430   7.343   6.935
16468TIP3    H149281   3.448   7.255   6.897
16468TIP3    H249282   3.373   7.381   6.865
16469TIP3   OH249283   2.824   7.160   5.690
16469TIP3    H149284   2.870   7.142   5.774
16469TIP3    H249285   2.764   7.083   5.686
16470TIP3   OH249286   1.523   7.150   6.509
16470TIP3    H149287   1.585   7.075   6.516
16470TIP3    H249288   1.586   7.224   6.501
16471TIP3   OH249289   1.328   7.423   6.579
16471TIP3    H149290   1.376   7.415   6.494
16471TIP3    H249291   1.361   7.508   6.611
16472TIP3   OH249292   3.270   7.461   6.741
16472TIP3    H149293   3.179   7.493   6.759
16472TIP3    H249294   3.248   7.381   6.688
16473TIP3   OH249295   2.906   7.101   5.316
16473TIP3    H149296   2.946   7.026   5.268
16473TIP3    H249297   2.976   7.169   5.309
16474TIP3   OH249298   1.309   6.933   6.082
16474TIP3    H149299   1.214   6.929   6.102
16474TIP3    H249300   1.311   6.988   6.001
16475TIP3   OH249301   2.470   8.630   5.586
16475TIP3    H149302   2.519   8.611   5.503
16475TIP3    H249303   2.527   8.696   5.628
16476TIP3   OH249304   1.531   7.011   6.895
16476TIP3    H149305   1.481   7.002   6.978
16476TIP3    H249306   1.462   7.046   6.835
16477TIP3   OH249307   1.580   8.432   6.966
16477TIP3    H149308   1.488   8.401   6.957
16477TIP3    H249309   1.596   8.428   7.061
16478TIP3   OH249310   1.747   8.464   6.518
16478TIP3    H149311   1.698   8.540   6.480
16478TIP3    H249312   1.833   8.479   6.474
16479TIP3   OH249313   2.195   8.711   6.657
16479TIP3    H149314   2.236   8.712   6.746
16479TIP3    H249315   2.262   8.762   6.605
16480TIP3   OH249316   2.373   8.863   6.512
16480TIP3    H149317   2.443   8.808   6.473
16480TIP3    H249318   2.425   8.918   6.575
16481TIP3   OH249319   3.175   7.232   6.601
16481TIP3    H149320   3.079   7.223   6.600
16481TIP3    H249321   3.202   7.138   6.605
16482TIP3   OH249322   1.428   8.723   6.541
16482TIP3    H149323   1.338   8.756   6.519
16482TIP3    H249324   1.437   8.759   6.631
16483TIP3   OH249325   1.662   8.702   6.399
16483TIP3    H149326   1.577   8.714   6.445
16483TIP3    H249327   1.641   8.736   6.310
16484TIP3   OH249328   2.088   8.733   6.196
16484TIP3    H149329   2.019   8.753   6.130
16484TIP3    H249330   2.099   8.820   6.240
16485TIP3   OH249331   2.355   8.674   6.248
16485TIP3    H149332   2.260   8.686   6.229
16485TIP3    H249333   2.394   8.751   6.205
16486TIP3   OH249334   2.570   8.868   6.165
16486TIP3    H149335   2.551   8.950   6.115
16486TIP3    H249336   2.591   8.804   6.093
16487TIP3   OH249337   1.342   8.519   6.280
16487TIP3    H149338   1.364   8.491   6.372
16487TIP3    H249339   1.412   8.471   6.231
16488TIP3   OH249340   1.530   8.388   6.137
16488TIP3    H149341   1.545   8.304   6.186
16488TIP3    H249342   1.621   8.425   6.134
16489TIP3   OH249343   1.797   8.485   6.143
16489TIP3    H149344   1.827   8.393   6.132
16489TIP3    H249345   1.837   8.506   6.229
16490TIP3   OH249346   2.376   7.140   6.233
16490TIP3    H149347   2.327   7.072   6.283
16490TIP3    H249348   2.440   7.085   6.184
16491TIP3   OH249349   2.896   7.031   6.149
16491TIP3    H149350   2.929   7.070   6.065
16491TIP3    H249351   2.800   7.026   6.132
16492TIP3   OH249352   2.996   7.131   5.909
16492TIP3    H149353   3.061   7.073   5.866
16492TIP3    H249354   3.030   7.220   5.886
16493TIP3   OH249355   1.620   6.851   6.254
16493TIP3    H149356   1.528   6.816   6.250
16493TIP3    H249357   1.671   6.767   6.249
16494TIP3   OH249358   1.407   6.719   5.903
16494TIP3    H149359   1.435   6.774   5.829
16494TIP3    H249360   1.378   6.785   5.969
16495TIP3   OH249361   2.049   6.896   6.132
16495TIP3    H149362   2.114   6.917   6.062
16495TIP3    H249363   2.099   6.919   6.212
16496TIP3   OH249364   2.615   6.997   6.118
16496TIP3    H149365   2.609   6.982   6.022
16496TIP3    H249366   2.600   6.903   6.142
16497TIP3   OH249367   2.639   6.947   5.676
16497TIP3    H149368   2.550   6.983   5.691
16497TIP3    H249369   2.649   6.888   5.754
16498TIP3   OH249370   1.523   6.883   5.660
16498TIP3    H149371   1.573   6.808   5.625
16498TIP3    H249372   1.595   6.938   5.698
16499TIP3   OH249373   2.038   7.048   5.759
16499TIP3    H149374   2.094   6.986   5.810
16499TIP3    H249375   2.069   7.134   5.795
16500TIP3   OH249376   1.896   8.483   5.259
16500TIP3    H149377   1.984   8.503   5.223
16500TIP3    H249378   1.873   8.406   5.202
16501TIP3   OH249379   2.615   8.595   5.353
16501TIP3    H149380   2.607   8.498   5.340
16501TIP3    H249381   2.570   8.628   5.272
16502TIP3   OH249382   1.830   7.135   7.140
16502TIP3    H149383   1.795   7.062   7.194
16502TIP3    H249384   1.924   7.134   7.168
16503TIP3   OH249385   2.079   7.128   7.262
16503TIP3    H149386   2.161   7.098   7.219
16503TIP3    H249387   2.063   7.056   7.326
16504TIP3   OH249388   1.203   8.319   5.318
16504TIP3    H149389   1.222   8.357   5.404
16504TIP3    H249390   1.284   8.266   5.299
16505TIP3   OH249391   2.843   8.741   6.541
16505TIP3    H149392   2.764   8.706   6.495
16505TIP3    H249393   2.820   8.836   6.544
16506TIP3   OH249394   4.108   8.113   5.309
16506TIP3    H149395   4.079   8.204   5.288
16506TIP3    H249396   4.031   8.063   5.275
16507TIP3   OH249397   4.104   8.113   5.688
16507TIP3    H149398   4.136   8.080   5.774
16507TIP3    H249399   4.064   8.034   5.650
16508TIP3   OH249400   3.406   8.009   6.053
16508TIP3    H149401   3.437   7.941   6.116
16508TIP3    H249402   3.486   8.063   6.044
16509TIP3   OH249403   4.347   8.415   5.369
16509TIP3    H149404   4.337   8.342   5.431
16509TIP3    H249405   4.378   8.487   5.426
16510TIP3   OH249406   3.377   8.418   5.781
16510TIP3    H149407   3.367   8.320   5.783
16510TIP3    H249408   3.474   8.425   5.775
16511TIP3   OH249409   3.085   7.626   5.565
16511TIP3    H149410   3.031   7.707   5.576
16511TIP3    H249411   3.017   7.565   5.533
16512TIP3   OH249412   3.146   7.910   5.734
16512TIP3    H149413   3.192   7.832   5.773
16512TIP3    H249414   3.200   7.929   5.657
16513TIP3   OH249415   3.999   8.878   5.386
16513TIP3    H149416   4.045   8.807   5.336
16513TIP3    H249417   3.993   8.838   5.474
16514TIP3   OH249418   3.905   8.339   5.736
16514TIP3    H149419   3.940   8.260   5.690
16514TIP3    H249420   3.991   8.381   5.758
16515TIP3   OH249421   4.916   7.659   5.733
16515TIP3    H149422   4.946   7.741   5.776
16515TIP3    H249423   4.943   7.675   5.641
16516TIP3   OH249424   4.317   7.842   5.770
16516TIP3    H149425   4.360   7.756   5.790
16516TIP3    H249426   4.287   7.826   5.679
16517TIP3   OH249427   3.654   7.500   5.735
16517TIP3    H149428   3.632   7.572   5.672
16517TIP3    H249429   3.607   7.425   5.692
16518TIP3   OH249430   4.347   7.590   5.358
16518TIP3    H149431   4.420   7.574   5.423
16518TIP3    H249432   4.399   7.625   5.283
16519TIP3   OH249433   3.290   7.703   5.841
16519TIP3    H149434   3.372   7.680   5.888
16519TIP3    H249435   3.299   7.645   5.762
16520TIP3   OH249436   3.730   7.900   5.633
16520TIP3    H149437   3.823   7.873   5.647
16520TIP3    H249438   3.690   7.816   5.602
16521TIP3   OH249439   4.991   7.865   5.903
16521TIP3    H149440   4.908   7.913   5.885
16521TIP3    H249441   5.003   7.886   5.997
16522TIP3   OH249442   3.653   7.483   6.169
16522TIP3    H149443   3.591   7.518   6.102
16522TIP3    H249444   3.601   7.498   6.251
16523TIP3   OH249445   4.002   8.334   5.178
16523TIP3    H149446   3.958   8.307   5.097
16523TIP3    H249447   3.956   8.419   5.198
16524TIP3   OH249448   3.759   8.257   5.966
16524TIP3    H149449   3.694   8.321   6.004
16524TIP3    H249450   3.800   8.310   5.894
16525TIP3   OH249451   4.559   7.592   5.527
16525TIP3    H149452   4.556   7.539   5.607
16525TIP3    H249453   4.617   7.666   5.553
16526TIP3   OH249454   3.522   7.598   5.954
16526TIP3    H149455   3.586   7.670   5.976
16526TIP3    H249456   3.570   7.556   5.879
16527TIP3   OH249457   3.585   8.450   6.063
16527TIP3    H149458   3.558   8.534   6.022
16527TIP3    H249459   3.506   8.433   6.120
16528TIP3   OH249460   2.984   8.140   5.298
16528TIP3    H149461   2.939   8.165   5.214
16528TIP3    H249462   3.011   8.226   5.334
16529TIP3   OH249463   4.421   8.657   5.541
16529TIP3    H149464   4.330   8.647   5.578
16529TIP3    H249465   4.412   8.742   5.493
16530TIP3   OH249466   4.711   7.560   5.901
16530TIP3    H149467   4.623   7.589   5.871
16530TIP3    H249468   4.769   7.590   5.828
16531TIP3   OH249469   4.011   7.203   5.882
16531TIP3    H149470   3.998   7.108   5.899
16531TIP3    H249471   3.932   7.240   5.928
16532TIP3   OH249472   4.124   8.706   5.214
16532TIP3    H149473   4.173   8.623   5.193
16532TIP3    H249474   4.184   8.771   5.169
16533TIP3   OH249475   4.264   8.491   5.116
16533TIP3    H149476   4.229   8.411   5.075
16533TIP3    H249477   4.299   8.455   5.201
16534TIP3   OH249478   4.647   8.573   5.880
16534TIP3    H149479   4.637   8.493   5.823
16534TIP3    H249480   4.633   8.645   5.816
16535TIP3   OH249481   3.939   7.966   5.137
16535TIP3    H149482   3.857   8.014   5.113
16535TIP3    H249483   3.985   7.960   5.052
16536TIP3   OH249484   3.897   7.748   4.857
16536TIP3    H149485   3.967   7.797   4.904
16536TIP3    H249486   3.952   7.683   4.809
16537TIP3   OH249487   4.842   8.207   5.726
16537TIP3    H149488   4.759   8.260   5.731
16537TIP3    H249489   4.870   8.228   5.634
16538TIP3   OH249490   4.285   8.047   5.110
16538TIP3    H149491   4.231   8.072   5.189
16538TIP3    H249492   4.368   8.019   5.154
16539TIP3   OH249493   4.521   8.087   6.019
16539TIP3    H149494   4.517   8.170   6.070
16539TIP3    H249495   4.435   8.090   5.974
16540TIP3   OH249496   3.518   8.046   5.525
16540TIP3    H149497   3.475   7.988   5.459
16540TIP3    H249498   3.594   7.991   5.554
16541TIP3   OH249499   3.649   8.459   5.674
16541TIP3    H149500   3.626   8.411   5.593
16541TIP3    H249501   3.738   8.424   5.693
16542TIP3   OH249502   3.656   8.015   5.882
16542TIP3    H149503   3.687   7.995   5.791
16542TIP3    H249504   3.698   8.101   5.901
16543TIP3   OH249505   4.177   8.655   5.657
16543TIP3    H149506   4.166   8.731   5.716
16543TIP3    H249507   4.166   8.578   5.718
16544TIP3   OH249508   3.791   8.575   6.203
16544TIP3    H149509   3.731   8.636   6.251
16544TIP3    H249510   3.725   8.519   6.156
16545TIP3   OH249511   4.127   7.904   4.936
16545TIP3    H149512   4.186   7.963   4.989
16545TIP3    H249513   4.153   7.930   4.844
16546TIP3   OH249514   3.545   8.132   6.302
16546TIP3    H149515   3.548   8.217   6.351
16546TIP3    H249516   3.450   8.110   6.310
16547TIP3   OH249517   3.868   8.586   5.212
16547TIP3    H149518   3.946   8.640   5.232
16547TIP3    H249519   3.807   8.649   5.172
16548TIP3   OH249520   3.585   8.745   6.292
16548TIP3    H149521   3.552   8.738   6.200
16548TIP3    H249522   3.506   8.721   6.345
16549TIP3   OH249523   4.641   7.146   4.982
16549TIP3    H149524   4.561   7.165   5.035
16549TIP3    H249525   4.653   7.231   4.934
16550TIP3   OH249526   3.383   7.888   5.333
16550TIP3    H149527   3.318   7.931   5.274
16550TIP3    H249528   3.344   7.801   5.346
16551TIP3   OH249529   4.440   8.514   4.533
16551TIP3    H149530   4.450   8.610   4.517
16551TIP3    H249531   4.533   8.483   4.519
16552TIP3   OH249532   3.167   8.271   6.237
16552TIP3    H149533   3.101   8.247   6.169
16552TIP3    H249534   3.202   8.184   6.264
16553TIP3   OH249535   3.019   8.465   5.868
16553TIP3    H149536   3.114   8.455   5.861
16553TIP3    H249537   3.011   8.543   5.926
16554TIP3   OH249538   4.882   8.913   5.924
16554TIP3    H149539   4.883   8.817   5.937
16554TIP3    H249540   4.800   8.937   5.971
16555TIP3   OH249541   3.989   8.703   6.060
16555TIP3    H149542   3.989   8.796   6.094
16555TIP3    H249543   3.918   8.663   6.115
16556TIP3   OH249544   3.748   8.832   5.012
16556TIP3    H149545   3.703   8.808   4.929
16556TIP3    H249546   3.715   8.921   5.031
16557TIP3   OH249547   3.188   8.682   5.396
16557TIP3    H149548   3.234   8.670   5.482
16557TIP3    H249549   3.130   8.603   5.396
16558TIP3   OH249550   3.953   8.732   4.654
16558TIP3    H149551   4.011   8.662   4.617
16558TIP3    H249552   3.987   8.739   4.746
16559TIP3   OH249553   4.002   8.780   4.925
16559TIP3    H149554   3.913   8.788   4.967
16559TIP3    H249555   4.051   8.733   4.994
16560TIP3   OH249556   4.775   8.048   6.199
16560TIP3    H149557   4.694   8.058   6.147
16560TIP3    H249558   4.791   7.952   6.192
16561TIP3   OH249559   3.369   8.457   6.231
16561TIP3    H149560   3.421   8.435   6.311
16561TIP3    H249561   3.297   8.391   6.235
16562TIP3   OH249562   3.770   7.279   6.008
16562TIP3    H149563   3.680   7.247   5.984
16562TIP3    H249564   3.745   7.361   6.055
16563TIP3   OH249565   4.302   7.394   6.205
16563TIP3    H149566   4.370   7.366   6.270
16563TIP3    H249567   4.218   7.373   6.250
16564TIP3   OH249568   4.545   7.822   6.123
16564TIP3    H149569   4.496   7.818   6.209
16564TIP3    H249570   4.518   7.909   6.089
16565TIP3   OH249571   4.203   7.956   4.680
16565TIP3    H149572   4.169   7.927   4.593
16565TIP3    H249573   4.284   8.002   4.654
16566TIP3   OH249574   3.917   7.328   4.981
16566TIP3    H149575   3.884   7.326   5.073
16566TIP3    H249576   3.878   7.245   4.948
16567TIP3   OH249577   3.703   7.793   6.030
16567TIP3    H149578   3.650   7.812   6.111
16567TIP3    H249579   3.685   7.873   5.976
16568TIP3   OH249580   3.584   7.680   5.543
16568TIP3    H149581   3.492   7.652   5.560
16568TIP3    H249582   3.599   7.639   5.455
16569TIP3   OH249583   4.076   7.767   5.270
16569TIP3    H149584   4.022   7.837   5.229
16569TIP3    H249585   4.130   7.736   5.195
16570TIP3   OH249586   4.251   8.047   6.361
16570TIP3    H149587   4.229   7.973   6.420
16570TIP3    H249588   4.346   8.058   6.380
16571TIP3   OH249589   4.234   7.795   5.510
16571TIP3    H149590   4.175   7.824   5.438
16571TIP3    H249591   4.267   7.712   5.469
16572TIP3   OH249592   3.520   7.822   6.238
16572TIP3    H149593   3.546   7.883   6.310
16572TIP3    H249594   3.506   7.739   6.287
16573TIP3   OH249595   3.571   7.300   4.948
16573TIP3    H149596   3.564   7.296   5.045
16573TIP3    H249597   3.490   7.349   4.925
16574TIP3   OH249598   3.115   7.355   5.813
16574TIP3    H149599   3.192   7.376   5.869
16574TIP3    H249600   3.152   7.308   5.736
16575TIP3   OH249601   3.091   7.326   5.337
16575TIP3    H149602   3.136   7.366   5.260
16575TIP3    H249603   3.029   7.398   5.360
16576TIP3   OH249604   4.245   8.042   5.934
16576TIP3    H149605   4.277   7.969   5.876
16576TIP3    H249606   4.216   7.990   6.012
16577TIP3   OH249607   3.911   7.505   5.606
16577TIP3    H149608   3.828   7.500   5.657
16577TIP3    H249609   3.978   7.501   5.675
16578TIP3   OH249610   3.348   7.557   5.613
16578TIP3    H149611   3.252   7.563   5.588
16578TIP3    H249612   3.370   7.464   5.592
16579TIP3   OH249613   3.618   7.555   5.301
16579TIP3    H149614   3.713   7.569   5.279
16579TIP3    H249615   3.572   7.578   5.217
16580TIP3   OH249616   4.404   7.578   5.807
16580TIP3    H149617   4.367   7.589   5.898
16580TIP3    H249618   4.340   7.515   5.769
16581TIP3   OH249619   3.455   7.589   5.081
16581TIP3    H149620   3.382   7.543   5.035
16581TIP3    H249621   3.506   7.622   5.005
16582TIP3   OH249622   4.571   9.268   6.024
16582TIP3    H149623   4.572   9.287   5.929
16582TIP3    H249624   4.653   9.313   6.054
16583TIP3   OH249625   3.531   8.379   6.447
16583TIP3    H149626   3.611   8.407   6.496
16583TIP3    H249627   3.466   8.373   6.521
16584TIP3   OH249628   3.997   7.830   5.703
16584TIP3    H149629   4.067   7.788   5.652
16584TIP3    H249630   4.006   7.787   5.790
16585TIP3   OH249631   3.522   7.317   5.580
16585TIP3    H149632   3.486   7.238   5.625
16585TIP3    H249633   3.573   7.278   5.507
16586TIP3   OH249634   3.973   7.725   5.991
16586TIP3    H149635   3.883   7.760   6.006
16586TIP3    H249636   4.030   7.784   6.044
16587TIP3   OH249637   3.708   8.119   5.086
16587TIP3    H149638   3.637   8.052   5.076
16587TIP3    H249639   3.692   8.151   5.178
16588TIP3   OH249640   4.610   8.355   5.718
16588TIP3    H149641   4.635   8.401   5.635
16588TIP3    H249642   4.525   8.312   5.694
16589TIP3   OH249643   4.168   7.431   4.945
16589TIP3    H149644   4.071   7.415   4.955
16589TIP3    H249645   4.177   7.525   4.971
16590TIP3   OH249646   4.113   8.438   6.083
16590TIP3    H149647   4.128   8.407   6.173
16590TIP3    H249648   4.069   8.523   6.095
16591TIP3   OH249649   4.238   7.676   5.052
16591TIP3    H149650   4.334   7.681   5.068
16591TIP3    H249651   4.221   7.755   4.997
16592TIP3   OH249652   3.404   8.142   5.764
16592TIP3    H149653   3.440   8.111   5.679
16592TIP3    H249654   3.436   8.074   5.825
16593TIP3   OH249655   3.854   8.267   4.907
16593TIP3    H149656   3.808   8.354   4.916
16593TIP3    H249657   3.800   8.211   4.966
16594TIP3   OH249658   3.279   8.061   6.377
16594TIP3    H149659   3.300   8.044   6.471
16594TIP3    H249660   3.212   7.993   6.358
16595TIP3   OH249661   4.006   8.173   6.396
16595TIP3    H149662   3.947   8.114   6.346
16595TIP3    H249663   4.094   8.139   6.369
16596TIP3   OH249664   4.270   8.703   5.975
16596TIP3    H149665   4.175   8.692   5.989
16596TIP3    H249666   4.296   8.750   6.058
16597TIP3   OH249667   4.681   7.765   4.889
16597TIP3    H149668   4.618   7.719   4.829
16597TIP3    H249669   4.675   7.854   4.848
16598TIP3   OH249670   4.897   8.625   5.969
16598TIP3    H149671   4.799   8.618   5.962
16598TIP3    H249672   4.923   8.594   5.879
16599TIP3   OH249673   4.378   8.585   4.796
16599TIP3    H149674   4.356   8.513   4.857
16599TIP3    H249675   4.391   8.539   4.712
16600TIP3   OH249676   4.375   8.215   5.638
16600TIP3    H149677   4.282   8.188   5.650
16600TIP3    H249678   4.411   8.136   5.592
16601TIP3   OH249679   3.500   8.442   5.390
16601TIP3    H149680   3.502   8.523   5.334
16601TIP3    H249681   3.406   8.424   5.394
16602TIP3   OH249682   3.064   7.748   5.089
16602TIP3    H149683   3.111   7.830   5.111
16602TIP3    H249684   2.987   7.753   5.150
16603TIP3   OH249685   3.644   8.211   5.334
16603TIP3    H149686   3.607   8.299   5.353
16603TIP3    H249687   3.607   8.158   5.407
16604TIP3   OH249688   3.770   8.787   5.859
16604TIP3    H149689   3.813   8.857   5.806
16604TIP3    H249690   3.847   8.750   5.907
16605TIP3   OH249691   3.422   8.681   5.241
16605TIP3    H149692   3.335   8.687   5.286
16605TIP3    H249693   3.451   8.775   5.243
16606TIP3   OH249694   4.164   8.423   5.814
16606TIP3    H149695   4.155   8.419   5.912
16606TIP3    H249696   4.240   8.365   5.800
16607TIP3   OH249697   4.132   8.314   4.698
16607TIP3    H149698   4.185   8.289   4.777
16607TIP3    H249699   4.044   8.285   4.727
16608TIP3   OH249700   4.408   8.959   5.871
16608TIP3    H149701   4.333   8.897   5.864
16608TIP3    H249702   4.391   9.019   5.795
16609TIP3   OH249703   4.474   8.789   4.518
16609TIP3    H149704   4.514   8.861   4.467
16609TIP3    H249705   4.394   8.836   4.550
16610TIP3   OH249706   3.494   7.567   6.386
16610TIP3    H149707   3.397   7.570   6.398
16610TIP3    H249708   3.520   7.502   6.454
16611TIP3   OH249709   4.293   8.250   4.917
16611TIP3    H149710   4.282   8.182   4.986
16611TIP3    H249711   4.390   8.246   4.903
16612TIP3   OH249712   3.211   8.653   6.018
16612TIP3    H149713   3.258   8.571   6.041
16612TIP3    H249714   3.243   8.711   6.088
16613TIP3   OH249715   3.501   8.295   4.697
16613TIP3    H149716   3.515   8.203   4.666
16613TIP3    H249717   3.482   8.280   4.792
16614TIP3   OH249718   3.446   8.299   4.970
16614TIP3    H149719   3.517   8.269   5.030
16614TIP3    H249720   3.453   8.396   4.978
16615TIP3   OH249721   3.184   7.993   5.172
16615TIP3    H149722   3.117   8.036   5.230
16615TIP3    H249723   3.198   8.063   5.106
16616TIP3   OH249724   4.327   7.631   6.066
16616TIP3    H149725   4.409   7.667   6.105
16616TIP3    H249726   4.313   7.550   6.119
16617TIP3   OH249727   4.208   7.383   5.228
16617TIP3    H149728   4.195   7.407   5.134
16617TIP3    H249729   4.248   7.465   5.264
16618TIP3   OH249730   3.712   8.498   4.921
16618TIP3    H149731   3.625   8.526   4.955
16618TIP3    H249732   3.726   8.563   4.851
16619TIP3   OH249733   3.901   7.559   5.332
16619TIP3    H149734   3.967   7.630   5.315
16619TIP3    H249735   3.905   7.553   5.430
16620TIP3   OH249736   4.169   7.880   6.141
16620TIP3    H149737   4.188   7.932   6.222
16620TIP3    H249738   4.225   7.801   6.154
16621TIP3   OH249739   4.046   7.290   5.437
16621TIP3    H149740   4.040   7.367   5.497
16621TIP3    H249741   4.105   7.327   5.367
16622TIP3   OH249742   3.454   8.573   4.985
16622TIP3    H149743   3.423   8.642   4.922
16622TIP3    H249744   3.437   8.616   5.071
16623TIP3   OH249745   3.556   7.284   5.224
16623TIP3    H149746   3.553   7.374   5.261
16623TIP3    H249747   3.652   7.265   5.233
16624TIP3   OH249748   4.812   7.780   6.118
16624TIP3    H149749   4.714   7.778   6.127
16624TIP3    H249750   4.820   7.738   6.031
16625TIP3   OH249751   4.460   7.975   5.510
16625TIP3    H149752   4.385   7.914   5.521
16625TIP3    H249753   4.533   7.928   5.556
16626TIP3   OH249754   3.172   8.205   4.979
16626TIP3    H149755   3.238   8.276   4.987
16626TIP3    H249756   3.218   8.150   4.912
16627TIP3   OH249757   3.120   7.478   5.110
16627TIP3    H149758   3.115   7.576   5.106
16627TIP3    H249759   3.035   7.452   5.075
16628TIP3   OH249760   4.427   8.931   5.460
16628TIP3    H149761   4.386   8.977   5.385
16628TIP3    H249762   4.522   8.948   5.440
16629TIP3   OH249763   3.506   7.199   5.986
16629TIP3    H149764   3.473   7.165   5.901
16629TIP3    H249765   3.495   7.120   6.045
16630TIP3   OH249766   3.050   8.425   5.371
16630TIP3    H149767   2.971   8.449   5.421
16630TIP3    H249768   3.025   8.458   5.281
16631TIP3   OH249769   3.198   8.955   6.438
16631TIP3    H149770   3.285   8.950   6.483
16631TIP3    H249771   3.174   8.860   6.435
16632TIP3   OH249772   3.686   8.927   6.479
16632TIP3    H149773   3.779   8.899   6.489
16632TIP3    H249774   3.658   8.868   6.406
16633TIP3   OH249775   3.665   8.499   4.615
16633TIP3    H149776   3.608   8.427   4.650
16633TIP3    H249777   3.739   8.446   4.579
16634TIP3   OH249778   4.319   8.830   6.217
16634TIP3    H149779   4.311   8.758   6.283
16634TIP3    H249780   4.400   8.876   6.247
16635TIP3   OH249781   4.101   8.542   4.522
16635TIP3    H149782   4.145   8.476   4.580
16635TIP3    H249783   4.158   8.540   4.442
16636TIP3   OH249784   3.331   8.364   6.639
16636TIP3    H149785   3.349   8.268   6.643
16636TIP3    H249786   3.243   8.365   6.595
16637TIP3   OH249787   3.308   8.018   4.830
16637TIP3    H149788   3.361   7.980   4.902
16637TIP3    H249789   3.376   8.021   4.759
16638TIP3   OH249790   3.939   8.447   6.411
16638TIP3    H149791   3.897   8.459   6.324
16638TIP3    H249792   3.971   8.354   6.407
16639TIP3   OH249793   3.815   8.213   4.637
16639TIP3    H149794   3.818   8.226   4.734
16639TIP3    H249795   3.815   8.115   4.632
16640TIP3   OH249796   4.433   8.454   6.018
16640TIP3    H149797   4.505   8.501   5.972
16640TIP3    H249798   4.359   8.516   6.004
16641TIP3   OH249799   3.450   8.100   6.618
16641TIP3    H149800   3.518   8.034   6.600
16641TIP3    H249801   3.474   8.129   6.708
16642TIP3   OH249802   3.519   7.917   5.056
16642TIP3    H149803   3.491   7.874   5.138
16642TIP3    H249804   3.553   7.842   5.003
16643TIP3   OH249805   3.786   7.984   6.284
16643TIP3    H149806   3.707   8.043   6.286
16643TIP3    H249807   3.832   8.016   6.203
16644TIP3   OH249808   3.616   7.711   4.895
16644TIP3    H149809   3.589   7.710   4.801
16644TIP3    H249810   3.713   7.718   4.887
16645TIP3   OH249811   4.303   8.386   6.416
16645TIP3    H149812   4.383   8.362   6.367
16645TIP3    H249813   4.301   8.317   6.485
16646TIP3   OH249814   4.439   8.045   4.555
16646TIP3    H149815   4.418   7.996   4.473
16646TIP3    H249816   4.408   8.134   4.529
16647TIP3   OH249817   3.908   7.770   6.411
16647TIP3    H149818   3.908   7.689   6.356
16647TIP3    H249819   3.865   7.835   6.351
16648TIP3   OH249820   3.911   7.557   6.215
16648TIP3    H149821   3.938   7.596   6.129
16648TIP3    H249822   3.817   7.533   6.198
16649TIP3   OH249823   3.941   8.095   6.089
16649TIP3    H149824   4.022   8.096   6.035
16649TIP3    H249825   3.885   8.161   6.044
16650TIP3   OH249826   4.520   8.062   6.468
16650TIP3    H149827   4.565   7.979   6.493
16650TIP3    H249828   4.594   8.115   6.435
16651TIP3   OH249829   4.563   8.313   6.208
16651TIP3    H149830   4.505   8.366   6.147
16651TIP3    H249831   4.650   8.331   6.167
16652TIP3   OH249832   3.785   7.886   6.638
16652TIP3    H149833   3.717   7.816   6.651
16652TIP3    H249834   3.820   7.860   6.550
16653TIP3   OH249835   4.043   7.321   6.281
16653TIP3    H149836   3.994   7.404   6.259
16653TIP3    H249837   3.973   7.254   6.269
16654TIP3   OH249838   4.168   7.828   6.498
16654TIP3    H149839   4.158   7.815   6.594
16654TIP3    H249840   4.079   7.802   6.469
16655TIP3   OH249841   4.408   7.775   6.352
16655TIP3    H149842   4.333   7.775   6.414
16655TIP3    H249843   4.482   7.745   6.409
16656TIP3   OH249844   4.634   7.713   6.503
16656TIP3    H149845   4.649   7.619   6.526
16656TIP3    H249846   4.631   7.757   6.591
16657TIP3   OH249847   3.628   7.665   6.688
16657TIP3    H149848   3.630   7.574   6.652
16657TIP3    H249849   3.662   7.648   6.779
16658TIP3   OH249850   4.140   7.331   6.537
16658TIP3    H149851   4.207   7.260   6.532
16658TIP3    H249852   4.098   7.324   6.449
16659TIP3   OH249853   4.202   7.544   6.699
16659TIP3    H149854   4.181   7.474   6.634
16659TIP3    H249855   4.125   7.604   6.691
16660TIP3   OH249856   3.424   8.778   4.800
16660TIP3    H149857   3.519   8.774   4.777
16660TIP3    H249858   3.390   8.821   4.719
16661TIP3   OH249859   2.904   8.156   5.015
16661TIP3    H149860   2.999   8.177   5.002
16661TIP3    H249861   2.898   8.067   4.974
16662TIP3   OH249862   2.817   8.769   5.427
16662TIP3    H149863   2.749   8.707   5.393
16662TIP3    H249864   2.861   8.713   5.494
16663TIP3   OH249865   2.952   8.625   5.616
16663TIP3    H149866   2.942   8.547   5.672
16663TIP3    H249867   3.003   8.683   5.675
16664TIP3   OH249868   4.677   9.028   5.413
16664TIP3    H149869   4.710   9.055   5.500
16664TIP3    H249870   4.746   9.062   5.353
16665TIP3   OH249871   4.712   9.042   5.697
16665TIP3    H149872   4.667   8.955   5.692
16665TIP3    H249873   4.788   9.017   5.753
16666TIP3   OH249874   4.755   8.720   6.267
16666TIP3    H149875   4.684   8.725   6.333
16666TIP3    H249876   4.797   8.808   6.275
16667TIP3   OH249877   4.572   8.232   4.890
16667TIP3    H149878   4.643   8.293   4.862
16667TIP3    H249879   4.613   8.191   4.969
16668TIP3   OH249880   4.699   8.101   5.094
16668TIP3    H149881   4.635   8.056   5.153
16668TIP3    H249882   4.766   8.136   5.156
16669TIP3   OH249883   4.753   8.488   5.525
16669TIP3    H149884   4.808   8.424   5.476
16669TIP3    H249885   4.744   8.561   5.460
16670TIP3   OH249886   4.588   8.792   5.720
16670TIP3    H149887   4.516   8.828   5.774
16670TIP3    H249888   4.539   8.741   5.652
16671TIP3   OH249889   4.637   8.005   4.742
16671TIP3    H149890   4.567   8.009   4.674
16671TIP3    H249891   4.611   8.082   4.797
16672TIP3   OH249892   4.510   7.678   4.696
16672TIP3    H149893   4.469   7.718   4.618
16672TIP3    H249894   4.485   7.584   4.685
16673TIP3   OH249895   4.515   7.953   5.240
16673TIP3    H149896   4.524   7.856   5.235
16673TIP3    H249897   4.502   7.968   5.336
16674TIP3   OH249898   3.142   8.031   5.985
16674TIP3    H149899   3.141   7.998   5.892
16674TIP3    H249900   3.239   8.030   6.003
16675TIP3   OH249901   4.804   8.378   6.096
16675TIP3    H149902   4.876   8.312   6.089
16675TIP3    H249903   4.833   8.447   6.034
16676TIP3   OH249904   4.991   8.187   6.119
16676TIP3    H149905   4.916   8.135   6.155
16676TIP3    H249906   5.063   8.122   6.131
16677TIP3   OH249907   4.455   7.412   4.679
16677TIP3    H149908   4.531   7.383   4.734
16677TIP3    H249909   4.382   7.354   4.708
16678TIP3   OH249910   4.510   7.670   5.136
16678TIP3    H149911   4.551   7.581   5.152
16678TIP3    H249912   4.570   7.702   5.067
16679TIP3   OH249913   4.674   7.848   5.629
16679TIP3    H149914   4.760   7.873   5.590
16679TIP3    H249915   4.687   7.881   5.720
16680TIP3   OH249916   4.741   7.988   5.864
16680TIP3    H149917   4.663   8.022   5.911
16680TIP3    H249918   4.773   8.068   5.818
16681TIP3   OH249919   3.361   7.719   6.672
16681TIP3    H149920   3.458   7.705   6.666
16681TIP3    H249921   3.333   7.631   6.705
16682TIP3   OH249922   5.197   7.578   6.419
16682TIP3    H149923   5.252   7.511   6.373
16682TIP3    H249924   5.167   7.634   6.345
16683TIP3   OH249925   4.618   7.420   5.174
16683TIP3    H149926   4.669   7.404   5.256
16683TIP3    H249927   4.560   7.342   5.173
16684TIP3   OH249928   3.321   7.406   5.991
16684TIP3    H149929   3.382   7.331   6.003
16684TIP3    H249930   3.383   7.480   5.987
16685TIP3   OH249931   3.125   7.682   6.066
16685TIP3    H149932   3.172   7.670   5.981
16685TIP3    H249933   3.159   7.767   6.095
16686TIP3   OH249934   5.068   7.720   6.228
16686TIP3    H149935   4.982   7.758   6.254
16686TIP3    H249936   5.037   7.650   6.167
16687TIP3   OH249937   4.699   7.357   4.803
16687TIP3    H149938   4.745   7.284   4.758
16687TIP3    H249939   4.766   7.429   4.800
16688TIP3   OH249940   3.107   7.189   5.570
16688TIP3    H149941   3.013   7.181   5.594
16688TIP3    H249942   3.103   7.243   5.489
16689TIP3   OH249943   4.264   8.890   5.072
16689TIP3    H149944   4.313   8.869   4.990
16689TIP3    H249945   4.326   8.950   5.116
16690TIP3   OH249946   3.330   7.268   6.375
16690TIP3    H149947   3.280   7.257   6.459
16690TIP3    H249948   3.259   7.303   6.318
16691TIP3   OH249949   3.365   8.695   6.461
16691TIP3    H149950   3.276   8.661   6.440
16691TIP3    H249951   3.375   8.667   6.553
16692TIP3   OH249952   3.543   8.722   6.008
16692TIP3    H149953   3.495   8.796   5.967
16692TIP3    H249954   3.629   8.735   5.963
16693TIP3   OH249955   3.991   8.970   6.146
16693TIP3    H149956   4.034   8.969   6.233
16693TIP3    H249957   4.058   9.018   6.092
16694TIP3   OH249958   4.169   9.120   5.999
16694TIP3    H149959   4.238   9.066   5.958
16694TIP3    H249960   4.222   9.175   6.061
16695TIP3   OH249961   4.962   7.482   6.103
16695TIP3    H149962   4.871   7.477   6.069
16695TIP3    H249963   4.992   7.390   6.089
16696TIP3   OH249964   3.224   8.988   6.024
16696TIP3    H149965   3.133   9.020   6.003
16696TIP3    H249966   3.224   8.999   6.120
16697TIP3   OH249967   3.460   8.962   5.886
16697TIP3    H149968   3.373   8.974   5.932
16697TIP3    H249969   3.437   8.989   5.795
16698TIP3   OH249970   3.884   8.990   5.683
16698TIP3    H149971   3.814   9.009   5.618
16698TIP3    H249972   3.896   9.077   5.726
16699TIP3   OH249973   4.152   8.931   5.737
16699TIP3    H149974   4.058   8.944   5.714
16699TIP3    H249975   4.194   9.005   5.691
16700TIP3   OH249976   4.362   9.122   5.651
16700TIP3    H149977   4.347   9.205   5.601
16700TIP3    H249978   4.387   9.060   5.580
16701TIP3   OH249979   3.134   8.777   5.776
16701TIP3    H149980   3.161   8.748   5.866
16701TIP3    H249981   3.204   8.731   5.724
16702TIP3   OH249982   3.325   8.646   5.631
16702TIP3    H149983   3.340   8.560   5.677
16702TIP3    H249984   3.416   8.681   5.625
16703TIP3   OH249985   3.593   8.743   5.631
16703TIP3    H149986   3.622   8.651   5.616
16703TIP3    H249987   3.635   8.760   5.717
16704TIP3   OH249988   4.166   7.397   5.719
16704TIP3    H149989   4.124   7.328   5.773
16704TIP3    H249990   4.238   7.348   5.675
16705TIP3   OH249991   4.693   7.278   5.628
16705TIP3    H149992   4.730   7.329   5.553
16705TIP3    H249993   4.597   7.295   5.619
16706TIP3   OH249994   4.787   7.379   5.391
16706TIP3    H149995   4.858   7.326   5.350
16706TIP3    H249996   4.822   7.470   5.374
16707TIP3   OH249997   3.417   7.106   5.738
16707TIP3    H149998   3.325   7.073   5.740
16707TIP3    H249999   3.467   7.021   5.735
16708TIP3   OH250000   3.201   6.974   5.382
16708TIP3    H150001   3.231   7.035   5.312
16708TIP3    H250002   3.172   7.036   5.452
16709TIP3   OH250003   3.859   7.139   5.616
16709TIP3    H150004   3.920   7.190   5.560
16709TIP3    H250005   3.878   7.175   5.704
16710TIP3   OH250006   4.410   7.284   5.602
16710TIP3    H150007   4.405   7.248   5.513
16710TIP3    H250008   4.395   7.203   5.656
16711TIP3   OH250009   4.437   7.205   5.163
16711TIP3    H150010   4.350   7.246   5.173
16711TIP3    H250011   4.423   7.120   5.211
16712TIP3   OH250012   2.921   8.543   5.166
16712TIP3    H150013   2.837   8.508   5.131
16712TIP3    H250014   2.907   8.638   5.149
16713TIP3   OH250015   3.319   7.138   5.147
16713TIP3    H150016   3.368   7.073   5.093
16713TIP3    H250017   3.392   7.190   5.186
16714TIP3   OH250018   3.833   7.309   5.247
16714TIP3    H150019   3.892   7.261   5.308
16714TIP3    H250020   3.855   7.401   5.273
16715TIP3   OH250021   3.692   8.738   4.745
16715TIP3    H150022   3.781   8.758   4.710
16715TIP3    H250023   3.670   8.661   4.688
16716TIP3   OH250024   4.410   8.851   4.840
16716TIP3    H150025   4.402   8.753   4.827
16716TIP3    H250026   4.367   8.884   4.758
16717TIP3   OH250027   3.625   7.391   6.629
16717TIP3    H150028   3.587   7.322   6.686
16717TIP3    H250029   3.719   7.388   6.657
16718TIP3   OH250030   3.874   7.386   6.751
16718TIP3    H150031   3.956   7.355   6.709
16718TIP3    H250032   3.858   7.315   6.816
16719TIP3   OH250033   2.998   8.576   4.805
16719TIP3    H150034   2.995   8.597   4.900
16719TIP3    H250035   3.086   8.532   4.796
16720TIP3   OH250036   4.697   7.443   6.536
16720TIP3    H150037   4.718   7.414   6.627
16720TIP3    H250038   4.785   7.439   6.493
16721TIP3   OH250039   4.638   8.998   6.030
16721TIP3    H150040   4.559   8.964   5.982
16721TIP3    H250041   4.617   9.094   6.031
16722TIP3   OH250042   5.904   8.369   4.796
16722TIP3    H150043   5.876   8.461   4.775
16722TIP3    H250044   5.828   8.320   4.763
16723TIP3   OH250045   5.899   8.370   5.175
16723TIP3    H150046   5.932   8.337   5.261
16723TIP3    H250047   5.861   8.289   5.137
16724TIP3   OH250048   5.201   8.267   5.542
16724TIP3    H150049   5.234   8.199   5.604
16724TIP3    H250050   5.282   8.318   5.528
16725TIP3   OH250051   6.144   8.671   4.856
16725TIP3    H150052   6.133   8.599   4.920
16725TIP3    H250053   6.174   8.744   4.911
16726TIP3   OH250054   5.172   8.674   5.268
16726TIP3    H150055   5.164   8.576   5.270
16726TIP3    H250056   5.269   8.682   5.261
16727TIP3   OH250057   4.879   7.883   5.054
16727TIP3    H150058   4.827   7.965   5.062
16727TIP3    H250059   4.811   7.823   5.018
16728TIP3   OH250060   4.941   8.165   5.220
16728TIP3    H150061   4.988   8.087   5.258
16728TIP3    H250062   4.998   8.186   5.145
16729TIP3   OH250063   5.793   9.133   4.872
16729TIP3    H150064   5.841   9.062   4.823
16729TIP3    H250065   5.791   9.096   4.961
16730TIP3   OH250066   5.701   8.595   5.223
16730TIP3    H150067   5.738   8.517   5.177
16730TIP3    H250068   5.786   8.638   5.246
16731TIP3   OH250069   6.712   7.917   5.219
16731TIP3    H150070   6.742   7.998   5.265
16731TIP3    H250071   6.734   7.938   5.127
16732TIP3   OH250072   6.114   8.099   5.257
16732TIP3    H150073   6.155   8.013   5.277
16732TIP3    H250074   6.083   8.083   5.166
16733TIP3   OH250075   5.444   7.748   5.216
16733TIP3    H150076   5.423   7.819   5.151
16733TIP3    H250077   5.397   7.673   5.176
16734TIP3   OH250078   6.144   7.846   4.846
16734TIP3    H150079   6.217   7.830   4.910
16734TIP3    H250080   6.195   7.882   4.771
16735TIP3   OH250081   5.085   7.958   5.329
16735TIP3    H150082   5.168   7.937   5.375
16735TIP3    H250083   5.095   7.899   5.251
16736TIP3   OH250084   5.523   8.153   5.121
16736TIP3    H150085   5.618   8.129   5.133
16736TIP3    H250086   5.486   8.070   5.085
16737TIP3   OH250087   6.787   8.123   5.388
16737TIP3    H150088   6.703   8.170   5.372
16737TIP3    H250089   6.799   8.139   5.483
16738TIP3   OH250090   5.448   7.740   5.656
16738TIP3    H150091   5.387   7.773   5.587
16738TIP3    H250092   5.396   7.758   5.736
16739TIP3   OH250093   5.797   8.590   4.666
16739TIP3    H150094   5.754   8.565   4.583
16739TIP3    H250095   5.752   8.675   4.686
16740TIP3   OH250096   5.555   8.514   5.452
16740TIP3    H150097   5.491   8.578   5.490
16740TIP3    H250098   5.597   8.566   5.382
16741TIP3   OH250099   6.358   7.847   5.014
16741TIP3    H150100   6.349   7.796   5.095
16741TIP3    H250101   6.412   7.923   5.042
16742TIP3   OH250102   5.319   7.853   5.438
16742TIP3    H150103   5.383   7.924   5.460
16742TIP3    H250104   5.365   7.811   5.362
16743TIP3   OH250105   5.380   8.707   5.549
16743TIP3    H150106   5.354   8.791   5.508
16743TIP3    H250107   5.302   8.691   5.606
16744TIP3   OH250108   4.778   8.397   4.785
16744TIP3    H150109   4.738   8.422   4.700
16744TIP3    H250110   4.809   8.482   4.821
16745TIP3   OH250111   6.217   8.913   5.026
16745TIP3    H150112   6.126   8.904   5.064
16745TIP3    H250113   6.209   8.998   4.980
16746TIP3   OH250114   6.505   7.819   5.386
16746TIP3    H150115   6.418   7.848   5.355
16746TIP3    H250116   6.564   7.849   5.314
16747TIP3   OH250117   5.808   7.461   5.370
16747TIP3    H150118   5.794   7.365   5.383
16747TIP3    H250119   5.728   7.496   5.416
16748TIP3   OH250120   5.919   8.962   4.700
16748TIP3    H150121   5.969   8.879   4.679
16748TIP3    H250122   5.979   9.027   4.657
16749TIP3   OH250123   6.060   8.747   4.604
16749TIP3    H150124   6.027   8.667   4.561
16749TIP3    H250125   6.095   8.711   4.688
16750TIP3   OH250126   6.442   8.829   5.368
16750TIP3    H150127   6.433   8.750   5.309
16750TIP3    H250128   6.428   8.902   5.305
16751TIP3   OH250129   5.734   8.222   4.623
16751TIP3    H150130   5.653   8.271   4.599
16751TIP3    H250131   5.782   8.219   4.538
16752TIP3   OH250132   5.694   8.005   4.340
16752TIP3    H150133   5.760   8.053   4.393
16752TIP3    H250134   5.752   7.942   4.294
16753TIP3   OH250135   6.638   8.463   5.211
16753TIP3    H150136   6.556   8.516   5.218
16753TIP3    H250137   6.667   8.486   5.121
16754TIP3   OH250138   6.081   8.303   4.598
16754TIP3    H150139   6.027   8.328   4.676
16754TIP3    H250140   6.164   8.276   4.641
16755TIP3   OH250141   6.317   8.344   5.507
16755TIP3    H150142   6.315   8.427   5.556
16755TIP3    H250143   6.231   8.347   5.461
16756TIP3   OH250144   5.315   8.304   5.013
16756TIP3    H150145   5.269   8.246   4.948
16756TIP3    H250146   5.390   8.248   5.041
16757TIP3   OH250147   5.443   8.713   5.162
16757TIP3    H150148   5.423   8.667   5.080
16757TIP3    H250149   5.534   8.681   5.181
16758TIP3   OH250150   5.449   8.273   5.368
16758TIP3    H150151   5.482   8.250   5.279
16758TIP3    H250152   5.494   8.358   5.388
16759TIP3   OH250153   5.973   8.911   5.144
16759TIP3    H150154   5.962   8.989   5.201
16759TIP3    H250155   5.962   8.836   5.206
16760TIP3   OH250156   5.587   8.831   5.690
16760TIP3    H150157   5.528   8.893   5.738
16760TIP3    H250158   5.521   8.776   5.643
16761TIP3   OH250159   5.924   8.161   4.423
16761TIP3    H150160   5.982   8.219   4.476
16761TIP3    H250161   5.950   8.186   4.331
16762TIP3   OH250162   5.342   8.388   5.791
16762TIP3    H150163   5.345   8.473   5.839
16762TIP3    H250164   5.247   8.368   5.797
16763TIP3   OH250165   5.663   8.843   4.699
16763TIP3    H150166   5.743   8.896   4.718
16763TIP3    H250167   5.603   8.908   4.659
16764TIP3   OH250168   5.381   9.001   5.778
16764TIP3    H150169   5.348   8.995   5.686
16764TIP3    H250170   5.302   8.978   5.831
16765TIP3   OH250171   6.438   7.403   4.470
16765TIP3    H150172   6.357   7.422   4.522
16765TIP3    H250173   6.449   7.487   4.421
16766TIP3   OH250174   5.175   8.147   4.827
16766TIP3    H150175   5.111   8.185   4.763
16766TIP3    H250176   5.152   8.053   4.824
16767TIP3   OH250177   6.234   8.773   4.023
16767TIP3    H150178   6.245   8.869   4.003
16767TIP3    H250179   6.324   8.740   4.003
16768TIP3   OH250180   4.961   8.528   5.725
16768TIP3    H150181   4.898   8.503   5.654
16768TIP3    H250182   4.999   8.441   5.752
16769TIP3   OH250183   4.816   8.721   5.357
16769TIP3    H150184   4.911   8.708   5.346
16769TIP3    H250185   4.813   8.799   5.415
16770TIP3   OH250186   6.680   9.170   5.412
16770TIP3    H150187   6.679   9.073   5.426
16770TIP3    H250188   6.597   9.195   5.458
16771TIP3   OH250189   5.786   8.960   5.547
16771TIP3    H150190   5.786   9.052   5.580
16771TIP3    H250191   5.715   8.920   5.602
16772TIP3   OH250192   5.543   9.087   4.500
16772TIP3    H150193   5.500   9.067   4.415
16772TIP3    H250194   5.512   9.177   4.519
16773TIP3   OH250195   4.983   8.938   4.883
16773TIP3    H150196   5.032   8.927   4.968
16773TIP3    H250197   4.928   8.857   4.885
16774TIP3   OH250198   5.748   8.987   4.141
16774TIP3    H150199   5.806   8.918   4.102
16774TIP3    H250200   5.783   8.994   4.232
16775TIP3   OH250201   5.797   9.037   4.412
16775TIP3    H150202   5.709   9.044   4.456
16775TIP3    H250203   5.849   8.992   4.482
16776TIP3   OH250204   6.570   8.304   5.687
16776TIP3    H150205   6.491   8.316   5.633
16776TIP3    H250206   6.588   8.209   5.676
16777TIP3   OH250207   5.165   8.713   5.718
16777TIP3    H150208   5.218   8.693   5.798
16777TIP3    H250209   5.093   8.647   5.723
16778TIP3   OH250210   5.567   7.535   5.496
16778TIP3    H150211   5.477   7.502   5.473
16778TIP3    H250212   5.542   7.618   5.541
16779TIP3   OH250213   6.099   7.651   5.691
16779TIP3    H150214   6.169   7.624   5.755
16779TIP3    H250215   6.016   7.629   5.738
16780TIP3   OH250216   6.339   8.078   5.609
16780TIP3    H150217   6.292   8.074   5.695
16780TIP3    H250218   6.315   8.166   5.575
16781TIP3   OH250219   5.997   8.211   4.166
16781TIP3    H150220   5.966   8.184   4.078
16781TIP3    H250221   6.078   8.260   4.143
16782TIP3   OH250222   5.702   7.594   4.453
16782TIP3    H150223   5.685   7.594   4.550
16782TIP3    H250224   5.684   7.500   4.435
16783TIP3   OH250225   5.497   8.049   5.516
16783TIP3    H150226   5.447   8.070   5.597
16783TIP3    H250227   5.481   8.130   5.462
16784TIP3   OH250228   5.379   7.928   5.022
16784TIP3    H150229   5.286   7.905   5.041
16784TIP3    H250230   5.392   7.879   4.938
16785TIP3   OH250231   5.874   8.026   4.759
16785TIP3    H150232   5.817   8.095   4.717
16785TIP3    H250233   5.925   7.993   4.683
16786TIP3   OH250234   6.046   8.303   5.847
16786TIP3    H150235   6.025   8.228   5.907
16786TIP3    H250236   6.141   8.314   5.866
16787TIP3   OH250237   6.030   8.052   4.997
16787TIP3    H150238   5.971   8.080   4.924
16787TIP3    H250239   6.063   7.969   4.957
16788TIP3   OH250240   5.315   8.080   5.725
16788TIP3    H150241   5.346   8.140   5.794
16788TIP3    H250242   5.304   7.997   5.775
16789TIP3   OH250243   5.345   7.519   4.426
16789TIP3    H150244   5.374   7.538   4.517
16789TIP3    H250245   5.283   7.594   4.413
16790TIP3   OH250246   4.912   7.602   5.304
16790TIP3    H150247   4.986   7.634   5.359
16790TIP3    H250248   4.956   7.571   5.224
16791TIP3   OH250249   4.877   7.576   4.811
16791TIP3    H150250   4.959   7.615   4.775
16791TIP3    H250251   4.829   7.655   4.841
16792TIP3   OH250252   6.040   8.298   5.421
16792TIP3    H150253   6.073   8.226   5.363
16792TIP3    H250254   6.012   8.246   5.499
16793TIP3   OH250255   5.708   7.762   5.096
16793TIP3    H150256   5.624   7.754   5.145
16793TIP3    H250257   5.774   7.758   5.167
16794TIP3   OH250258   5.140   7.808   5.105
16794TIP3    H150259   5.046   7.822   5.078
16794TIP3    H250260   5.166   7.738   5.040
16795TIP3   OH250261   6.198   7.835   5.293
16795TIP3    H150262   6.163   7.845   5.384
16795TIP3    H250263   6.134   7.771   5.257
16796TIP3   OH250264   5.213   7.884   4.554
16796TIP3    H150265   5.167   7.806   4.522
16796TIP3    H250266   5.291   7.888   4.497
16797TIP3   OH250267   6.367   9.524   5.511
16797TIP3    H150268   6.369   9.545   5.416
16797TIP3    H250269   6.449   9.569   5.542
16798TIP3   OH250270   5.326   8.635   5.934
16798TIP3    H150271   5.407   8.663   5.982
16798TIP3    H250272   5.263   8.631   6.009
16799TIP3   OH250273   5.792   8.087   5.190
16799TIP3    H150274   5.861   8.044   5.137
16799TIP3    H250275   5.804   8.044   5.276
16800TIP3   OH250276   5.769   7.980   5.480
16800TIP3    H150277   5.680   8.017   5.493
16800TIP3    H250278   5.827   8.040   5.531
16801TIP3   OH250279   5.503   8.375   4.572
16801TIP3    H150280   5.433   8.307   4.564
16801TIP3    H250281   5.487   8.407   4.664
16802TIP3   OH250282   6.407   8.611   5.205
16802TIP3    H150283   6.431   8.658   5.122
16802TIP3    H250284   6.321   8.569   5.180
16803TIP3   OH250285   5.960   7.689   4.430
16803TIP3    H150286   5.863   7.678   4.439
16803TIP3    H250287   5.975   7.782   4.458
16804TIP3   OH250288   5.905   8.691   5.571
16804TIP3    H150289   5.927   8.666   5.661
16804TIP3    H250290   5.867   8.780   5.580
16805TIP3   OH250291   6.034   7.931   4.536
16805TIP3    H150292   6.130   7.937   4.554
16805TIP3    H250293   6.017   8.012   4.484
16806TIP3   OH250294   5.198   8.397   5.251
16806TIP3    H150295   5.235   8.369   5.165
16806TIP3    H250296   5.236   8.331   5.311
16807TIP3   OH250297   5.650   8.523   4.393
16807TIP3    H150298   5.604   8.609   4.402
16807TIP3    H250299   5.596   8.467   4.454
16808TIP3   OH250300   5.075   8.319   5.864
16808TIP3    H150301   5.099   8.303   5.958
16808TIP3    H250302   5.009   8.249   5.848
16809TIP3   OH250303   5.802   8.429   5.883
16809TIP3    H150304   5.745   8.371   5.831
16809TIP3    H250305   5.891   8.397   5.857
16810TIP3   OH250306   6.066   8.954   5.465
16810TIP3    H150307   5.970   8.950   5.477
16810TIP3    H250308   6.093   9.004   5.544
16811TIP3   OH250309   6.478   8.021   4.375
16811TIP3    H150310   6.414   7.976   4.314
16811TIP3    H250311   6.474   8.110   4.334
16812TIP3   OH250312   6.693   8.879   5.457
16812TIP3    H150313   6.595   8.874   5.449
16812TIP3    H250314   6.719   8.850   5.367
16813TIP3   OH250315   6.173   8.842   4.284
16813TIP3    H150316   6.152   8.768   4.343
16813TIP3    H250317   6.188   8.799   4.198
16814TIP3   OH250318   6.171   8.471   5.124
16814TIP3    H150319   6.078   8.445   5.136
16814TIP3    H250320   6.207   8.392   5.079
16815TIP3   OH250321   5.297   8.699   4.877
16815TIP3    H150322   5.301   8.779   4.822
16815TIP3    H250323   5.202   8.682   4.880
16816TIP3   OH250324   4.858   8.004   4.578
16816TIP3    H150325   4.909   8.084   4.599
16816TIP3    H250326   4.783   8.011   4.641
16817TIP3   OH250327   5.440   8.467   4.820
16817TIP3    H150328   5.404   8.555   4.840
16817TIP3    H250329   5.403   8.415   4.894
16818TIP3   OH250330   5.566   9.043   5.345
16818TIP3    H150331   5.608   9.115   5.293
16818TIP3    H250332   5.643   9.008   5.393
16819TIP3   OH250333   5.218   8.938   4.727
16819TIP3    H150334   5.132   8.946   4.773
16819TIP3    H250335   5.249   9.031   4.731
16820TIP3   OH250336   5.959   8.679   5.301
16820TIP3    H150337   5.950   8.675   5.399
16820TIP3    H250338   6.037   8.623   5.287
16821TIP3   OH250339   5.924   8.571   4.187
16821TIP3    H150340   5.980   8.546   4.264
16821TIP3    H250341   5.837   8.544   4.219
16822TIP3   OH250342   6.204   9.214   5.356
16822TIP3    H150343   6.127   9.155   5.347
16822TIP3    H250344   6.189   9.277   5.282
16823TIP3   OH250345   6.271   9.048   4.007
16823TIP3    H150346   6.310   9.119   3.953
16823TIP3    H250347   6.190   9.095   4.037
16824TIP3   OH250348   5.290   7.824   5.873
16824TIP3    H150349   5.194   7.827   5.886
16824TIP3    H250350   5.318   7.760   5.942
16825TIP3   OH250351   6.088   8.506   4.404
16825TIP3    H150352   6.079   8.438   4.474
16825TIP3    H250353   6.185   8.503   4.389
16826TIP3   OH250354   5.004   8.908   5.506
16826TIP3    H150355   5.055   8.829   5.529
16826TIP3    H250356   5.040   8.971   5.569
16827TIP3   OH250357   5.295   8.552   4.184
16827TIP3    H150358   5.312   8.461   4.153
16827TIP3    H250359   5.277   8.536   4.279
16828TIP3   OH250360   5.241   8.555   4.459
16828TIP3    H150361   5.314   8.525   4.515
16828TIP3    H250362   5.249   8.653   4.465
16829TIP3   OH250363   4.978   8.248   4.658
16829TIP3    H150364   4.913   8.293   4.717
16829TIP3    H250365   4.995   8.319   4.593
16830TIP3   OH250366   6.123   7.889   5.553
16830TIP3    H150367   6.206   7.924   5.589
16830TIP3    H250368   6.110   7.807   5.606
16831TIP3   OH250369   6.012   7.636   4.713
16831TIP3    H150370   5.992   7.664   4.622
16831TIP3    H250371   6.046   7.719   4.753
16832TIP3   OH250372   5.507   8.753   4.408
16832TIP3    H150373   5.421   8.784   4.441
16832TIP3    H250374   5.524   8.817   4.338
16833TIP3   OH250375   5.709   7.808   4.823
16833TIP3    H150376   5.764   7.887   4.806
16833TIP3    H250377   5.702   7.808   4.920
16834TIP3   OH250378   5.965   8.136   5.628
16834TIP3    H150379   5.985   8.188   5.708
16834TIP3    H250380   6.021   8.058   5.639
16835TIP3   OH250381   5.849   7.548   4.931
16835TIP3    H150382   5.828   7.630   4.979
16835TIP3    H250383   5.899   7.583   4.855
16836TIP3   OH250384   5.249   8.829   4.471
16836TIP3    H150385   5.219   8.899   4.409
16836TIP3    H250386   5.234   8.873   4.558
16837TIP3   OH250387   6.607   8.039   5.604
16837TIP3    H150388   6.509   8.036   5.613
16837TIP3    H250389   6.617   7.989   5.522
16838TIP3   OH250390   6.257   8.231   4.996
16838TIP3    H150391   6.181   8.171   5.007
16838TIP3    H250392   6.328   8.184   5.043
16839TIP3   OH250393   4.968   8.464   4.465
16839TIP3    H150394   5.037   8.532   4.475
16839TIP3    H250395   5.013   8.407   4.399
16840TIP3   OH250396   4.917   7.734   4.551
16840TIP3    H150397   4.920   7.828   4.578
16840TIP3    H250398   4.830   7.707   4.583
16841TIP3   OH250399   6.224   9.185   4.947
16841TIP3    H150400   6.182   9.232   4.871
16841TIP3    H250401   6.319   9.204   4.927
16842TIP3   OH250402   5.302   7.459   5.483
16842TIP3    H150403   5.270   7.427   5.395
16842TIP3    H250404   5.291   7.378   5.537
16843TIP3   OH250405   4.846   8.681   4.859
16843TIP3    H150406   4.765   8.706   4.906
16843TIP3    H250407   4.825   8.714   4.768
16844TIP3   OH250408   4.994   9.211   5.927
16844TIP3    H150409   5.082   9.209   5.971
16844TIP3    H250410   4.974   9.116   5.923
16845TIP3   OH250411   5.479   9.182   5.968
16845TIP3    H150412   5.573   9.160   5.978
16845TIP3    H250413   5.455   9.124   5.893
16846TIP3   OH250414   5.461   8.757   4.102
16846TIP3    H150415   5.407   8.682   4.137
16846TIP3    H250416   5.535   8.707   4.061
16847TIP3   OH250417   6.116   9.086   5.703
16847TIP3    H150418   6.108   9.015   5.770
16847TIP3    H250419   6.195   9.134   5.732
16848TIP3   OH250420   5.897   8.799   4.003
16848TIP3    H150421   5.942   8.736   4.063
16848TIP3    H250422   5.958   8.804   3.929
16849TIP3   OH250423   5.127   8.621   6.126
16849TIP3    H150424   5.146   8.525   6.130
16849TIP3    H250425   5.039   8.621   6.082
16850TIP3   OH250426   5.103   8.273   4.318
16850TIP3    H150427   5.156   8.236   4.390
16850TIP3    H250428   5.171   8.277   4.247
16851TIP3   OH250429   5.734   8.703   5.899
16851TIP3    H150430   5.695   8.717   5.811
16851TIP3    H250431   5.767   8.611   5.893
16852TIP3   OH250432   5.607   8.466   4.125
16852TIP3    H150433   5.614   8.480   4.222
16852TIP3    H250434   5.608   8.368   4.122
16853TIP3   OH250435   6.228   8.711   5.504
16853TIP3    H150436   6.302   8.757   5.460
16853TIP3    H250437   6.156   8.776   5.491
16854TIP3   OH250438   5.246   8.355   6.105
16854TIP3    H150439   5.317   8.293   6.087
16854TIP3    H250440   5.270   8.385   6.195
16855TIP3   OH250441   5.318   8.170   4.542
16855TIP3    H150442   5.286   8.126   4.622
16855TIP3    H250443   5.348   8.093   4.490
16856TIP3   OH250444   5.580   8.238   5.769
16856TIP3    H150445   5.504   8.300   5.772
16856TIP3    H250446   5.629   8.271   5.690
16857TIP3   OH250447   5.415   7.957   4.379
16857TIP3    H150448   5.389   7.971   4.285
16857TIP3    H250449   5.512   7.974   4.374
16858TIP3   OH250450   6.098   8.641   5.903
16858TIP3    H150451   6.179   8.621   5.855
16858TIP3    H250452   6.097   8.573   5.972
16859TIP3   OH250453   6.241   8.294   4.043
16859TIP3    H150454   6.217   8.252   3.958
16859TIP3    H250455   6.208   8.385   4.025
16860TIP3   OH250456   5.703   8.025   5.897
16860TIP3    H150457   5.705   7.945   5.841
16860TIP3    H250458   5.661   8.091   5.838
16861TIP3   OH250459   5.707   7.813   5.702
16861TIP3    H150460   5.735   7.853   5.617
16861TIP3    H250461   5.614   7.790   5.684
16862TIP3   OH250462   5.736   8.350   5.576
16862TIP3    H150463   5.818   8.353   5.524
16862TIP3    H250464   5.681   8.418   5.531
16863TIP3   OH250465   6.319   8.317   5.959
16863TIP3    H150466   6.365   8.232   5.965
16863TIP3    H250467   6.389   8.374   5.923
16864TIP3   OH250468   6.358   8.569   5.693
16864TIP3    H150469   6.301   8.622   5.633
16864TIP3    H250470   6.446   8.587   5.653
16865TIP3   OH250471   5.581   8.142   6.124
16865TIP3    H150472   5.512   8.074   6.138
16865TIP3    H250473   5.617   8.116   6.037
16866TIP3   OH250474   5.839   7.579   5.770
16866TIP3    H150475   5.792   7.661   5.746
16866TIP3    H250476   5.770   7.511   5.755
16867TIP3   OH250477   5.964   8.084   5.985
16867TIP3    H150478   5.955   8.073   6.081
16867TIP3    H250479   5.874   8.058   5.956
16868TIP3   OH250480   6.205   8.034   5.840
16868TIP3    H150481   6.130   8.032   5.901
16868TIP3    H250482   6.279   8.001   5.896
16869TIP3   OH250483   6.429   7.972   5.992
16869TIP3    H150484   6.446   7.877   6.008
16869TIP3    H250485   6.430   8.010   6.082
16870TIP3   OH250486   5.422   7.922   6.176
16870TIP3    H150487   5.428   7.831   6.139
16870TIP3    H250488   5.456   7.908   6.266
16871TIP3   OH250489   5.934   7.585   6.027
16871TIP3    H150490   6.003   7.517   6.019
16871TIP3    H250491   5.894   7.580   5.937
16872TIP3   OH250492   5.997   7.800   6.187
16872TIP3    H150493   5.976   7.730   6.121
16872TIP3    H250494   5.922   7.861   6.178
16873TIP3   OH250495   5.219   9.034   4.285
16873TIP3    H150496   5.315   9.029   4.266
16873TIP3    H250497   5.189   9.079   4.204
16874TIP3   OH250498   4.700   8.413   4.503
16874TIP3    H150499   4.795   8.435   4.489
16874TIP3    H250500   4.695   8.324   4.461
16875TIP3   OH250501   4.610   9.026   4.916
16875TIP3    H150502   4.545   8.961   4.881
16875TIP3    H250503   4.657   8.970   4.982
16876TIP3   OH250504   4.746   8.882   5.103
16876TIP3    H150505   4.740   8.803   5.159
16876TIP3    H250506   4.800   8.940   5.160
16877TIP3   OH250507   6.475   9.281   4.900
16877TIP3    H150508   6.504   9.312   4.987
16877TIP3    H250509   6.539   9.321   4.840
16878TIP3   OH250510   6.507   9.299   5.184
16878TIP3    H150511   6.465   9.210   5.179
16878TIP3    H250512   6.583   9.277   5.240
16879TIP3   OH250513   6.552   8.975   5.754
16879TIP3    H150514   6.480   8.982   5.820
16879TIP3    H250515   6.594   9.063   5.761
16880TIP3   OH250516   6.368   8.488   4.377
16880TIP3    H150517   6.438   8.550   4.349
16880TIP3    H250518   6.411   8.447   4.456
16881TIP3   OH250519   6.496   8.355   4.580
16881TIP3    H150520   6.431   8.311   4.639
16881TIP3    H250521   6.561   8.393   4.643
16882TIP3   OH250522   6.549   8.745   5.012
16882TIP3    H150523   6.604   8.682   4.961
16882TIP3    H250524   6.541   8.820   4.949
16883TIP3   OH250525   6.384   9.047   5.207
16883TIP3    H150526   6.313   9.087   5.261
16883TIP3    H250527   6.334   8.997   5.139
16884TIP3   OH250528   6.437   8.261   4.230
16884TIP3    H150529   6.366   8.263   4.161
16884TIP3    H250530   6.409   8.338   4.284
16885TIP3   OH250531   6.306   7.936   4.183
16885TIP3    H150532   6.266   7.976   4.105
16885TIP3    H250533   6.279   7.842   4.171
16886TIP3   OH250534   6.311   8.209   4.727
16886TIP3    H150535   6.320   8.112   4.723
16886TIP3    H250536   6.299   8.225   4.823
16887TIP3   OH250537   4.938   8.287   5.472
16887TIP3    H150538   4.937   8.255   5.379
16887TIP3    H250539   5.035   8.288   5.490
16888TIP3   OH250540   6.600   8.634   5.583
16888TIP3    H150541   6.672   8.569   5.575
16888TIP3    H250542   6.629   8.705   5.523
16889TIP3   OH250543   6.786   8.443   5.604
16889TIP3    H150544   6.712   8.391   5.642
16889TIP3    H250545   6.859   8.379   5.617
16890TIP3   OH250546   6.250   7.670   4.171
16890TIP3    H150547   6.327   7.640   4.223
16890TIP3    H250548   6.179   7.609   4.197
16891TIP3   OH250549   6.306   7.926   4.623
16891TIP3    H150550   6.347   7.837   4.639
16891TIP3    H250551   6.366   7.959   4.553
16892TIP3   OH250552   6.470   8.103   5.116
16892TIP3    H150553   6.556   8.129   5.077
16892TIP3    H250554   6.483   8.138   5.207
16893TIP3   OH250555   6.536   8.244   5.350
16893TIP3    H150556   6.458   8.278   5.398
16893TIP3    H250557   6.569   8.325   5.305
16894TIP3   OH250558   5.154   7.973   6.150
16894TIP3    H150559   5.252   7.965   6.149
16894TIP3    H250560   5.130   7.888   6.191
16895TIP3   OH250561   6.990   7.835   5.907
16895TIP3    H150562   7.048   7.769   5.862
16895TIP3    H250563   6.962   7.890   5.831
16896TIP3   OH250564   6.416   7.676   4.659
16896TIP3    H150565   6.464   7.660   4.743
16896TIP3    H250566   6.355   7.599   4.658
16897TIP3   OH250567   5.114   7.665   5.487
16897TIP3    H150568   5.175   7.588   5.492
16897TIP3    H250569   5.178   7.737   5.474
16898TIP3   OH250570   4.919   7.939   5.552
16898TIP3    H150571   4.968   7.926   5.469
16898TIP3    H250572   4.955   8.024   5.581
16899TIP3   OH250573   6.863   7.977   5.711
16899TIP3    H150574   6.775   8.011   5.736
16899TIP3    H250575   6.837   7.901   5.656
16900TIP3   OH250576   6.499   7.613   4.291
16900TIP3    H150577   6.539   7.539   4.240
16900TIP3    H250578   6.566   7.683   4.283
16901TIP3   OH250579   4.898   7.435   5.048
16901TIP3    H150580   4.805   7.442   5.075
16901TIP3    H250581   4.904   7.497   4.973
16902TIP3   OH250582   6.060   9.145   4.559
16902TIP3    H150583   6.110   9.126   4.477
16902TIP3    H250584   6.118   9.208   4.604
16903TIP3   OH250585   5.123   7.523   5.870
16903TIP3    H150586   5.071   7.516   5.952
16903TIP3    H250587   5.056   7.558   5.808
16904TIP3   OH250588   5.161   8.952   5.946
16904TIP3    H150589   5.072   8.917   5.927
16904TIP3    H250590   5.173   8.925   6.038
16905TIP3   OH250591   5.338   8.978   5.493
16905TIP3    H150592   5.293   9.055   5.453
16905TIP3    H250593   5.425   8.990   5.450
16906TIP3   OH250594   5.787   9.227   5.631
16906TIP3    H150595   5.830   9.226   5.720
16906TIP3    H250596   5.854   9.275   5.579
16907TIP3   OH250597   5.966   9.375   5.487
16907TIP3    H150598   6.036   9.323   5.446
16907TIP3    H250599   6.018   9.432   5.548
16908TIP3   OH250600   6.761   7.738   5.588
16908TIP3    H150601   6.668   7.729   5.562
16908TIP3    H250602   6.793   7.646   5.577
16909TIP3   OH250603   5.018   9.239   5.512
16909TIP3    H150604   4.929   9.275   5.491
16909TIP3    H250605   5.024   9.263   5.605
16910TIP3   OH250606   5.254   9.216   5.373
16910TIP3    H150607   5.168   9.229   5.417
16910TIP3    H250608   5.235   9.248   5.282
16911TIP3   OH250609   5.679   9.246   5.171
16911TIP3    H150610   5.612   9.267   5.104
16911TIP3    H250611   5.693   9.333   5.213
16912TIP3   OH250612   5.948   9.186   5.223
16912TIP3    H150613   5.854   9.201   5.201
16912TIP3    H250614   5.991   9.261   5.179
16913TIP3   OH250615   6.156   9.377   5.138
16913TIP3    H150616   6.143   9.462   5.090
16913TIP3    H250617   6.182   9.317   5.066
16914TIP3   OH250618   4.928   9.030   5.263
16914TIP3    H150619   4.957   9.005   5.353
16914TIP3    H250620   4.999   8.987   5.211
16915TIP3   OH250621   5.121   8.902   5.117
16915TIP3    H150622   5.137   8.817   5.164
16915TIP3    H250623   5.212   8.939   5.112
16916TIP3   OH250624   5.387   8.998   5.119
16916TIP3    H150625   5.419   8.907   5.104
16916TIP3    H250626   5.431   9.017   5.204
16917TIP3   OH250627   5.967   7.656   5.214
16917TIP3    H150628   5.920   7.586   5.263
16917TIP3    H250629   6.029   7.606   5.159
16918TIP3   OH250630   6.489   7.531   5.109
16918TIP3    H150631   6.524   7.586   5.035
16918TIP3    H250632   6.394   7.550   5.105
16919TIP3   OH250633   6.583   7.636   4.875
16919TIP3    H150634   6.657   7.585   4.836
16919TIP3    H250635   6.617   7.728   4.861
16920TIP3   OH250636   5.208   7.363   5.251
16920TIP3    H150637   5.119   7.330   5.227
16920TIP3    H250638   5.264   7.288   5.222
16921TIP3   OH250639   4.988   7.232   4.874
16921TIP3    H150640   5.025   7.295   4.811
16921TIP3    H250641   4.963   7.291   4.948
16922TIP3   OH250642   5.666   7.389   5.106
16922TIP3    H150643   5.720   7.445   5.049
16922TIP3    H250644   5.676   7.432   5.192
16923TIP3   OH250645   6.209   7.541   5.088
16923TIP3    H150646   6.195   7.507   4.999
16923TIP3    H250647   6.191   7.460   5.142
16924TIP3   OH250648   6.233   7.462   4.650
16924TIP3    H150649   6.147   7.507   4.663
16924TIP3    H250650   6.217   7.378   4.697
16925TIP3   OH250651   4.716   8.799   4.653
16925TIP3    H150652   4.632   8.765   4.617
16925TIP3    H250653   4.703   8.894   4.637
16926TIP3   OH250654   5.125   7.411   4.632
16926TIP3    H150655   5.186   7.338   4.648
16926TIP3    H250656   5.155   7.477   4.698
16927TIP3   OH250657   5.646   7.565   4.714
16927TIP3    H150658   5.664   7.514   4.793
16927TIP3    H250659   5.650   7.657   4.750
16928TIP3   OH250660   5.487   8.995   4.232
16928TIP3    H150661   5.577   9.014   4.198
16928TIP3    H250662   5.466   8.918   4.175
16929TIP3   OH250663   6.205   9.109   4.327
16929TIP3    H150664   6.198   9.011   4.313
16929TIP3    H250665   6.165   9.142   4.244
16930TIP3   OH250666   5.420   7.644   6.116
16930TIP3    H150667   5.388   7.573   6.173
16930TIP3    H250668   5.515   7.645   6.141
16931TIP3   OH250669   5.670   7.641   6.235
16931TIP3    H150670   5.754   7.617   6.193
16931TIP3    H250671   5.658   7.568   6.300
16932TIP3   OH250672   4.795   8.831   4.293
16932TIP3    H150673   4.796   8.851   4.387
16932TIP3    H250674   4.882   8.788   4.280
16933TIP3   OH250675   6.487   7.703   6.025
16933TIP3    H150676   6.514   7.669   6.112
16933TIP3    H250677   6.573   7.703   5.976
16934TIP3   OH250678   6.435   9.255   5.515
16934TIP3    H150679   6.355   9.222   5.468
16934TIP3    H250680   6.415   9.351   5.517
16935TIP3   OH250681   7.700   8.623   4.282
16935TIP3    H150682   7.675   8.716   4.266
16935TIP3    H250683   7.619   8.579   4.249
16936TIP3   OH250684   7.702   8.621   4.658
16936TIP3    H150685   7.730   8.598   4.749
16936TIP3    H250686   7.652   8.542   4.633
16937TIP3   OH250687   6.999   8.521   5.026
16937TIP3    H150688   7.030   8.455   5.090
16937TIP3    H250689   7.075   8.581   5.024
16938TIP3   OH250690   7.941   8.925   4.343
16938TIP3    H150691   7.928   8.859   4.413
16938TIP3    H250692   7.969   9.003   4.395
16939TIP3   OH250693   6.968   8.930   4.754
16939TIP3    H150694   6.960   8.832   4.756
16939TIP3    H250695   7.065   8.939   4.749
16940TIP3   OH250696   6.677   8.137   4.539
16940TIP3    H150697   6.626   8.219   4.551
16940TIP3    H250698   6.607   8.079   4.504
16941TIP3   OH250699   6.736   8.422   4.707
16941TIP3    H150700   6.785   8.346   4.746
16941TIP3    H250701   6.795   8.447   4.634
16942TIP3   OH250702   7.588   9.391   4.359
16942TIP3    H150703   7.635   9.317   4.314
16942TIP3    H250704   7.584   9.358   4.450
16943TIP3   OH250705   7.498   8.851   4.709
16943TIP3    H150706   7.535   8.777   4.659
16943TIP3    H250707   7.582   8.895   4.734
16944TIP3   OH250708   8.508   8.174   4.703
16944TIP3    H150709   8.536   8.253   4.755
16944TIP3    H250710   8.538   8.199   4.615
16945TIP3   OH250711   7.913   8.359   4.742
16945TIP3    H150712   7.950   8.272   4.766
16945TIP3    H250713   7.882   8.341   4.651
16946TIP3   OH250714   7.249   8.012   4.707
16946TIP3    H150715   7.224   8.085   4.646
16946TIP3    H250716   7.200   7.938   4.665
16947TIP3   OH250717   6.881   8.216   4.815
16947TIP3    H150718   6.964   8.194   4.862
16947TIP3    H250719   6.892   8.159   4.736
16948TIP3   OH250720   7.323   8.413   4.603
16948TIP3    H150721   7.415   8.386   4.622
16948TIP3    H250722   7.282   8.329   4.574
16949TIP3   OH250723   8.581   8.377   4.876
16949TIP3    H150724   8.498   8.427   4.861
16949TIP3    H250725   8.596   8.397   4.970
16950TIP3   OH250726   7.245   7.995   5.141
16950TIP3    H150727   7.183   8.032   5.076
16950TIP3    H250728   7.194   8.011   5.224
16951TIP3   OH250729   7.596   8.847   4.150
16951TIP3    H150730   7.550   8.825   4.068
16951TIP3    H250731   7.552   8.932   4.174
16952TIP3   OH250732   7.350   8.770   4.940
16952TIP3    H150733   7.286   8.834   4.978
16952TIP3    H250734   7.392   8.824   4.870
16953TIP3   OH250735   7.114   8.111   4.926
16953TIP3    H150736   7.176   8.183   4.950
16953TIP3    H250737   7.165   8.069   4.852
16954TIP3   OH250738   7.176   8.963   5.035
16954TIP3    H150739   7.151   9.049   4.996
16954TIP3    H250740   7.098   8.948   5.093
16955TIP3   OH250741   6.575   8.653   4.272
16955TIP3    H150742   6.533   8.678   4.187
16955TIP3    H250743   6.603   8.740   4.307
16956TIP3   OH250744   8.011   9.165   4.510
16956TIP3    H150745   7.922   9.157   4.552
16956TIP3    H250746   8.001   9.252   4.467
16957TIP3   OH250747   8.303   8.070   4.870
16957TIP3    H150748   8.217   8.107   4.845
16957TIP3    H250749   8.362   8.105   4.800
16958TIP3   OH250750   7.602   7.718   4.854
16958TIP3    H150751   7.592   7.623   4.873
16958TIP3    H250752   7.524   7.754   4.902
16959TIP3   OH250753   7.715   9.215   4.192
16959TIP3    H150754   7.770   9.138   4.165
16959TIP3    H250755   7.765   9.289   4.150
16960TIP3   OH250756   7.865   9.008   4.091
16960TIP3    H150757   7.822   8.932   4.049
16960TIP3    H250758   7.895   8.969   4.176
16961TIP3   OH250759   8.237   9.086   4.854
16961TIP3    H150760   8.229   9.008   4.796
16961TIP3    H250761   8.222   9.160   4.792
16962TIP3   OH250762   7.530   8.473   4.113
16962TIP3    H150763   7.448   8.524   4.094
16962TIP3    H250764   7.573   8.475   4.026
16963TIP3   OH250765   7.490   8.260   3.831
16963TIP3    H150766   7.559   8.312   3.876
16963TIP3    H250767   7.546   8.195   3.783
16964TIP3   OH250768   8.434   8.717   4.696
16964TIP3    H150769   8.353   8.771   4.705
16964TIP3    H250770   8.463   8.743   4.606
16965TIP3   OH250771   7.874   8.559   4.082
16965TIP3    H150772   7.820   8.586   4.160
16965TIP3    H250773   7.957   8.531   4.126
16966TIP3   OH250774   8.114   8.601   4.993
16966TIP3    H150775   8.112   8.683   5.046
16966TIP3    H250776   8.027   8.607   4.949
16967TIP3   OH250777   7.110   8.558   4.499
16967TIP3    H150778   7.068   8.501   4.432
16967TIP3    H250779   7.187   8.505   4.527
16968TIP3   OH250780   7.240   8.969   4.649
16968TIP3    H150781   7.219   8.923   4.566
16968TIP3    H250782   7.330   8.937   4.668
16969TIP3   OH250783   7.250   8.528   4.854
16969TIP3    H150784   7.281   8.513   4.762
16969TIP3    H250785   7.290   8.615   4.876
16970TIP3   OH250786   7.771   9.166   4.632
16970TIP3    H150787   7.757   9.246   4.685
16970TIP3    H250788   7.757   9.094   4.696
16971TIP3   OH250789   7.383   9.087   5.177
16971TIP3    H150790   7.324   9.149   5.225
16971TIP3    H250791   7.316   9.033   5.130
16972TIP3   OH250792   7.722   8.408   3.911
16972TIP3    H150793   7.777   8.472   3.962
16972TIP3    H250794   7.746   8.434   3.818
16973TIP3   OH250795   7.136   8.645   5.275
16973TIP3    H150796   7.142   8.730   5.323
16973TIP3    H250797   7.042   8.624   5.286
16974TIP3   OH250798   7.460   9.098   4.185
16974TIP3    H150799   7.537   9.153   4.208
16974TIP3    H250800   7.398   9.162   4.147
16975TIP3   OH250801   7.178   9.257   5.265
16975TIP3    H150802   7.143   9.252   5.174
16975TIP3    H250803   7.099   9.234   5.319
16976TIP3   OH250804   8.237   7.663   3.963
16976TIP3    H150805   8.156   7.684   4.015
16976TIP3    H250806   8.243   7.740   3.903
16977TIP3   OH250807   6.977   8.400   4.305
16977TIP3    H150808   6.912   8.446   4.248
16977TIP3    H250809   6.933   8.315   4.319
16978TIP3   OH250810   8.030   9.027   3.505
16978TIP3    H150811   8.031   9.124   3.488
16978TIP3    H250812   8.123   9.003   3.487
16979TIP3   OH250813   6.758   8.784   5.212
16979TIP3    H150814   6.694   8.760   5.142
16979TIP3    H250815   6.795   8.697   5.239
16980TIP3   OH250816   6.612   8.977   4.846
16980TIP3    H150817   6.707   8.969   4.835
16980TIP3    H250818   6.605   9.056   4.900
16981TIP3   OH250819   8.466   9.419   4.892
16981TIP3    H150820   8.474   9.324   4.914
16981TIP3    H250821   8.385   9.444   4.941
16982TIP3   OH250822   7.583   9.216   5.034
16982TIP3    H150823   7.582   9.308   5.067
16982TIP3    H250824   7.512   9.176   5.089
16983TIP3   OH250825   7.339   9.344   3.987
16983TIP3    H150826   7.295   9.326   3.902
16983TIP3    H250827   7.309   9.434   4.008
16984TIP3   OH250828   6.780   9.194   4.369
16984TIP3    H150829   6.828   9.184   4.454
16984TIP3    H250830   6.722   9.116   4.373
16985TIP3   OH250831   7.543   9.242   3.628
16985TIP3    H150832   7.603   9.174   3.590
16985TIP3    H250833   7.580   9.252   3.718
16986TIP3   OH250834   7.591   9.288   3.900
16986TIP3    H150835   7.502   9.301   3.941
16986TIP3    H250836   7.639   9.247   3.973
16987TIP3   OH250837   8.369   8.563   5.172
16987TIP3    H150838   8.285   8.573   5.124
16987TIP3    H250839   8.383   8.466   5.167
16988TIP3   OH250840   6.963   8.968   5.203
16988TIP3    H150841   7.013   8.950   5.285
16988TIP3    H250842   6.889   8.903   5.210
16989TIP3   OH250843   7.362   7.793   4.981
16989TIP3    H150844   7.272   7.761   4.958
16989TIP3    H250845   7.337   7.874   5.030
16990TIP3   OH250846   7.895   7.906   5.178
16990TIP3    H150847   7.963   7.880   5.244
16990TIP3    H250848   7.811   7.886   5.225
16991TIP3   OH250849   8.136   8.336   5.096
16991TIP3    H150850   8.089   8.330   5.183
16991TIP3    H250851   8.110   8.424   5.064
16992TIP3   OH250852   7.795   8.463   3.655
16992TIP3    H150853   7.762   8.439   3.567
16992TIP3    H250854   7.871   8.519   3.631
16993TIP3   OH250855   7.511   7.837   3.955
16993TIP3    H150856   7.473   7.836   4.045
16993TIP3    H250857   7.469   7.756   3.919
16994TIP3   OH250858   7.294   8.305   5.003
16994TIP3    H150859   7.245   8.326   5.084
16994TIP3    H250860   7.278   8.386   4.950
16995TIP3   OH250861   7.178   8.192   4.516
16995TIP3    H150862   7.084   8.167   4.534
16995TIP3    H250863   7.190   8.152   4.427
16996TIP3   OH250864   7.672   8.275   4.243
16996TIP3    H150865   7.614   8.347   4.210
16996TIP3    H250866   7.729   8.260   4.165
16997TIP3   OH250867   7.842   8.558   5.330
16997TIP3    H150868   7.820   8.486   5.393
16997TIP3    H250869   7.935   8.574   5.354
16998TIP3   OH250870   7.835   8.307   4.480
16998TIP3    H150871   7.782   8.356   4.415
16998TIP3    H250872   7.811   8.217   4.456
16999TIP3   OH250873   7.112   8.335   5.212
16999TIP3    H150874   7.140   8.397   5.281
16999TIP3    H250875   7.100   8.253   5.263
17000TIP3   OH250876   7.165   7.815   3.922
17000TIP3    H150877   7.154   7.809   4.019
17000TIP3    H250878   7.084   7.863   3.897
17001TIP3   OH250879   6.705   7.862   4.790
17001TIP3    H150880   6.782   7.889   4.845
17001TIP3    H250881   6.746   7.824   4.711
17002TIP3   OH250882   6.683   7.840   4.312
17002TIP3    H150883   6.727   7.879   4.234
17002TIP3    H250884   6.621   7.912   4.334
17003TIP3   OH250885   7.834   8.556   4.908
17003TIP3    H150886   7.868   8.484   4.850
17003TIP3    H250887   7.808   8.505   4.987
17004TIP3   OH250888   7.505   8.020   4.580
17004TIP3    H150889   7.419   8.015   4.627
17004TIP3    H250890   7.567   8.013   4.655
17005TIP3   OH250891   6.940   8.070   4.587
17005TIP3    H150892   6.845   8.078   4.561
17005TIP3    H250893   6.961   7.978   4.564
17006TIP3   OH250894   7.212   8.068   4.273
17006TIP3    H150895   7.304   8.083   4.247
17006TIP3    H250896   7.161   8.090   4.192
17007TIP3   OH250897   7.985   8.093   4.773
17007TIP3    H150898   7.961   8.104   4.868
17007TIP3    H250899   7.921   8.024   4.747
17008TIP3   OH250900   7.049   8.099   4.056
17008TIP3    H150901   6.975   8.055   4.009
17008TIP3    H250902   7.099   8.134   3.979
17009TIP3   OH250903   8.162   9.776   4.992
17009TIP3    H150904   8.160   9.792   4.895
17009TIP3    H250905   8.221   9.845   5.020
17010TIP3   OH250906   7.124   8.890   5.421
17010TIP3    H150907   7.204   8.919   5.469
17010TIP3    H250908   7.060   8.888   5.495
17011TIP3   OH250909   7.587   8.343   4.681
17011TIP3    H150910   7.655   8.290   4.639
17011TIP3    H250911   7.590   8.309   4.773
17012TIP3   OH250912   7.114   7.830   4.553
17012TIP3    H150913   7.079   7.751   4.599
17012TIP3    H250914   7.163   7.791   4.480
17013TIP3   OH250915   7.566   8.243   4.959
17013TIP3    H150916   7.476   8.275   4.980
17013TIP3    H250917   7.623   8.298   5.017
17014TIP3   OH250918   7.304   8.628   4.063
17014TIP3    H150919   7.230   8.565   4.050
17014TIP3    H250920   7.285   8.664   4.153
17015TIP3   OH250921   8.205   8.867   4.691
17015TIP3    H150922   8.228   8.916   4.609
17015TIP3    H250923   8.117   8.828   4.668
17016TIP3   OH250924   7.759   7.940   3.930
17016TIP3    H150925   7.662   7.921   3.928
17016TIP3    H250926   7.761   8.037   3.925
17017TIP3   OH250927   7.701   8.948   5.058
17017TIP3    H150928   7.722   8.924   5.149
17017TIP3    H250929   7.663   9.036   5.067
17018TIP3   OH250930   7.854   8.200   4.028
17018TIP3    H150931   7.940   8.204   3.983
17018TIP3    H250932   7.805   8.270   3.980
17019TIP3   OH250933   6.994   8.652   4.739
17019TIP3    H150934   7.032   8.623   4.653
17019TIP3    H250935   7.030   8.587   4.800
17020TIP3   OH250936   7.448   8.780   3.882
17020TIP3    H150937   7.401   8.866   3.888
17020TIP3    H250938   7.393   8.724   3.942
17021TIP3   OH250939   6.873   8.574   5.350
17021TIP3    H150940   6.896   8.560   5.444
17021TIP3    H250941   6.805   8.505   5.336
17022TIP3   OH250942   7.599   8.687   5.369
17022TIP3    H150943   7.541   8.625   5.320
17022TIP3    H250944   7.687   8.654   5.343
17023TIP3   OH250945   7.862   9.205   4.953
17023TIP3    H150946   7.765   9.205   4.964
17023TIP3    H250947   7.889   9.259   5.030
17024TIP3   OH250948   8.283   8.281   3.852
17024TIP3    H150949   8.214   8.236   3.799
17024TIP3    H250950   8.272   8.371   3.813
17025TIP3   OH250951   8.486   9.132   4.946
17025TIP3    H150952   8.388   9.129   4.934
17025TIP3    H250953   8.514   9.106   4.855
17026TIP3   OH250954   7.961   9.081   3.767
17026TIP3    H150955   7.943   8.999   3.814
17026TIP3    H250956   7.979   9.052   3.676
17027TIP3   OH250957   7.966   8.731   4.610
17027TIP3    H150958   7.874   8.703   4.624
17027TIP3    H250959   8.002   8.652   4.565
17028TIP3   OH250960   7.093   8.954   4.360
17028TIP3    H150961   7.096   9.036   4.308
17028TIP3    H250962   6.998   8.941   4.369
17029TIP3   OH250963   6.658   8.261   4.065
17029TIP3    H150964   6.704   8.345   4.084
17029TIP3    H250965   6.580   8.267   4.125
17030TIP3   OH250966   7.237   8.723   4.308
17030TIP3    H150967   7.201   8.812   4.324
17030TIP3    H250968   7.198   8.673   4.382
17031TIP3   OH250969   7.363   9.300   4.832
17031TIP3    H150970   7.403   9.372   4.780
17031TIP3    H250971   7.440   9.266   4.881
17032TIP3   OH250972   7.015   9.194   4.215
17032TIP3    H150973   6.929   9.202   4.260
17032TIP3    H250974   7.047   9.287   4.218
17033TIP3   OH250975   7.753   8.933   4.789
17033TIP3    H150976   7.744   8.932   4.887
17033TIP3    H250977   7.836   8.883   4.778
17034TIP3   OH250978   7.724   8.820   3.672
17034TIP3    H150979   7.776   8.798   3.752
17034TIP3    H250980   7.634   8.800   3.702
17035TIP3   OH250981   8.002   9.470   4.840
17035TIP3    H150982   7.923   9.414   4.831
17035TIP3    H250983   7.988   9.535   4.768
17036TIP3   OH250984   8.046   9.298   3.491
17036TIP3    H150985   8.078   9.361   3.426
17036TIP3    H250986   7.970   9.350   3.527
17037TIP3   OH250987   7.088   8.078   5.359
17037TIP3    H150988   6.992   8.083   5.374
17037TIP3    H250989   7.116   8.018   5.429
17038TIP3   OH250990   7.886   8.763   3.890
17038TIP3    H150991   7.875   8.696   3.960
17038TIP3    H250992   7.983   8.759   3.877
17039TIP3   OH250993   6.801   9.164   4.992
17039TIP3    H150994   6.853   9.087   5.020
17039TIP3    H250995   6.833   9.231   5.054
17040TIP3   OH250996   7.094   8.807   3.671
17040TIP3    H150997   7.107   8.715   3.641
17040TIP3    H250998   7.075   8.794   3.766
17041TIP3   OH250999   7.040   8.812   3.944
17041TIP3    H151000   7.108   8.786   4.007
17041TIP3    H251001   7.043   8.910   3.949
17042TIP3   OH251002   6.776   8.507   4.147
17042TIP3    H151003   6.709   8.551   4.203
17042TIP3    H251004   6.790   8.577   4.079
17043TIP3   OH251005   7.927   8.138   5.033
17043TIP3    H151006   8.000   8.181   5.080
17043TIP3    H251007   7.909   8.060   5.090
17044TIP3   OH251008   7.801   7.918   4.200
17044TIP3    H151009   7.775   7.900   4.108
17044TIP3    H251010   7.815   8.014   4.193
17045TIP3   OH251011   7.304   9.009   3.893
17045TIP3    H151012   7.217   9.039   3.927
17045TIP3    H251013   7.322   9.080   3.829
17046TIP3   OH251014   7.498   8.069   4.306
17046TIP3    H151015   7.557   8.146   4.289
17046TIP3    H251016   7.495   8.067   4.404
17047TIP3   OH251017   7.763   8.392   5.116
17047TIP3    H151018   7.778   8.450   5.194
17047TIP3    H251019   7.819   8.316   5.137
17048TIP3   OH251020   7.639   7.804   4.410
17048TIP3    H151021   7.626   7.879   4.471
17048TIP3    H251022   7.696   7.845   4.341
17049TIP3   OH251023   7.046   9.085   3.959
17049TIP3    H151024   7.016   9.154   3.895
17049TIP3    H251025   7.030   9.129   4.045
17050TIP3   OH251026   7.147   7.796   4.198
17050TIP3    H151027   7.144   7.887   4.234
17050TIP3    H251028   7.243   7.778   4.206
17051TIP3   OH251029   8.402   8.293   5.092
17051TIP3    H151030   8.305   8.292   5.102
17051TIP3    H251031   8.411   8.250   5.006
17052TIP3   OH251032   8.053   8.492   4.480
17052TIP3    H151033   7.979   8.432   4.500
17052TIP3    H251034   8.126   8.451   4.532
17053TIP3   OH251035   6.765   8.718   3.954
17053TIP3    H151036   6.828   8.791   3.961
17053TIP3    H251037   6.811   8.664   3.886
17054TIP3   OH251038   6.712   7.991   4.086
17054TIP3    H151039   6.708   8.089   4.081
17054TIP3    H251040   6.629   7.966   4.045
17055TIP3   OH251041   7.995   9.431   4.432
17055TIP3    H151042   7.956   9.483   4.359
17055TIP3    H251043   8.090   9.452   4.414
17056TIP3   OH251044   7.098   7.711   4.960
17056TIP3    H151045   7.065   7.677   4.875
17056TIP3    H251046   7.088   7.633   5.019
17057TIP3   OH251047   6.640   8.933   4.345
17057TIP3    H151048   6.562   8.962   4.394
17057TIP3    H251049   6.620   8.969   4.255
17058TIP3   OH251050   6.792   9.469   5.412
17058TIP3    H151051   6.878   9.468   5.459
17058TIP3    H251052   6.772   9.374   5.410
17059TIP3   OH251053   7.279   9.439   5.454
17059TIP3    H151054   7.372   9.412   5.463
17059TIP3    H251055   7.251   9.381   5.380
17060TIP3   OH251056   7.256   9.012   3.586
17060TIP3    H151057   7.200   8.940   3.623
17060TIP3    H251058   7.331   8.961   3.552
17061TIP3   OH251059   7.914   9.342   5.185
17061TIP3    H151060   7.902   9.270   5.251
17061TIP3    H251061   7.990   9.392   5.222
17062TIP3   OH251062   7.691   9.053   3.493
17062TIP3    H151063   7.744   8.997   3.551
17062TIP3    H251064   7.747   9.060   3.413
17063TIP3   OH251065   6.923   8.877   5.612
17063TIP3    H151066   6.941   8.781   5.617
17063TIP3    H251067   6.835   8.878   5.569
17064TIP3   OH251068   6.900   8.531   3.804
17064TIP3    H151069   6.954   8.495   3.876
17064TIP3    H251070   6.968   8.534   3.732
17065TIP3   OH251071   7.532   8.961   5.385
17065TIP3    H151072   7.490   8.974   5.298
17065TIP3    H251073   7.564   8.868   5.380
17066TIP3   OH251074   7.408   8.727   3.612
17066TIP3    H151075   7.410   8.740   3.709
17066TIP3    H251076   7.406   8.629   3.607
17067TIP3   OH251077   8.024   8.966   4.990
17067TIP3    H151078   8.097   9.014   4.945
17067TIP3    H251079   7.952   9.031   4.980
17068TIP3   OH251080   7.043   8.609   5.592
17068TIP3    H151081   7.116   8.548   5.575
17068TIP3    H251082   7.065   8.642   5.681
17069TIP3   OH251083   7.112   8.430   4.030
17069TIP3    H151084   7.081   8.388   4.111
17069TIP3    H251085   7.144   8.354   3.978
17070TIP3   OH251086   7.376   8.495   5.254
17070TIP3    H151087   7.300   8.556   5.259
17070TIP3    H251088   7.424   8.529   5.175
17071TIP3   OH251089   7.208   8.223   3.869
17071TIP3    H151090   7.179   8.224   3.775
17071TIP3    H251091   7.305   8.232   3.859
17072TIP3   OH251092   7.893   8.895   5.388
17072TIP3    H151093   7.976   8.873   5.344
17072TIP3    H251094   7.891   8.831   5.462
17073TIP3   OH251095   8.035   8.557   3.528
17073TIP3    H151096   8.010   8.510   3.446
17073TIP3    H251097   8.003   8.647   3.505
17074TIP3   OH251098   7.500   8.283   5.384
17074TIP3    H151099   7.500   8.202   5.329
17074TIP3    H251100   7.456   8.348   5.325
17075TIP3   OH251101   7.503   8.070   5.186
17075TIP3    H151102   7.529   8.109   5.101
17075TIP3    H251103   7.409   8.047   5.171
17076TIP3   OH251104   7.533   8.605   5.059
17076TIP3    H151105   7.616   8.614   5.010
17076TIP3    H251106   7.477   8.673   5.018
17077TIP3   OH251107   8.114   8.573   5.441
17077TIP3    H151108   8.160   8.491   5.467
17077TIP3    H251109   8.187   8.628   5.411
17078TIP3   OH251110   8.155   8.825   5.179
17078TIP3    H151111   8.097   8.878   5.120
17078TIP3    H251112   8.242   8.844   5.137
17079TIP3   OH251113   7.374   8.400   5.608
17079TIP3    H151114   7.307   8.330   5.624
17079TIP3    H251115   7.413   8.371   5.524
17080TIP3   OH251116   7.635   7.834   5.251
17080TIP3    H151117   7.586   7.916   5.232
17080TIP3    H251118   7.564   7.766   5.243
17081TIP3   OH251119   7.762   8.341   5.471
17081TIP3    H151120   7.756   8.329   5.568
17081TIP3    H251121   7.671   8.314   5.447
17082TIP3   OH251122   8.000   8.283   5.323
17082TIP3    H151123   7.925   8.288   5.387
17082TIP3    H251124   8.073   8.254   5.381
17083TIP3   OH251125   8.228   8.224   5.475
17083TIP3    H151126   8.241   8.130   5.498
17083TIP3    H251127   8.222   8.268   5.562
17084TIP3   OH251128   7.219   8.178   5.663
17084TIP3    H151129   7.226   8.087   5.628
17084TIP3    H251130   7.254   8.165   5.753
17085TIP3   OH251131   7.731   7.846   5.509
17085TIP3    H151132   7.799   7.775   5.508
17085TIP3    H251133   7.691   7.834   5.421
17086TIP3   OH251134   7.796   8.060   5.669
17086TIP3    H151135   7.773   7.988   5.606
17086TIP3    H251136   7.718   8.118   5.664
17087TIP3   OH251137   7.015   9.287   3.772
17087TIP3    H151138   7.111   9.285   3.753
17087TIP3    H251139   6.985   9.335   3.692
17088TIP3   OH251140   6.497   8.667   3.993
17088TIP3    H151141   6.591   8.692   3.976
17088TIP3    H251142   6.492   8.581   3.947
17089TIP3   OH251143   6.407   9.282   4.402
17089TIP3    H151144   6.341   9.218   4.367
17089TIP3    H251145   6.453   9.226   4.468
17090TIP3   OH251146   6.544   9.137   4.589
17090TIP3    H151147   6.536   9.060   4.647
17090TIP3    H251148   6.597   9.197   4.646
17091TIP3   OH251149   8.235   9.534   4.383
17091TIP3    H151150   8.279   9.557   4.467
17091TIP3    H251151   8.291   9.585   4.323
17092TIP3   OH251152   8.311   9.551   4.667
17092TIP3    H151153   8.267   9.463   4.665
17092TIP3    H251154   8.389   9.527   4.721
17093TIP3   OH251155   8.350   9.236   5.242
17093TIP3    H151156   8.276   9.238   5.306
17093TIP3    H251157   8.384   9.326   5.244
17094TIP3   OH251158   8.165   8.745   3.863
17094TIP3    H151159   8.234   8.808   3.834
17094TIP3    H251160   8.209   8.705   3.941
17095TIP3   OH251161   8.294   8.612   4.064
17095TIP3    H151162   8.226   8.581   4.127
17095TIP3    H251163   8.361   8.652   4.123
17096TIP3   OH251164   8.344   9.000   4.497
17096TIP3    H151165   8.400   8.940   4.444
17096TIP3    H251166   8.337   9.078   4.438
17097TIP3   OH251167   8.178   9.302   4.693
17097TIP3    H151168   8.108   9.346   4.745
17097TIP3    H251169   8.127   9.253   4.625
17098TIP3   OH251170   8.230   8.518   3.716
17098TIP3    H151171   8.159   8.522   3.648
17098TIP3    H251172   8.205   8.596   3.770
17099TIP3   OH251173   8.097   8.193   3.676
17099TIP3    H151174   8.062   8.234   3.596
17099TIP3    H251175   8.072   8.099   3.662
17100TIP3   OH251176   8.104   8.469   4.216
17100TIP3    H151177   8.169   8.400   4.230
17100TIP3    H251178   8.082   8.495   4.308
17101TIP3   OH251179   6.735   8.543   4.959
17101TIP3    H151180   6.733   8.512   4.866
17101TIP3    H251181   6.832   8.543   4.976
17102TIP3   OH251182   8.395   8.890   5.066
17102TIP3    H151183   8.470   8.825   5.060
17102TIP3    H251184   8.426   8.963   5.010
17103TIP3   OH251185   8.584   8.701   5.091
17103TIP3    H151186   8.509   8.650   5.128
17103TIP3    H251187   8.656   8.635   5.103
17104TIP3   OH251188   8.044   7.928   3.662
17104TIP3    H151189   8.120   7.890   3.710
17104TIP3    H251190   7.971   7.865   3.678
17105TIP3   OH251191   8.265   8.368   4.598
17105TIP3    H151192   8.355   8.392   4.565
17105TIP3    H251193   8.276   8.396   4.692
17106TIP3   OH251194   8.331   8.500   4.836
17106TIP3    H151195   8.255   8.534   4.887
17106TIP3    H251196   8.364   8.582   4.792
17107TIP3   OH251197   6.951   8.230   5.636
17107TIP3    H151198   7.049   8.222   5.637
17107TIP3    H251199   6.926   8.144   5.676
17108TIP3   OH251200   8.784   8.088   5.390
17108TIP3    H151201   8.843   8.022   5.348
17108TIP3    H251202   8.761   8.145   5.315
17109TIP3   OH251203   6.913   7.919   4.964
17109TIP3    H151204   6.975   7.844   4.977
17109TIP3    H251205   6.975   7.994   4.961
17110TIP3   OH251206   6.716   8.194   5.039
17110TIP3    H151207   6.765   8.186   4.955
17110TIP3    H251208   6.748   8.280   5.071
17111TIP3   OH251209   8.659   8.234   5.198
17111TIP3    H151210   8.573   8.271   5.224
17111TIP3    H251211   8.630   8.161   5.140
17112TIP3   OH251212   8.299   7.868   3.785
17112TIP3    H151213   8.335   7.796   3.728
17112TIP3    H251214   8.362   7.941   3.767
17113TIP3   OH251215   6.698   7.699   4.542
17113TIP3    H151216   6.604   7.696   4.566
17113TIP3    H251217   6.697   7.756   4.462
17114TIP3   OH251218   7.826   9.424   4.059
17114TIP3    H151219   7.885   9.397   3.986
17114TIP3    H251220   7.885   9.482   4.110
17115TIP3   OH251221   6.919   7.779   5.354
17115TIP3    H151222   6.870   7.769   5.437
17115TIP3    H251223   6.849   7.816   5.296
17116TIP3   OH251224   6.959   9.204   5.433
17116TIP3    H151225   6.867   9.174   5.415
17116TIP3    H251226   6.969   9.184   5.527
17117TIP3   OH251227   7.135   9.234   4.979
17117TIP3    H151228   7.088   9.310   4.941
17117TIP3    H251229   7.222   9.248   4.935
17118TIP3   OH251230   7.584   9.481   5.118
17118TIP3    H151231   7.626   9.482   5.207
17118TIP3    H251232   7.649   9.531   5.065
17119TIP3   OH251233   7.762   9.631   4.975
17119TIP3    H151234   7.833   9.581   4.932
17119TIP3    H251235   7.812   9.690   5.034
17120TIP3   OH251236   8.557   7.995   5.074
17120TIP3    H151237   8.463   7.987   5.047
17120TIP3    H251238   8.587   7.902   5.064
17121TIP3   OH251239   6.814   9.493   5.001
17121TIP3    H151240   6.726   9.529   4.978
17121TIP3    H251241   6.822   9.525   5.092
17122TIP3   OH251242   7.050   9.471   4.859
17122TIP3    H151243   6.964   9.485   4.905
17122TIP3    H251244   7.030   9.505   4.770
17123TIP3   OH251245   7.476   9.502   4.657
17123TIP3    H151246   7.408   9.523   4.591
17123TIP3    H251247   7.489   9.589   4.699
17124TIP3   OH251248   7.744   9.441   4.709
17124TIP3    H151249   7.650   9.457   4.689
17124TIP3    H251250   7.787   9.516   4.666
17125TIP3   OH251251   7.950   9.634   4.624
17125TIP3    H151252   7.941   9.720   4.577
17125TIP3    H251253   7.972   9.573   4.550
17126TIP3   OH251254   6.724   9.287   4.749
17126TIP3    H151255   6.752   9.262   4.839
17126TIP3    H251256   6.796   9.244   4.697
17127TIP3   OH251257   6.917   9.159   4.603
17127TIP3    H151258   6.934   9.074   4.651
17127TIP3    H251259   7.008   9.196   4.599
17128TIP3   OH251260   7.183   9.254   4.606
17128TIP3    H151261   7.215   9.163   4.593
17128TIP3    H251262   7.226   9.276   4.690
17129TIP3   OH251263   7.761   7.908   4.690
17129TIP3    H151264   7.715   7.845   4.748
17129TIP3    H251265   7.827   7.852   4.647
17130TIP3   OH251266   8.288   7.781   4.595
17130TIP3    H151267   8.326   7.843   4.531
17130TIP3    H251268   8.193   7.806   4.599
17131TIP3   OH251269   8.366   7.909   4.361
17131TIP3    H151270   8.420   7.836   4.324
17131TIP3    H251271   8.430   7.983   4.345
17132TIP3   OH251272   7.010   7.619   4.711
17132TIP3    H151273   6.918   7.585   4.712
17132TIP3    H251274   7.060   7.534   4.709
17133TIP3   OH251275   6.795   7.487   4.358
17133TIP3    H151276   6.825   7.545   4.286
17133TIP3    H251277   6.765   7.552   4.425
17134TIP3   OH251278   7.451   7.652   4.590
17134TIP3    H151279   7.515   7.702   4.537
17134TIP3    H251280   7.468   7.686   4.679
17135TIP3   OH251281   8.006   7.793   4.560
17135TIP3    H151282   7.996   7.737   4.482
17135TIP3    H251283   7.991   7.724   4.630
17136TIP3   OH251284   8.030   7.719   4.139
17136TIP3    H151285   7.939   7.753   4.139
17136TIP3    H251286   8.019   7.634   4.187
17137TIP3   OH251287   6.513   9.056   4.141
17137TIP3    H151288   6.429   9.022   4.104
17137TIP3    H251289   6.500   9.151   4.125
17138TIP3   OH251290   6.911   7.648   4.123
17138TIP3    H151291   6.959   7.585   4.066
17138TIP3    H251292   6.984   7.701   4.160
17139TIP3   OH251293   7.424   7.821   4.219
17139TIP3    H151294   7.477   7.771   4.282
17139TIP3    H251295   7.447   7.913   4.247
17140TIP3   OH251296   7.284   9.250   3.720
17140TIP3    H151297   7.373   9.271   3.685
17140TIP3    H251298   7.262   9.174   3.662
17141TIP3   OH251299   8.020   9.297   3.915
17141TIP3    H151300   7.999   9.235   3.841
17141TIP3    H251301   8.022   9.233   3.988
17142TIP3   OH251302   7.217   7.901   5.602
17142TIP3    H151303   7.184   7.830   5.659
17142TIP3    H251304   7.312   7.901   5.629
17143TIP3   OH251305   7.466   7.896   5.721
17143TIP3    H151306   7.552   7.870   5.684
17143TIP3    H251307   7.453   7.826   5.788
17144TIP3   OH251308   6.592   9.090   3.780
17144TIP3    H151309   6.590   9.110   3.874
17144TIP3    H251310   6.679   9.045   3.768
17145TIP3   OH251311   8.289   7.955   5.510
17145TIP3    H151312   8.308   7.925   5.601
17145TIP3    H251313   8.378   7.951   5.469
17146TIP3   OH251314   8.225   9.507   5.012
17146TIP3    H151315   8.150   9.475   4.957
17146TIP3    H251316   8.212   9.603   5.002
17147TIP3   OH251317   8.797   8.771   4.510
17147TIP3    H151318   8.826   8.710   4.580
17147TIP3    H251319   8.860   8.844   4.523
17148TIP3   OH251320   8.753   9.156   4.223
17148TIP3    H151321   8.764   9.060   4.236
17148TIP3    H251322   8.832   9.193   4.264
17149TIP3   OH251323   8.464   8.383   4.033
17149TIP3    H151324   8.424   8.472   4.040
17149TIP3    H251325   8.398   8.338   3.977
17150TIP3   OH251326   8.532   8.676   4.190
17150TIP3    H151327   8.583   8.602   4.229
17150TIP3    H251328   8.594   8.709   4.123
17151TIP3   OH251329   9.033   8.272   4.197
17151TIP3    H151330   9.023   8.342   4.129
17151TIP3    H251331   8.991   8.197   4.150
17152TIP3   OH251332   8.678   8.472   4.300
17152TIP3    H151333   8.761   8.451   4.349
17152TIP3    H251334   8.693   8.418   4.219
17153TIP3   OH251335   9.115   8.679   4.096
17153TIP3    H151336   9.211   8.659   4.086
17153TIP3    H251337   9.076   8.595   4.063
17154TIP3   OH251338   9.038   8.250   4.628
17154TIP3    H151339   8.977   8.288   4.562
17154TIP3    H251340   8.988   8.269   4.710
17155TIP3   OH251341   8.908   8.368   4.416
17155TIP3    H151342   8.973   8.438   4.437
17155TIP3    H251343   8.954   8.326   4.340
17156TIP3   OH251344   8.370   8.905   3.756
17156TIP3    H151345   8.320   8.941   3.681
17156TIP3    H251346   8.392   8.988   3.805
17157TIP3   OH251347   9.391   7.960   4.345
17157TIP3    H151348   9.380   7.866   4.368
17157TIP3    H251349   9.314   7.999   4.393
17158TIP3   OH251350   8.881   8.794   4.003
17158TIP3    H151351   8.847   8.757   3.919
17158TIP3    H251352   8.973   8.764   4.001
17159TIP3   OH251353   9.053   8.797   4.338
17159TIP3    H151354   9.052   8.761   4.246
17159TIP3    H251355   9.044   8.893   4.322
17160TIP3   OH251356   8.932   8.899   4.756
17160TIP3    H151357   8.938   8.982   4.808
17160TIP3    H251358   8.838   8.879   4.770
17161TIP3   OH251359   8.771   8.661   3.787
17161TIP3    H151360   8.702   8.701   3.730
17161TIP3    H251361   8.742   8.570   3.792
17162TIP3   OH251362   8.546   9.035   4.700
17162TIP3    H151363   8.483   9.012   4.629
17162TIP3    H251364   8.584   8.949   4.725
17163TIP3   OH251365   8.411   9.230   4.336
17163TIP3    H151366   8.504   9.223   4.312
17163TIP3    H251367   8.410   9.308   4.394
17164TIP3   OH251368   8.753   9.211   4.685
17164TIP3    H151369   8.789   9.205   4.775
17164TIP3    H251370   8.683   9.143   4.687
17165TIP3   OH251371   9.156   8.046   4.470
17165TIP3    H151372   9.065   8.018   4.448
17165TIP3    H251373   9.136   8.131   4.514
17166TIP3   OH251374   9.694   8.151   4.658
17166TIP3    H151375   9.759   8.142   4.730
17166TIP3    H251376   9.609   8.146   4.706
17167TIP3   OH251377   9.285   8.087   3.432
17167TIP3    H151378   9.257   8.101   3.525
17167TIP3    H251379   9.246   7.999   3.415
17168TIP3   OH251380   9.083   8.568   4.488
17168TIP3    H151381   9.031   8.581   4.570
17168TIP3    H251382   9.064   8.649   4.438
17169TIP3   OH251383   8.982   8.450   3.994
17169TIP3    H151384   8.888   8.423   4.004
17169TIP3    H251385   9.000   8.423   3.901
17170TIP3   OH251386   8.909   8.592   4.701
17170TIP3    H151387   8.932   8.653   4.773
17170TIP3    H251388   8.899   8.508   4.751
17171TIP3   OH251389   8.945   8.051   3.413
17171TIP3    H151390   8.949   8.059   3.510
17171TIP3    H251391   8.874   8.112   3.389
17172TIP3   OH251392   8.493   8.124   4.279
17172TIP3    H151393   8.570   8.156   4.331
17172TIP3    H251394   8.536   8.093   4.197
17173TIP3   OH251395   8.481   8.095   3.797
17173TIP3    H151396   8.525   8.132   3.718
17173TIP3    H251397   8.420   8.169   3.817
17174TIP3   OH251398   9.287   8.269   4.072
17174TIP3    H151399   9.211   8.268   4.133
17174TIP3    H251400   9.362   8.261   4.135
17175TIP3   OH251401   8.735   8.327   4.073
17175TIP3    H151402   8.640   8.328   4.047
17175TIP3    H251403   8.764   8.237   4.049
17176TIP3   OH251404   8.789   8.398   3.483
17176TIP3    H151405   8.749   8.314   3.458
17176TIP3    H251406   8.856   8.371   3.552
17177TIP3   OH251407   8.917   9.129   4.909
17177TIP3    H151408   8.980   9.199   4.928
17177TIP3    H251409   8.852   9.142   4.982
17178TIP3   OH251410   8.906   8.090   4.036
17178TIP3    H151411   8.882   8.006   4.080
17178TIP3    H251412   8.960   8.060   3.962
17179TIP3   OH251413   9.356   8.474   4.472
17179TIP3    H151414   9.273   8.523   4.460
17179TIP3    H251415   9.423   8.544   4.478
17180TIP3   OH251416   8.790   8.888   4.237
17180TIP3    H151417   8.817   8.857   4.147
17180TIP3    H251418   8.818   8.815   4.294
17181TIP3   OH251419   8.671   8.827   4.834
17181TIP3    H151420   8.695   8.815   4.928
17181TIP3    H251421   8.601   8.760   4.823
17182TIP3   OH251422   8.451   8.517   3.548
17182TIP3    H151423   8.498   8.600   3.567
17182TIP3    H251424   8.375   8.524   3.611
17183TIP3   OH251425   8.883   8.335   4.845
17183TIP3    H151426   8.787   8.340   4.863
17183TIP3    H251427   8.913   8.276   4.915
17184TIP3   OH251428   8.590   9.408   4.547
17184TIP3    H151429   8.616   9.323   4.589
17184TIP3    H251430   8.650   9.467   4.597
17185TIP3   OH251431   8.574   8.765   3.625
17185TIP3    H151432   8.511   8.816   3.680
17185TIP3    H251433   8.635   8.835   3.595
17186TIP3   OH251434   9.341   8.298   3.797
17186TIP3    H151435   9.308   8.373   3.746
17186TIP3    H251436   9.312   8.319   3.888
17187TIP3   OH251437   9.436   8.063   3.912
17187TIP3    H151438   9.401   8.133   3.970
17187TIP3    H251439   9.478   8.121   3.846
17188TIP3   OH251440   8.943   8.055   3.688
17188TIP3    H151441   8.954   8.152   3.701
17188TIP3    H251442   9.037   8.029   3.698
17189TIP3   OH251443   8.507   8.245   3.570
17189TIP3    H151444   8.512   8.342   3.565
17189TIP3    H251445   8.419   8.229   3.532
17190TIP3   OH251446   8.889   7.969   4.449
17190TIP3    H151447   8.862   7.935   4.362
17190TIP3    H251448   8.883   7.890   4.506
17191TIP3   OH251449   8.401   9.162   3.846
17191TIP3    H151450   8.336   9.225   3.880
17191TIP3    H251451   8.417   9.198   3.757
17192TIP3   OH251452   8.719   9.119   5.096
17192TIP3    H151453   8.730   9.023   5.085
17192TIP3    H251454   8.631   9.136   5.058
17193TIP3   OH251455   8.838   8.855   5.076
17193TIP3    H151456   8.921   8.807   5.065
17193TIP3    H251457   8.842   8.881   5.169
17194TIP3   OH251458   8.891   8.659   3.465
17194TIP3    H151459   8.852   8.634   3.550
17194TIP3    H251460   8.974   8.607   3.466
17195TIP3   OH251461   9.169   8.748   4.737
17195TIP3    H151462   9.096   8.810   4.757
17195TIP3    H251463   9.179   8.758   4.642
17196TIP3   OH251464   9.290   8.534   4.874
17196TIP3    H151465   9.296   8.455   4.817
17196TIP3    H251466   9.257   8.603   4.812
17197TIP3   OH251467   9.295   8.320   4.686
17197TIP3    H151468   9.325   8.365   4.603
17197TIP3    H251469   9.202   8.299   4.662
17198TIP3   OH251470   9.163   8.658   5.088
17198TIP3    H151471   9.100   8.586   5.106
17198TIP3    H251472   9.206   8.627   5.005
17199TIP3   OH251473   9.431   8.089   4.739
17199TIP3    H151474   9.383   8.173   4.721
17199TIP3    H251475   9.360   8.022   4.729
17200TIP3   OH251476   9.550   8.612   4.953
17200TIP3    H151477   9.539   8.602   5.048
17200TIP3    H251478   9.463   8.583   4.921
17201TIP3   OH251479   9.013   8.433   5.145
17201TIP3    H151480   9.021   8.343   5.110
17201TIP3    H251481   9.047   8.420   5.236
17202TIP3   OH251482   9.526   8.096   4.994
17202TIP3    H151483   9.596   8.027   4.990
17202TIP3    H251484   9.489   8.089   4.903
17203TIP3   OH251485   9.562   8.299   5.169
17203TIP3    H151486   9.556   8.237   5.094
17203TIP3    H251487   9.524   8.381   5.133
17204TIP3   OH251488   8.291   8.928   3.462
17204TIP3    H151489   8.386   8.947   3.467
17204TIP3    H251490   8.290   8.836   3.426
17205TIP3   OH251491   8.177   9.522   3.893
17205TIP3    H151492   8.120   9.444   3.879
17205TIP3    H251493   8.247   9.483   3.948
17206TIP3   OH251494   8.338   9.386   4.070
17206TIP3    H151495   8.338   9.316   4.136
17206TIP3    H251496   8.378   9.459   4.119
17207TIP3   OH251497   8.531   8.795   4.446
17207TIP3    H151498   8.529   8.769   4.351
17207TIP3    H251499   8.628   8.797   4.462
17208TIP3   OH251500   8.747   8.486   5.121
17208TIP3    H151501   8.845   8.478   5.123
17208TIP3    H251502   8.722   8.402   5.164
17209TIP3   OH251503   8.704   8.176   4.450
17209TIP3    H151504   8.767   8.102   4.462
17209TIP3    H251505   8.766   8.251   4.447
17210TIP3   OH251506   8.513   8.450   4.523
17210TIP3    H151507   8.566   8.448   4.440
17210TIP3    H251508   8.539   8.536   4.559
17211TIP3   OH251509   8.497   7.966   4.031
17211TIP3    H151510   8.404   7.942   4.022
17211TIP3    H251511   8.511   8.018   3.949
17212TIP3   OH251512   8.714   8.035   4.841
17212TIP3    H151513   8.666   8.027   4.925
17212TIP3    H251514   8.645   8.072   4.783
17213TIP3   OH251515   8.746   9.412   4.931
17213TIP3    H151516   8.656   9.435   4.902
17213TIP3    H251517   8.748   9.447   5.020
17214TIP3   OH251518   9.505   8.170   4.199
17214TIP3    H151519   9.481   8.089   4.249
17214TIP3    H251520   9.569   8.138   4.135
17215TIP3   OH251521   8.805   7.875   4.201
17215TIP3    H151522   8.713   7.841   4.200
17215TIP3    H251523   8.856   7.791   4.197
17216TIP3   OH251524   8.592   7.742   3.844
17216TIP3    H151525   8.625   7.796   3.770
17216TIP3    H251526   8.567   7.810   3.909
17217TIP3   OH251527   9.245   7.908   4.082
17217TIP3    H151528   9.307   7.955   4.023
17217TIP3    H251529   9.271   7.942   4.169
17218TIP3   OH251530   9.870   7.944   4.012
17218TIP3    H151531   9.821   8.022   3.983
17218TIP3    H251532   9.813   7.911   4.085
17219TIP3   OH251533   8.278   9.305   3.632
17219TIP3    H151534   8.197   9.262   3.599
17219TIP3    H251535   8.259   9.395   3.597
17220TIP3   OH251536   8.709   7.904   3.613
17220TIP3    H151537   8.758   7.844   3.553
17220TIP3    H251538   8.782   7.959   3.649
17221TIP3   OH251539   9.216   8.069   3.711
17221TIP3    H151540   9.284   8.042   3.774
17221TIP3    H251541   9.222   8.166   3.723
17222TIP3   OH251542   9.014   8.156   5.088
17222TIP3    H151543   8.981   8.085   5.146
17222TIP3    H251544   9.109   8.157   5.115
17223TIP3   OH251545   9.262   8.157   5.211
17223TIP3    H151546   9.348   8.135   5.172
17223TIP3    H251547   9.251   8.084   5.276
17224TIP3   OH251548   0.990   8.976   6.401
17224TIP3    H151549   0.945   9.057   6.430
17224TIP3    H251550   0.988   8.990   6.305
17225TIP3   OH251551   1.252   8.875   7.089
17225TIP3    H151552   1.300   8.809   7.033
17225TIP3    H251553   1.209   8.930   7.020
17226TIP3   OH251554   1.109   9.015   6.896
17226TIP3    H151555   1.021   9.051   6.910
17226TIP3    H251556   1.089   8.940   6.837
17227TIP3   OH251557   0.758   8.657   5.482
17227TIP3    H151558   0.784   8.584   5.423
17227TIP3    H251559   0.817   8.729   5.453
17228TIP3   OH251560   1.013   8.790   6.758
17228TIP3    H151561   0.919   8.785   6.736
17228TIP3    H251562   1.040   8.696   6.751
17229TIP3   OH251563   0.829   8.654   6.018
17229TIP3    H151564   0.923   8.635   6.022
17229TIP3    H251565   0.831   8.751   6.034
17230TIP3   OH251566   0.914   9.181   5.711
17230TIP3    H151567   0.894   9.271   5.741
17230TIP3    H251568   0.847   9.129   5.756
17231TIP3   OH251569   2.759   9.216   5.883
17231TIP3    H151570   2.789   9.301   5.923
17231TIP3    H251571   2.775   9.234   5.789
17232TIP3   OH251572   2.161   9.401   5.914
17232TIP3    H151573   2.200   9.314   5.935
17232TIP3    H251574   2.123   9.382   5.826
17233TIP3   OH251575   1.495   9.057   5.885
17233TIP3    H151576   1.477   9.131   5.823
17233TIP3    H251577   1.446   8.985   5.840
17234TIP3   OH251578   2.189   9.145   5.510
17234TIP3    H151579   2.264   9.129   5.572
17234TIP3    H251580   2.238   9.182   5.434
17235TIP3   OH251581   1.119   9.241   5.996
17235TIP3    H151582   1.204   9.237   6.042
17235TIP3    H251583   1.141   9.204   5.909
17236TIP3   OH251584   1.585   9.462   5.769
17236TIP3    H151585   1.669   9.423   5.800
17236TIP3    H251586   1.534   9.384   5.741
17237TIP3   OH251587   2.846   9.423   6.055
17237TIP3    H151588   2.765   9.468   6.022
17237TIP3    H251589   2.827   9.424   6.150
17238TIP3   OH251590   1.493   9.040   6.319
17238TIP3    H151591   1.432   9.076   6.252
17238TIP3    H251592   1.440   9.056   6.401
17239TIP3   OH251593   2.403   9.149   5.676
17239TIP3    H151594   2.397   9.096   5.757
17239TIP3    H251595   2.453   9.227   5.705
17240TIP3   OH251596   1.365   9.154   6.104
17240TIP3    H151597   1.426   9.229   6.122
17240TIP3    H251598   1.411   9.111   6.029
17241TIP3   OH251599   2.552   9.125   6.054
17241TIP3    H151600   2.462   9.145   6.021
17241TIP3    H251601   2.608   9.149   5.978
17242TIP3   OH251602   1.852   8.761   6.031
17242TIP3    H151603   1.840   8.666   6.050
17242TIP3    H251604   1.774   8.798   6.078
17243TIP3   OH251605   1.744   9.273   5.042
17243TIP3    H151606   1.794   9.349   5.074
17243TIP3    H251607   1.798   9.243   4.967
17244TIP3   OH251608   2.393   9.639   6.156
17244TIP3    H151609   2.396   9.731   6.126
17244TIP3    H251610   2.301   9.614   6.126
17245TIP3   OH251611   2.484   8.705   5.134
17245TIP3    H151612   2.402   8.722   5.185
17245TIP3    H251613   2.493   8.789   5.084
17246TIP3   OH251614   2.616   9.614   6.339
17246TIP3    H151615   2.534   9.606   6.288
17246TIP3    H251616   2.640   9.520   6.346
17247TIP3   OH251617   1.614   8.838   6.159
17247TIP3    H151618   1.524   8.806   6.138
17247TIP3    H251619   1.590   8.921   6.205
17248TIP3   OH251620   2.143   8.954   6.355
17248TIP3    H151621   2.210   8.924   6.419
17248TIP3    H251622   2.058   8.931   6.399
17249TIP3   OH251623   2.394   9.374   6.284
17249TIP3    H151624   2.341   9.363   6.366
17249TIP3    H251625   2.352   9.450   6.242
17250TIP3   OH251626   1.761   8.882   5.132
17250TIP3    H151627   1.725   8.883   5.223
17250TIP3    H251628   1.720   8.800   5.099
17251TIP3   OH251629   1.537   9.362   6.173
17251TIP3    H151630   1.477   9.367   6.251
17251TIP3    H251631   1.515   9.442   6.125
17252TIP3   OH251632   1.428   9.236   5.694
17252TIP3    H151633   1.334   9.212   5.708
17252TIP3    H251634   1.442   9.201   5.604
17253TIP3   OH251635   1.930   9.326   5.423
17253TIP3    H151636   1.848   9.375   5.400
17253TIP3    H251637   1.969   9.307   5.336
17254TIP3   OH251638   2.115   9.577   6.480
17254TIP3    H151639   2.093   9.510   6.549
17254TIP3    H251640   2.188   9.622   6.522
17255TIP3   OH251641   2.068   9.343   5.662
17255TIP3    H151642   2.008   9.361   5.586
17255TIP3    H251643   2.110   9.263   5.625
17256TIP3   OH251644   1.388   9.371   6.407
17256TIP3    H151645   1.330   9.446   6.435
17256TIP3    H251646   1.346   9.294   6.449
17257TIP3   OH251647   1.413   8.859   5.102
17257TIP3    H151648   1.404   8.856   5.199
17257TIP3    H251649   1.333   8.907   5.076
17258TIP3   OH251650   0.954   8.901   5.958
17258TIP3    H151651   1.018   8.937   6.023
17258TIP3    H251652   1.012   8.876   5.886
17259TIP3   OH251653   0.934   8.896   5.502
17259TIP3    H151654   0.974   8.919   5.416
17259TIP3    H251655   0.890   8.980   5.519
17260TIP3   OH251656   2.135   9.585   6.109
17260TIP3    H151657   2.136   9.522   6.034
17260TIP3    H251658   2.060   9.547   6.160
17261TIP3   OH251659   1.752   9.053   5.756
17261TIP3    H151660   1.668   9.057   5.805
17261TIP3    H251661   1.816   9.068   5.827
17262TIP3   OH251662   1.186   9.119   5.755
17262TIP3    H151663   1.092   9.119   5.727
17262TIP3    H251664   1.215   9.028   5.735
17263TIP3   OH251665   1.462   9.112   5.451
17263TIP3    H151666   1.553   9.134   5.425
17263TIP3    H251667   1.409   9.137   5.371
17264TIP3   OH251668   2.244   9.136   5.959
17264TIP3    H151669   2.207   9.146   6.049
17264TIP3    H251670   2.182   9.072   5.920
17265TIP3   OH251671   1.295   9.131   5.232
17265TIP3    H151672   1.232   9.094   5.167
17265TIP3    H251673   1.343   9.196   5.176
17266TIP3   OH251674   1.832   9.367   5.846
17266TIP3    H151675   1.915   9.343   5.802
17266TIP3    H251676   1.851   9.352   5.940
17267TIP3   OH251677   1.358   8.879   5.726
17267TIP3    H151678   1.339   8.794   5.769
17267TIP3    H251679   1.410   8.853   5.648
17268TIP3   OH251680   1.808   9.274   6.147
17268TIP3    H151681   1.721   9.318   6.148
17268TIP3    H251682   1.866   9.340   6.192
17269TIP3   OH251683   2.007   8.997   5.100
17269TIP3    H151684   1.912   8.975   5.108
17269TIP3    H251685   2.010   9.092   5.119
17270TIP3   OH251686   2.077   9.254   5.188
17270TIP3    H151687   2.169   9.242   5.217
17270TIP3    H251688   2.083   9.337   5.138
17271TIP3   OH251689   1.811   9.611   6.594
17271TIP3    H151690   1.747   9.565   6.529
17271TIP3    H251691   1.890   9.557   6.579
17272TIP3   OH251692   2.520   9.314   5.044
17272TIP3    H151693   2.456   9.273   4.981
17272TIP3    H251694   2.523   9.403   5.005
17273TIP3   OH251695   1.339   9.114   6.543
17273TIP3    H151696   1.252   9.135   6.580
17273TIP3    H251697   1.374   9.053   6.610
17274TIP3   OH251698   2.167   9.193   6.221
17274TIP3    H151699   2.251   9.218   6.261
17274TIP3    H251700   2.148   9.109   6.267
17275TIP3   OH251701   2.050   8.939   5.378
17275TIP3    H151702   2.034   8.964   5.284
17275TIP3    H251703   2.089   9.021   5.415
17276TIP3   OH251704   1.750   9.115   5.483
17276TIP3    H151705   1.816   9.185   5.468
17276TIP3    H251706   1.747   9.111   5.581
17277TIP3   OH251707   1.996   9.426   6.284
17277TIP3    H151708   2.036   9.477   6.358
17277TIP3    H251709   2.051   9.346   6.283
17278TIP3   OH251710   1.887   8.847   5.588
17278TIP3    H151711   1.872   8.925   5.644
17278TIP3    H251712   1.946   8.885   5.518
17279TIP3   OH251713   1.395   8.841   5.379
17279TIP3    H151714   1.394   8.935   5.405
17279TIP3    H251715   1.492   8.825   5.385
17280TIP3   OH251716   2.659   9.341   6.263
17280TIP3    H151717   2.563   9.340   6.282
17280TIP3    H251718   2.658   9.286   6.183
17281TIP3   OH251719   2.294   9.515   5.642
17281TIP3    H151720   2.222   9.457   5.671
17281TIP3    H251721   2.368   9.487   5.699
17282TIP3   OH251722   0.948   9.035   5.270
17282TIP3    H151723   0.970   9.127   5.248
17282TIP3    H251724   0.881   9.011   5.204
17283TIP3   OH251725   1.353   8.758   6.142
17283TIP3    H151726   1.318   8.730   6.056
17283TIP3    H251727   1.343   8.677   6.198
17284TIP3   OH251728   1.324   9.663   6.780
17284TIP3    H151729   1.329   9.570   6.751
17284TIP3    H251730   1.291   9.654   6.870
17285TIP3   OH251731   1.626   9.499   6.428
17285TIP3    H151732   1.539   9.456   6.439
17285TIP3    H251733   1.614   9.538   6.341
17286TIP3   OH251734   1.460   9.265   5.059
17286TIP3    H151735   1.438   9.214   4.981
17286TIP3    H251736   1.559   9.262   5.061
17287TIP3   OH251737   1.762   9.307   6.568
17287TIP3    H151738   1.761   9.223   6.518
17287TIP3    H251739   1.712   9.364   6.506
17288TIP3   OH251740   1.752   9.110   6.367
17288TIP3    H151741   1.777   9.155   6.283
17288TIP3    H251742   1.657   9.089   6.350
17289TIP3   OH251743   2.373   9.628   6.616
17289TIP3    H151744   2.388   9.536   6.641
17289TIP3    H251745   2.462   9.656   6.591
17290TIP3   OH251746   1.618   9.447   6.785
17290TIP3    H151747   1.553   9.374   6.798
17290TIP3    H251748   1.664   9.417   6.705
17291TIP3   OH251749   1.885   8.878   6.429
17291TIP3    H151750   1.835   8.960   6.408
17291TIP3    H251751   1.815   8.810   6.420
17292TIP3   OH251752   2.007   9.396   6.653
17292TIP3    H151753   2.002   9.378   6.749
17292TIP3    H251754   1.923   9.353   6.626
17293TIP3   OH251755   2.256   9.318   6.509
17293TIP3    H151756   2.178   9.316   6.567
17293TIP3    H251757   2.327   9.286   6.568
17294TIP3   OH251758   2.494   9.273   6.656
17294TIP3    H151759   2.499   9.176   6.675
17294TIP3    H251760   2.480   9.311   6.745
17295TIP3   OH251761   1.468   9.225   6.832
17295TIP3    H151762   1.471   9.134   6.799
17295TIP3    H251763   1.508   9.211   6.922
17296TIP3   OH251764   1.982   8.891   6.687
17296TIP3    H151765   2.047   8.818   6.683
17296TIP3    H251766   1.939   8.881   6.599
17297TIP3   OH251767   2.049   9.108   6.840
17297TIP3    H151768   2.023   9.033   6.782
17297TIP3    H251769   1.968   9.163   6.841
17298TIP3   OH251770   2.348   9.242   4.843
17298TIP3    H151771   2.324   9.264   4.752
17298TIP3    H251772   2.325   9.146   4.845
17299TIP3   OH251773   2.389   9.491   5.390
17299TIP3    H151774   2.383   9.394   5.398
17299TIP3    H251775   2.363   9.518   5.481
17300TIP3   OH251776   2.839   9.764   6.279
17300TIP3    H151777   2.754   9.719   6.300
17300TIP3    H251778   2.899   9.687   6.285
17301TIP3   OH251779   2.293   8.977   4.838
17301TIP3    H151780   2.369   8.940   4.887
17301TIP3    H251781   2.220   8.916   4.857
17302TIP3   OH251782   2.345   9.219   5.286
17302TIP3    H151783   2.387   9.131   5.300
17302TIP3    H251784   2.405   9.256   5.219
17303TIP3   OH251785   2.515   9.398   5.772
17303TIP3    H151786   2.598   9.428   5.731
17303TIP3    H251787   2.530   9.434   5.861
17304TIP3   OH251788   2.593   9.529   6.000
17304TIP3    H151789   2.517   9.558   6.054
17304TIP3    H251790   2.638   9.615   5.982
17305TIP3   OH251791   1.203   9.271   6.795
17305TIP3    H151792   1.299   9.267   6.811
17305TIP3    H251793   1.173   9.194   6.845
17306TIP3   OH251794   3.036   9.139   6.569
17306TIP3    H151795   3.092   9.069   6.527
17306TIP3    H251796   3.010   9.193   6.492
17307TIP3   OH251797   2.462   8.975   5.323
17307TIP3    H151798   2.509   8.959   5.408
17307TIP3    H251799   2.401   8.899   5.321
17308TIP3   OH251800   1.161   8.956   6.127
17308TIP3    H151801   1.230   8.893   6.155
17308TIP3    H251802   1.208   9.040   6.135
17309TIP3   OH251803   0.990   9.241   6.240
17309TIP3    H151804   1.022   9.234   6.148
17309TIP3    H251805   0.962   9.333   6.243
17310TIP3   OH251806   2.909   9.282   6.372
17310TIP3    H151807   2.818   9.313   6.391
17310TIP3    H251808   2.888   9.206   6.315
17311TIP3   OH251809   2.544   8.915   4.953
17311TIP3    H151810   2.582   8.839   4.903
17311TIP3    H251811   2.614   8.982   4.944
17312TIP3   OH251812   0.956   8.729   5.714
17312TIP3    H151813   0.870   8.753   5.753
17312TIP3    H251814   0.958   8.791   5.637
17313TIP3   OH251815   1.172   8.817   6.528
17313TIP3    H151816   1.119   8.814   6.610
17313TIP3    H251817   1.111   8.869   6.471
17314TIP3   OH251818   2.804   9.039   6.253
17314TIP3    H151819   2.712   9.030   6.221
17314TIP3    H251820   2.835   8.946   6.241
17315TIP3   OH251821   2.016   8.957   5.877
17315TIP3    H151822   1.965   8.889   5.924
17315TIP3    H251823   2.079   8.903   5.825
17316TIP3   OH251824   2.535   8.840   5.780
17316TIP3    H151825   2.570   8.889   5.702
17316TIP3    H251826   2.438   8.850   5.770
17317TIP3   OH251827   2.629   8.937   5.541
17317TIP3    H151828   2.701   8.885   5.500
17317TIP3    H251829   2.661   9.029   5.525
17318TIP3   OH251830   1.274   8.658   5.891
17318TIP3    H151831   1.180   8.641   5.879
17318TIP3    H251832   1.309   8.573   5.919
17319TIP3   OH251833   1.066   8.527   5.555
17319TIP3    H151834   1.088   8.571   5.471
17319TIP3    H251835   1.014   8.598   5.598
17320TIP3   OH251836   1.699   8.695   5.772
17320TIP3    H151837   1.756   8.745   5.711
17320TIP3    H251838   1.724   8.734   5.857
17321TIP3   OH251839   2.256   8.841   5.751
17321TIP3    H151840   2.245   8.805   5.662
17321TIP3    H251841   2.238   8.761   5.806
17322TIP3   OH251842   2.279   8.764   5.314
17322TIP3    H151843   2.190   8.804   5.323
17322TIP3    H251844   2.264   8.679   5.361
17323TIP3   OH251845   1.161   8.687   5.308
17323TIP3    H151846   1.208   8.629   5.244
17323TIP3    H251847   1.234   8.744   5.338
17324TIP3   OH251848   1.673   8.867   5.398
17324TIP3    H151849   1.735   8.821   5.457
17324TIP3    H251850   1.694   8.960   5.422
17325TIP3   OH251851   1.466   8.946   6.774
17325TIP3    H151852   1.430   8.880   6.835
17325TIP3    H251853   1.560   8.946   6.802
17326TIP3   OH251854   1.712   8.931   6.894
17326TIP3    H151855   1.800   8.908   6.861
17326TIP3    H251856   1.704   8.868   6.969
17327TIP3   OH251857   2.538   9.001   6.686
17327TIP3    H151858   2.557   8.970   6.777
17327TIP3    H251859   2.626   8.994   6.644
17328TIP3   OH251860   2.722   9.451   5.204
17328TIP3    H151861   2.671   9.523   5.243
17328TIP3    H251862   2.652   9.387   5.183
17329TIP3   OH251863   4.550   9.473   5.367
17329TIP3    H151864   4.584   9.553   5.412
17329TIP3    H251865   4.579   9.489   5.276
17330TIP3   OH251866   3.957   9.651   5.399
17330TIP3    H151867   4.000   9.566   5.422
17330TIP3    H251868   3.925   9.630   5.309
17331TIP3   OH251869   3.292   9.315   5.371
17331TIP3    H151870   3.270   9.385   5.306
17331TIP3    H251871   3.246   9.239   5.328
17332TIP3   OH251872   3.985   9.403   4.995
17332TIP3    H151873   4.057   9.385   5.060
17332TIP3    H251874   4.038   9.442   4.923
17333TIP3   OH251875   2.921   9.508   5.487
17333TIP3    H151876   3.007   9.483   5.526
17333TIP3    H251877   2.926   9.465   5.400
17334TIP3   OH251878   3.394   9.726   5.256
17334TIP3    H151879   3.463   9.666   5.289
17334TIP3    H251880   3.327   9.663   5.224
17335TIP3   OH251881   4.638   9.672   5.542
17335TIP3    H151882   4.558   9.720   5.513
17335TIP3    H251883   4.645   9.700   5.634
17336TIP3   OH251884   3.291   9.300   5.807
17336TIP3    H151885   3.226   9.328   5.739
17336TIP3    H251886   3.237   9.310   5.888
17337TIP3   OH251887   4.194   9.408   5.164
17337TIP3    H151888   4.202   9.348   5.240
17337TIP3    H251889   4.252   9.482   5.190
17338TIP3   OH251890   3.162   9.408   5.590
17338TIP3    H151891   3.226   9.481   5.605
17338TIP3    H251892   3.206   9.364   5.514
17339TIP3   OH251893   4.348   9.377   5.538
17339TIP3    H151894   4.260   9.404   5.506
17339TIP3    H251895   4.407   9.406   5.466
17340TIP3   OH251896   3.647   9.018   5.519
17340TIP3    H151897   3.638   8.922   5.536
17340TIP3    H251898   3.568   9.052   5.565
17341TIP3   OH251899   3.541   9.525   4.534
17341TIP3    H151900   3.594   9.600   4.562
17341TIP3    H251901   3.589   9.496   4.454
17342TIP3   OH251902   4.181   9.889   5.646
17342TIP3    H151903   4.201   9.979   5.616
17342TIP3    H251904   4.089   9.879   5.613
17343TIP3   OH251905   4.280   8.962   4.621
17343TIP3    H151906   4.198   8.979   4.672
17343TIP3    H251907   4.288   9.045   4.569
17344TIP3   OH251908   4.403   9.860   5.834
17344TIP3    H151909   4.328   9.851   5.774
17344TIP3    H251910   4.434   9.768   5.838
17345TIP3   OH251911   3.407   9.095   5.645
17345TIP3    H151912   3.319   9.060   5.620
17345TIP3    H251913   3.380   9.175   5.692
17346TIP3   OH251914   3.939   9.211   5.842
17346TIP3    H151915   4.008   9.180   5.904
17346TIP3    H251916   3.856   9.186   5.887
17347TIP3   OH251917   4.182   9.623   5.763
17347TIP3    H151918   4.135   9.618   5.849
17347TIP3    H251919   4.156   9.710   5.729
17348TIP3   OH251920   3.559   9.137   4.618
17348TIP3    H151921   3.522   9.139   4.709
17348TIP3    H251922   3.516   9.056   4.584
17349TIP3   OH251923   3.332   9.622   5.663
17349TIP3    H151924   3.271   9.620   5.739
17349TIP3    H251925   3.294   9.694   5.610
17350TIP3   OH251926   3.223   9.500   5.182
17350TIP3    H151927   3.131   9.469   5.197
17350TIP3    H251928   3.239   9.461   5.093
17351TIP3   OH251929   3.728   9.582   4.911
17351TIP3    H151930   3.644   9.628   4.887
17351TIP3    H251931   3.768   9.563   4.824
17352TIP3   OH251932   3.905   9.834   5.972
17352TIP3    H151933   3.890   9.763   6.038
17352TIP3    H251934   3.983   9.877   6.010
17353TIP3   OH251935   3.864   9.603   5.146
17353TIP3    H151936   3.811   9.620   5.065
17353TIP3    H251937   3.908   9.521   5.114
17354TIP3   OH251938   3.176   9.630   5.900
17354TIP3    H151939   3.100   9.682   5.932
17354TIP3    H251940   3.151   9.540   5.931
17355TIP3   OH251941   3.212   9.116   4.589
17355TIP3    H151942   3.201   9.111   4.686
17355TIP3    H251943   3.129   9.162   4.564
17356TIP3   OH251944   2.749   9.164   5.453
17356TIP3    H151945   2.827   9.190   5.506
17356TIP3    H251946   2.787   9.122   5.374
17357TIP3   OH251947   2.730   9.138   4.976
17357TIP3    H151948   2.773   9.178   4.898
17357TIP3    H251949   2.667   9.209   5.000
17358TIP3   OH251950   3.907   9.855   5.560
17358TIP3    H151951   3.926   9.777   5.503
17358TIP3    H251952   3.854   9.813   5.631
17359TIP3   OH251953   3.550   9.331   5.246
17359TIP3    H151954   3.466   9.315   5.293
17359TIP3    H251955   3.616   9.309   5.314
17360TIP3   OH251956   2.985   9.375   5.248
17360TIP3    H151957   2.890   9.380   5.223
17360TIP3    H251958   3.008   9.282   5.227
17361TIP3   OH251959   3.258   9.374   4.940
17361TIP3    H151960   3.349   9.389   4.910
17361TIP3    H251961   3.204   9.392   4.860
17362TIP3   OH251962   4.039   9.393   5.448
17362TIP3    H151963   4.000   9.400   5.537
17362TIP3    H251964   3.981   9.326   5.407
17363TIP3   OH251965   3.093   9.390   4.722
17363TIP3    H151966   3.027   9.351   4.661
17363TIP3    H251967   3.138   9.453   4.662
17364TIP3   OH251968   3.650   9.655   5.348
17364TIP3    H151969   3.705   9.600   5.289
17364TIP3    H251970   3.651   9.604   5.432
17365TIP3   OH251971   3.161   9.132   5.218
17365TIP3    H151972   3.125   9.051   5.262
17365TIP3    H251973   3.205   9.095   5.141
17366TIP3   OH251974   3.605   9.542   5.619
17366TIP3    H151975   3.517   9.576   5.642
17366TIP3    H251976   3.666   9.594   5.676
17367TIP3   OH251977   3.802   9.253   4.595
17367TIP3    H151978   3.708   9.220   4.597
17367TIP3    H251979   3.790   9.348   4.605
17368TIP3   OH251980   3.875   9.521   4.674
17368TIP3    H151981   3.964   9.495   4.705
17368TIP3    H251982   3.889   9.532   4.579
17369TIP3   OH251983   3.616   9.867   6.076
17369TIP3    H151984   3.548   9.822   6.019
17369TIP3    H251985   3.694   9.814   6.057
17370TIP3   OH251986   4.305   9.578   4.534
17370TIP3    H151987   4.242   9.536   4.470
17370TIP3    H251988   4.347   9.642   4.475
17371TIP3   OH251989   3.127   9.377   6.024
17371TIP3    H151990   3.029   9.379   6.035
17371TIP3    H251991   3.153   9.312   6.091
17372TIP3   OH251992   3.958   9.451   5.709
17372TIP3    H151993   4.046   9.479   5.739
17372TIP3    H251994   3.946   9.366   5.758
17373TIP3   OH251995   3.842   9.197   4.868
17373TIP3    H151996   3.830   9.219   4.773
17373TIP3    H251997   3.886   9.277   4.903
17374TIP3   OH251998   3.546   9.372   4.971
17374TIP3    H151999   3.615   9.440   4.956
17374TIP3    H252000   3.543   9.367   5.069
17375TIP3   OH252001   3.798   9.687   5.763
17375TIP3    H152002   3.834   9.739   5.838
17375TIP3    H252003   3.853   9.607   5.765
17376TIP3   OH252004   3.682   9.105   5.076
17376TIP3    H152005   3.680   9.183   5.134
17376TIP3    H252006   3.740   9.139   5.004
17377TIP3   OH252007   3.192   9.098   4.864
17377TIP3    H152008   3.189   9.190   4.895
17377TIP3    H252009   3.288   9.081   4.871
17378TIP3   OH252010   4.451   9.597   5.758
17378TIP3    H152011   4.354   9.588   5.765
17378TIP3    H252012   4.465   9.551   5.673
17379TIP3   OH252013   4.093   9.777   5.110
17379TIP3    H152014   4.023   9.719   5.145
17379TIP3    H252015   4.169   9.752   5.168
17380TIP3   OH252016   2.751   9.296   4.753
17380TIP3    H152017   2.761   9.390   4.737
17380TIP3    H252018   2.670   9.271   4.706
17381TIP3   OH252019   3.144   9.013   5.624
17381TIP3    H152020   3.111   8.979   5.538
17381TIP3    H252021   3.133   8.934   5.682
17382TIP3   OH252022   3.122   9.908   6.266
17382TIP3    H152023   3.139   9.818   6.235
17382TIP3    H252024   3.037   9.897   6.313
17383TIP3   OH252025   3.423   9.745   5.916
17383TIP3    H152026   3.336   9.702   5.920
17383TIP3    H252027   3.421   9.785   5.828
17384TIP3   OH252028   3.256   9.525   4.547
17384TIP3    H152029   3.230   9.472   4.470
17384TIP3    H252030   3.354   9.516   4.548
17385TIP3   OH252031   3.556   9.560   6.061
17385TIP3    H152032   3.559   9.478   6.008
17385TIP3    H252033   3.509   9.619   5.998
17386TIP3   OH252034   3.549   9.373   5.853
17386TIP3    H152035   3.575   9.406   5.765
17386TIP3    H252036   3.455   9.346   5.836
17387TIP3   OH252037   4.173   9.886   6.104
17387TIP3    H152038   4.188   9.793   6.124
17387TIP3    H252039   4.261   9.913   6.076
17388TIP3   OH252040   3.409   9.703   6.276
17388TIP3    H152041   3.352   9.623   6.284
17388TIP3    H252042   3.457   9.683   6.194
17389TIP3   OH252043   3.681   9.136   5.917
17389TIP3    H152044   3.630   9.217   5.896
17389TIP3    H252045   3.612   9.067   5.906
17390TIP3   OH252046   3.804   9.647   6.140
17390TIP3    H152047   3.802   9.633   6.237
17390TIP3    H252048   3.719   9.606   6.116
17391TIP3   OH252049   4.053   9.580   5.996
17391TIP3    H152050   3.976   9.572   6.056
17391TIP3    H252051   4.126   9.548   6.052
17392TIP3   OH252052   4.280   9.530   6.147
17392TIP3    H152053   4.292   9.434   6.163
17392TIP3    H252054   4.275   9.568   6.237
17393TIP3   OH252055   3.264   9.478   6.329
17393TIP3    H152056   3.266   9.388   6.290
17393TIP3    H252057   3.302   9.459   6.417
17394TIP3   OH252058   3.776   9.147   6.174
17394TIP3    H152059   3.844   9.076   6.172
17394TIP3    H252060   3.736   9.137   6.086
17395TIP3   OH252061   3.842   9.361   6.332
17395TIP3    H152062   3.820   9.288   6.270
17395TIP3    H252063   3.763   9.418   6.328
17396TIP3   OH252064   4.130   9.507   4.334
17396TIP3    H152065   4.126   9.522   4.239
17396TIP3    H252066   4.111   9.410   4.336
17397TIP3   OH252067   4.136   9.779   4.837
17397TIP3    H152068   4.153   9.682   4.836
17397TIP3    H252069   4.129   9.790   4.935
17398TIP3   OH252070   4.608  10.025   5.769
17398TIP3    H152071   4.542   9.957   5.792
17398TIP3    H252072   4.690   9.971   5.766
17399TIP3   OH252073   4.087   9.241   4.334
17399TIP3    H152074   4.167   9.200   4.373
17399TIP3    H252075   4.018   9.173   4.346
17400TIP3   OH252076   4.146   9.481   4.764
17400TIP3    H152077   4.181   9.391   4.786
17400TIP3    H252078   4.211   9.506   4.696
17401TIP3   OH252079   4.306   9.663   5.254
17401TIP3    H152080   4.393   9.688   5.215
17401TIP3    H252081   4.324   9.693   5.346
17402TIP3   OH252082   4.387   9.783   5.488
17402TIP3    H152083   4.311   9.812   5.541
17402TIP3    H252084   4.435   9.868   5.474
17403TIP3   OH252085   3.000   9.545   6.314
17403TIP3    H152086   3.094   9.522   6.302
17403TIP3    H252087   2.966   9.458   6.343
17404TIP3   OH252088   4.828   9.391   6.056
17404TIP3    H152089   4.887   9.324   6.016
17404TIP3    H252090   4.806   9.448   5.980
17405TIP3   OH252091   4.252   9.234   4.813
17405TIP3    H152092   4.304   9.218   4.895
17405TIP3    H252093   4.195   9.155   4.811
17406TIP3   OH252094   2.957   9.218   5.631
17406TIP3    H152095   3.020   9.144   5.639
17406TIP3    H252096   3.017   9.294   5.625
17407TIP3   OH252097   2.764   9.501   5.711
17407TIP3    H152098   2.809   9.490   5.625
17407TIP3    H252099   2.778   9.595   5.726
17408TIP3   OH252100   4.704   9.537   5.861
17408TIP3    H152101   4.613   9.569   5.875
17408TIP3    H252102   4.686   9.461   5.802
17409TIP3   OH252103   4.339   9.171   4.439
17409TIP3    H152104   4.378   9.095   4.390
17409TIP3    H252105   4.410   9.238   4.432
17410TIP3   OH252106   2.743   9.004   5.210
17410TIP3    H152107   2.649   8.995   5.230
17410TIP3    H252108   2.742   9.056   5.127
17411TIP3   OH252109   2.965   9.085   6.022
17411TIP3    H152110   2.911   9.071   6.101
17411TIP3    H252111   2.897   9.118   5.959
17412TIP3   OH252112   4.599   9.295   5.740
17412TIP3    H152113   4.508   9.284   5.707
17412TIP3    H252114   4.633   9.203   5.728
17413TIP3   OH252115   3.801   9.210   5.356
17413TIP3    H152116   3.761   9.141   5.411
17413TIP3    H252117   3.873   9.162   5.311
17414TIP3   OH252118   4.330   9.097   5.266
17414TIP3    H152119   4.366   9.145   5.188
17414TIP3    H252120   4.234   9.108   5.254
17415TIP3   OH252121   4.424   9.196   5.027
17415TIP3    H152122   4.495   9.142   4.988
17415TIP3    H252123   4.459   9.286   5.011
17416TIP3   OH252124   3.054   8.921   5.377
17416TIP3    H152125   2.962   8.887   5.376
17416TIP3    H252126   3.104   8.836   5.373
17417TIP3   OH252127   2.841   8.788   5.022
17417TIP3    H152128   2.870   8.846   4.949
17417TIP3    H252129   2.810   8.853   5.088
17418TIP3   OH252130   3.494   8.956   5.253
17418TIP3    H152131   3.558   9.002   5.197
17418TIP3    H252132   3.519   8.987   5.342
17419TIP3   OH252133   4.046   9.098   5.238
17419TIP3    H152134   4.044   9.059   5.150
17419TIP3    H252135   4.033   9.019   5.295
17420TIP3   OH252136   4.074   9.019   4.801
17420TIP3    H152137   3.984   9.055   4.809
17420TIP3    H252138   4.063   8.934   4.849
17421TIP3   OH252139   2.955   8.951   4.785
17421TIP3    H152140   3.004   8.886   4.730
17421TIP3    H252141   3.029   9.003   4.823
17422TIP3   OH252142   3.469   9.125   4.883
17422TIP3    H152143   3.526   9.075   4.943
17422TIP3    H252144   3.493   9.217   4.910
17423TIP3   OH252145   3.261   9.206   6.270
17423TIP3    H152146   3.228   9.131   6.322
17423TIP3    H252147   3.357   9.203   6.294
17424TIP3   OH252148   3.512   9.200   6.386
17424TIP3    H152149   3.595   9.169   6.345
17424TIP3    H252150   3.498   9.130   6.453
17425TIP3   OH252151   4.335   9.260   6.173
17425TIP3    H152152   4.355   9.226   6.263
17425TIP3    H252153   4.422   9.253   6.130
17426TIP3   OH252154   4.517   9.705   4.686
17426TIP3    H152155   4.480   9.784   4.727
17426TIP3    H252156   4.441   9.646   4.678
17427TIP3   OH252157   6.347   9.729   4.856
17427TIP3    H152158   6.380   9.809   4.900
17427TIP3    H252159   6.373   9.748   4.764
17428TIP3   OH252160   5.749   9.910   4.886
17428TIP3    H152161   5.793   9.825   4.908
17428TIP3    H252162   5.715   9.889   4.797
17429TIP3   OH252163   5.085   9.570   4.859
17429TIP3    H152164   5.069   9.642   4.796
17429TIP3    H252165   5.039   9.496   4.814
17430TIP3   OH252166   5.781   9.657   4.482
17430TIP3    H152167   5.854   9.642   4.547
17430TIP3    H252168   5.832   9.694   4.408
17431TIP3   OH252169   4.713   9.755   4.974
17431TIP3    H152170   4.801   9.745   5.014
17431TIP3    H252171   4.730   9.718   4.885
17432TIP3   OH252172   5.170   9.972   4.752
17432TIP3    H152173   5.259   9.937   4.776
17432TIP3    H252174   5.125   9.893   4.717
17433TIP3   OH252175   6.434   9.927   5.030
17433TIP3    H152176   6.355   9.977   5.001
17433TIP3    H252177   6.445   9.962   5.121
17434TIP3   OH252178   5.085   9.554   5.294
17434TIP3    H152179   5.024   9.588   5.225
17434TIP3    H252180   5.033   9.572   5.375
17435TIP3   OH252181   5.992   9.664   4.651
17435TIP3    H152182   5.994   9.610   4.730
17435TIP3    H252183   6.046   9.741   4.676
17436TIP3   OH252184   4.956   9.666   5.078
17436TIP3    H152185   5.019   9.739   5.096
17436TIP3    H252186   5.003   9.623   5.002
17437TIP3   OH252187   6.144   9.631   5.024
17437TIP3    H152188   6.057   9.661   4.993
17437TIP3    H252189   6.204   9.662   4.953
17438TIP3   OH252190   5.443   9.274   5.004
17438TIP3    H152191   5.433   9.178   5.023
17438TIP3    H252192   5.365   9.310   5.051
17439TIP3   OH252193   5.329   9.792   4.018
17439TIP3    H152194   5.389   9.863   4.046
17439TIP3    H252195   5.389   9.728   3.979
17440TIP3   OH252196   5.979  10.148   5.135
17440TIP3    H152197   5.996  10.235   5.095
17440TIP3    H252198   5.887  10.131   5.105
17441TIP3   OH252199   6.076   9.222   4.105
17441TIP3    H152200   5.995   9.237   4.158
17441TIP3    H252201   6.080   9.304   4.053
17442TIP3   OH252202   6.201  10.117   5.321
17442TIP3    H152203   6.125  10.110   5.260
17442TIP3    H252204   6.230  10.024   5.325
17443TIP3   OH252205   5.203   9.348   5.133
17443TIP3    H152206   5.113   9.318   5.109
17443TIP3    H252207   5.180   9.432   5.177
17444TIP3   OH252208   5.737   9.466   5.328
17444TIP3    H152209   5.805   9.437   5.391
17444TIP3    H252210   5.653   9.443   5.374
17445TIP3   OH252211   5.976   9.878   5.248
17445TIP3    H152212   5.930   9.877   5.335
17445TIP3    H252213   5.953   9.966   5.214
17446TIP3   OH252214   5.353   9.400   4.106
17446TIP3    H152215   5.321   9.398   4.198
17446TIP3    H252216   5.315   9.316   4.074
17447TIP3   OH252217   5.126   9.873   5.147
17447TIP3    H152218   5.065   9.884   5.222
17447TIP3    H252219   5.117   9.956   5.097
17448TIP3   OH252220   5.019   9.749   4.667
17448TIP3    H152221   4.927   9.720   4.682
17448TIP3    H252222   5.035   9.712   4.577
17449TIP3   OH252223   5.519   9.839   4.396
17449TIP3    H152224   5.438   9.888   4.370
17449TIP3    H252225   5.562   9.823   4.310
17450TIP3   OH252226   5.692  10.093   5.471
17450TIP3    H152227   5.688  10.017   5.533
17450TIP3    H252228   5.776  10.134   5.497
17451TIP3   OH252229   5.658   9.855   4.635
17451TIP3    H152230   5.600   9.872   4.557
17451TIP3    H252231   5.702   9.775   4.599
17452TIP3   OH252232   4.973   9.889   5.380
17452TIP3    H152233   4.915   9.959   5.417
17452TIP3    H252234   4.942   9.808   5.425
17453TIP3   OH252235   5.006   9.372   4.074
17453TIP3    H152236   5.002   9.369   4.172
17453TIP3    H252237   4.923   9.417   4.054
17454TIP3   OH252238   4.545   9.423   4.939
17454TIP3    H152239   4.621   9.450   4.994
17454TIP3    H252240   4.586   9.379   4.863
17455TIP3   OH252241   4.523   9.394   4.466
17455TIP3    H152242   4.563   9.431   4.385
17455TIP3    H252243   4.473   9.472   4.495
17456TIP3   OH252244   5.719  10.097   5.074
17456TIP3    H152245   5.722  10.028   5.003
17456TIP3    H252246   5.650  10.057   5.132
17457TIP3   OH252247   5.343   9.570   4.728
17457TIP3    H152248   5.262   9.570   4.782
17457TIP3    H252249   5.412   9.579   4.796
17458TIP3   OH252250   4.781   9.629   4.734
17458TIP3    H152251   4.687   9.630   4.707
17458TIP3    H252252   4.810   9.538   4.715
17459TIP3   OH252253   5.053   9.625   4.424
17459TIP3    H152254   5.146   9.645   4.403
17459TIP3    H252255   5.005   9.653   4.344
17460TIP3   OH252256   5.835   9.650   4.933
17460TIP3    H152257   5.797   9.659   5.023
17460TIP3    H252258   5.774   9.585   4.893
17461TIP3   OH252259   4.880   9.645   4.203
17461TIP3    H152260   4.821   9.609   4.135
17461TIP3    H252261   4.933   9.708   4.150
17462TIP3   OH252262   5.423   9.881   4.818
17462TIP3    H152263   5.506   9.860   4.772
17462TIP3    H252264   5.446   9.868   4.911
17463TIP3   OH252265   4.951   9.391   4.702
17463TIP3    H152266   4.922   9.308   4.747
17463TIP3    H252267   5.007   9.357   4.632
17464TIP3   OH252268   5.402   9.786   5.125
17464TIP3    H152269   5.318   9.833   5.122
17464TIP3    H252270   5.463   9.851   5.167
17465TIP3   OH252271   5.599   9.515   4.061
17465TIP3    H152272   5.505   9.491   4.080
17465TIP3    H252273   5.606   9.608   4.092
17466TIP3   OH252274   5.669   9.769   4.159
17466TIP3    H152275   5.760   9.752   4.192
17466TIP3    H252276   5.680   9.855   4.116
17467TIP3   OH252277   5.423  10.130   5.548
17467TIP3    H152278   5.363  10.082   5.484
17467TIP3    H252279   5.507  10.086   5.529
17468TIP3   OH252280   6.106   9.828   4.020
17468TIP3    H152281   6.036   9.787   3.966
17468TIP3    H252282   6.115   9.914   3.977
17469TIP3   OH252283   4.925   9.635   5.513
17469TIP3    H152284   4.828   9.632   5.523
17469TIP3    H252285   4.954   9.571   5.579
17470TIP3   OH252286   5.755   9.706   5.194
17470TIP3    H152287   5.842   9.737   5.224
17470TIP3    H252288   5.745   9.623   5.244
17471TIP3   OH252289   5.639   9.457   4.350
17471TIP3    H152290   5.633   9.483   4.257
17471TIP3    H252291   5.683   9.534   4.391
17472TIP3   OH252292   5.338   9.631   4.457
17472TIP3    H152293   5.407   9.698   4.443
17472TIP3    H252294   5.339   9.622   4.554
17473TIP3   OH252295   5.590   9.941   5.263
17473TIP3    H152296   5.628   9.995   5.336
17473TIP3    H252297   5.648   9.863   5.262
17474TIP3   OH252298   5.478   9.360   4.560
17474TIP3    H152299   5.473   9.435   4.622
17474TIP3    H252300   5.537   9.398   4.491
17475TIP3   OH252301   4.989   9.355   4.349
17475TIP3    H152302   4.988   9.448   4.381
17475TIP3    H252303   5.084   9.336   4.359
17476TIP3   OH252304   6.246   9.853   5.246
17476TIP3    H152305   6.148   9.843   5.251
17476TIP3    H252306   6.262   9.813   5.159
17477TIP3   OH252307   5.883  10.032   4.617
17477TIP3    H152308   5.816   9.970   4.648
17477TIP3    H252309   5.961  10.006   4.671
17478TIP3   OH252310   4.531   9.559   4.251
17478TIP3    H152311   4.568   9.643   4.219
17478TIP3    H252312   4.480   9.527   4.175
17479TIP3   OH252313   4.936   9.269   5.112
17479TIP3    H152314   4.907   9.235   5.025
17479TIP3    H252315   4.928   9.190   5.169
17480TIP3   OH252316   4.901  10.144   5.733
17480TIP3    H152317   4.970  10.077   5.744
17480TIP3    H252318   4.916  10.206   5.808
17481TIP3   OH252319   5.218  10.011   5.400
17481TIP3    H152320   5.131   9.967   5.408
17481TIP3    H252321   5.213  10.043   5.309
17482TIP3   OH252322   5.048   9.776   4.037
17482TIP3    H152323   5.028   9.729   3.955
17482TIP3    H252324   5.147   9.783   4.035
17483TIP3   OH252325   5.349   9.820   5.546
17483TIP3    H152326   5.353   9.739   5.492
17483TIP3    H252327   5.305   9.881   5.483
17484TIP3   OH252328   5.343   9.625   5.344
17484TIP3    H152329   5.372   9.669   5.260
17484TIP3    H252330   5.250   9.602   5.322
17485TIP3   OH252331   5.967  10.141   5.591
17485TIP3    H152332   5.986  10.048   5.610
17485TIP3    H252333   6.054  10.172   5.565
17486TIP3   OH252334   5.201   9.965   5.756
17486TIP3    H152335   5.145   9.885   5.769
17486TIP3    H252336   5.251   9.939   5.677
17487TIP3   OH252337   5.477   9.392   5.405
17487TIP3    H152338   5.428   9.474   5.382
17487TIP3    H252339   5.408   9.324   5.393
17488TIP3   OH252340   5.604   9.893   5.629
17488TIP3    H152341   5.598   9.882   5.725
17488TIP3    H252342   5.515   9.859   5.604
17489TIP3   OH252343   5.847   9.843   5.483
17489TIP3    H152344   5.770   9.832   5.543
17489TIP3    H252345   5.921   9.810   5.538
17490TIP3   OH252346   6.070   9.785   5.633
17490TIP3    H152347   6.085   9.690   5.650
17490TIP3    H252348   6.069   9.824   5.723
17491TIP3   OH252349   5.057   9.737   5.815
17491TIP3    H152350   5.064   9.648   5.776
17491TIP3    H252351   5.094   9.721   5.904
17492TIP3   OH252352   5.571   9.402   5.662
17492TIP3    H152353   5.640   9.333   5.658
17492TIP3    H252354   5.532   9.394   5.573
17493TIP3   OH252355   5.637   9.616   5.821
17493TIP3    H152356   5.615   9.544   5.758
17493TIP3    H252357   5.558   9.674   5.815
17494TIP3   OH252358   5.916   9.733   3.803
17494TIP3    H152359   5.933   9.784   3.723
17494TIP3    H252360   5.978   9.659   3.796
17495TIP3   OH252361   5.975  10.004   4.365
17495TIP3    H152362   5.980   9.909   4.379
17495TIP3    H252363   5.953  10.035   4.456
17496TIP3   OH252364   6.406  10.281   5.254
17496TIP3    H152365   6.339  10.214   5.277
17496TIP3    H252366   6.487  10.226   5.251
17497TIP3   OH252367   5.933   9.730   4.258
17497TIP3    H152368   5.977   9.642   4.272
17497TIP3    H252369   5.998   9.772   4.200
17498TIP3   OH252370   6.104   9.915   4.743
17498TIP3    H152371   6.189   9.942   4.702
17498TIP3    H252372   6.122   9.948   4.833
17499TIP3   OH252373   6.183  10.040   4.974
17499TIP3    H152374   6.107  10.070   5.027
17499TIP3    H252375   6.232  10.125   4.959
17500TIP3   OH252376   4.786   9.797   5.792
17500TIP3    H152377   4.883   9.787   5.785
17500TIP3    H252378   4.763   9.709   5.829
17501TIP3   OH252379   6.620   9.643   5.542
17501TIP3    H152380   6.683   9.580   5.501
17501TIP3    H252381   6.601   9.705   5.468
17502TIP3   OH252382   6.052   9.489   4.298
17502TIP3    H152383   6.103   9.474   4.381
17502TIP3    H252384   5.995   9.410   4.297
17503TIP3   OH252385   4.750   9.475   5.122
17503TIP3    H152386   4.815   9.402   5.128
17503TIP3    H252387   4.810   9.551   5.110
17504TIP3   OH252388   4.554   9.760   5.194
17504TIP3    H152389   4.604   9.745   5.111
17504TIP3    H252390   4.583   9.849   5.216
17505TIP3   OH252391   6.501   9.794   5.347
17505TIP3    H152392   6.411   9.827   5.365
17505TIP3    H252393   6.479   9.719   5.289
17506TIP3   OH252394   6.135   9.440   3.916
17506TIP3    H152395   6.170   9.359   3.874
17506TIP3    H252396   6.214   9.498   3.918
17507TIP3   OH252397   4.539   9.258   4.697
17507TIP3    H152398   4.444   9.249   4.717
17507TIP3    H252399   4.539   9.310   4.614
17508TIP3   OH252400   4.760   9.341   5.508
17508TIP3    H152401   4.707   9.329   5.589
17508TIP3    H252402   4.692   9.372   5.446
17509TIP3   OH252403   6.396   9.552   5.227
17509TIP3    H152404   6.305   9.545   5.193
17509TIP3    H252405   6.428   9.460   5.214
17510TIP3   OH252406   5.602   9.468   4.842
17510TIP3    H152407   5.558   9.399   4.895
17510TIP3    H252408   5.674   9.418   4.798
17511TIP3   OH252409   6.126   9.350   4.752
17511TIP3    H152410   6.163   9.400   4.676
17511TIP3    H252411   6.030   9.366   4.742
17512TIP3   OH252412   6.220   9.451   4.515
17512TIP3    H152413   6.292   9.398   4.475
17512TIP3    H252414   6.255   9.542   4.499
17513TIP3   OH252415   4.850   9.176   4.863
17513TIP3    H152416   4.758   9.141   4.863
17513TIP3    H252417   4.901   9.092   4.860
17514TIP3   OH252418   4.633   9.045   4.507
17514TIP3    H152419   4.668   9.101   4.436
17514TIP3    H252420   4.609   9.110   4.576
17515TIP3   OH252421   5.289   9.213   4.742
17515TIP3    H152422   5.350   9.261   4.683
17515TIP3    H252423   5.317   9.245   4.829
17516TIP3   OH252424   5.842   9.354   4.726
17516TIP3    H152425   5.842   9.316   4.637
17516TIP3    H252426   5.828   9.274   4.781
17517TIP3   OH252427   5.870   9.275   4.288
17517TIP3    H152428   5.781   9.313   4.297
17517TIP3    H252429   5.859   9.190   4.335
17518TIP3   OH252430   4.753   9.209   4.272
17518TIP3    H152431   4.801   9.143   4.219
17518TIP3    H252432   4.827   9.261   4.310
17519TIP3   OH252433   5.266   9.381   4.370
17519TIP3    H152434   5.325   9.333   4.431
17519TIP3    H252435   5.287   9.473   4.397
17520TIP3   OH252436   5.056   9.459   5.755
17520TIP3    H152437   5.026   9.386   5.811
17520TIP3    H252438   5.152   9.460   5.778
17521TIP3   OH252439   5.307   9.456   5.871
17521TIP3    H152440   5.391   9.431   5.830
17521TIP3    H252441   5.296   9.385   5.938
17522TIP3   OH252442   6.131   9.516   5.660
17522TIP3    H152443   6.151   9.483   5.750
17522TIP3    H252444   6.219   9.511   5.617
17523TIP3   OH252445   6.313   9.963   4.175
17523TIP3    H152446   6.271  10.039   4.216
17523TIP3    H252447   6.239   9.902   4.161
17524TIP3   OH252448   7.545  10.176   4.379
17524TIP3    H152449   7.586  10.091   4.398
17524TIP3    H252450   7.520  10.164   4.285
17525TIP3   OH252451   6.882   9.826   4.346
17525TIP3    H152452   6.865   9.899   4.283
17525TIP3    H252453   6.835   9.753   4.300
17526TIP3   OH252454   7.578   9.913   3.976
17526TIP3    H152455   7.648   9.895   4.043
17526TIP3    H252456   7.635   9.941   3.904
17527TIP3   OH252457   6.509  10.011   4.462
17527TIP3    H152458   6.598  10.001   4.501
17527TIP3    H252459   6.525   9.977   4.372
17528TIP3   OH252460   6.968  10.228   4.235
17528TIP3    H152461   7.055  10.192   4.261
17528TIP3    H252462   6.921  10.148   4.204
17529TIP3   OH252463   6.881   9.810   4.781
17529TIP3    H152464   6.821   9.845   4.712
17529TIP3    H252465   6.829   9.829   4.861
17530TIP3   OH252466   7.796   9.918   4.142
17530TIP3    H152467   7.779   9.865   4.221
17530TIP3    H252468   7.878   9.966   4.166
17531TIP3   OH252469   6.753   9.922   4.565
17531TIP3    H152470   6.815   9.996   4.583
17531TIP3    H252471   6.800   9.880   4.489
17532TIP3   OH252472   7.940   9.890   4.503
17532TIP3    H152473   7.847   9.914   4.492
17532TIP3    H252474   7.978   9.917   4.417
17533TIP3   OH252475   7.240   9.530   4.492
17533TIP3    H152476   7.227   9.435   4.510
17533TIP3    H252477   7.162   9.568   4.538
17534TIP3   OH252478   7.124  10.041   3.492
17534TIP3    H152479   7.179  10.106   3.538
17534TIP3    H252480   7.185  10.007   3.424
17535TIP3   OH252481   7.855   9.475   3.572
17535TIP3    H152482   7.788   9.487   3.642
17535TIP3    H252483   7.872   9.566   3.544
17536TIP3   OH252484   6.999   9.605   4.620
17536TIP3    H152485   6.909   9.575   4.596
17536TIP3    H252486   6.977   9.689   4.663
17537TIP3   OH252487   7.532   9.722   4.815
17537TIP3    H152488   7.600   9.694   4.880
17537TIP3    H252489   7.448   9.700   4.860
17538TIP3   OH252490   7.780  10.147   4.735
17538TIP3    H152491   7.735  10.139   4.821
17538TIP3    H252492   7.740  10.226   4.698
17539TIP3   OH252493   7.145   9.657   3.591
17539TIP3    H152494   7.114   9.655   3.684
17539TIP3    H252495   7.110   9.571   3.560
17540TIP3   OH252496   6.922  10.129   4.632
17540TIP3    H152497   6.862  10.141   4.709
17540TIP3    H252498   6.914  10.213   4.585
17541TIP3   OH252499   6.816  10.005   4.154
17541TIP3    H152500   6.723   9.977   4.169
17541TIP3    H252501   6.830   9.968   4.064
17542TIP3   OH252502   7.317  10.096   3.882
17542TIP3    H152503   7.235  10.143   3.857
17542TIP3    H252504   7.359  10.075   3.796
17543TIP3   OH252505   7.481  10.353   4.960
17543TIP3    H152506   7.479  10.274   5.019
17543TIP3    H252507   7.569  10.388   4.977
17544TIP3   OH252508   7.449  10.116   4.125
17544TIP3    H152509   7.395  10.130   4.045
17544TIP3    H252510   7.500  10.039   4.093
17545TIP3   OH252511   6.771  10.145   4.867
17545TIP3    H152512   6.714  10.217   4.902
17545TIP3    H252513   6.737  10.066   4.913
17546TIP3   OH252514   6.800   9.627   3.561
17546TIP3    H152515   6.798   9.624   3.659
17546TIP3    H252516   6.718   9.674   3.543
17547TIP3   OH252517   6.342   9.676   4.426
17547TIP3    H152518   6.416   9.707   4.482
17547TIP3    H252519   6.386   9.636   4.350
17548TIP3   OH252520   6.323   9.652   3.951
17548TIP3    H152521   6.367   9.691   3.872
17548TIP3    H252522   6.266   9.726   3.976
17549TIP3   OH252523   7.491  10.367   4.570
17549TIP3    H152524   7.517  10.304   4.499
17549TIP3    H252525   7.439  10.306   4.627
17550TIP3   OH252526   7.138   9.822   4.214
17550TIP3    H152527   7.057   9.826   4.269
17550TIP3    H252528   7.206   9.843   4.280
17551TIP3   OH252529   6.576   9.887   4.220
17551TIP3    H152530   6.482   9.890   4.195
17551TIP3    H252531   6.603   9.795   4.201
17552TIP3   OH252532   6.850   9.880   3.911
17552TIP3    H152533   6.943   9.902   3.891
17552TIP3    H252534   6.801   9.909   3.831
17553TIP3   OH252535   7.634   9.904   4.420
17553TIP3    H152536   7.595   9.918   4.509
17553TIP3    H252537   7.569   9.845   4.380
17554TIP3   OH252538   6.680   9.901   3.688
17554TIP3    H152539   6.615   9.868   3.624
17554TIP3    H252540   6.728   9.967   3.633
17555TIP3   OH252541   7.219  10.130   4.303
17555TIP3    H152542   7.305  10.124   4.257
17555TIP3    H252543   7.246  10.129   4.396
17556TIP3   OH252544   6.747   9.647   4.189
17556TIP3    H152545   6.718   9.565   4.233
17556TIP3    H252546   6.803   9.613   4.118
17557TIP3   OH252547   7.198  10.041   4.616
17557TIP3    H152548   7.114  10.090   4.608
17557TIP3    H252549   7.259  10.107   4.655
17558TIP3   OH252550   7.395   9.764   3.567
17558TIP3    H152551   7.300   9.739   3.569
17558TIP3    H252552   7.393   9.860   3.579
17559TIP3   OH252553   7.468  10.028   3.644
17559TIP3    H152554   7.556   9.990   3.658
17559TIP3    H252555   7.482  10.083   3.566
17560TIP3   OH252556   7.216  10.387   5.037
17560TIP3    H152557   7.155  10.338   4.976
17560TIP3    H252558   7.301  10.348   5.013
17561TIP3   OH252559   6.721   9.890   4.999
17561TIP3    H152560   6.624   9.890   5.012
17561TIP3    H252561   6.751   9.829   5.068
17562TIP3   OH252562   7.556   9.962   4.680
17562TIP3    H152563   7.639   9.994   4.718
17562TIP3    H252564   7.541   9.879   4.729
17563TIP3   OH252565   7.434   9.709   3.841
17563TIP3    H152566   7.426   9.732   3.747
17563TIP3    H252567   7.480   9.787   3.879
17564TIP3   OH252568   7.134   9.888   3.944
17564TIP3    H152569   7.205   9.953   3.932
17564TIP3    H252570   7.134   9.877   4.042
17565TIP3   OH252571   7.385  10.194   4.753
17565TIP3    H152572   7.421  10.250   4.824
17565TIP3    H252573   7.446  10.117   4.753
17566TIP3   OH252574   7.273   9.616   4.048
17566TIP3    H152575   7.266   9.691   4.110
17566TIP3    H252576   7.333   9.653   3.980
17567TIP3   OH252577   6.786   9.612   3.836
17567TIP3    H152578   6.784   9.704   3.868
17567TIP3    H252579   6.881   9.593   3.846
17568TIP3   OH252580   8.058  10.113   4.713
17568TIP3    H152581   7.964  10.125   4.736
17568TIP3    H252582   8.049  10.062   4.632
17569TIP3   OH252583   6.338   9.812   3.731
17569TIP3    H152584   6.364   9.903   3.711
17569TIP3    H252585   6.274   9.791   3.661
17570TIP3   OH252586   6.734   9.526   4.598
17570TIP3    H152587   6.703   9.493   4.511
17570TIP3    H252588   6.724   9.447   4.655
17571TIP3   OH252589   6.704  10.402   5.215
17571TIP3    H152590   6.763  10.330   5.240
17571TIP3    H252591   6.707  10.462   5.292
17572TIP3   OH252592   7.015  10.268   4.888
17572TIP3    H152593   6.928  10.225   4.896
17572TIP3    H252594   7.009  10.303   4.798
17573TIP3   OH252595   6.847  10.037   3.517
17573TIP3    H152596   6.826   9.982   3.440
17573TIP3    H252597   6.945  10.031   3.522
17574TIP3   OH252598   7.146  10.076   5.031
17574TIP3    H152599   7.149   9.994   4.977
17574TIP3    H252600   7.102  10.137   4.968
17575TIP3   OH252601   7.140   9.879   4.831
17575TIP3    H152602   7.167   9.926   4.748
17575TIP3    H252603   7.046   9.858   4.810
17576TIP3   OH252604   7.000  10.220   5.238
17576TIP3    H152605   6.939  10.146   5.256
17576TIP3    H252606   7.047  10.188   5.159
17577TIP3   OH252607   7.274   9.647   4.891
17577TIP3    H152608   7.225   9.730   4.869
17577TIP3    H252609   7.203   9.580   4.880
17578TIP3   OH252610   7.400  10.149   5.113
17578TIP3    H152611   7.396  10.134   5.209
17578TIP3    H252612   7.311  10.116   5.088
17579TIP3   OH252613   7.640  10.099   4.963
17579TIP3    H152614   7.565  10.090   5.025
17579TIP3    H252615   7.715  10.077   5.023
17580TIP3   OH252616   7.848  10.041   5.129
17580TIP3    H152617   7.873   9.947   5.136
17580TIP3    H252618   7.837  10.067   5.221
17581TIP3   OH252619   6.852   9.994   5.299
17581TIP3    H152620   6.861   9.904   5.263
17581TIP3    H252621   6.887   9.981   5.389
17582TIP3   OH252622   7.369   9.659   5.148
17582TIP3    H152623   7.436   9.588   5.143
17582TIP3    H252624   7.328   9.651   5.059
17583TIP3   OH252625   7.430   9.870   5.312
17583TIP3    H152626   7.410   9.800   5.246
17583TIP3    H252627   7.353   9.930   5.302
17584TIP3   OH252628   7.652   9.772   3.326
17584TIP3    H152629   7.742   9.753   3.358
17584TIP3    H252630   7.613   9.684   3.316
17585TIP3   OH252631   6.581  10.052   5.275
17585TIP3    H152632   6.679  10.046   5.271
17585TIP3    H252633   6.560   9.965   5.315
17586TIP3   OH252634   7.805   9.765   3.816
17586TIP3    H152635   7.881   9.742   3.873
17586TIP3    H252636   7.769   9.676   3.796
17587TIP3   OH252637   6.547   9.731   4.607
17587TIP3    H152638   6.613   9.659   4.615
17587TIP3    H252639   6.605   9.808   4.597
17588TIP3   OH252640   6.351  10.015   4.682
17588TIP3    H152641   6.400  10.002   4.598
17588TIP3    H252642   6.375  10.106   4.702
17589TIP3   OH252643   6.335   9.511   4.180
17589TIP3    H152644   6.241   9.508   4.203
17589TIP3    H252645   6.336   9.567   4.100
17590TIP3   OH252646   6.555   9.593   4.993
17590TIP3    H152647   6.504   9.586   5.075
17590TIP3    H252648   6.489   9.629   4.932
17591TIP3   OH252649   8.195   9.806   4.719
17591TIP3    H152650   8.110   9.815   4.673
17591TIP3    H252651   8.226   9.718   4.690
17592TIP3   OH252652   7.401   9.726   4.332
17592TIP3    H152653   7.354   9.657   4.381
17592TIP3    H252654   7.471   9.675   4.285
17593TIP3   OH252655   7.920   9.612   4.239
17593TIP3    H152656   7.961   9.661   4.164
17593TIP3    H252657   7.825   9.632   4.229
17594TIP3   OH252658   8.022   9.716   4.000
17594TIP3    H152659   8.081   9.650   3.956
17594TIP3    H252660   8.072   9.797   3.982
17595TIP3   OH252661   6.646   9.433   4.350
17595TIP3    H152662   6.555   9.398   4.349
17595TIP3    H252663   6.697   9.349   4.346
17596TIP3   OH252664   6.430   9.302   3.995
17596TIP3    H152665   6.463   9.360   3.924
17596TIP3    H252666   6.404   9.367   4.063
17597TIP3   OH252667   7.088   9.467   4.228
17597TIP3    H152668   7.146   9.518   4.170
17597TIP3    H252669   7.110   9.504   4.315
17598TIP3   OH252670   7.638   9.613   4.213
17598TIP3    H152671   7.644   9.575   4.124
17598TIP3    H252672   7.623   9.532   4.267
17599TIP3   OH252673   7.666   9.526   3.773
17599TIP3    H152674   7.579   9.568   3.783
17599TIP3    H252675   7.652   9.442   3.822
17600TIP3   OH252676   6.549   9.467   3.757
17600TIP3    H152677   6.597   9.401   3.705
17600TIP3    H252678   6.622   9.518   3.796
17601TIP3   OH252679   7.063   9.637   3.858
17601TIP3    H152680   7.123   9.592   3.919
17601TIP3    H252681   7.083   9.730   3.884
17602TIP3   OH252682   6.853   9.714   5.240
17602TIP3    H152683   6.822   9.642   5.298
17602TIP3    H252684   6.948   9.716   5.264
17603TIP3   OH252685   7.102   9.711   5.358
17603TIP3    H152686   7.187   9.686   5.319
17603TIP3    H252687   7.090   9.641   5.425
17604TIP3   OH252688   7.927   9.774   5.147
17604TIP3    H152689   7.948   9.743   5.237
17604TIP3    H252690   8.013   9.766   5.101
17605TIP3   OH252691   2.742   1.191   8.799
17605TIP3    H152692   2.747   1.284   8.773
17605TIP3    H252693   2.829   1.156   8.772
17606TIP3   OH252694   2.761   1.471   8.774
17606TIP3    H152695   2.804   1.539   8.719
17606TIP3    H252696   2.674   1.512   8.784
17607TIP3   OH252697   2.425   1.249   8.772
17607TIP3    H152698   2.466   1.180   8.825
17607TIP3    H252699   2.462   1.230   8.685
17608TIP3   OH252700   4.075   1.023   9.071
17608TIP3    H152701   4.078   1.109   9.024
17608TIP3    H252702   4.064   0.966   8.989
17609TIP3   OH252703   4.433   1.324   9.113
17609TIP3    H152704   4.434   1.274   9.196
17609TIP3    H252705   4.454   1.414   9.145
17610TIP3   OH252706   4.089   1.792   9.132
17610TIP3    H152707   4.147   1.732   9.079
17610TIP3    H252708   4.134   1.792   9.217
17611TIP3   OH252709   4.080   1.249   8.930
17611TIP3    H152710   4.059   1.236   8.836
17611TIP3    H252711   4.054   1.344   8.940
17612TIP3   OH252712   4.234   1.635   8.968
17612TIP3    H152713   4.275   1.553   8.933
17612TIP3    H252714   4.288   1.701   8.917
17613TIP3   OH252715   4.355   1.415   8.858
17613TIP3    H152716   4.343   1.338   8.799
17613TIP3    H252717   4.394   1.374   8.938
17614TIP3   OH252718   4.033   0.886   8.844
17614TIP3    H152719   3.943   0.919   8.823
17614TIP3    H252720   4.073   0.880   8.757
17615TIP3   OH252721   3.995   0.679   8.600
17615TIP3    H152722   4.076   0.717   8.638
17615TIP3    H252723   4.035   0.604   8.553
17616TIP3   OH252724   4.386   0.973   8.852
17616TIP3    H152725   4.345   0.990   8.939
17616TIP3    H252726   4.473   0.939   8.883
17617TIP3   OH252727   4.239   0.820   8.672
17617TIP3    H152728   4.293   0.883   8.725
17617TIP3    H252729   4.262   0.848   8.580
17618TIP3   OH252730   3.980   1.503   8.951
17618TIP3    H152731   4.042   1.574   8.974
17618TIP3    H252732   3.904   1.552   8.917
17619TIP3   OH252733   4.539   1.445   8.275
17619TIP3    H152734   4.546   1.542   8.259
17619TIP3    H252735   4.632   1.417   8.262
17620TIP3   OH252736   3.852   1.764   8.755
17620TIP3    H152737   3.802   1.739   8.675
17620TIP3    H252738   3.817   1.852   8.776
17621TIP3   OH252739   4.054   1.664   8.395
17621TIP3    H152740   4.112   1.593   8.360
17621TIP3    H252741   4.085   1.671   8.488
17622TIP3   OH252742   4.101   1.709   8.665
17622TIP3    H152743   4.012   1.721   8.705
17622TIP3    H252744   4.150   1.667   8.738
17623TIP3   OH252745   4.311   0.885   8.421
17623TIP3    H152746   4.268   0.857   8.338
17623TIP3    H252747   4.382   0.942   8.388
17624TIP3   OH252748   4.201   0.705   8.972
17624TIP3    H152749   4.145   0.761   8.913
17624TIP3    H252750   4.244   0.647   8.905
17625TIP3   OH252751   3.528   0.531   8.813
17625TIP3    H152752   3.479   0.472   8.755
17625TIP3    H252753   3.606   0.552   8.758
17626TIP3   OH252754   3.800   1.042   8.825
17626TIP3    H152755   3.731   0.979   8.792
17626TIP3    H252756   3.782   1.038   8.920
17627TIP3   OH252757   4.332   0.572   8.769
17627TIP3    H152758   4.427   0.586   8.788
17627TIP3    H252759   4.310   0.648   8.712
17628TIP3   OH252760   3.963   1.202   8.666
17628TIP3    H152761   3.913   1.287   8.664
17628TIP3    H252762   3.899   1.145   8.713
17629TIP3   OH252763   4.485   1.514   8.540
17629TIP3    H152764   4.450   1.442   8.594
17629TIP3    H252765   4.492   1.473   8.451
17630TIP3   OH252766   3.507   1.607   8.971
17630TIP3    H152767   3.421   1.620   9.012
17630TIP3    H252768   3.546   1.696   8.982
17631TIP3   OH252769   4.233   1.240   8.439
17631TIP3    H152770   4.277   1.219   8.524
17631TIP3    H252771   4.141   1.215   8.459
17632TIP3   OH252772   4.573   1.719   8.261
17632TIP3    H152773   4.609   1.789   8.204
17632TIP3    H252774   4.494   1.766   8.295
17633TIP3   OH252775   4.393   1.188   8.670
17633TIP3    H152776   4.382   1.111   8.729
17633TIP3    H252777   4.488   1.179   8.647
17634TIP3   OH252778   3.608   1.228   8.439
17634TIP3    H152779   3.611   1.135   8.408
17634TIP3    H252780   3.583   1.214   8.533
17635TIP3   OH252781   3.547   1.229   8.707
17635TIP3    H152782   3.607   1.201   8.777
17635TIP3    H252783   3.550   1.327   8.714
17636TIP3   OH252784   3.816   1.430   8.665
17636TIP3    H152785   3.726   1.454   8.696
17636TIP3    H252786   3.826   1.494   8.594
17637TIP3   OH252787   3.557   1.501   8.723
17637TIP3    H152788   3.524   1.569   8.661
17637TIP3    H252789   3.533   1.541   8.809
17638TIP3   OH252790   3.266   1.146   8.717
17638TIP3    H152791   3.334   1.215   8.722
17638TIP3    H252792   3.315   1.079   8.665
17639TIP3   OH252793   4.529   1.858   9.185
17639TIP3    H152794   4.478   1.914   9.122
17639TIP3    H252795   4.619   1.894   9.171
17640TIP3   OH252796   3.768   1.430   8.356
17640TIP3    H152797   3.708   1.360   8.391
17640TIP3    H252798   3.838   1.376   8.317
17641TIP3   OH252799   4.202   1.472   8.265
17641TIP3    H152800   4.249   1.406   8.319
17641TIP3    H252801   4.254   1.473   8.182
17642TIP3   OH252802   3.410   0.949   8.576
17642TIP3    H152803   3.464   0.913   8.649
17642TIP3    H252804   3.478   0.958   8.506
17643TIP3   OH252805   3.926   1.147   8.383
17643TIP3    H152806   3.910   1.158   8.478
17643TIP3    H252807   3.921   1.049   8.376
17644TIP3   OH252808   3.609   0.853   8.766
17644TIP3    H152809   3.611   0.824   8.859
17644TIP3    H252810   3.635   0.770   8.721
17645TIP3   OH252811   3.717   0.634   8.632
17645TIP3    H152812   3.690   0.643   8.538
17645TIP3    H252813   3.814   0.648   8.626
17646TIP3   OH252814   4.550   0.973   8.297
17646TIP3    H152815   4.522   0.927   8.215
17646TIP3    H252816   4.517   1.063   8.275
17647TIP3   OH252817   3.524   1.706   8.541
17647TIP3    H152818   3.618   1.706   8.519
17647TIP3    H252819   3.488   1.751   8.462
17648TIP3   OH252820   2.996   1.094   8.728
17648TIP3    H152821   3.091   1.114   8.742
17648TIP3    H252822   2.998   0.999   8.707
17649TIP3   OH252823   4.785   1.954   9.163
17649TIP3    H152824   4.818   2.024   9.220
17649TIP3    H252825   4.823   1.981   9.078
17650TIP3   OH252826   4.673   1.159   8.631
17650TIP3    H152827   4.738   1.227   8.603
17650TIP3    H252828   4.716   1.123   8.712
17651TIP3   OH252829   4.799   1.027   8.834
17651TIP3    H152830   4.737   0.987   8.899
17651TIP3    H252831   4.869   1.065   8.891
17652TIP3   OH252832   4.837   1.412   9.187
17652TIP3    H152833   4.920   1.358   9.181
17652TIP3    H252834   4.867   1.498   9.150
17653TIP3   OH252835   4.736   0.935   8.488
17653TIP3    H152836   4.665   0.938   8.419
17653TIP3    H252837   4.708   1.012   8.542
17654TIP3   OH252838   4.643   0.612   8.424
17654TIP3    H152839   4.583   0.677   8.384
17654TIP3    H252840   4.589   0.532   8.421
17655TIP3   OH252841   4.619   0.873   8.989
17655TIP3    H152842   4.601   0.778   8.997
17655TIP3    H252843   4.588   0.906   9.074
17656TIP3   OH252844   4.596   0.598   8.832
17656TIP3    H152845   4.632   0.555   8.913
17656TIP3    H252846   4.671   0.648   8.801
17657TIP3   OH252847   4.363   1.809   8.813
17657TIP3    H152848   4.419   1.803   8.732
17657TIP3    H252849   4.405   1.882   8.862
17658TIP3   OH252850   2.990   1.450   8.921
17658TIP3    H152851   2.916   1.407   8.873
17658TIP3    H252852   2.994   1.534   8.874
17659TIP3   OH252853   3.793   1.668   8.489
17659TIP3    H152854   3.880   1.690   8.451
17659TIP3    H252855   3.770   1.592   8.431
17660TIP3   OH252856   4.512   1.783   8.582
17660TIP3    H152857   4.503   1.686   8.568
17660TIP3    H252858   4.466   1.817   8.502
17661TIP3   OH252859   3.097   1.505   8.546
17661TIP3    H152860   3.093   1.540   8.635
17661TIP3    H252861   3.185   1.462   8.542
17662TIP3   OH252862   6.004   1.297   8.538
17662TIP3    H152863   5.978   1.390   8.520
17662TIP3    H252864   5.926   1.251   8.505
17663TIP3   OH252865   6.001   1.297   8.915
17663TIP3    H152866   6.033   1.272   9.003
17663TIP3    H252867   5.959   1.214   8.885
17664TIP3   OH252868   5.308   1.214   9.282
17664TIP3    H152869   5.313   1.164   9.365
17664TIP3    H252870   5.401   1.227   9.257
17665TIP3   OH252871   6.244   1.599   8.599
17665TIP3    H152872   6.232   1.532   8.666
17665TIP3    H252873   6.274   1.676   8.651
17666TIP3   OH252874   5.274   1.606   9.019
17666TIP3    H152875   5.262   1.508   9.015
17666TIP3    H252876   5.369   1.611   9.001
17667TIP3   OH252877   4.944   0.802   8.750
17667TIP3    H152878   4.932   0.895   8.780
17667TIP3    H252879   4.909   0.756   8.828
17668TIP3   OH252880   5.042   1.081   8.948
17668TIP3    H152881   5.093   1.014   8.999
17668TIP3    H252882   5.112   1.126   8.898
17669TIP3   OH252883   5.892   2.062   8.614
17669TIP3    H152884   5.940   1.992   8.565
17669TIP3    H252885   5.891   2.026   8.704
17670TIP3   OH252886   5.801   1.523   8.968
17670TIP3    H152887   5.837   1.448   8.917
17670TIP3    H252888   5.886   1.567   8.990
17671TIP3   OH252889   6.231   1.036   8.996
17671TIP3    H152890   6.223   0.957   9.051
17671TIP3    H252891   6.185   1.010   8.913
17672TIP3   OH252892   5.188   0.891   9.069
17672TIP3    H152893   5.256   0.866   9.135
17672TIP3    H252894   5.212   0.831   8.996
17673TIP3   OH252895   5.628   1.087   8.867
17673TIP3    H152896   5.720   1.055   8.879
17673TIP3    H252897   5.584   1.005   8.836
17674TIP3   OH252898   6.838   0.999   9.136
17674TIP3    H152899   6.785   1.080   9.121
17674TIP3    H252900   6.881   1.025   9.221
17675TIP3   OH252901   5.896   1.519   8.408
17675TIP3    H152902   5.854   1.497   8.324
17675TIP3    H252903   5.854   1.605   8.430
17676TIP3   OH252904   5.656   1.449   9.201
17676TIP3    H152905   5.590   1.514   9.233
17676TIP3    H252906   5.700   1.497   9.128
17677TIP3   OH252907   5.433   0.805   9.181
17677TIP3    H152908   5.507   0.861   9.149
17677TIP3    H252909   5.435   0.731   9.119
17678TIP3   OH252910   5.469   1.638   9.304
17678TIP3    H152911   5.455   1.717   9.248
17678TIP3    H252912   5.394   1.647   9.364
17679TIP3   OH252913   4.877   1.327   8.528
17679TIP3    H152914   4.836   1.353   8.443
17679TIP3    H252915   4.906   1.413   8.564
17680TIP3   OH252916   6.315   1.842   8.768
17680TIP3    H152917   6.225   1.835   8.805
17680TIP3    H252918   6.310   1.928   8.722
17681TIP3   OH252919   6.020   1.891   8.442
17681TIP3    H152920   6.070   1.809   8.420
17681TIP3    H252921   6.079   1.957   8.400
17682TIP3   OH252922   6.161   1.676   8.346
17682TIP3    H152923   6.124   1.596   8.305
17682TIP3    H252924   6.196   1.640   8.431
17683TIP3   OH252925   6.541   1.759   9.110
17683TIP3    H152926   6.533   1.681   9.051
17683TIP3    H252927   6.527   1.833   9.047
17684TIP3   OH252928   5.835   1.150   8.367
17684TIP3    H152929   5.753   1.200   8.344
17684TIP3    H252930   5.880   1.147   8.281
17685TIP3   OH252931   5.788   0.937   8.086
17685TIP3    H152932   5.864   0.979   8.130
17685TIP3    H252933   5.833   0.865   8.037
17686TIP3   OH252934   6.738   1.390   8.953
17686TIP3    H152935   6.657   1.445   8.959
17686TIP3    H252936   6.769   1.415   8.863
17687TIP3   OH252937   6.180   1.233   8.339
17687TIP3    H152938   6.126   1.259   8.418
17687TIP3    H252939   6.264   1.207   8.382
17688TIP3   OH252940   6.416   1.272   9.252
17688TIP3    H152941   6.422   1.356   9.303
17688TIP3    H252942   6.332   1.286   9.204
17689TIP3   OH252943   5.418   1.232   8.755
17689TIP3    H152944   5.373   1.175   8.688
17689TIP3    H252945   5.493   1.174   8.782
17690TIP3   OH252946   5.540   1.638   8.908
17690TIP3    H152947   5.521   1.598   8.822
17690TIP3    H252948   5.632   1.608   8.924
17691TIP3   OH252949   5.544   1.219   9.099
17691TIP3    H152950   5.579   1.198   9.009
17691TIP3    H252951   5.593   1.300   9.123
17692TIP3   OH252952   6.072   1.840   8.886
17692TIP3    H152953   6.063   1.919   8.942
17692TIP3    H252954   6.062   1.767   8.949
17693TIP3   OH252955   5.691   1.774   9.442
17693TIP3    H152956   5.623   1.834   9.478
17693TIP3    H252957   5.635   1.707   9.398
17694TIP3   OH252958   6.027   1.082   8.167
17694TIP3    H152959   6.084   1.141   8.220
17694TIP3    H252960   6.051   1.110   8.075
17695TIP3   OH252961   5.763   1.773   8.443
17695TIP3    H152962   5.842   1.827   8.461
17695TIP3    H252963   5.703   1.837   8.401
17696TIP3   OH252964   5.471   1.920   9.512
17696TIP3    H152965   5.444   1.924   9.419
17696TIP3    H252966   5.396   1.877   9.555
17697TIP3   OH252967   5.278   1.085   8.564
17697TIP3    H152968   5.212   1.120   8.501
17697TIP3    H252969   5.257   0.991   8.568
17698TIP3   OH252970   6.336   1.700   7.760
17698TIP3    H152971   6.344   1.797   7.747
17698TIP3    H252972   6.429   1.672   7.749
17699TIP3   OH252973   4.919   1.662   9.096
17699TIP3    H152974   5.015   1.657   9.081
17699TIP3    H252975   4.910   1.743   9.149
17700TIP3   OH252976   6.784   2.100   9.153
17700TIP3    H152977   6.782   2.004   9.169
17700TIP3    H252978   6.699   2.126   9.196
17701TIP3   OH252979   5.890   1.885   9.289
17701TIP3    H152980   5.888   1.981   9.312
17701TIP3    H252981   5.817   1.851   9.344
17702TIP3   OH252982   5.644   2.017   8.243
17702TIP3    H152983   5.600   1.998   8.158
17702TIP3    H252984   5.614   2.107   8.263
17703TIP3   OH252985   5.083   1.868   8.624
17703TIP3    H152986   5.131   1.856   8.709
17703TIP3    H252987   5.020   1.794   8.629
17704TIP3   OH252988   5.848   1.918   7.883
17704TIP3    H152989   5.907   1.848   7.847
17704TIP3    H252990   5.883   1.927   7.975
17705TIP3   OH252991   5.897   1.966   8.154
17705TIP3    H152992   5.809   1.975   8.197
17705TIP3    H252993   5.949   1.925   8.225
17706TIP3   OH252994   6.679   1.240   9.407
17706TIP3    H152995   6.586   1.264   9.396
17706TIP3    H252996   6.675   1.154   9.450
17707TIP3   OH252997   6.341   1.060   9.414
17707TIP3    H152998   6.397   1.068   9.494
17707TIP3    H252999   6.363   1.140   9.364
17708TIP3   OH253000   6.099   1.134   7.908
17708TIP3    H153001   6.065   1.112   7.819
17708TIP3    H253002   6.174   1.191   7.886
17709TIP3   OH253003   5.636   0.987   9.201
17709TIP3    H153004   5.586   1.001   9.283
17709TIP3    H253005   5.611   1.067   9.150
17710TIP3   OH253006   5.467   0.890   8.766
17710TIP3    H153007   5.392   0.836   8.796
17710TIP3    H253008   5.494   0.842   8.684
17711TIP3   OH253009   5.976   0.954   8.497
17711TIP3    H153010   5.922   1.027   8.459
17711TIP3    H253011   6.023   0.922   8.419
17712TIP3   OH253012   6.140   0.981   8.733
17712TIP3    H153013   6.080   1.023   8.668
17712TIP3    H253014   6.143   0.892   8.697
17713TIP3   OH253015   6.140   1.233   9.157
17713TIP3    H153016   6.180   1.164   9.101
17713TIP3    H253017   6.108   1.180   9.233
17714TIP3   OH253018   5.236   0.737   8.843
17714TIP3    H153019   5.144   0.730   8.814
17714TIP3    H253020   5.266   0.645   8.838
17715TIP3   OH253021   5.527   0.762   8.531
17715TIP3    H153022   5.616   0.739   8.500
17715TIP3    H253023   5.473   0.753   8.450
17716TIP3   OH253024   5.341   0.781   8.311
17716TIP3    H153025   5.289   0.725   8.250
17716TIP3    H253026   5.405   0.817   8.246
17717TIP3   OH253027   6.471   2.453   9.253
17717TIP3    H153028   6.470   2.476   9.158
17717TIP3    H253029   6.551   2.501   9.283
17718TIP3   OH253030   5.901   1.022   8.928
17718TIP3    H153031   5.947   0.954   8.879
17718TIP3    H253032   5.897   0.980   9.017
17719TIP3   OH253033   5.901   0.908   9.177
17719TIP3    H153034   5.806   0.928   9.195
17719TIP3    H253035   5.946   0.950   9.253
17720TIP3   OH253036   5.606   1.304   8.316
17720TIP3    H153037   5.532   1.240   8.305
17720TIP3    H253038   5.588   1.337   8.408
17721TIP3   OH253039   6.508   1.539   8.947
17721TIP3    H153040   6.533   1.588   8.865
17721TIP3    H253041   6.421   1.501   8.923
17722TIP3   OH253042   6.002   1.618   9.310
17722TIP3    H153043   6.015   1.589   9.401
17722TIP3    H253044   5.967   1.709   9.320
17723TIP3   OH253045   6.126   0.840   8.273
17723TIP3    H153046   6.223   0.852   8.288
17723TIP3    H253047   6.104   0.919   8.221
17724TIP3   OH253048   5.297   1.330   8.983
17724TIP3    H153049   5.341   1.299   8.900
17724TIP3    H253050   5.336   1.271   9.049
17725TIP3   OH253051   5.751   1.454   8.136
17725TIP3    H153052   5.704   1.540   8.144
17725TIP3    H253053   5.696   1.398   8.196
17726TIP3   OH253054   6.163   1.875   9.196
17726TIP3    H153055   6.068   1.875   9.216
17726TIP3    H253056   6.198   1.928   9.272
17727TIP3   OH253057   6.574   0.948   8.120
17727TIP3    H153058   6.517   0.900   8.056
17727TIP3    H253059   6.574   1.036   8.075
17728TIP3   OH253060   6.791   1.808   9.199
17728TIP3    H153061   6.693   1.804   9.190
17728TIP3    H253062   6.817   1.781   9.108
17729TIP3   OH253063   6.272   1.772   8.024
17729TIP3    H153064   6.253   1.701   8.086
17729TIP3    H253065   6.288   1.726   7.940
17730TIP3   OH253066   6.270   1.402   8.867
17730TIP3    H153067   6.177   1.376   8.879
17730TIP3    H253068   6.306   1.324   8.821
17731TIP3   OH253069   5.397   1.629   8.620
17731TIP3    H153070   5.401   1.710   8.565
17731TIP3    H253071   5.302   1.614   8.622
17732TIP3   OH253072   4.966   0.926   8.340
17732TIP3    H153073   5.022   1.007   8.337
17732TIP3    H253074   4.878   0.966   8.355
17733TIP3   OH253075   5.539   1.397   8.563
17733TIP3    H153076   5.503   1.486   8.582
17733TIP3    H253077   5.503   1.345   8.637
17734TIP3   OH253078   5.666   1.973   9.088
17734TIP3    H153079   5.704   2.046   9.035
17734TIP3    H253080   5.746   1.940   9.132
17735TIP3   OH253081   5.320   1.867   8.472
17735TIP3    H153082   5.232   1.876   8.515
17735TIP3    H253083   5.351   1.960   8.473
17736TIP3   OH253084   6.058   1.606   9.043
17736TIP3    H153085   6.050   1.605   9.141
17736TIP3    H253086   6.140   1.557   9.029
17737TIP3   OH253087   6.028   1.495   7.927
17737TIP3    H153088   6.081   1.473   8.007
17737TIP3    H253089   5.939   1.473   7.958
17738TIP3   OH253090   6.303   2.143   9.096
17738TIP3    H153091   6.225   2.086   9.085
17738TIP3    H253092   6.290   2.208   9.023
17739TIP3   OH253093   6.369   1.975   7.748
17739TIP3    H153094   6.409   2.047   7.695
17739TIP3    H253095   6.290   2.023   7.780
17740TIP3   OH253096   6.189   1.434   8.145
17740TIP3    H153097   6.179   1.367   8.216
17740TIP3    H253098   6.286   1.433   8.132
17741TIP3   OH253099   5.104   1.851   9.231
17741TIP3    H153100   5.151   1.768   9.239
17741TIP3    H253101   5.147   1.903   9.300
17742TIP3   OH253102   5.397   1.485   7.928
17742TIP3    H153103   5.409   1.393   7.898
17742TIP3    H253104   5.379   1.471   8.023
17743TIP3   OH253105   5.343   1.485   8.201
17743TIP3    H153106   5.414   1.459   8.260
17743TIP3    H253107   5.346   1.583   8.205
17744TIP3   OH253108   5.074   1.177   8.399
17744TIP3    H153109   5.012   1.226   8.457
17744TIP3    H253110   5.094   1.246   8.333
17745TIP3   OH253111   5.607   1.684   8.149
17745TIP3    H153112   5.520   1.713   8.183
17745TIP3    H253113   5.625   1.754   8.085
17746TIP3   OH253114   5.817   0.739   8.559
17746TIP3    H153115   5.860   0.825   8.540
17746TIP3    H253116   5.782   0.753   8.648
17747TIP3   OH253117   6.060   1.069   9.363
17747TIP3    H153118   6.071   1.111   9.450
17747TIP3    H253119   6.144   1.021   9.354
17748TIP3   OH253120   5.349   1.758   8.215
17748TIP3    H153121   5.320   1.827   8.151
17748TIP3    H253122   5.333   1.803   8.300
17749TIP3   OH253123   6.363   1.158   8.740
17749TIP3    H153124   6.282   1.104   8.752
17749TIP3    H253125   6.427   1.110   8.796
17750TIP3   OH253126   5.067   1.391   8.210
17750TIP3    H153127   5.129   1.466   8.217
17750TIP3    H253128   5.115   1.339   8.142
17751TIP3   OH253129   6.324   2.114   8.689
17751TIP3    H153130   6.282   2.161   8.614
17751TIP3    H253131   6.419   2.133   8.669
17752TIP3   OH253132   4.941   1.602   8.599
17752TIP3    H153133   4.865   1.635   8.649
17752TIP3    H253134   4.923   1.641   8.511
17753TIP3   OH253135   5.561   1.686   7.841
17753TIP3    H153136   5.504   1.616   7.879
17753TIP3    H253137   5.635   1.633   7.808
17754TIP3   OH253138   6.227   2.013   9.420
17754TIP3    H153139   6.222   1.970   9.507
17754TIP3    H253140   6.300   2.077   9.437
17755TIP3   OH253141   5.996   1.727   7.750
17755TIP3    H153142   6.045   1.666   7.808
17755TIP3    H253143   6.052   1.730   7.670
17756TIP3   OH253144   5.203   1.201   8.062
17756TIP3    H153145   5.261   1.168   8.132
17756TIP3    H253146   5.269   1.213   7.990
17757TIP3   OH253147   5.711   1.400   7.866
17757TIP3    H153148   5.714   1.414   7.963
17757TIP3    H253149   5.710   1.302   7.863
17758TIP3   OH253150   6.325   1.643   9.242
17758TIP3    H153151   6.401   1.689   9.199
17758TIP3    H253152   6.255   1.709   9.228
17759TIP3   OH253153   5.411   1.105   8.283
17759TIP3    H153154   5.393   1.062   8.368
17759TIP3    H253155   5.447   1.030   8.231
17760TIP3   OH253156   5.511   0.897   8.125
17760TIP3    H153157   5.485   0.895   8.031
17760TIP3    H253158   5.608   0.907   8.118
17761TIP3   OH253159   6.336   1.229   7.784
17761TIP3    H153160   6.313   1.185   7.700
17761TIP3    H253161   6.307   1.321   7.762
17762TIP3   OH253162   5.840   1.275   9.321
17762TIP3    H153163   5.917   1.286   9.264
17762TIP3    H253164   5.779   1.342   9.286
17763TIP3   OH253165   6.468   1.488   9.413
17763TIP3    H153166   6.407   1.548   9.365
17763TIP3    H253167   6.555   1.519   9.378
17764TIP3   OH253168   5.319   1.960   8.027
17764TIP3    H153169   5.414   1.959   8.008
17764TIP3    H253170   5.286   2.008   7.949
17765TIP3   OH253171   4.801   1.340   8.248
17765TIP3    H153172   4.895   1.364   8.233
17765TIP3    H253173   4.795   1.253   8.203
17766TIP3   OH253174   4.715   1.955   8.655
17766TIP3    H153175   4.645   1.895   8.620
17766TIP3    H253176   4.757   1.898   8.722
17767TIP3   OH253177   4.849   1.808   8.842
17767TIP3    H153178   4.838   1.734   8.904
17767TIP3    H253179   4.904   1.869   8.895
17768TIP3   OH253180   6.575   2.209   8.643
17768TIP3    H153181   6.604   2.243   8.729
17768TIP3    H253182   6.637   2.251   8.582
17769TIP3   OH253183   6.606   2.229   8.926
17769TIP3    H153184   6.566   2.140   8.921
17769TIP3    H253185   6.683   2.209   8.982
17770TIP3   OH253186   6.657   1.908   9.487
17770TIP3    H153187   6.572   1.917   9.533
17770TIP3    H253188   6.694   1.998   9.493
17771TIP3   OH253189   6.469   1.417   8.118
17771TIP3    H153190   6.537   1.481   8.090
17771TIP3    H253191   6.512   1.378   8.197
17772TIP3   OH253192   6.598   1.285   8.320
17772TIP3    H153193   6.533   1.244   8.381
17772TIP3    H253194   6.665   1.323   8.380
17773TIP3   OH253195   6.648   1.674   8.753
17773TIP3    H153196   6.703   1.612   8.702
17773TIP3    H253197   6.642   1.751   8.693
17774TIP3   OH253198   6.483   1.976   8.950
17774TIP3    H153199   6.413   2.018   9.002
17774TIP3    H253200   6.433   1.928   8.882
17775TIP3   OH253201   6.533   1.188   7.971
17775TIP3    H153202   6.463   1.198   7.903
17775TIP3    H253203   6.511   1.265   8.027
17776TIP3   OH253204   6.411   0.857   7.920
17776TIP3    H153205   6.371   0.928   7.869
17776TIP3    H253206   6.375   0.778   7.879
17777TIP3   OH253207   6.411   1.143   8.469
17777TIP3    H153208   6.416   1.047   8.463
17777TIP3    H253209   6.400   1.158   8.566
17778TIP3   OH253210   5.059   1.258   9.172
17778TIP3    H153211   5.051   1.199   9.096
17778TIP3    H253212   5.146   1.233   9.209
17779TIP3   OH253213   6.712   1.562   9.319
17779TIP3    H153214   6.786   1.499   9.309
17779TIP3    H253215   6.741   1.638   9.264
17780TIP3   OH253216   6.907   1.366   9.343
17780TIP3    H153217   6.821   1.326   9.371
17780TIP3    H253218   6.966   1.302   9.387
17781TIP3   OH253219   6.396   0.863   8.323
17781TIP3    H153220   6.447   0.821   8.396
17781TIP3    H253221   6.467   0.894   8.263
17782TIP3   OH253222   6.582   1.026   8.872
17782TIP3    H153223   6.657   1.065   8.820
17782TIP3    H253224   6.581   1.090   8.948
17783TIP3   OH253225   6.626   1.179   9.090
17783TIP3    H153226   6.555   1.219   9.145
17783TIP3    H253227   6.668   1.259   9.051
17784TIP3   OH253228   6.161   2.073   8.302
17784TIP3    H153229   6.211   2.056   8.219
17784TIP3    H253230   6.216   2.140   8.345
17785TIP3   OH253231   5.439   1.907   9.233
17785TIP3    H153232   5.391   1.983   9.194
17785TIP3    H253233   5.525   1.922   9.189
17786TIP3   OH253234   5.882   2.154   9.349
17786TIP3    H153235   5.928   2.143   9.436
17786TIP3    H253236   5.950   2.203   9.299
17787TIP3   OH253237   6.065   2.304   9.219
17787TIP3    H153238   6.138   2.252   9.182
17787TIP3    H253239   6.115   2.364   9.279
17788TIP3   OH253240   5.126   2.171   9.256
17788TIP3    H153241   5.039   2.205   9.227
17788TIP3    H253242   5.118   2.181   9.352
17789TIP3   OH253243   5.356   2.143   9.114
17789TIP3    H153244   5.271   2.159   9.160
17789TIP3    H253245   5.335   2.177   9.024
17790TIP3   OH253246   5.778   2.176   8.915
17790TIP3    H153247   5.711   2.195   8.847
17790TIP3    H253248   5.792   2.265   8.954
17791TIP3   OH253249   6.047   2.115   8.965
17791TIP3    H153250   5.953   2.131   8.943
17791TIP3    H253251   6.091   2.190   8.921
17792TIP3   OH253252   6.254   2.307   8.880
17792TIP3    H153253   6.241   2.392   8.832
17792TIP3    H253254   6.282   2.247   8.807
17793TIP3   OH253255   5.024   1.963   8.994
17793TIP3    H153256   5.050   1.942   9.087
17793TIP3    H253257   5.099   1.921   8.947
17794TIP3   OH253258   5.221   1.831   8.859
17794TIP3    H153259   5.240   1.747   8.906
17794TIP3    H253260   5.311   1.870   8.853
17795TIP3   OH253261   5.486   1.929   8.861
17795TIP3    H153262   5.520   1.839   8.845
17795TIP3    H253263   5.530   1.949   8.946
17796TIP3   OH253264   4.816   1.731   8.397
17796TIP3    H153265   4.731   1.699   8.361
17796TIP3    H253266   4.806   1.826   8.378
17797TIP3   OH253267   5.589   1.924   7.977
17797TIP3    H153268   5.677   1.945   7.940
17797TIP3    H253269   5.566   1.848   7.918
17798TIP3   OH253270   6.305   2.039   8.069
17798TIP3    H153271   6.296   1.941   8.054
17798TIP3    H253272   6.262   2.073   7.988
17799TIP3   OH253273   4.892   1.756   8.035
17799TIP3    H153274   4.891   1.790   8.125
17799TIP3    H253275   4.982   1.718   8.026
17800TIP3   OH253276   6.540   2.187   9.247
17800TIP3    H153277   6.458   2.153   9.205
17800TIP3    H253278   6.519   2.282   9.252
17801TIP3   OH253279   7.797   1.554   8.030
17801TIP3    H153280   7.773   1.646   8.007
17801TIP3    H253281   7.723   1.507   7.989
17802TIP3   OH253282   7.798   1.549   8.408
17802TIP3    H153283   7.802   1.491   8.484
17802TIP3    H253284   7.757   1.490   8.343
17803TIP3   OH253285   7.095   1.464   8.767
17803TIP3    H153286   7.124   1.391   8.825
17803TIP3    H253287   7.180   1.506   8.748
17804TIP3   OH253288   8.037   1.857   8.086
17804TIP3    H153289   8.031   1.788   8.154
17804TIP3    H253290   8.071   1.933   8.138
17805TIP3   OH253291   7.069   1.859   8.498
17805TIP3    H153292   7.060   1.761   8.499
17805TIP3    H253293   7.166   1.867   8.488
17806TIP3   OH253294   6.766   1.051   8.292
17806TIP3    H153295   6.726   1.139   8.301
17806TIP3    H253296   6.703   1.008   8.231
17807TIP3   OH253297   6.837   1.348   8.447
17807TIP3    H153298   6.888   1.274   8.487
17807TIP3    H253299   6.900   1.381   8.381
17808TIP3   OH253300   7.688   2.319   8.101
17808TIP3    H153301   7.736   2.249   8.051
17808TIP3    H253302   7.688   2.281   8.190
17809TIP3   OH253303   7.596   1.782   8.454
17809TIP3    H153304   7.628   1.705   8.405
17809TIP3    H253305   7.682   1.826   8.472
17810TIP3   OH253306   6.980   1.140   8.561
17810TIP3    H153307   7.062   1.116   8.609
17810TIP3    H253308   6.997   1.089   8.479
17811TIP3   OH253309   7.424   1.344   8.356
17811TIP3    H153310   7.515   1.312   8.368
17811TIP3    H253311   7.378   1.263   8.324
17812TIP3   OH253312   7.691   1.774   7.897
17812TIP3    H153313   7.652   1.753   7.811
17812TIP3    H253314   7.649   1.860   7.916
17813TIP3   OH253315   7.453   1.700   8.686
17813TIP3    H153316   7.388   1.764   8.721
17813TIP3    H253317   7.492   1.750   8.611
17814TIP3   OH253318   7.217   1.044   8.654
17814TIP3    H153319   7.280   1.111   8.687
17814TIP3    H253320   7.268   1.006   8.580
17815TIP3   OH253321   7.279   1.896   8.780
17815TIP3    H153322   7.250   1.980   8.737
17815TIP3    H253323   7.199   1.879   8.835
17816TIP3   OH253324   6.673   1.585   8.015
17816TIP3    H153325   6.635   1.611   7.930
17816TIP3    H253326   6.704   1.670   8.052
17817TIP3   OH253327   8.108   2.093   8.248
17817TIP3    H153328   8.017   2.089   8.286
17817TIP3    H253329   8.108   2.183   8.211
17818TIP3   OH253330   7.814   2.148   7.928
17818TIP3    H153331   7.864   2.066   7.907
17818TIP3    H253332   7.875   2.214   7.886
17819TIP3   OH253333   7.955   1.933   7.833
17819TIP3    H153334   7.927   1.852   7.789
17819TIP3    H253335   7.990   1.897   7.918
17820TIP3   OH253336   7.632   1.409   7.854
17820TIP3    H153337   7.550   1.458   7.829
17820TIP3    H253338   7.678   1.402   7.768
17821TIP3   OH253339   7.583   1.194   7.574
17821TIP3    H153340   7.660   1.236   7.616
17821TIP3    H253341   7.627   1.123   7.524
17822TIP3   OH253342   7.974   1.491   7.827
17822TIP3    H153343   7.923   1.516   7.907
17822TIP3    H253344   8.059   1.461   7.868
17823TIP3   OH253345   7.212   1.489   8.243
17823TIP3    H153346   7.167   1.431   8.177
17823TIP3    H253347   7.287   1.433   8.272
17824TIP3   OH253348   7.338   1.897   8.393
17824TIP3    H153349   7.318   1.855   8.308
17824TIP3    H253350   7.429   1.866   8.410
17825TIP3   OH253351   7.341   1.460   8.599
17825TIP3    H153352   7.376   1.434   8.511
17825TIP3    H253353   7.392   1.540   8.619
17826TIP3   OH253354   7.865   2.100   8.369
17826TIP3    H153355   7.858   2.178   8.427
17826TIP3    H253356   7.858   2.024   8.432
17827TIP3   OH253357   7.483   2.018   8.916
17827TIP3    H153358   7.425   2.083   8.963
17827TIP3    H253359   7.416   1.972   8.861
17828TIP3   OH253360   7.820   1.341   7.653
17828TIP3    H153361   7.880   1.398   7.707
17828TIP3    H253362   7.846   1.368   7.562
17829TIP3   OH253363   7.232   1.576   9.021
17829TIP3    H153364   7.234   1.662   9.068
17829TIP3    H253365   7.136   1.558   9.022
17830TIP3   OH253366   7.558   2.031   7.930
17830TIP3    H153367   7.639   2.082   7.946
17830TIP3    H253368   7.500   2.096   7.889
17831TIP3   OH253369   7.279   2.180   9.006
17831TIP3    H153370   7.241   2.182   8.916
17831TIP3    H253371   7.200   2.163   9.062
17832TIP3   OH253372   7.072   1.338   8.052
17832TIP3    H153373   7.005   1.373   7.989
17832TIP3    H253374   7.049   1.245   8.058
17833TIP3   OH253375   8.132   1.957   7.248
17833TIP3    H153376   8.141   2.054   7.234
17833TIP3    H253377   8.225   1.927   7.236
17834TIP3   OH253378   6.855   1.715   8.954
17834TIP3    H153379   6.794   1.691   8.882
17834TIP3    H253380   6.894   1.629   8.979
17835TIP3   OH253381   6.711   1.905   8.591
17835TIP3    H153382   6.807   1.900   8.577
17835TIP3    H253383   6.704   1.987   8.643
17836TIP3   OH253384   7.688   2.142   8.785
17836TIP3    H153385   7.677   2.238   8.803
17836TIP3    H253386   7.609   2.106   8.832
17837TIP3   OH253387   7.439   2.273   7.730
17837TIP3    H153388   7.397   2.255   7.644
17837TIP3    H253389   7.410   2.364   7.749
17838TIP3   OH253390   6.879   2.124   8.112
17838TIP3    H153391   6.929   2.114   8.196
17838TIP3    H253392   6.819   2.047   8.118
17839TIP3   OH253393   7.644   2.174   7.370
17839TIP3    H153394   7.703   2.105   7.333
17839TIP3    H253395   7.679   2.183   7.461
17840TIP3   OH253396   7.692   2.223   7.641
17840TIP3    H153397   7.605   2.231   7.686
17840TIP3    H253398   7.746   2.182   7.711
17841TIP3   OH253399   7.059   1.899   8.941
17841TIP3    H153400   7.108   1.881   9.024
17841TIP3    H253401   6.985   1.835   8.948
17842TIP3   OH253402   7.895   1.394   7.396
17842TIP3    H153403   7.861   1.370   7.308
17842TIP3    H253404   7.973   1.446   7.372
17843TIP3   OH253405   7.396   1.230   8.743
17843TIP3    H153406   7.352   1.262   8.824
17843TIP3    H253407   7.386   1.309   8.686
17844TIP3   OH253408   7.264   1.146   8.253
17844TIP3    H153409   7.189   1.093   8.285
17844TIP3    H253410   7.289   1.098   8.171
17845TIP3   OH253411   7.771   1.211   7.984
17845TIP3    H153412   7.718   1.284   7.944
17845TIP3    H253413   7.821   1.178   7.907
17846TIP3   OH253414   7.936   1.245   8.214
17846TIP3    H153415   7.875   1.271   8.142
17846TIP3    H253416   7.949   1.152   8.192
17847TIP3   OH253417   7.188   1.276   8.941
17847TIP3    H153418   7.233   1.338   9.000
17847TIP3    H253419   7.186   1.192   8.989
17848TIP3   OH253420   7.034   0.999   8.331
17848TIP3    H153421   6.940   1.012   8.307
17848TIP3    H253422   7.049   0.907   8.306
17849TIP3   OH253423   7.322   1.017   8.018
17849TIP3    H153424   7.411   0.997   7.986
17849TIP3    H253425   7.267   1.011   7.937
17850TIP3   OH253426   7.135   1.035   7.796
17850TIP3    H153427   7.075   0.984   7.739
17850TIP3    H253428   7.197   1.071   7.728
17851TIP3   OH253429   8.262   2.751   8.738
17851TIP3    H153430   8.247   2.755   8.641
17851TIP3    H253431   8.341   2.808   8.742
17852TIP3   OH253432   7.215   1.819   9.154
17852TIP3    H153433   7.299   1.856   9.186
17852TIP3    H253434   7.158   1.822   9.234
17853TIP3   OH253435   7.696   1.276   8.427
17853TIP3    H153436   7.762   1.226   8.376
17853TIP3    H253437   7.690   1.225   8.510
17854TIP3   OH253438   7.671   1.164   8.713
17854TIP3    H153439   7.578   1.192   8.719
17854TIP3    H253440   7.710   1.213   8.787
17855TIP3   OH253441   7.400   1.562   7.802
17855TIP3    H153442   7.328   1.496   7.793
17855TIP3    H253443   7.385   1.595   7.894
17856TIP3   OH253444   8.300   1.769   8.422
17856TIP3    H153445   8.334   1.826   8.350
17856TIP3    H253446   8.209   1.748   8.392
17857TIP3   OH253447   7.824   1.891   8.792
17857TIP3    H153448   7.815   1.838   8.872
17857TIP3    H253449   7.764   1.967   8.804
17858TIP3   OH253450   7.916   1.099   7.762
17858TIP3    H153451   8.014   1.107   7.770
17858TIP3    H253452   7.895   1.176   7.707
17859TIP3   OH253453   7.090   1.579   8.478
17859TIP3    H153454   7.130   1.554   8.392
17859TIP3    H253455   7.137   1.519   8.539
17860TIP3   OH253456   7.546   1.710   7.622
17860TIP3    H153457   7.499   1.796   7.631
17860TIP3    H253458   7.493   1.654   7.682
17861TIP3   OH253459   6.966   1.504   9.091
17861TIP3    H153460   6.986   1.486   9.185
17861TIP3    H253461   6.899   1.436   9.072
17862TIP3   OH253462   7.946   2.153   8.676
17862TIP3    H153463   7.851   2.143   8.692
17862TIP3    H253464   7.965   2.241   8.709
17863TIP3   OH253465   8.377   1.206   7.599
17863TIP3    H153466   8.315   1.158   7.539
17863TIP3    H253467   8.372   1.295   7.559
17864TIP3   OH253468   8.067   2.029   7.511
17864TIP3    H153469   8.051   1.956   7.573
17864TIP3    H253470   8.084   1.982   7.427
17865TIP3   OH253471   8.049   1.663   8.344
17865TIP3    H153472   7.959   1.626   8.359
17865TIP3    H253473   8.094   1.585   8.306
17866TIP3   OH253474   7.193   1.886   8.107
17866TIP3    H153475   7.199   1.966   8.052
17866TIP3    H253476   7.098   1.870   8.109
17867TIP3   OH253477   6.755   1.188   7.803
17867TIP3    H153478   6.806   1.269   7.823
17867TIP3    H253479   6.681   1.197   7.867
17868TIP3   OH253480   7.336   1.653   8.050
17868TIP3    H153481   7.300   1.742   8.069
17868TIP3    H253482   7.299   1.601   8.124
17869TIP3   OH253483   7.461   2.232   8.572
17869TIP3    H153484   7.498   2.305   8.519
17869TIP3    H253485   7.541   2.200   8.617
17870TIP3   OH253486   7.115   2.124   7.957
17870TIP3    H153487   7.028   2.133   8.002
17870TIP3    H253488   7.146   2.217   7.960
17871TIP3   OH253489   7.855   1.865   8.522
17871TIP3    H153490   7.853   1.864   8.621
17871TIP3    H253491   7.928   1.805   8.500
17872TIP3   OH253492   7.824   1.754   7.415
17872TIP3    H153493   7.878   1.731   7.494
17872TIP3    H253494   7.736   1.729   7.447
17873TIP3   OH253495   8.079   2.413   8.592
17873TIP3    H153496   8.019   2.348   8.552
17873TIP3    H253497   8.094   2.469   8.513
17874TIP3   OH253498   8.166   2.232   7.235
17874TIP3    H153499   8.207   2.304   7.183
17874TIP3    H253500   8.086   2.279   7.266
17875TIP3   OH253501   7.982   1.693   7.634
17875TIP3    H153502   7.976   1.624   7.703
17875TIP3    H253503   8.079   1.692   7.616
17876TIP3   OH253504   6.901   2.094   8.734
17876TIP3    H153505   6.953   2.017   8.763
17876TIP3    H253506   6.931   2.161   8.796
17877TIP3   OH253507   7.191   1.741   7.415
17877TIP3    H153508   7.206   1.649   7.384
17877TIP3    H253509   7.174   1.726   7.510
17878TIP3   OH253510   7.137   1.742   7.689
17878TIP3    H153511   7.211   1.713   7.744
17878TIP3    H253512   7.143   1.839   7.694
17879TIP3   OH253513   6.870   1.433   7.886
17879TIP3    H153514   6.809   1.481   7.945
17879TIP3    H253515   6.892   1.503   7.822
17880TIP3   OH253516   7.402   1.940   7.636
17880TIP3    H153517   7.316   1.970   7.670
17880TIP3    H253518   7.422   2.009   7.572
17881TIP3   OH253519   7.612   0.997   8.044
17881TIP3    H153520   7.657   1.082   8.025
17881TIP3    H253521   7.580   1.010   8.134
17882TIP3   OH253522   7.144   2.015   7.701
17882TIP3    H153523   7.115   2.085   7.638
17882TIP3    H253524   7.130   2.060   7.787
17883TIP3   OH253525   8.154   1.412   8.234
17883TIP3    H153526   8.071   1.360   8.231
17883TIP3    H253527   8.212   1.353   8.285
17884TIP3   OH253528   6.863   1.650   7.695
17884TIP3    H153529   6.930   1.721   7.705
17884TIP3    H253530   6.910   1.594   7.629
17885TIP3   OH253531   6.794   0.900   7.822
17885TIP3    H153532   6.833   0.989   7.820
17885TIP3    H253533   6.702   0.921   7.845
17886TIP3   OH253534   8.115   2.371   8.174
17886TIP3    H153535   8.079   2.420   8.098
17886TIP3    H253536   8.211   2.387   8.160
17887TIP3   OH253537   6.739   1.860   8.087
17887TIP3    H153538   6.661   1.893   8.135
17887TIP3    H253539   6.722   1.898   7.998
17888TIP3   OH253540   6.892   2.399   9.156
17888TIP3    H153541   6.978   2.399   9.203
17888TIP3    H253542   6.872   2.304   9.154
17889TIP3   OH253543   7.373   2.377   9.184
17889TIP3    H153544   7.460   2.349   9.215
17889TIP3    H253545   7.354   2.310   9.116
17890TIP3   OH253546   7.357   1.943   7.328
17890TIP3    H153547   7.301   1.871   7.366
17890TIP3    H253548   7.432   1.890   7.295
17891TIP3   OH253549   7.792   1.984   7.237
17891TIP3    H153550   7.840   1.922   7.296
17891TIP3    H253551   7.849   1.985   7.158
17892TIP3   OH253552   7.024   1.813   9.349
17892TIP3    H153553   7.040   1.720   9.369
17892TIP3    H253554   6.935   1.811   9.308
17893TIP3   OH253555   6.999   1.459   7.549
17893TIP3    H153556   7.055   1.424   7.620
17893TIP3    H253557   7.066   1.469   7.478
17894TIP3   OH253558   7.513   1.829   9.114
17894TIP3    H153559   7.491   1.876   9.031
17894TIP3    H253560   7.560   1.749   9.079
17895TIP3   OH253561   7.504   1.656   7.353
17895TIP3    H153562   7.510   1.670   7.450
17895TIP3    H253563   7.507   1.558   7.350
17896TIP3   OH253564   7.148   1.541   9.342
17896TIP3    H153565   7.159   1.445   9.345
17896TIP3    H253566   7.132   1.563   9.435
17897TIP3   OH253567   7.206   1.363   7.772
17897TIP3    H153568   7.187   1.320   7.857
17897TIP3    H253569   7.242   1.289   7.719
17898TIP3   OH253570   7.448   1.406   8.987
17898TIP3    H153571   7.394   1.488   8.995
17898TIP3    H253572   7.518   1.436   8.926
17899TIP3   OH253573   7.305   1.156   7.612
17899TIP3    H153574   7.282   1.151   7.518
17899TIP3    H253575   7.403   1.165   7.606
17900TIP3   OH253576   8.130   1.486   7.271
17900TIP3    H153577   8.109   1.441   7.187
17900TIP3    H253578   8.102   1.578   7.248
17901TIP3   OH253579   7.633   1.502   8.760
17901TIP3    H153580   7.721   1.539   8.747
17901TIP3    H253581   7.575   1.578   8.738
17902TIP3   OH253582   7.115   2.218   7.514
17902TIP3    H153583   7.211   2.215   7.496
17902TIP3    H253584   7.085   2.265   7.434
17903TIP3   OH253585   6.596   1.599   7.733
17903TIP3    H153586   6.691   1.623   7.719
17903TIP3    H253587   6.592   1.511   7.692
17904TIP3   OH253588   6.508   2.212   8.144
17904TIP3    H153589   6.441   2.148   8.109
17904TIP3    H253590   6.553   2.155   8.210
17905TIP3   OH253591   6.645   2.067   8.331
17905TIP3    H153592   6.636   1.990   8.389
17905TIP3    H253593   6.697   2.127   8.387
17906TIP3   OH253594   8.369   2.464   8.131
17906TIP3    H153595   8.397   2.501   8.217
17906TIP3    H253596   8.430   2.507   8.069
17907TIP3   OH253597   8.405   2.493   8.418
17907TIP3    H153598   8.363   2.403   8.410
17907TIP3    H253599   8.492   2.469   8.455
17908TIP3   OH253600   8.256   1.685   7.591
17908TIP3    H153601   8.332   1.742   7.571
17908TIP3    H253602   8.288   1.640   7.673
17909TIP3   OH253603   8.352   1.547   7.794
17909TIP3    H153604   8.309   1.491   7.862
17909TIP3    H253605   8.438   1.570   7.836
17910TIP3   OH253606   8.427   1.919   8.226
17910TIP3    H153607   8.491   1.887   8.161
17910TIP3    H253608   8.410   2.008   8.192
17911TIP3   OH253609   8.276   2.252   8.417
17911TIP3    H153610   8.234   2.241   8.503
17911TIP3    H253611   8.242   2.176   8.367
17912TIP3   OH253612   8.329   1.447   7.457
17912TIP3    H153613   8.258   1.456   7.389
17912TIP3    H253614   8.306   1.523   7.514
17913TIP3   OH253615   8.206   1.115   7.407
17913TIP3    H153616   8.165   1.183   7.352
17913TIP3    H253617   8.171   1.034   7.368
17914TIP3   OH253618   8.198   1.393   7.962
17914TIP3    H153619   8.212   1.297   7.957
17914TIP3    H253620   8.192   1.410   8.058
17915TIP3   OH253621   6.833   1.469   8.702
17915TIP3    H153622   6.833   1.441   8.608
17915TIP3    H253623   6.930   1.476   8.719
17916TIP3   OH253624   8.186   1.119   7.789
17916TIP3    H153625   8.223   1.085   7.873
17916TIP3    H253626   8.265   1.152   7.742
17917TIP3   OH253627   6.813   1.127   8.779
17917TIP3    H153628   6.866   1.118   8.696
17917TIP3    H253629   6.844   1.212   8.810
17918TIP3   OH253630   7.955   2.331   7.788
17918TIP3    H153631   8.007   2.313   7.706
17918TIP3    H253632   8.013   2.395   7.833
17919TIP3   OH253633   7.062   2.130   9.179
17919TIP3    H153634   6.970   2.103   9.163
17919TIP3    H253635   7.070   2.115   9.275
17920TIP3   OH253636   7.235   2.166   8.722
17920TIP3    H153637   7.186   2.241   8.683
17920TIP3    H253638   7.321   2.181   8.676
17921TIP3   OH253639   7.670   2.409   8.832
17921TIP3    H153640   7.702   2.405   8.925
17921TIP3    H253641   7.740   2.464   8.790
17922TIP3   OH253642   7.864   2.559   8.716
17922TIP3    H153643   7.934   2.517   8.663
17922TIP3    H253644   7.917   2.618   8.774
17923TIP3   OH253645   6.914   2.423   8.745
17923TIP3    H153646   6.825   2.458   8.721
17923TIP3    H253647   6.922   2.457   8.835
17924TIP3   OH253648   7.149   2.401   8.602
17924TIP3    H153649   7.063   2.415   8.647
17924TIP3    H253650   7.130   2.435   8.512
17925TIP3   OH253651   7.574   2.431   8.401
17925TIP3    H153652   7.508   2.453   8.333
17925TIP3    H253653   7.588   2.519   8.442
17926TIP3   OH253654   7.841   2.370   8.452
17926TIP3    H153655   7.748   2.388   8.430
17926TIP3    H253656   7.886   2.444   8.407
17927TIP3   OH253657   8.053   2.563   8.366
17927TIP3    H153658   8.038   2.647   8.317
17927TIP3    H253659   8.079   2.501   8.294
17928TIP3   OH253660   6.824   2.217   8.491
17928TIP3    H153661   6.852   2.193   8.582
17928TIP3    H253662   6.896   2.174   8.440
17929TIP3   OH253663   7.017   2.088   8.346
17929TIP3    H153664   7.034   2.004   8.393
17929TIP3    H253665   7.107   2.126   8.340
17930TIP3   OH253666   7.282   2.185   8.347
17930TIP3    H153667   7.315   2.095   8.332
17930TIP3    H253668   7.325   2.205   8.432
17931TIP3   OH253669   6.611   1.987   7.884
17931TIP3    H153670   6.527   1.955   7.847
17931TIP3    H253671   6.601   2.082   7.867
17932TIP3   OH253672   7.384   2.181   7.463
17932TIP3    H153673   7.473   2.201   7.428
17932TIP3    H253674   7.362   2.104   7.405
17933TIP3   OH253675   8.101   2.295   7.556
17933TIP3    H153676   8.092   2.197   7.542
17933TIP3    H253677   8.059   2.328   7.474
17934TIP3   OH253678   6.688   2.014   7.521
17934TIP3    H153679   6.690   2.043   7.614
17934TIP3    H253680   6.777   1.974   7.510
17935TIP3   OH253681   8.251   2.481   8.796
17935TIP3    H153682   8.187   2.460   8.724
17935TIP3    H253683   8.280   2.570   8.771
17936TIP3   OH253684   8.526   1.299   7.821
17936TIP3    H153685   8.522   1.393   7.798
17936TIP3    H253686   8.504   1.257   7.736
17937TIP3   OH253687   8.606   1.592   7.866
17937TIP3    H153688   8.666   1.558   7.935
17937TIP3    H253689   8.667   1.650   7.820
17938TIP3   OH253690   9.385   2.043   7.439
17938TIP3    H153691   9.403   2.019   7.347
17938TIP3    H253692   9.380   2.141   7.429
17939TIP3   OH253693   8.472   1.842   7.501
17939TIP3    H153694   8.431   1.867   7.416
17939TIP3    H253695   8.500   1.929   7.537
17940TIP3   OH253696   9.382   1.454   7.050
17940TIP3    H153697   9.443   1.490   7.116
17940TIP3    H253698   9.412   1.362   7.041
17941TIP3   OH253699   9.367   2.315   7.413
17941TIP3    H153700   9.405   2.379   7.473
17941TIP3    H253701   9.299   2.366   7.365
17942TIP3   OH253702   8.874   1.596   7.535
17942TIP3    H153703   8.802   1.626   7.476
17942TIP3    H253704   8.852   1.503   7.549
17943TIP3   OH253705   8.504   2.166   8.076
17943TIP3    H153706   8.600   2.169   8.076
17943TIP3    H253707   8.484   2.240   8.135
17944TIP3   OH253708   9.236   2.530   7.219
17944TIP3    H153709   9.194   2.509   7.134
17944TIP3    H253710   9.206   2.621   7.237
17945TIP3   OH253711   8.675   2.381   7.598
17945TIP3    H153712   8.724   2.373   7.682
17945TIP3    H253713   8.616   2.304   7.604
17946TIP3   OH253714   9.441   2.432   6.858
17946TIP3    H153715   9.500   2.362   6.822
17946TIP3    H253716   9.475   2.441   6.949
17947TIP3   OH253717   9.490   2.482   7.128
17947TIP3    H153718   9.403   2.484   7.172
17947TIP3    H253719   9.548   2.451   7.199
17948TIP3   OH253720   9.670   1.664   6.874
17948TIP3    H153721   9.659   1.623   6.787
17948TIP3    H253722   9.756   1.707   6.866
17949TIP3   OH253723   8.902   1.308   7.273
17949TIP3    H153724   8.858   1.246   7.212
17949TIP3    H253725   8.984   1.326   7.224
17950TIP3   OH253726   9.174   1.842   7.286
17950TIP3    H153727   9.125   1.758   7.277
17950TIP3    H253728   9.177   1.853   7.383
17951TIP3   OH253729   9.334   1.964   7.097
17951TIP3    H153730   9.296   2.052   7.116
17951TIP3    H253731   9.287   1.910   7.164
17952TIP3   OH253732   9.897   2.277   6.931
17952TIP3    H153733   9.890   2.263   7.028
17952TIP3    H253734   9.827   2.217   6.901
17953TIP3   OH253735   8.990   2.141   7.571
17953TIP3    H153736   8.990   2.227   7.526
17953TIP3    H253737   8.896   2.129   7.588
17954TIP3   OH253738   8.549   1.447   7.288
17954TIP3    H153739   8.603   1.525   7.311
17954TIP3    H253740   8.477   1.454   7.354
17955TIP3   OH253741   9.124   1.896   7.561
17955TIP3    H153742   9.106   1.991   7.545
17955TIP3    H253743   9.062   1.880   7.633
17956TIP3   OH253744   8.912   2.384   7.445
17956TIP3    H153745   8.825   2.392   7.488
17956TIP3    H253746   8.943   2.477   7.449
17957TIP3   OH253747   9.612   2.024   6.916
17957TIP3    H153748   9.657   1.984   6.991
17957TIP3    H253749   9.522   1.994   6.933
17958TIP3   OH253750   8.703   2.340   8.213
17958TIP3    H153751   8.761   2.264   8.233
17958TIP3    H253752   8.760   2.409   8.252
17959TIP3   OH253753   8.988   1.997   6.902
17959TIP3    H153754   9.002   1.905   6.871
17959TIP3    H253755   8.970   1.982   6.997
17960TIP3   OH253756   8.933   1.997   7.176
17960TIP3    H153757   9.012   1.963   7.222
17960TIP3    H253758   8.943   2.094   7.185
17961TIP3   OH253759   8.668   1.690   7.373
17961TIP3    H153760   8.605   1.737   7.432
17961TIP3    H253761   8.689   1.760   7.309
17962TIP3   OH253762   9.201   2.200   7.129
17962TIP3    H153763   9.112   2.228   7.157
17962TIP3    H253764   9.218   2.263   7.058
17963TIP3   OH253765   8.941   2.273   7.188
17963TIP3    H153766   8.912   2.342   7.124
17963TIP3    H253767   8.926   2.318   7.274
17964TIP3   OH253768   8.659   1.908   7.181
17964TIP3    H153769   8.728   1.976   7.191
17964TIP3    H253770   8.706   1.850   7.116
17965TIP3   OH253771   8.587   1.156   7.302
17965TIP3    H153772   8.634   1.242   7.304
17965TIP3    H253773   8.504   1.180   7.344
17966TIP3   OH253774   8.537   2.119   7.576
17966TIP3    H153775   8.458   2.150   7.622
17966TIP3    H253776   8.520   2.155   7.486
17967TIP3   OH253777   9.153   2.199   6.818
17967TIP3    H153778   9.097   2.126   6.853
17967TIP3    H253779   9.227   2.148   6.781
17968TIP3   OH253780   9.588   2.239   6.734
17968TIP3    H153781   9.625   2.159   6.777
17968TIP3    H253782   9.630   2.239   6.645
17969TIP3   OH253783   8.795   1.717   7.036
17969TIP3    H153784   8.850   1.680   7.107
17969TIP3    H253785   8.863   1.726   6.965
17970TIP3   OH253786   9.301   1.908   6.835
17970TIP3    H153787   9.305   1.924   6.932
17970TIP3    H253788   9.298   1.810   6.833
17971TIP3   OH253789   9.010   1.616   7.261
17971TIP3    H153790   8.979   1.575   7.343
17971TIP3    H253791   9.038   1.538   7.209
17972TIP3   OH253792   9.103   1.407   7.096
17972TIP3    H153793   9.071   1.411   7.004
17972TIP3    H253794   9.197   1.430   7.084
17973TIP3   OH253795   8.911   2.475   7.001
17973TIP3    H153796   9.007   2.472   6.983
17973TIP3    H253797   8.881   2.522   6.921
17974TIP3   OH253798   8.392   1.856   7.220
17974TIP3    H153799   8.487   1.879   7.205
17974TIP3    H253800   8.388   1.767   7.179
17975TIP3   OH253801   8.303   2.468   7.631
17975TIP3    H153802   8.237   2.405   7.596
17975TIP3    H253803   8.349   2.412   7.697
17976TIP3   OH253804   8.441   2.323   7.818
17976TIP3    H153805   8.430   2.248   7.878
17976TIP3    H253806   8.493   2.383   7.874
17977TIP3   OH253807   9.728   2.585   7.305
17977TIP3    H153808   9.769   2.560   7.218
17977TIP3    H253809   9.786   2.657   7.335
17978TIP3   OH253810   8.698   2.768   8.228
17978TIP3    H153811   8.601   2.759   8.210
17978TIP3    H253812   8.718   2.686   8.273
17979TIP3   OH253813   8.908   2.639   8.061
17979TIP3    H153814   8.886   2.720   8.110
17979TIP3    H253815   8.928   2.678   7.974
17980TIP3   OH253816   8.620   2.473   7.977
17980TIP3    H153817   8.646   2.445   8.067
17980TIP3    H253818   8.695   2.435   7.927
17981TIP3   OH253819   8.817   2.345   7.830
17981TIP3    H153820   8.852   2.259   7.855
17981TIP3    H253821   8.901   2.396   7.826
17982TIP3   OH253822   9.075   2.442   7.836
17982TIP3    H153823   9.132   2.364   7.829
17982TIP3    H253824   9.102   2.478   7.922
17983TIP3   OH253825   8.408   2.243   7.372
17983TIP3    H153826   8.324   2.210   7.335
17983TIP3    H253827   8.397   2.338   7.355
17984TIP3   OH253828   9.180   2.438   6.951
17984TIP3    H153829   9.269   2.459   6.914
17984TIP3    H253830   9.158   2.362   6.892
17985TIP3   OH253831   9.838   2.527   7.067
17985TIP3    H153832   9.871   2.447   7.025
17985TIP3    H253833   9.808   2.578   6.989
17986TIP3   OH253834   8.485   2.272   7.008
17986TIP3    H153835   8.488   2.299   7.101
17986TIP3    H253836   8.573   2.230   6.996
17987TIP3   OH253837   2.278   2.938   8.984
17987TIP3    H153838   2.194   2.915   8.942
17987TIP3    H253839   2.248   2.977   9.066
17988TIP3   OH253840   1.844   2.240   8.750
17988TIP3    H153841   1.911   2.289   8.801
17988TIP3    H253842   1.901   2.178   8.700
17989TIP3   OH253843   2.078   2.387   8.832
17989TIP3    H153844   2.121   2.455   8.886
17989TIP3    H253845   2.098   2.418   8.741
17990TIP3   OH253846   2.381   3.003   8.428
17990TIP3    H153847   2.388   3.099   8.411
17990TIP3    H253848   2.473   2.973   8.413
17991TIP3   OH253849   1.680   3.312   8.907
17991TIP3    H153850   1.645   3.299   8.817
17991TIP3    H253851   1.658   3.407   8.923
17992TIP3   OH253852   1.894   3.218   8.547
17992TIP3    H153853   1.953   3.150   8.508
17992TIP3    H253854   1.931   3.229   8.636
17993TIP3   OH253855   1.939   3.272   8.819
17993TIP3    H153856   1.850   3.275   8.861
17993TIP3    H253857   1.991   3.224   8.883
17994TIP3   OH253858   2.144   2.445   8.574
17994TIP3    H153859   2.110   2.416   8.488
17994TIP3    H253860   2.224   2.493   8.547
17995TIP3   OH253861   2.087   1.910   8.828
17995TIP3    H153862   2.003   1.924   8.871
17995TIP3    H253863   2.135   1.990   8.861
17996TIP3   OH253864   2.181   2.145   8.911
17996TIP3    H153865   2.276   2.151   8.925
17996TIP3    H253866   2.155   2.236   8.883
17997TIP3   OH253867   1.800   2.752   8.789
17997TIP3    H153868   1.754   2.838   8.800
17997TIP3    H253869   1.754   2.697   8.853
17998TIP3   OH253870   2.637   2.259   8.770
17998TIP3    H153871   2.568   2.207   8.724
17998TIP3    H253872   2.619   2.345   8.726
17999TIP3   OH253873   2.314   3.072   8.691
17999TIP3    H153874   2.310   2.997   8.752
17999TIP3    H253875   2.330   3.029   8.604
18000TIP3   OH253876   2.069   2.801   8.587
18000TIP3    H153877   2.126   2.769   8.660
18000TIP3    H253878   1.982   2.773   8.618
18001TIP3   OH253879   2.415   3.277   8.412
18001TIP3    H153880   2.450   3.346   8.353
18001TIP3    H253881   2.335   3.324   8.444
18002TIP3   OH253882   2.229   2.719   8.794
18002TIP3    H153883   2.214   2.702   8.889
18002TIP3    H253884   2.326   2.726   8.790
18003TIP3   OH253885   1.446   2.782   8.594
18003TIP3    H153886   1.461   2.699   8.545
18003TIP3    H253887   1.416   2.747   8.679
18004TIP3   OH253888   1.638   2.979   8.797
18004TIP3    H153889   1.544   3.008   8.792
18004TIP3    H253890   1.675   3.032   8.725
18005TIP3   OH253891   1.371   3.069   8.870
18005TIP3    H153892   1.354   3.130   8.794
18005TIP3    H253893   1.338   3.124   8.942
18006TIP3   OH253894   1.608   2.988   8.504
18006TIP3    H153895   1.553   2.913   8.538
18006TIP3    H253896   1.679   2.939   8.459
18007TIP3   OH253897   2.042   3.030   8.414
18007TIP3    H153898   2.089   2.965   8.469
18007TIP3    H253899   2.095   3.032   8.332
18008TIP3   OH253900   1.245   2.495   8.711
18008TIP3    H153901   1.291   2.450   8.782
18008TIP3    H253902   1.316   2.501   8.643
18009TIP3   OH253903   1.752   2.698   8.525
18009TIP3    H153904   1.762   2.712   8.621
18009TIP3    H253905   1.755   2.600   8.521
18010TIP3   OH253906   1.561   2.183   8.786
18010TIP3    H153907   1.529   2.196   8.695
18010TIP3    H253908   1.654   2.210   8.780
18011TIP3   OH253909   2.383   2.532   8.448
18011TIP3    H153910   2.360   2.484   8.366
18011TIP3    H253911   2.351   2.621   8.423
18012TIP3   OH253912   1.363   3.260   8.681
18012TIP3    H153913   1.459   3.269   8.663
18012TIP3    H253914   1.329   3.312   8.606
18013TIP3   OH253915   2.510   2.725   8.779
18013TIP3    H153916   2.579   2.787   8.749
18013TIP3    H253917   2.558   2.679   8.852
18014TIP3   OH253918   2.648   2.587   8.967
18014TIP3    H153919   2.588   2.555   9.038
18014TIP3    H253920   2.719   2.630   9.018
18015TIP3   OH253921   2.579   2.496   8.633
18015TIP3    H153922   2.508   2.496   8.565
18015TIP3    H253923   2.550   2.573   8.685
18016TIP3   OH253924   2.452   2.168   8.592
18016TIP3    H153925   2.411   2.207   8.514
18016TIP3    H253926   2.427   2.074   8.583
18017TIP3   OH253927   2.394   1.904   8.578
18017TIP3    H153928   2.473   1.873   8.629
18017TIP3    H253929   2.325   1.840   8.602
18018TIP3   OH253930   2.647   1.856   8.686
18018TIP3    H153931   2.686   1.773   8.652
18018TIP3    H253932   2.720   1.919   8.680
18019TIP3   OH253933   2.211   3.380   8.964
18019TIP3    H153934   2.258   3.366   8.878
18019TIP3    H253935   2.263   3.454   9.000
18020TIP3   OH253936   1.635   3.229   8.637
18020TIP3    H153937   1.724   3.250   8.600
18020TIP3    H253938   1.610   3.157   8.575
18021TIP3   OH253939   2.352   3.340   8.731
18021TIP3    H153940   2.342   3.243   8.715
18021TIP3    H253941   2.310   3.375   8.650
18022TIP3   OH253942   0.938   3.048   8.705
18022TIP3    H153943   0.945   3.100   8.787
18022TIP3    H253944   1.030   3.018   8.690
18023TIP3   OH253945   3.846   2.859   8.686
18023TIP3    H153946   3.815   2.949   8.665
18023TIP3    H253947   3.769   2.808   8.656
18024TIP3   OH253948   3.840   2.859   9.050
18024TIP3    H153949   3.858   2.831   9.142
18024TIP3    H253950   3.795   2.781   9.014
18025TIP3   OH253951   4.097   3.154   8.748
18025TIP3    H153952   4.067   3.089   8.812
18025TIP3    H253953   4.110   3.233   8.802
18026TIP3   OH253954   3.129   3.152   9.188
18026TIP3    H153955   3.118   3.060   9.155
18026TIP3    H253956   3.219   3.173   9.158
18027TIP3   OH253957   2.827   2.368   8.934
18027TIP3    H153958   2.778   2.451   8.949
18027TIP3    H253959   2.765   2.324   8.873
18028TIP3   OH253960   2.912   2.658   9.045
18028TIP3    H153961   2.939   2.579   9.092
18028TIP3    H253962   2.973   2.661   8.970
18029TIP3   OH253963   3.733   3.621   8.761
18029TIP3    H153964   3.783   3.549   8.718
18029TIP3    H253965   3.722   3.589   8.851
18030TIP3   OH253966   3.641   3.076   9.098
18030TIP3    H153967   3.684   3.001   9.052
18030TIP3    H253968   3.721   3.121   9.131
18031TIP3   OH253969   4.670   2.408   9.116
18031TIP3    H153970   4.691   2.493   9.159
18031TIP3    H253971   4.682   2.428   9.022
18032TIP3   OH253972   4.073   2.585   9.154
18032TIP3    H153973   4.103   2.491   9.160
18032TIP3    H253974   4.035   2.583   9.064
18033TIP3   OH253975   3.412   2.236   9.096
18033TIP3    H153976   3.377   2.316   9.051
18033TIP3    H253977   3.357   2.167   9.051
18034TIP3   OH253978   4.087   2.335   8.743
18034TIP3    H153979   4.161   2.317   8.806
18034TIP3    H253980   4.137   2.369   8.666
18035TIP3   OH253981   3.472   2.645   8.962
18035TIP3    H153982   3.560   2.616   8.994
18035TIP3    H253983   3.426   2.559   8.950
18036TIP3   OH253984   4.740   2.628   9.263
18036TIP3    H153985   4.651   2.668   9.257
18036TIP3    H253986   4.740   2.599   9.355
18037TIP3   OH253987   3.742   3.081   8.556
18037TIP3    H153988   3.695   3.055   8.475
18037TIP3    H253989   3.695   3.165   8.578
18038TIP3   OH253990   4.300   2.331   8.916
18038TIP3    H153991   4.309   2.290   9.004
18038TIP3    H253992   4.353   2.411   8.931
18039TIP3   OH253993   2.719   2.885   8.677
18039TIP3    H153994   2.678   2.909   8.592
18039TIP3    H253995   2.747   2.973   8.712
18040TIP3   OH253996   4.164   3.400   8.912
18040TIP3    H153997   4.075   3.392   8.955
18040TIP3    H253998   4.152   3.488   8.869
18041TIP3   OH253999   4.425   2.278   9.165
18041TIP3    H154000   4.388   2.312   9.248
18041TIP3    H254001   4.511   2.324   9.160
18042TIP3   OH254002   3.868   3.447   8.599
18042TIP3    H154003   3.915   3.365   8.570
18042TIP3    H254004   3.924   3.514   8.553
18043TIP3   OH254005   4.006   3.232   8.496
18043TIP3    H154006   3.959   3.157   8.457
18043TIP3    H254007   4.039   3.193   8.580
18044TIP3   OH254008   4.383   3.315   9.263
18044TIP3    H154009   4.368   3.237   9.205
18044TIP3    H254010   4.362   3.389   9.203
18045TIP3   OH254011   3.676   2.709   8.517
18045TIP3    H154012   3.594   2.758   8.497
18045TIP3    H254013   3.719   2.705   8.430
18046TIP3   OH254014   3.635   2.491   8.239
18046TIP3    H154015   3.705   2.542   8.283
18046TIP3    H254016   3.689   2.427   8.189
18047TIP3   OH254017   4.577   2.956   9.112
18047TIP3    H154018   4.493   3.004   9.129
18047TIP3    H254019   4.579   2.956   9.016
18048TIP3   OH254020   4.023   2.792   8.490
18048TIP3    H154021   3.965   2.817   8.566
18048TIP3    H254022   4.104   2.763   8.538
18049TIP3   OH254023   4.300   2.904   9.322
18049TIP3    H154024   4.316   2.915   9.417
18049TIP3    H254025   4.220   2.850   9.320
18050TIP3   OH254026   3.249   2.788   8.902
18050TIP3    H154027   3.205   2.732   8.833
18050TIP3    H254028   3.331   2.737   8.918
18051TIP3   OH254029   3.378   3.194   9.054
18051TIP3    H154030   3.367   3.156   8.965
18051TIP3    H254031   3.467   3.162   9.078
18052TIP3   OH254032   3.476   2.739   9.223
18052TIP3    H154033   3.480   2.756   9.128
18052TIP3    H254034   3.516   2.817   9.265
18053TIP3   OH254035   3.927   3.401   9.036
18053TIP3    H154036   3.895   3.480   9.082
18053TIP3    H254037   3.898   3.326   9.092
18054TIP3   OH254038   3.866   2.646   8.316
18054TIP3    H154039   3.923   2.708   8.367
18054TIP3    H254040   3.890   2.672   8.223
18055TIP3   OH254041   3.607   3.329   8.592
18055TIP3    H154042   3.678   3.390   8.615
18055TIP3    H254043   3.542   3.388   8.550
18056TIP3   OH254044   4.380   1.891   8.364
18056TIP3    H154045   4.298   1.910   8.414
18056TIP3    H254046   4.391   1.974   8.314
18057TIP3   OH254047   3.112   2.632   8.719
18057TIP3    H154048   3.053   2.680   8.657
18057TIP3    H254049   3.076   2.543   8.714
18058TIP3   OH254050   4.176   3.260   7.912
18058TIP3    H154051   4.184   3.356   7.897
18058TIP3    H254052   4.269   3.231   7.900
18059TIP3   OH254053   4.627   3.658   9.298
18059TIP3    H154054   4.625   3.564   9.324
18059TIP3    H254055   4.543   3.688   9.341
18060TIP3   OH254056   3.731   3.480   9.426
18060TIP3    H154057   3.696   3.568   9.448
18060TIP3    H254058   3.656   3.423   9.447
18061TIP3   OH254059   3.488   3.576   8.392
18061TIP3    H154060   3.440   3.556   8.310
18061TIP3    H254061   3.454   3.665   8.415
18062TIP3   OH254062   2.926   3.425   8.774
18062TIP3    H154063   2.972   3.415   8.860
18062TIP3    H254064   2.858   3.357   8.783
18063TIP3   OH254065   3.690   3.478   8.033
18063TIP3    H154066   3.748   3.407   7.997
18063TIP3    H254067   3.723   3.485   8.125
18064TIP3   OH254068   3.739   3.524   8.304
18064TIP3    H154069   3.649   3.535   8.343
18064TIP3    H254070   3.786   3.480   8.377
18065TIP3   OH254071   3.942   2.698   8.061
18065TIP3    H154072   3.906   2.671   7.974
18065TIP3    H254073   4.019   2.750   8.032
18066TIP3   OH254074   3.656   2.070   8.361
18066TIP3    H154075   3.620   2.069   8.452
18066TIP3    H254076   3.613   1.989   8.326
18067TIP3   OH254077   3.316   2.423   8.921
18067TIP3    H154078   3.225   2.392   8.941
18067TIP3    H254079   3.328   2.385   8.831
18068TIP3   OH254080   3.815   2.512   8.651
18068TIP3    H154081   3.759   2.582   8.610
18068TIP3    H254082   3.866   2.482   8.573
18069TIP3   OH254083   3.975   2.543   8.892
18069TIP3    H154084   3.913   2.571   8.822
18069TIP3    H254085   4.006   2.459   8.851
18070TIP3   OH254086   3.310   2.046   8.328
18070TIP3    H154087   3.298   2.040   8.425
18070TIP3    H254088   3.229   2.093   8.302
18071TIP3   OH254089   2.834   2.070   8.714
18071TIP3    H154090   2.874   2.110   8.633
18071TIP3    H254091   2.768   2.139   8.734
18072TIP3   OH254092   3.925   2.766   9.293
18072TIP3    H154093   3.994   2.710   9.252
18072TIP3    H254094   3.972   2.809   9.367
18073TIP3   OH254095   3.661   2.248   8.973
18073TIP3    H154096   3.575   2.242   9.019
18073TIP3    H254097   3.725   2.241   9.046
18074TIP3   OH254098   3.086   2.297   8.991
18074TIP3    H154099   2.993   2.313   8.964
18074TIP3    H254100   3.100   2.204   8.968
18075TIP3   OH254101   3.356   2.300   8.680
18075TIP3    H154102   3.449   2.315   8.655
18075TIP3    H254103   3.307   2.322   8.597
18076TIP3   OH254104   4.122   2.324   9.176
18076TIP3    H154105   4.093   2.304   9.267
18076TIP3    H254106   4.081   2.252   9.127
18077TIP3   OH254107   3.193   2.332   8.463
18077TIP3    H154108   3.120   2.287   8.417
18077TIP3    H254109   3.244   2.366   8.386
18078TIP3   OH254110   4.306   4.018   9.396
18078TIP3    H154111   4.316   4.033   9.300
18078TIP3    H254112   4.385   4.062   9.431
18079TIP3   OH254113   3.729   2.580   9.053
18079TIP3    H154114   3.806   2.533   9.015
18079TIP3    H254115   3.729   2.552   9.146
18080TIP3   OH254116   3.266   2.052   8.956
18080TIP3    H154117   3.240   1.961   8.979
18080TIP3    H254118   3.310   2.038   8.871
18081TIP3   OH254119   3.448   2.861   8.468
18081TIP3    H154120   3.375   2.797   8.456
18081TIP3    H254121   3.429   2.895   8.559
18082TIP3   OH254122   4.347   3.103   9.097
18082TIP3    H154123   4.361   3.144   9.009
18082TIP3    H254124   4.262   3.054   9.085
18083TIP3   OH254125   3.906   2.174   8.329
18083TIP3    H154126   3.809   2.156   8.335
18083TIP3    H254127   3.913   2.269   8.349
18084TIP3   OH254128   3.975   2.421   8.433
18084TIP3    H154129   4.071   2.429   8.445
18084TIP3    H254130   3.953   2.499   8.377
18085TIP3   OH254131   3.129   2.887   9.127
18085TIP3    H154132   3.163   2.859   9.039
18085TIP3    H254133   3.130   2.804   9.176
18086TIP3   OH254134   3.593   3.013   8.291
18086TIP3    H154135   3.546   3.099   8.296
18086TIP3    H254136   3.537   2.957   8.348
18087TIP3   OH254137   4.002   3.410   9.393
18087TIP3    H154138   3.911   3.444   9.379
18087TIP3    H254139   4.049   3.488   9.425
18088TIP3   OH254140   4.418   2.510   8.267
18088TIP3    H154141   4.356   2.463   8.207
18088TIP3    H254142   4.414   2.597   8.224
18089TIP3   OH254143   4.630   3.366   9.352
18089TIP3    H154144   4.532   3.363   9.339
18089TIP3    H254145   4.660   3.343   9.262
18090TIP3   OH254146   4.126   3.327   8.179
18090TIP3    H154147   4.085   3.259   8.235
18090TIP3    H254148   4.129   3.285   8.092
18091TIP3   OH254149   4.108   2.958   9.020
18091TIP3    H154150   4.013   2.933   9.024
18091TIP3    H254151   4.145   2.880   8.974
18092TIP3   OH254152   3.237   3.185   8.766
18092TIP3    H154153   3.241   3.268   8.715
18092TIP3    H254154   3.142   3.173   8.774
18093TIP3   OH254155   2.803   2.492   8.471
18093TIP3    H154156   2.847   2.578   8.489
18093TIP3    H254157   2.723   2.499   8.529
18094TIP3   OH254158   3.382   2.955   8.715
18094TIP3    H154159   3.344   3.044   8.730
18094TIP3    H254160   3.342   2.905   8.789
18095TIP3   OH254161   3.510   3.537   9.233
18095TIP3    H154162   3.541   3.613   9.181
18095TIP3    H254163   3.594   3.501   9.265
18096TIP3   OH254164   3.162   3.424   8.623
18096TIP3    H154165   3.074   3.432   8.665
18096TIP3    H254166   3.192   3.517   8.624
18097TIP3   OH254167   3.896   3.169   9.186
18097TIP3    H154168   3.899   3.180   9.282
18097TIP3    H254169   3.978   3.120   9.169
18098TIP3   OH254170   3.869   3.057   8.076
18098TIP3    H154171   3.918   3.032   8.157
18098TIP3    H254172   3.779   3.031   8.102
18099TIP3   OH254173   4.133   3.691   9.242
18099TIP3    H154174   4.048   3.653   9.211
18099TIP3    H254175   4.139   3.767   9.180
18100TIP3   OH254176   4.212   3.534   7.899
18100TIP3    H154177   4.246   3.603   7.840
18100TIP3    H254178   4.132   3.580   7.932
18101TIP3   OH254179   4.028   2.993   8.296
18101TIP3    H154180   4.018   2.926   8.366
18101TIP3    H254181   4.124   2.991   8.281
18102TIP3   OH254182   3.241   3.038   8.077
18102TIP3    H154183   3.250   2.946   8.045
18102TIP3    H254184   3.220   3.024   8.171
18103TIP3   OH254185   3.185   3.043   8.349
18103TIP3    H154186   3.253   3.018   8.413
18103TIP3    H254187   3.187   3.141   8.354
18104TIP3   OH254188   2.921   2.740   8.553
18104TIP3    H154189   2.854   2.784   8.609
18104TIP3    H254190   2.933   2.809   8.484
18105TIP3   OH254191   3.947   2.127   8.608
18105TIP3    H154192   3.929   2.149   8.514
18105TIP3    H254193   3.984   2.211   8.642
18106TIP3   OH254194   3.450   3.243   8.301
18106TIP3    H154195   3.362   3.270   8.334
18106TIP3    H254196   3.464   3.310   8.233
18107TIP3   OH254197   3.642   2.304   8.706
18107TIP3    H154198   3.705   2.377   8.688
18107TIP3    H254199   3.646   2.299   8.804
18108TIP3   OH254200   3.787   2.037   8.819
18108TIP3    H154201   3.766   2.119   8.868
18108TIP3    H254202   3.845   2.072   8.748
18109TIP3   OH254203   3.191   3.316   8.365
18109TIP3    H154204   3.161   3.384   8.301
18109TIP3    H254205   3.174   3.361   8.450
18110TIP3   OH254206   3.292   2.029   8.606
18110TIP3    H154207   3.291   2.121   8.636
18110TIP3    H254208   3.388   2.010   8.612
18111TIP3   OH254209   4.198   2.719   8.887
18111TIP3    H154210   4.121   2.659   8.896
18111TIP3    H254211   4.268   2.670   8.936
18112TIP3   OH254212   2.909   2.948   8.361
18112TIP3    H154213   2.968   3.025   8.366
18112TIP3    H254214   2.955   2.896   8.292
18113TIP3   OH254215   2.857   2.224   8.489
18113TIP3    H154216   2.851   2.321   8.485
18113TIP3    H254217   2.774   2.196   8.447
18114TIP3   OH254218   4.167   3.669   8.837
18114TIP3    H154219   4.122   3.716   8.764
18114TIP3    H254220   4.260   3.693   8.817
18115TIP3   OH254221   2.781   3.156   8.750
18115TIP3    H154222   2.706   3.193   8.799
18115TIP3    H254223   2.766   3.197   8.662
18116TIP3   OH254224   3.403   3.244   7.993
18116TIP3    H154225   3.345   3.172   8.029
18116TIP3    H254226   3.475   3.190   7.955
18117TIP3   OH254227   3.839   3.286   7.902
18117TIP3    H154228   3.883   3.219   7.956
18117TIP3    H254229   3.892   3.287   7.820
18118TIP3   OH254230   3.044   2.762   8.209
18118TIP3    H154231   3.099   2.726   8.281
18118TIP3    H254232   3.111   2.766   8.137
18119TIP3   OH254233   3.557   2.959   8.019
18119TIP3    H154234   3.554   2.971   8.115
18119TIP3    H254235   3.553   2.861   8.013
18120TIP3   OH254236   4.143   3.172   9.384
18120TIP3    H154237   4.235   3.194   9.363
18120TIP3    H254238   4.106   3.262   9.393
18121TIP3   OH254239   3.259   2.661   8.437
18121TIP3    H154240   3.227   2.615   8.515
18121TIP3    H254241   3.291   2.587   8.381
18122TIP3   OH254242   3.352   2.455   8.275
18122TIP3    H154243   3.324   2.455   8.181
18122TIP3    H254244   3.449   2.463   8.265
18123TIP3   OH254245   4.181   2.788   7.934
18123TIP3    H154246   4.156   2.740   7.853
18123TIP3    H254247   4.148   2.878   7.910
18124TIP3   OH254248   3.160   3.517   8.178
18124TIP3    H154249   3.255   3.518   8.156
18124TIP3    H254250   3.125   3.565   8.100
18125TIP3   OH254251   2.641   2.898   8.399
18125TIP3    H154252   2.735   2.921   8.382
18125TIP3    H254253   2.634   2.811   8.354
18126TIP3   OH254254   2.556   3.513   8.803
18126TIP3    H154255   2.489   3.450   8.769
18126TIP3    H254256   2.600   3.457   8.871
18127TIP3   OH254257   2.694   3.372   8.992
18127TIP3    H154258   2.669   3.304   9.055
18127TIP3    H254259   2.731   3.439   9.052
18128TIP3   OH254260   4.421   3.754   8.792
18128TIP3    H154261   4.441   3.790   8.881
18128TIP3    H254262   4.468   3.817   8.735
18129TIP3   OH254263   4.449   3.784   9.070
18129TIP3    H154264   4.409   3.694   9.073
18129TIP3    H254265   4.517   3.773   9.138
18130TIP3   OH254266   4.309   2.975   8.269
18130TIP3    H154267   4.376   3.040   8.239
18130TIP3    H254268   4.352   2.937   8.348
18131TIP3   OH254269   4.435   2.847   8.480
18131TIP3    H154270   4.360   2.795   8.516
18131TIP3    H254271   4.486   2.861   8.560
18132TIP3   OH254272   4.495   3.222   8.901
18132TIP3    H154273   4.563   3.180   8.847
18132TIP3    H254274   4.473   3.304   8.854
18133TIP3   OH254275   4.323   3.532   9.101
18133TIP3    H154276   4.256   3.579   9.155
18133TIP3    H254277   4.268   3.488   9.033
18134TIP3   OH254278   4.376   2.750   8.121
18134TIP3    H154279   4.306   2.750   8.052
18134TIP3    H254280   4.345   2.828   8.173
18135TIP3   OH254281   4.250   2.423   8.075
18135TIP3    H154282   4.205   2.464   8.000
18135TIP3    H254283   4.222   2.329   8.064
18136TIP3   OH254284   4.256   2.695   8.618
18136TIP3    H154285   4.259   2.598   8.612
18136TIP3    H254286   4.240   2.709   8.714
18137TIP3   OH254287   4.538   3.115   9.453
18137TIP3    H154288   4.598   3.055   9.405
18137TIP3    H254289   4.559   3.201   9.414
18138TIP3   OH254290   4.724   2.907   9.442
18138TIP3    H154291   4.659   2.870   9.502
18138TIP3    H254292   4.805   2.861   9.470
18139TIP3   OH254293   4.191   2.157   8.064
18139TIP3    H154294   4.263   2.124   8.120
18139TIP3    H254295   4.115   2.100   8.086
18140TIP3   OH254296   4.251   2.417   8.518
18140TIP3    H154297   4.288   2.327   8.533
18140TIP3    H254298   4.307   2.446   8.444
18141TIP3   OH254299   4.410   2.593   9.007
18141TIP3    H154300   4.495   2.621   8.968
18141TIP3    H254301   4.424   2.622   9.099
18142TIP3   OH254302   4.488   2.728   9.242
18142TIP3    H154303   4.410   2.768   9.285
18142TIP3    H254304   4.521   2.808   9.196
18143TIP3   OH254305   4.356   2.165   8.551
18143TIP3    H154306   4.405   2.149   8.634
18143TIP3    H254307   4.295   2.088   8.550
18144TIP3   OH254308   4.442   2.099   8.187
18144TIP3    H154309   4.479   2.027   8.132
18144TIP3    H254310   4.506   2.171   8.174
18145TIP3   OH254311   2.870   1.974   8.967
18145TIP3    H154312   2.802   1.904   8.973
18145TIP3    H254313   2.860   2.003   8.874
18146TIP3   OH254314   4.008   3.625   8.455
18146TIP3    H154315   4.054   3.614   8.369
18146TIP3    H254316   4.052   3.703   8.492
18147TIP3   OH254317   3.261   3.453   9.337
18147TIP3    H154318   3.230   3.544   9.323
18147TIP3    H254319   3.356   3.462   9.317
18148TIP3   OH254320   3.897   3.845   9.391
18148TIP3    H154321   3.969   3.808   9.340
18148TIP3    H254322   3.940   3.924   9.430
18149TIP3   OH254323   3.195   3.712   9.264
18149TIP3    H154324   3.113   3.733   9.310
18149TIP3    H254325   3.174   3.739   9.172
18150TIP3   OH254326   3.626   3.733   9.057
18150TIP3    H154327   3.551   3.749   8.996
18150TIP3    H254328   3.633   3.821   9.100
18151TIP3   OH254329   3.888   3.671   9.115
18151TIP3    H154330   3.794   3.689   9.095
18151TIP3    H254331   3.930   3.748   9.072
18152TIP3   OH254332   4.100   3.865   9.032
18152TIP3    H154333   4.082   3.951   8.987
18152TIP3    H254334   4.121   3.807   8.956
18153TIP3   OH254335   2.876   3.529   9.146
18153TIP3    H154336   2.868   3.493   9.235
18153TIP3    H254337   2.946   3.473   9.105
18154TIP3   OH254338   3.065   3.384   9.009
18154TIP3    H154339   3.084   3.306   9.064
18154TIP3    H254340   3.153   3.427   9.004
18155TIP3   OH254341   3.328   3.487   9.009
18155TIP3    H154342   3.359   3.396   8.998
18155TIP3    H254343   3.359   3.506   9.099
18156TIP3   OH254344   3.902   2.141   9.098
18156TIP3    H154345   3.881   2.064   9.151
18156TIP3    H254346   3.975   2.107   9.042
18157TIP3   OH254347   4.423   2.014   8.985
18157TIP3    H154348   4.463   2.074   8.919
18157TIP3    H254349   4.340   2.061   9.006
18158TIP3   OH254350   4.528   2.129   8.762
18158TIP3    H154351   4.600   2.077   8.722
18158TIP3    H254352   4.560   2.220   8.748
18159TIP3   OH254353   2.933   1.704   8.739
18159TIP3    H154354   2.966   1.777   8.683
18159TIP3    H254355   2.906   1.749   8.820
18160TIP3   OH254356   3.590   1.887   8.986
18160TIP3    H154357   3.660   1.941   8.946
18160TIP3    H254358   3.602   1.901   9.081
18161TIP3   OH254359   4.127   2.028   8.985
18161TIP3    H154360   4.141   2.002   8.893
18161TIP3    H254361   4.122   1.942   9.031
18162TIP3   OH254362   4.175   1.951   8.544
18162TIP3    H154363   4.087   1.993   8.551
18162TIP3    H254364   4.158   1.866   8.590
18163TIP3   OH254365   2.657   3.290   8.549
18163TIP3    H154366   2.573   3.257   8.511
18163TIP3    H254367   2.647   3.384   8.528
18164TIP3   OH254368   3.056   1.882   8.527
18164TIP3    H154369   3.104   1.817   8.472
18164TIP3    H254370   3.130   1.933   8.566
18165TIP3   OH254371   3.569   2.053   8.626
18165TIP3    H154372   3.623   2.003   8.688
18165TIP3    H254373   3.594   2.145   8.651
18166TIP3   OH254374   3.430   3.481   8.127
18166TIP3    H154375   3.517   3.504   8.089
18166TIP3    H254376   3.407   3.406   8.068
18167TIP3   OH254377   4.149   3.597   8.219
18167TIP3    H154378   4.141   3.499   8.205
18167TIP3    H254379   4.103   3.631   8.140
18168TIP3   OH254380   2.733   3.315   8.185
18168TIP3    H154381   2.731   3.349   8.275
18168TIP3    H254382   2.823   3.276   8.177
18169TIP3   OH254383   4.383   3.745   9.379
18169TIP3    H154384   4.294   3.711   9.361
18169TIP3    H254385   4.362   3.831   9.420
18170TIP3   OH254386   5.640   3.112   8.177
18170TIP3    H154387   5.614   3.204   8.157
18170TIP3    H254388   5.563   3.065   8.140
18171TIP3   OH254389   5.638   3.114   8.551
18171TIP3    H154390   5.667   3.081   8.638
18171TIP3    H254391   5.596   3.035   8.512
18172TIP3   OH254392   4.927   3.019   8.923
18172TIP3    H154393   4.958   2.952   8.986
18172TIP3    H254394   5.013   3.053   8.892
18173TIP3   OH254395   5.879   3.414   8.235
18173TIP3    H154396   5.871   3.347   8.303
18173TIP3    H254397   5.912   3.491   8.286
18174TIP3   OH254398   4.908   3.386   8.639
18174TIP3    H154399   4.944   3.314   8.692
18174TIP3    H254400   4.993   3.433   8.622
18175TIP3   OH254401   4.614   2.626   8.435
18175TIP3    H154402   4.560   2.707   8.433
18175TIP3    H254403   4.550   2.562   8.399
18176TIP3   OH254404   5.528   3.876   8.250
18176TIP3    H154405   5.576   3.805   8.203
18176TIP3    H254406   5.528   3.844   8.341
18177TIP3   OH254407   5.438   3.338   8.605
18177TIP3    H154408   5.475   3.264   8.554
18177TIP3    H254409   5.522   3.383   8.628
18178TIP3   OH254410   6.448   2.659   8.600
18178TIP3    H154411   6.478   2.741   8.644
18178TIP3    H254412   6.473   2.679   8.507
18179TIP3   OH254413   5.849   2.841   8.638
18179TIP3    H154414   5.894   2.756   8.654
18179TIP3    H254415   5.820   2.828   8.546
18180TIP3   OH254416   5.187   2.500   8.602
18180TIP3    H154417   5.166   2.573   8.539
18180TIP3    H254418   5.140   2.427   8.557
18181TIP3   OH254419   5.880   2.591   8.225
18181TIP3    H154420   5.954   2.576   8.289
18181TIP3    H254421   5.930   2.627   8.149
18182TIP3   OH254422   4.820   2.709   8.716
18182TIP3    H154423   4.906   2.682   8.752
18182TIP3    H254424   4.823   2.664   8.630
18183TIP3   OH254425   5.259   2.902   8.503
18183TIP3    H154426   5.353   2.877   8.513
18183TIP3    H254427   5.220   2.820   8.468
18184TIP3   OH254428   6.522   2.863   8.773
18184TIP3    H154429   6.441   2.915   8.753
18184TIP3    H254430   6.544   2.896   8.862
18185TIP3   OH254431   5.186   2.484   9.035
18185TIP3    H154432   5.126   2.519   8.966
18185TIP3    H254433   5.132   2.502   9.115
18186TIP3   OH254434   5.532   3.333   8.045
18186TIP3    H154435   5.491   3.313   7.960
18186TIP3    H254436   5.491   3.419   8.067
18187TIP3   OH254437   5.294   3.258   8.835
18187TIP3    H154438   5.231   3.324   8.870
18187TIP3    H254439   5.338   3.309   8.763
18188TIP3   OH254440   6.093   2.593   8.394
18188TIP3    H154441   6.093   2.540   8.475
18188TIP3    H254442   6.150   2.668   8.419
18189TIP3   OH254443   5.056   2.599   8.820
18189TIP3    H154444   5.119   2.671   8.841
18189TIP3    H254445   5.103   2.557   8.744
18190TIP3   OH254446   5.115   3.449   8.921
18190TIP3    H154447   5.095   3.540   8.889
18190TIP3    H254448   5.041   3.437   8.984
18191TIP3   OH254449   4.515   3.143   8.168
18191TIP3    H154450   4.473   3.157   8.080
18191TIP3    H254451   4.536   3.234   8.195
18192TIP3   OH254452   5.951   3.655   8.404
18192TIP3    H154453   5.860   3.649   8.442
18192TIP3    H254454   5.946   3.740   8.357
18193TIP3   OH254455   6.243   2.560   8.766
18193TIP3    H154456   6.156   2.590   8.734
18193TIP3    H254457   6.303   2.591   8.695
18194TIP3   OH254458   5.544   2.205   8.749
18194TIP3    H154459   5.531   2.110   8.763
18194TIP3    H254460   5.465   2.241   8.794
18195TIP3   OH254461   5.657   3.704   8.079
18195TIP3    H154462   5.707   3.623   8.056
18195TIP3    H254463   5.716   3.772   8.037
18196TIP3   OH254464   5.797   3.490   7.982
18196TIP3    H154465   5.763   3.409   7.941
18196TIP3    H254466   5.832   3.455   8.067
18197TIP3   OH254467   6.179   3.570   8.750
18197TIP3    H154468   6.172   3.495   8.687
18197TIP3    H254469   6.163   3.647   8.690
18198TIP3   OH254470   5.471   2.965   8.004
18198TIP3    H154471   5.390   3.016   7.981
18198TIP3    H254472   5.518   2.963   7.918
18199TIP3   OH254473   5.431   2.748   7.724
18199TIP3    H154474   5.499   2.799   7.771
18199TIP3    H254475   5.487   2.684   7.675
18200TIP3   OH254476   6.374   3.204   8.591
18200TIP3    H154477   6.293   3.260   8.596
18200TIP3    H254478   6.406   3.230   8.502
18201TIP3   OH254479   5.817   3.047   7.978
18201TIP3    H154480   5.763   3.073   8.056
18201TIP3    H254481   5.901   3.021   8.021
18202TIP3   OH254482   6.054   3.086   8.888
18202TIP3    H154483   6.055   3.171   8.935
18202TIP3    H254484   5.970   3.094   8.839
18203TIP3   OH254485   5.049   3.052   8.383
18203TIP3    H154486   5.007   2.988   8.323
18203TIP3    H254487   5.121   2.998   8.423
18204TIP3   OH254488   5.172   3.448   8.545
18204TIP3    H154489   5.161   3.411   8.456
18204TIP3    H254490   5.264   3.423   8.565
18205TIP3   OH254491   5.187   3.018   8.754
18205TIP3    H154492   5.212   2.997   8.661
18205TIP3    H254493   5.233   3.103   8.770
18206TIP3   OH254494   5.709   3.655   8.523
18206TIP3    H154495   5.697   3.736   8.575
18206TIP3    H254496   5.697   3.583   8.589
18207TIP3   OH254497   5.323   3.568   9.077
18207TIP3    H154498   5.265   3.633   9.121
18207TIP3    H254499   5.257   3.518   9.025
18208TIP3   OH254500   5.661   2.904   7.803
18208TIP3    H154501   5.719   2.964   7.855
18208TIP3    H254502   5.686   2.930   7.711
18209TIP3   OH254503   5.082   3.133   9.173
18209TIP3    H154504   5.084   3.218   9.220
18209TIP3    H254505   4.986   3.115   9.174
18210TIP3   OH254506   5.399   3.589   8.082
18210TIP3    H154507   5.479   3.641   8.098
18210TIP3    H254508   5.341   3.652   8.038
18211TIP3   OH254509   5.122   3.739   9.157
18211TIP3    H154510   5.080   3.741   9.069
18211TIP3    H254511   5.044   3.721   9.216
18212TIP3   OH254512   6.175   2.148   7.850
18212TIP3    H154513   6.094   2.167   7.901
18212TIP3    H254514   6.187   2.231   7.800
18213TIP3   OH254515   4.915   2.886   8.198
18213TIP3    H154516   4.852   2.932   8.138
18213TIP3    H254517   4.873   2.800   8.208
18214TIP3   OH254518   5.973   3.515   7.397
18214TIP3    H154519   5.981   3.612   7.385
18214TIP3    H254520   6.066   3.487   7.385
18215TIP3   OH254521   4.696   3.274   9.104
18215TIP3    H154522   4.620   3.244   9.052
18215TIP3    H254523   4.737   3.190   9.134
18216TIP3   OH254524   4.585   3.445   8.730
18216TIP3    H154525   4.667   3.495   8.749
18216TIP3    H254526   4.522   3.508   8.771
18217TIP3   OH254527   6.424   3.918   8.803
18217TIP3    H154528   6.416   3.821   8.804
18217TIP3    H254529   6.336   3.943   8.838
18218TIP3   OH254530   5.523   3.701   8.928
18218TIP3    H154531   5.525   3.795   8.959
18218TIP3    H254532   5.453   3.664   8.985
18219TIP3   OH254533   5.281   3.831   7.881
18219TIP3    H154534   5.238   3.813   7.795
18219TIP3    H254535   5.251   3.921   7.901
18220TIP3   OH254536   4.720   3.681   8.260
18220TIP3    H154537   4.769   3.672   8.344
18220TIP3    H254538   4.646   3.621   8.275
18221TIP3   OH254539   5.485   3.732   7.520
18221TIP3    H154540   5.545   3.663   7.484
18221TIP3    H254541   5.520   3.742   7.611
18222TIP3   OH254542   5.534   3.780   7.791
18222TIP3    H154543   5.446   3.789   7.834
18222TIP3    H254544   5.587   3.742   7.862
18223TIP3   OH254545   6.306   3.047   9.071
18223TIP3    H154546   6.231   3.063   9.011
18223TIP3    H254547   6.323   2.951   9.056
18224TIP3   OH254548   4.905   3.453   9.091
18224TIP3    H154549   4.953   3.447   9.177
18224TIP3    H254550   4.831   3.392   9.105
18225TIP3   OH254551   5.304   2.278   8.876
18225TIP3    H154552   5.214   2.248   8.851
18225TIP3    H254553   5.279   2.362   8.920
18226TIP3   OH254554   5.836   2.399   9.072
18226TIP3    H154555   5.906   2.364   9.131
18226TIP3    H254556   5.753   2.372   9.116
18227TIP3   OH254557   6.071   2.821   8.991
18227TIP3    H154558   6.027   2.829   9.078
18227TIP3    H254559   6.056   2.909   8.952
18228TIP3   OH254560   5.735   2.953   7.546
18228TIP3    H154561   5.703   2.927   7.458
18228TIP3    H254562   5.814   3.006   7.522
18229TIP3   OH254563   5.450   2.328   7.848
18229TIP3    H154564   5.416   2.327   7.939
18229TIP3    H254565   5.410   2.245   7.815
18230TIP3   OH254566   5.236   2.794   8.898
18230TIP3    H154567   5.182   2.815   8.976
18230TIP3    H254568   5.220   2.874   8.843
18231TIP3   OH254569   5.119   2.680   8.410
18231TIP3    H154570   5.026   2.656   8.426
18231TIP3    H254571   5.132   2.640   8.321
18232TIP3   OH254572   5.608   2.766   8.136
18232TIP3    H154573   5.555   2.838   8.096
18232TIP3    H254574   5.663   2.738   8.060
18233TIP3   OH254575   5.766   2.796   8.378
18233TIP3    H154576   5.709   2.828   8.306
18233TIP3    H254577   5.798   2.714   8.335
18234TIP3   OH254578   5.050   2.827   9.102
18234TIP3    H154579   5.073   2.889   9.173
18234TIP3    H254580   5.040   2.743   9.152
18235TIP3   OH254581   5.105   2.300   7.815
18235TIP3    H154582   5.095   2.298   7.912
18235TIP3    H254583   5.025   2.351   7.790
18236TIP3   OH254584   4.648   2.355   8.681
18236TIP3    H154585   4.726   2.380   8.735
18236TIP3    H254586   4.686   2.315   8.602
18237TIP3   OH254587   4.625   2.329   8.206
18237TIP3    H154588   4.667   2.367   8.127
18237TIP3    H254589   4.561   2.400   8.227
18238TIP3   OH254590   5.773   3.041   8.801
18238TIP3    H154591   5.809   2.971   8.741
18238TIP3    H254592   5.743   2.984   8.875
18239TIP3   OH254593   5.444   2.502   8.472
18239TIP3    H154594   5.361   2.501   8.523
18239TIP3    H254595   5.511   2.505   8.543
18240TIP3   OH254596   4.879   2.560   8.482
18240TIP3    H154597   4.785   2.566   8.457
18240TIP3    H254598   4.903   2.469   8.458
18241TIP3   OH254599   5.152   2.556   8.167
18241TIP3    H154600   5.246   2.571   8.145
18241TIP3    H254601   5.104   2.579   8.084
18242TIP3   OH254602   5.936   2.579   8.679
18242TIP3    H154603   5.893   2.589   8.766
18242TIP3    H254604   5.875   2.516   8.635
18243TIP3   OH254605   4.989   2.588   7.948
18243TIP3    H154606   4.917   2.543   7.900
18243TIP3    H254607   5.041   2.623   7.873
18244TIP3   OH254608   6.106   4.267   8.891
18244TIP3    H154609   6.105   4.289   8.795
18244TIP3    H254610   6.184   4.317   8.921
18245TIP3   OH254611   5.063   3.377   9.317
18245TIP3    H154612   5.143   3.410   9.363
18245TIP3    H254613   4.999   3.383   9.391
18246TIP3   OH254614   5.530   2.829   8.568
18246TIP3    H154615   5.602   2.792   8.514
18246TIP3    H254616   5.543   2.786   8.654
18247TIP3   OH254617   5.056   2.319   8.446
18247TIP3    H154618   5.022   2.238   8.489
18247TIP3    H254619   5.103   2.284   8.369
18248TIP3   OH254620   5.504   2.720   8.862
18248TIP3    H154621   5.415   2.759   8.871
18248TIP3    H254622   5.561   2.783   8.910
18249TIP3   OH254623   5.243   3.119   7.953
18249TIP3    H154624   5.170   3.054   7.943
18249TIP3    H254625   5.226   3.152   8.044
18250TIP3   OH254626   6.144   3.353   8.585
18250TIP3    H154627   6.171   3.402   8.503
18250TIP3    H254628   6.058   3.315   8.558
18251TIP3   OH254629   5.702   2.431   7.814
18251TIP3    H154630   5.605   2.416   7.821
18251TIP3    H254631   5.712   2.526   7.837
18252TIP3   OH254632   5.634   3.433   8.957
18252TIP3    H154633   5.667   3.431   9.048
18252TIP3    H254634   5.603   3.525   8.948
18253TIP3   OH254635   5.771   2.677   7.918
18253TIP3    H154636   5.867   2.684   7.933
18253TIP3    H254637   5.752   2.757   7.864
18254TIP3   OH254638   5.388   3.268   7.774
18254TIP3    H154639   5.341   3.355   7.781
18254TIP3    H254640   5.334   3.213   7.834
18255TIP3   OH254641   4.817   3.065   9.231
18255TIP3    H154642   4.839   3.053   9.325
18255TIP3    H254643   4.749   2.996   9.219
18256TIP3   OH254644   5.577   3.114   9.281
18256TIP3    H154645   5.495   3.088   9.237
18256TIP3    H254646   5.619   3.170   9.213
18257TIP3   OH254647   5.802   3.685   8.852
18257TIP3    H154648   5.705   3.696   8.859
18257TIP3    H254649   5.832   3.744   8.924
18258TIP3   OH254650   6.214   2.766   7.755
18258TIP3    H154651   6.151   2.721   7.694
18258TIP3    H254652   6.210   2.855   7.714
18259TIP3   OH254653   6.430   3.619   8.839
18259TIP3    H154654   6.332   3.619   8.829
18259TIP3    H254655   6.456   3.594   8.748
18260TIP3   OH254656   5.907   3.587   7.660
18260TIP3    H154657   5.890   3.516   7.724
18260TIP3    H254658   5.924   3.539   7.577
18261TIP3   OH254659   5.907   3.215   8.507
18261TIP3    H154660   5.813   3.190   8.515
18261TIP3    H254661   5.943   3.137   8.459
18262TIP3   OH254662   5.032   3.445   8.259
18262TIP3    H154663   5.046   3.524   8.205
18262TIP3    H254664   4.937   3.433   8.249
18263TIP3   OH254665   4.599   2.747   7.958
18263TIP3    H154666   4.644   2.832   7.976
18263TIP3    H254667   4.520   2.755   8.016
18264TIP3   OH254668   5.178   3.213   8.199
18264TIP3    H154669   5.141   3.301   8.219
18264TIP3    H254670   5.138   3.160   8.271
18265TIP3   OH254671   5.304   3.787   8.723
18265TIP3    H154672   5.342   3.862   8.672
18265TIP3    H254673   5.382   3.757   8.773
18266TIP3   OH254674   4.958   3.681   8.109
18266TIP3    H154675   4.870   3.691   8.151
18266TIP3    H254676   4.990   3.774   8.110
18267TIP3   OH254677   5.693   3.421   8.683
18267TIP3    H154678   5.689   3.417   8.781
18267TIP3    H254679   5.775   3.374   8.666
18268TIP3   OH254680   5.666   3.310   7.564
18268TIP3    H154681   5.718   3.288   7.644
18268TIP3    H254682   5.577   3.288   7.595
18269TIP3   OH254683   5.940   3.957   8.733
18269TIP3    H154684   5.860   3.904   8.718
18269TIP3    H254685   5.931   4.025   8.662
18270TIP3   OH254686   6.007   3.791   7.385
18270TIP3    H154687   6.047   3.865   7.337
18270TIP3    H254688   5.926   3.837   7.417
18271TIP3   OH254689   5.026   2.569   9.246
18271TIP3    H154690   4.932   2.587   9.264
18271TIP3    H254691   5.048   2.510   9.319
18272TIP3   OH254692   5.826   3.248   7.783
18272TIP3    H154693   5.817   3.181   7.854
18272TIP3    H254694   5.923   3.247   7.770
18273TIP3   OH254695   4.751   3.639   8.882
18273TIP3    H154696   4.805   3.579   8.937
18273TIP3    H254697   4.757   3.721   8.934
18274TIP3   OH254698   5.035   3.295   7.564
18274TIP3    H154699   5.048   3.204   7.533
18274TIP3    H254700   5.015   3.281   7.659
18275TIP3   OH254701   4.980   3.300   7.838
18275TIP3    H154702   5.054   3.274   7.896
18275TIP3    H254703   4.984   3.398   7.842
18276TIP3   OH254704   4.716   2.996   8.039
18276TIP3    H154705   4.650   3.042   8.094
18276TIP3    H254706   4.731   3.063   7.970
18277TIP3   OH254707   5.855   2.641   8.942
18277TIP3    H154708   5.946   2.670   8.961
18277TIP3    H254709   5.849   2.554   8.987
18278TIP3   OH254710   5.741   2.384   8.094
18278TIP3    H154711   5.728   2.407   8.001
18278TIP3    H254712   5.781   2.466   8.130
18279TIP3   OH254713   5.244   3.498   7.786
18279TIP3    H154714   5.157   3.528   7.820
18279TIP3    H254715   5.263   3.568   7.722
18280TIP3   OH254716   5.435   2.559   8.198
18280TIP3    H154717   5.499   2.631   8.179
18280TIP3    H254718   5.439   2.555   8.296
18281TIP3   OH254719   5.701   2.873   9.003
18281TIP3    H154720   5.726   2.915   9.086
18281TIP3    H254721   5.758   2.794   9.000
18282TIP3   OH254722   5.580   2.291   8.303
18282TIP3    H154723   5.569   2.370   8.360
18282TIP3    H254724   5.639   2.328   8.233
18283TIP3   OH254725   4.986   3.572   7.852
18283TIP3    H154726   4.957   3.641   7.787
18283TIP3    H254727   4.971   3.619   7.937
18284TIP3   OH254728   5.088   2.285   8.092
18284TIP3    H154729   5.086   2.377   8.126
18284TIP3    H254730   5.185   2.268   8.100
18285TIP3   OH254731   6.340   2.782   8.988
18285TIP3    H154732   6.243   2.775   8.991
18285TIP3    H254733   6.358   2.747   8.899
18286TIP3   OH254734   5.993   2.975   8.377
18286TIP3    H154735   5.919   2.914   8.387
18286TIP3    H254736   6.066   2.929   8.423
18287TIP3   OH254737   4.705   3.206   7.847
18287TIP3    H154738   4.768   3.280   7.852
18287TIP3    H254739   4.751   3.152   7.779
18288TIP3   OH254740   4.651   2.478   7.979
18288TIP3    H154741   4.648   2.575   7.973
18288TIP3    H254742   4.569   2.453   7.935
18289TIP3   OH254743   5.970   3.934   8.328
18289TIP3    H154744   5.928   3.980   8.252
18289TIP3    H254745   6.063   3.938   8.301
18290TIP3   OH254746   5.039   2.201   8.852
18290TIP3    H154747   5.007   2.170   8.765
18290TIP3    H254748   5.026   2.122   8.908
18291TIP3   OH254749   4.574   3.408   8.249
18291TIP3    H154750   4.493   3.451   8.279
18291TIP3    H254751   4.578   3.445   8.159
18292TIP3   OH254752   4.732   3.958   9.306
18292TIP3    H154753   4.818   3.959   9.352
18292TIP3    H254754   4.711   3.863   9.306
18293TIP3   OH254755   5.217   3.930   9.343
18293TIP3    H154756   5.311   3.912   9.357
18293TIP3    H254757   5.196   3.866   9.272
18294TIP3   OH254758   5.198   3.500   7.479
18294TIP3    H154759   5.141   3.429   7.516
18294TIP3    H254760   5.272   3.448   7.444
18295TIP3   OH254761   5.854   3.829   9.082
18295TIP3    H154762   5.850   3.759   9.151
18295TIP3    H254763   5.932   3.882   9.110
18296TIP3   OH254764   5.633   3.541   7.387
18296TIP3    H154765   5.682   3.480   7.446
18296TIP3    H254766   5.691   3.544   7.308
18297TIP3   OH254767   4.860   3.355   9.503
18297TIP3    H154768   4.883   3.261   9.495
18297TIP3    H254769   4.771   3.360   9.462
18298TIP3   OH254770   4.841   3.018   7.697
18298TIP3    H154771   4.896   2.983   7.769
18298TIP3    H254772   4.907   3.022   7.625
18299TIP3   OH254773   5.483   3.451   9.273
18299TIP3    H154774   5.431   3.472   9.192
18299TIP3    H254775   5.500   3.356   9.264
18300TIP3   OH254776   5.349   3.214   7.504
18300TIP3    H154777   5.351   3.228   7.601
18300TIP3    H254778   5.347   3.116   7.500
18301TIP3   OH254779   5.963   3.457   8.884
18301TIP3    H154780   6.039   3.498   8.839
18301TIP3    H254781   5.896   3.527   8.871
18302TIP3   OH254782   4.969   3.102   9.493
18302TIP3    H154783   5.023   3.022   9.488
18302TIP3    H254784   5.002   3.138   9.577
18303TIP3   OH254785   5.052   2.918   7.922
18303TIP3    H154786   5.025   2.874   8.004
18303TIP3    H254787   5.086   2.843   7.868
18304TIP3   OH254788   5.322   2.990   9.153
18304TIP3    H154789   5.240   3.045   9.157
18304TIP3    H254790   5.363   3.022   9.070
18305TIP3   OH254791   5.149   2.711   7.762
18305TIP3    H154792   5.121   2.713   7.668
18305TIP3    H254793   5.246   2.719   7.753
18306TIP3   OH254794   5.825   3.369   9.277
18306TIP3    H154795   5.908   3.373   9.228
18306TIP3    H254796   5.848   3.312   9.351
18307TIP3   OH254797   5.974   3.045   7.421
18307TIP3    H154798   5.950   2.998   7.339
18307TIP3    H254799   5.943   3.135   7.397
18308TIP3   OH254800   5.442   2.772   9.274
18308TIP3    H154801   5.445   2.692   9.217
18308TIP3    H254802   5.402   2.838   9.214
18309TIP3   OH254803   5.444   2.556   9.082
18309TIP3    H154804   5.471   2.598   8.997
18309TIP3    H254805   5.350   2.535   9.064
18310TIP3   OH254806   5.484   3.105   8.959
18310TIP3    H154807   5.558   3.106   8.896
18310TIP3    H254808   5.423   3.169   8.916
18311TIP3   OH254809   6.073   3.068   9.346
18311TIP3    H154810   6.117   2.982   9.347
18311TIP3    H254811   6.135   3.122   9.294
18312TIP3   OH254812   6.094   3.312   9.069
18312TIP3    H154813   6.038   3.367   9.010
18312TIP3    H254814   6.183   3.333   9.030
18313TIP3   OH254815   5.316   2.884   9.491
18313TIP3    H154816   5.244   2.819   9.502
18313TIP3    H254817   5.350   2.858   9.403
18314TIP3   OH254818   5.575   2.323   9.147
18314TIP3    H154819   5.527   2.405   9.122
18314TIP3    H254820   5.506   2.255   9.133
18315TIP3   OH254821   5.934   2.789   9.234
18315TIP3    H154822   5.880   2.713   9.259
18315TIP3    H254823   6.020   2.764   9.275
18316TIP3   OH254824   6.160   2.715   9.362
18316TIP3    H154825   6.179   2.620   9.379
18316TIP3    H254826   6.165   2.754   9.452
18317TIP3   OH254827   5.178   2.655   9.533
18317TIP3    H154828   5.173   2.558   9.517
18317TIP3    H254829   5.186   2.660   9.629
18318TIP3   OH254830   5.680   2.329   9.396
18318TIP3    H154831   5.748   2.261   9.377
18318TIP3    H254832   5.629   2.325   9.313
18319TIP3   OH254833   5.706   2.540   9.566
18319TIP3    H154834   5.696   2.475   9.493
18319TIP3    H254835   5.648   2.613   9.539
18320TIP3   OH254836   4.956   3.773   7.664
18320TIP3    H154837   5.051   3.774   7.644
18320TIP3    H254838   4.923   3.822   7.586
18321TIP3   OH254839   4.440   3.151   7.892
18321TIP3    H154840   4.532   3.176   7.871
18321TIP3    H254841   4.431   3.066   7.843
18322TIP3   OH254842   4.352   3.769   8.292
18322TIP3    H154843   4.282   3.709   8.256
18322TIP3    H254844   4.394   3.711   8.358
18323TIP3   OH254845   4.494   3.623   8.476
18323TIP3    H154846   4.459   3.562   8.542
18323TIP3    H254847   4.541   3.688   8.532
18324TIP3   OH254848   6.235   4.045   8.580
18324TIP3    H154849   6.204   3.956   8.558
18324TIP3    H254850   6.328   4.025   8.598
18325TIP3   OH254851   6.291   3.717   9.137
18325TIP3    H154852   6.216   3.727   9.199
18325TIP3    H254853   6.331   3.807   9.138
18326TIP3   OH254854   6.106   3.232   7.756
18326TIP3    H154855   6.175   3.296   7.729
18326TIP3    H254856   6.149   3.192   7.835
18327TIP3   OH254857   6.233   3.098   7.958
18327TIP3    H154858   6.169   3.057   8.019
18327TIP3    H254859   6.299   3.138   8.019
18328TIP3   OH254860   6.283   3.486   8.392
18328TIP3    H154861   6.339   3.429   8.337
18328TIP3    H254862   6.288   3.571   8.343
18329TIP3   OH254863   6.119   3.784   8.591
18329TIP3    H154864   6.050   3.835   8.637
18329TIP3    H254865   6.068   3.738   8.521
18330TIP3   OH254866   6.172   3.006   7.608
18330TIP3    H154867   6.100   3.010   7.540
18330TIP3    H254868   6.147   3.083   7.663
18331TIP3   OH254869   6.044   2.679   7.562
18331TIP3    H154870   6.001   2.721   7.487
18331TIP3    H254871   6.017   2.585   7.550
18332TIP3   OH254872   6.047   2.954   8.107
18332TIP3    H154873   6.057   2.858   8.103
18332TIP3    H254874   6.036   2.971   8.203
18333TIP3   OH254875   4.704   3.063   8.771
18333TIP3    H154876   4.699   2.965   8.759
18333TIP3    H254877   4.780   3.062   8.835
18334TIP3   OH254878   6.335   3.378   8.963
18334TIP3    H154879   6.410   3.315   8.954
18334TIP3    H254880   6.362   3.450   8.903
18335TIP3   OH254881   6.521   3.187   8.985
18335TIP3    H154882   6.448   3.135   9.025
18335TIP3    H254883   6.596   3.124   8.997
18336TIP3   OH254884   5.987   2.413   7.548
18336TIP3    H154885   6.063   2.384   7.602
18336TIP3    H254886   5.915   2.355   7.575
18337TIP3   OH254887   6.044   2.670   8.003
18337TIP3    H154888   6.085   2.582   8.018
18337TIP3    H254889   6.102   2.705   7.934
18338TIP3   OH254890   6.207   2.847   8.497
18338TIP3    H154891   6.293   2.874   8.456
18338TIP3    H254892   6.221   2.884   8.586
18339TIP3   OH254893   6.274   2.990   8.731
18339TIP3    H154894   6.195   3.026   8.776
18339TIP3    H254895   6.307   3.069   8.683
18340TIP3   OH254896   4.895   2.661   9.516
18340TIP3    H154897   4.983   2.702   9.514
18340TIP3    H254898   4.855   2.705   9.595
18341TIP3   OH254899   6.720   2.576   9.284
18341TIP3    H154900   6.783   2.513   9.243
18341TIP3    H254901   6.699   2.636   9.209
18342TIP3   OH254902   6.153   2.420   8.040
18342TIP3    H154903   6.202   2.404   8.123
18342TIP3    H254904   6.093   2.343   8.038
18343TIP3   OH254905   4.854   2.409   8.859
18343TIP3    H154906   4.916   2.334   8.869
18343TIP3    H254907   4.917   2.483   8.852
18344TIP3   OH254908   4.650   2.696   8.929
18344TIP3    H154909   4.702   2.680   8.847
18344TIP3    H254910   4.713   2.747   8.982
18345TIP3   OH254911   6.598   2.723   9.090
18345TIP3    H154912   6.510   2.760   9.112
18345TIP3    H254913   6.573   2.650   9.032
18346TIP3   OH254914   6.235   2.358   7.671
18346TIP3    H154915   6.277   2.285   7.620
18346TIP3    H254916   6.303   2.428   7.664
18347TIP3   OH254917   4.639   2.190   8.437
18347TIP3    H154918   4.544   2.183   8.458
18347TIP3    H254919   4.639   2.244   8.356
18348TIP3   OH254920   5.797   3.887   7.939
18348TIP3    H154921   5.849   3.871   7.857
18348TIP3    H254922   5.851   3.954   7.983
18349TIP3   OH254923   4.867   2.251   9.231
18349TIP3    H154924   4.817   2.226   9.311
18349TIP3    H254925   4.801   2.306   9.184
18350TIP3   OH254926   4.903   3.686   9.320
18350TIP3    H154927   4.808   3.666   9.309
18350TIP3    H254928   4.913   3.671   9.417
18351TIP3   OH254929   5.077   3.718   8.867
18351TIP3    H154930   5.028   3.795   8.834
18351TIP3    H254931   5.163   3.736   8.825
18352TIP3   OH254932   5.525   3.967   9.008
18352TIP3    H154933   5.564   3.971   9.097
18352TIP3    H254934   5.591   4.019   8.956
18353TIP3   OH254935   5.703   4.118   8.867
18353TIP3    H154936   5.777   4.070   8.826
18353TIP3    H254937   5.753   4.177   8.928
18354TIP3   OH254938   6.496   2.483   8.969
18354TIP3    H154939   6.405   2.478   8.935
18354TIP3    H254940   6.527   2.391   8.956
18355TIP3   OH254941   4.752   3.973   8.897
18355TIP3    H154942   4.665   4.012   8.873
18355TIP3    H254943   4.765   4.016   8.983
18356TIP3   OH254944   4.989   3.956   8.752
18356TIP3    H154945   4.904   3.971   8.798
18356TIP3    H254946   4.970   3.994   8.664
18357TIP3   OH254947   5.416   3.989   8.551
18357TIP3    H154948   5.349   4.012   8.484
18357TIP3    H254949   5.430   4.076   8.594
18358TIP3   OH254950   5.685   3.927   8.601
18358TIP3    H154951   5.591   3.946   8.581
18358TIP3    H254952   5.729   4.004   8.562
18359TIP3   OH254953   5.887   4.121   8.519
18359TIP3    H154954   5.876   4.207   8.473
18359TIP3    H254955   5.919   4.063   8.446
18360TIP3   OH254956   4.666   3.775   8.638
18360TIP3    H154957   4.692   3.757   8.730
18360TIP3    H254958   4.741   3.735   8.589
18361TIP3   OH254959   4.858   3.646   8.495
18361TIP3    H154960   4.882   3.561   8.534
18361TIP3    H254961   4.947   3.690   8.488
18362TIP3   OH254962   5.120   3.743   8.500
18362TIP3    H154963   5.161   3.656   8.482
18362TIP3    H254964   5.165   3.767   8.583
18363TIP3   OH254965   5.703   2.400   8.590
18363TIP3    H154966   5.658   2.329   8.639
18363TIP3    H254967   5.772   2.350   8.541
18364TIP3   OH254968   6.226   2.279   8.495
18364TIP3    H154969   6.263   2.329   8.419
18364TIP3    H254970   6.130   2.296   8.486
18365TIP3   OH254971   6.320   2.379   8.258
18365TIP3    H154972   6.392   2.327   8.217
18365TIP3    H254973   6.353   2.470   8.242
18366TIP3   OH254974   4.950   2.107   8.606
18366TIP3    H154975   4.858   2.074   8.604
18366TIP3    H254976   5.000   2.023   8.601
18367TIP3   OH254977   4.741   1.974   8.252
18367TIP3    H154978   4.767   2.033   8.178
18367TIP3    H254979   4.706   2.038   8.316
18368TIP3   OH254980   5.393   2.139   8.483
18368TIP3    H154981   5.451   2.190   8.425
18368TIP3    H254982   5.412   2.178   8.569
18369TIP3   OH254983   5.943   2.285   8.469
18369TIP3    H154984   5.938   2.251   8.379
18369TIP3    H254985   5.927   2.203   8.522
18370TIP3   OH254986   5.970   2.207   8.030
18370TIP3    H154987   5.883   2.249   8.039
18370TIP3    H254988   5.955   2.122   8.077
18371TIP3   OH254989   4.453   3.546   8.042
18371TIP3    H154990   4.370   3.512   8.003
18371TIP3    H254991   4.443   3.639   8.017
18372TIP3   OH254992   4.852   2.135   8.017
18372TIP3    H154993   4.901   2.074   7.959
18372TIP3    H254994   4.924   2.190   8.053
18373TIP3   OH254995   5.366   2.309   8.114
18373TIP3    H154996   5.427   2.263   8.174
18373TIP3    H254997   5.387   2.402   8.138
18374TIP3   OH254998   5.226   3.738   7.614
18374TIP3    H154999   5.314   3.760   7.578
18374TIP3    H255000   5.203   3.663   7.555
18375TIP3   OH255001   5.944   3.852   7.709
18375TIP3    H155002   5.933   3.755   7.692
18375TIP3    H255003   5.903   3.889   7.628
18376TIP3   OH255004   5.172   2.383   9.510
18376TIP3    H155005   5.153   2.309   9.568
18376TIP3    H255006   5.267   2.373   9.499
18377TIP3   OH255007   4.529   3.571   7.671
18377TIP3    H155008   4.528   3.606   7.761
18377TIP3    H255009   4.619   3.533   7.663
18378TIP3   OH255010   6.224   2.451   9.380
18378TIP3    H155011   6.232   2.420   9.474
18378TIP3    H255012   6.317   2.443   9.348
18379TIP3   OH255013   6.170   3.997   8.899
18379TIP3    H155014   6.094   3.966   8.845
18379TIP3    H255015   6.155   4.094   8.895
18380TIP3   OH255016   7.436   3.370   7.663
18380TIP3    H155017   7.409   3.462   7.642
18380TIP3    H255018   7.360   3.321   7.629
18381TIP3   OH255019   7.434   3.373   8.042
18381TIP3    H155020   7.465   3.337   8.127
18381TIP3    H255021   7.395   3.294   8.001
18382TIP3   OH255022   6.737   3.266   8.406
18382TIP3    H155023   6.771   3.201   8.471
18382TIP3    H255024   6.812   3.327   8.400
18383TIP3   OH255025   7.675   3.671   7.722
18383TIP3    H155026   7.668   3.599   7.786
18383TIP3    H255027   7.710   3.744   7.777
18384TIP3   OH255028   6.708   3.670   8.153
18384TIP3    H155029   6.700   3.573   8.148
18384TIP3    H255030   6.800   3.683   8.125
18385TIP3   OH255031   6.413   2.878   7.919
18385TIP3    H155032   6.366   2.963   7.932
18385TIP3    H255033   6.341   2.825   7.880
18386TIP3   OH255034   6.472   3.165   8.085
18386TIP3    H155035   6.522   3.091   8.124
18386TIP3    H255036   6.533   3.198   8.018
18387TIP3   OH255037   7.331   4.140   7.736
18387TIP3    H155038   7.377   4.068   7.689
18387TIP3    H255039   7.310   4.098   7.821
18388TIP3   OH255040   7.237   3.596   8.089
18388TIP3    H155041   7.269   3.517   8.042
18388TIP3    H255042   7.323   3.637   8.110
18389TIP3   OH255043   8.239   2.920   8.083
18389TIP3    H155044   8.271   3.001   8.129
18389TIP3    H255045   8.269   2.937   7.992
18390TIP3   OH255046   7.645   3.099   8.124
18390TIP3    H155047   7.689   3.015   8.144
18390TIP3    H255048   7.617   3.084   8.032
18391TIP3   OH255049   6.982   2.757   8.089
18391TIP3    H155050   6.963   2.829   8.026
18391TIP3    H255051   6.935   2.683   8.044
18392TIP3   OH255052   7.677   2.848   7.711
18392TIP3    H155053   7.749   2.832   7.776
18392TIP3    H255054   7.728   2.883   7.636
18393TIP3   OH255055   6.617   2.959   8.195
18393TIP3    H155056   6.701   2.939   8.242
18393TIP3    H255057   6.630   2.904   8.115
18394TIP3   OH255058   7.060   3.157   7.986
18394TIP3    H155059   7.154   3.131   8.000
18394TIP3    H255060   7.020   3.073   7.954
18395TIP3   OH255061   8.318   3.120   8.260
18395TIP3    H155062   8.236   3.171   8.244
18395TIP3    H255063   8.347   3.157   8.346
18396TIP3   OH255064   6.981   2.740   8.522
18396TIP3    H155065   6.921   2.777   8.454
18396TIP3    H255066   6.930   2.759   8.603
18397TIP3   OH255067   7.330   3.591   7.532
18397TIP3    H155068   7.287   3.567   7.449
18397TIP3    H255069   7.286   3.676   7.552
18398TIP3   OH255070   7.089   3.515   8.319
18398TIP3    H155071   7.023   3.577   8.357
18398TIP3    H255072   7.125   3.567   8.245
18399TIP3   OH255073   7.889   2.850   7.881
18399TIP3    H155074   7.887   2.797   7.962
18399TIP3    H255075   7.946   2.924   7.906
18400TIP3   OH255076   6.851   2.855   8.307
18400TIP3    H155077   6.913   2.928   8.329
18400TIP3    H255078   6.900   2.814   8.232
18401TIP3   OH255079   6.918   3.706   8.415
18401TIP3    H155080   6.886   3.787   8.370
18401TIP3    H255081   6.840   3.690   8.473
18402TIP3   OH255082   6.312   3.397   7.651
18402TIP3    H155083   6.270   3.427   7.569
18402TIP3    H255084   6.342   3.482   7.690
18403TIP3   OH255085   7.751   3.912   7.889
18403TIP3    H155086   7.662   3.907   7.929
18403TIP3    H255087   7.746   3.997   7.841
18404TIP3   OH255088   8.040   2.814   8.252
18404TIP3    H155089   7.953   2.847   8.224
18404TIP3    H255090   8.098   2.848   8.181
18405TIP3   OH255091   7.339   2.461   8.234
18405TIP3    H155092   7.328   2.366   8.251
18405TIP3    H255093   7.261   2.497   8.281
18406TIP3   OH255094   7.456   3.963   7.570
18406TIP3    H155095   7.503   3.880   7.546
18406TIP3    H255096   7.514   4.028   7.524
18407TIP3   OH255097   7.593   3.748   7.470
18407TIP3    H155098   7.559   3.668   7.427
18407TIP3    H255099   7.627   3.712   7.554
18408TIP3   OH255100   7.967   3.833   8.235
18408TIP3    H155101   7.966   3.752   8.179
18408TIP3    H255102   7.963   3.904   8.168
18409TIP3   OH255103   7.268   3.222   7.490
18409TIP3    H155104   7.187   3.273   7.468
18409TIP3    H255105   7.314   3.219   7.405
18410TIP3   OH255106   7.226   3.006   7.209
18410TIP3    H155107   7.295   3.055   7.258
18410TIP3    H255108   7.282   2.941   7.162
18411TIP3   OH255109   8.169   3.461   8.077
18411TIP3    H155110   8.089   3.517   8.084
18411TIP3    H255111   8.201   3.486   7.987
18412TIP3   OH255112   7.613   3.304   7.464
18412TIP3    H155113   7.560   3.329   7.543
18412TIP3    H255114   7.697   3.277   7.507
18413TIP3   OH255115   7.851   3.343   8.374
18413TIP3    H155116   7.850   3.425   8.426
18413TIP3    H255117   7.764   3.351   8.328
18414TIP3   OH255118   6.847   3.302   7.879
18414TIP3    H155119   6.806   3.245   7.811
18414TIP3    H255120   6.925   3.249   7.906
18415TIP3   OH255121   6.976   3.709   8.033
18415TIP3    H155122   6.952   3.673   7.946
18415TIP3    H255123   7.067   3.677   8.044
18416TIP3   OH255124   6.986   3.273   8.234
18416TIP3    H155125   7.017   3.254   8.143
18416TIP3    H255126   7.027   3.359   8.254
18417TIP3   OH255127   7.515   3.920   8.020
18417TIP3    H155128   7.470   3.983   8.076
18417TIP3    H255129   7.498   3.834   8.066
18418TIP3   OH255130   7.123   3.833   8.548
18418TIP3    H155131   7.065   3.891   8.601
18418TIP3    H255132   7.055   3.778   8.503
18419TIP3   OH255133   7.456   3.162   7.289
18419TIP3    H155134   7.515   3.220   7.342
18419TIP3    H255135   7.482   3.188   7.197
18420TIP3   OH255136   6.875   3.387   8.658
18420TIP3    H155137   6.879   3.474   8.703
18420TIP3    H255138   6.779   3.370   8.663
18421TIP3   OH255139   7.199   3.842   7.563
18421TIP3    H155140   7.275   3.900   7.584
18421TIP3    H255141   7.134   3.903   7.527
18422TIP3   OH255142   6.917   4.001   8.644
18422TIP3    H155143   6.881   3.994   8.554
18422TIP3    H255144   6.839   3.977   8.699
18423TIP3   OH255145   7.971   2.405   7.336
18423TIP3    H155146   7.891   2.424   7.388
18423TIP3    H255147   7.983   2.488   7.287
18424TIP3   OH255148   6.714   3.144   7.683
18424TIP3    H155149   6.649   3.192   7.627
18424TIP3    H255150   6.669   3.060   7.698
18425TIP3   OH255151   7.770   3.772   6.885
18425TIP3    H155152   7.778   3.868   6.871
18425TIP3    H255153   7.862   3.742   6.873
18426TIP3   OH255154   6.494   3.530   8.594
18426TIP3    H155155   6.434   3.512   8.519
18426TIP3    H255156   6.531   3.441   8.614
18427TIP3   OH255157   6.356   3.713   8.252
18427TIP3    H155158   6.434   3.712   8.195
18427TIP3    H255159   6.347   3.809   8.265
18428TIP3   OH255160   8.218   4.166   8.274
18428TIP3    H155161   8.217   4.071   8.294
18428TIP3    H255162   8.139   4.196   8.324
18429TIP3   OH255163   7.308   3.995   8.427
18429TIP3    H155164   7.297   4.049   8.507
18429TIP3    H255165   7.248   3.921   8.452
18430TIP3   OH255166   7.080   4.090   7.365
18430TIP3    H155167   7.032   4.068   7.283
18430TIP3    H255168   7.044   4.178   7.389
18431TIP3   OH255169   6.523   3.936   7.739
18431TIP3    H155170   6.571   3.927   7.824
18431TIP3    H255171   6.442   3.889   7.764
18432TIP3   OH255172   7.282   3.989   7.007
18432TIP3    H155173   7.340   3.919   6.970
18432TIP3    H255174   7.316   3.997   7.098
18433TIP3   OH255175   7.331   4.037   7.278
18433TIP3    H155176   7.243   4.046   7.319
18433TIP3    H255177   7.380   3.991   7.347
18434TIP3   OH255178   8.106   3.302   8.546
18434TIP3    H155179   8.022   3.315   8.500
18434TIP3    H255180   8.119   3.205   8.539
18435TIP3   OH255181   6.709   3.704   8.584
18435TIP3    H155182   6.751   3.688   8.670
18435TIP3    H255183   6.626   3.652   8.590
18436TIP3   OH255184   7.099   2.535   8.363
18436TIP3    H155185   7.009   2.505   8.339
18436TIP3    H255186   7.076   2.619   8.407
18437TIP3   OH255187   7.631   2.651   8.557
18437TIP3    H155188   7.698   2.625   8.623
18437TIP3    H255189   7.546   2.630   8.602
18438TIP3   OH255190   7.872   3.078   8.474
18438TIP3    H155191   7.825   3.076   8.561
18438TIP3    H255192   7.850   3.167   8.441
18439TIP3   OH255193   7.530   3.212   7.032
18439TIP3    H155194   7.499   3.184   6.944
18439TIP3    H255195   7.612   3.260   7.009
18440TIP3   OH255196   7.244   2.587   7.334
18440TIP3    H155197   7.213   2.585   7.426
18440TIP3    H255198   7.208   2.502   7.302
18441TIP3   OH255199   7.030   3.050   8.382
18441TIP3    H155200   6.980   3.072   8.464
18441TIP3    H255201   7.015   3.131   8.328
18442TIP3   OH255202   6.915   2.936   7.897
18442TIP3    H155203   6.822   2.911   7.913
18442TIP3    H255204   6.929   2.896   7.808
18443TIP3   OH255205   7.405   3.023   7.623
18443TIP3    H155206   7.351   3.094   7.582
18443TIP3    H255207   7.460   2.994   7.548
18444TIP3   OH255208   7.580   3.303   8.710
18444TIP3    H155209   7.560   3.230   8.772
18444TIP3    H255210   7.674   3.319   8.731
18445TIP3   OH255211   7.563   3.053   7.864
18445TIP3    H155212   7.504   3.082   7.791
18445TIP3    H255213   7.596   2.970   7.823
18446TIP3   OH255214   6.850   3.081   8.592
18446TIP3    H155215   6.876   3.145   8.660
18446TIP3    H255216   6.839   2.999   8.644
18447TIP3   OH255217   6.898   2.556   7.301
18447TIP3    H155218   6.893   2.554   7.399
18447TIP3    H255219   6.819   2.609   7.280
18448TIP3   OH255220   6.442   2.603   8.173
18448TIP3    H155221   6.518   2.635   8.226
18448TIP3    H255222   6.483   2.571   8.091
18449TIP3   OH255223   6.418   2.584   7.691
18449TIP3    H155224   6.464   2.623   7.614
18449TIP3    H255225   6.358   2.657   7.714
18450TIP3   OH255226   7.570   3.301   8.287
18450TIP3    H155227   7.605   3.228   8.230
18450TIP3    H255228   7.545   3.249   8.366
18451TIP3   OH255229   7.239   2.761   7.959
18451TIP3    H155230   7.158   2.758   8.012
18451TIP3    H255231   7.308   2.760   8.027
18452TIP3   OH255232   6.676   2.814   7.968
18452TIP3    H155233   6.581   2.821   7.941
18452TIP3    H255234   6.700   2.723   7.942
18453TIP3   OH255235   6.947   2.811   7.654
18453TIP3    H155236   7.042   2.827   7.634
18453TIP3    H255237   6.902   2.836   7.571
18454TIP3   OH255238   7.733   2.836   8.160
18454TIP3    H155239   7.697   2.847   8.251
18454TIP3    H255240   7.670   2.773   8.122
18455TIP3   OH255241   6.784   2.843   7.433
18455TIP3    H155242   6.711   2.801   7.384
18455TIP3    H255243   6.837   2.880   7.359
18456TIP3   OH255244   7.898   4.522   8.375
18456TIP3    H155245   7.901   4.550   8.281
18456TIP3    H255246   7.976   4.569   8.411
18457TIP3   OH255247   6.863   3.630   8.806
18457TIP3    H155248   6.942   3.663   8.853
18457TIP3    H255249   6.796   3.635   8.877
18458TIP3   OH255250   7.326   3.086   8.055
18458TIP3    H155251   7.398   3.048   8.003
18458TIP3    H255252   7.339   3.045   8.142
18459TIP3   OH255253   6.849   2.576   7.931
18459TIP3    H155254   6.818   2.495   7.976
18459TIP3    H255255   6.904   2.541   7.860
18460TIP3   OH255256   7.302   2.980   8.349
18460TIP3    H155257   7.213   3.019   8.360
18460TIP3    H255258   7.360   3.041   8.398
18461TIP3   OH255259   7.039   3.375   7.440
18461TIP3    H155260   6.966   3.311   7.430
18461TIP3    H255261   7.023   3.409   7.532
18462TIP3   OH255262   7.940   3.614   8.071
18462TIP3    H155263   7.966   3.659   7.988
18462TIP3    H255264   7.856   3.570   8.046
18463TIP3   OH255265   7.497   2.689   7.300
18463TIP3    H155266   7.400   2.674   7.308
18463TIP3    H255267   7.508   2.783   7.324
18464TIP3   OH255268   7.455   3.703   8.438
18464TIP3    H155269   7.465   3.659   8.524
18464TIP3    H255270   7.403   3.781   8.461
18465TIP3   OH255271   7.567   2.934   7.404
18465TIP3    H155272   7.664   2.939   7.420
18465TIP3    H255273   7.550   3.013   7.350
18466TIP3   OH255274   6.729   3.391   8.117
18466TIP3    H155275   6.768   3.367   8.031
18466TIP3    H255276   6.771   3.328   8.177
18467TIP3   OH255277   7.183   3.524   7.259
18467TIP3    H155278   7.137   3.611   7.267
18467TIP3    H255279   7.129   3.469   7.320
18468TIP3   OH255280   6.611   3.315   8.729
18468TIP3    H155281   6.633   3.304   8.823
18468TIP3    H255282   6.541   3.249   8.716
18469TIP3   OH255283   7.336   3.430   8.750
18469TIP3    H155284   7.279   3.372   8.697
18469TIP3    H255285   7.425   3.398   8.723
18470TIP3   OH255286   8.009   3.023   7.242
18470TIP3    H155287   7.946   2.977   7.182
18470TIP3    H255288   8.006   3.111   7.200
18471TIP3   OH255289   8.222   3.879   8.324
18471TIP3    H155290   8.125   3.874   8.316
18471TIP3    H255291   8.249   3.850   8.233
18472TIP3   OH255292   7.705   3.843   7.148
18472TIP3    H155293   7.687   3.770   7.210
18472TIP3    H255294   7.721   3.797   7.064
18473TIP3   OH255295   7.703   3.473   7.991
18473TIP3    H155296   7.611   3.444   8.002
18473TIP3    H255297   7.741   3.395   7.946
18474TIP3   OH255298   6.829   3.695   7.732
18474TIP3    H155299   6.829   3.779   7.684
18474TIP3    H255300   6.743   3.700   7.776
18475TIP3   OH255301   6.393   3.005   7.442
18475TIP3    H155302   6.440   3.088   7.462
18475TIP3    H255303   6.317   3.012   7.503
18476TIP3   OH255304   6.975   3.466   7.688
18476TIP3    H155305   6.934   3.554   7.700
18476TIP3    H255306   6.935   3.417   7.762
18477TIP3   OH255307   7.099   4.046   8.217
18477TIP3    H155308   7.135   4.113   8.155
18477TIP3    H255309   7.180   4.014   8.261
18478TIP3   OH255310   6.754   3.939   7.591
18478TIP3    H155311   6.668   3.939   7.638
18478TIP3    H255312   6.778   4.033   7.595
18479TIP3   OH255313   7.499   3.685   8.169
18479TIP3    H155314   7.487   3.675   8.266
18479TIP3    H255315   7.569   3.621   8.151
18480TIP3   OH255316   7.461   3.569   7.052
18480TIP3    H155317   7.515   3.545   7.131
18480TIP3    H255318   7.373   3.544   7.083
18481TIP3   OH255319   7.803   4.047   6.872
18481TIP3    H155320   7.844   4.118   6.820
18481TIP3    H255321   7.723   4.094   6.903
18482TIP3   OH255322   6.825   2.823   8.740
18482TIP3    H155323   6.728   2.827   8.754
18482TIP3    H255324   6.853   2.761   8.810
18483TIP3   OH255325   7.622   3.507   7.270
18483TIP3    H155326   7.613   3.439   7.340
18483TIP3    H255327   7.719   3.504   7.256
18484TIP3   OH255328   6.524   3.903   8.430
18484TIP3    H155329   6.578   3.828   8.404
18484TIP3    H255330   6.588   3.974   8.437
18485TIP3   OH255331   6.830   3.552   7.049
18485TIP3    H155332   6.846   3.460   7.022
18485TIP3    H255333   6.812   3.540   7.145
18486TIP3   OH255334   6.778   3.556   7.321
18486TIP3    H155335   6.843   3.530   7.388
18486TIP3    H255336   6.779   3.654   7.330
18487TIP3   OH255337   6.511   3.250   7.526
18487TIP3    H155338   6.446   3.296   7.584
18487TIP3    H255339   6.527   3.321   7.460
18488TIP3   OH255340   7.656   2.889   8.418
18488TIP3    H155341   7.737   2.927   8.456
18488TIP3    H255342   7.644   2.808   8.473
18489TIP3   OH255343   7.536   2.641   7.581
18489TIP3    H155344   7.525   2.665   7.487
18489TIP3    H255345   7.578   2.722   7.618
18490TIP3   OH255346   7.041   3.756   7.272
18490TIP3    H155347   6.954   3.782   7.308
18490TIP3    H255348   7.056   3.827   7.209
18491TIP3   OH255349   7.229   2.817   7.685
18491TIP3    H155350   7.295   2.887   7.666
18491TIP3    H255351   7.235   2.810   7.782
18492TIP3   OH255352   7.498   3.138   8.495
18492TIP3    H155353   7.518   3.192   8.574
18492TIP3    H255354   7.555   3.060   8.508
18493TIP3   OH255355   7.375   2.548   7.789
18493TIP3    H155356   7.370   2.623   7.850
18493TIP3    H255357   7.434   2.584   7.719
18494TIP3   OH255358   6.783   3.829   7.338
18494TIP3    H155359   6.752   3.900   7.277
18494TIP3    H255360   6.766   3.871   7.425
18495TIP3   OH255361   6.885   2.542   7.578
18495TIP3    H155362   6.883   2.633   7.613
18495TIP3    H255363   6.981   2.523   7.586
18496TIP3   OH255364   8.140   3.033   8.479
18496TIP3    H155365   8.042   3.031   8.480
18496TIP3    H255366   8.157   3.004   8.388
18497TIP3   OH255367   7.789   3.234   7.864
18497TIP3    H155368   7.715   3.171   7.874
18497TIP3    H255369   7.862   3.187   7.910
18498TIP3   OH255370   6.500   3.462   7.333
18498TIP3    H155371   6.561   3.537   7.345
18498TIP3    H255372   6.550   3.411   7.266
18499TIP3   OH255373   6.448   2.736   7.464
18499TIP3    H155374   6.447   2.833   7.460
18499TIP3    H255375   6.362   2.713   7.427
18500TIP3   OH255376   7.759   4.184   7.814
18500TIP3    H155377   7.716   4.233   7.740
18500TIP3    H255378   7.853   4.206   7.794
18501TIP3   OH255379   6.834   2.456   8.341
18501TIP3    H155380   6.803   2.423   8.254
18501TIP3    H255381   6.823   2.377   8.397
18502TIP3   OH255382   6.369   3.656   7.721
18502TIP3    H155383   6.299   3.697   7.772
18502TIP3    H255384   6.365   3.709   7.638
18503TIP3   OH255385   6.528   4.212   8.791
18503TIP3    H155386   6.614   4.209   8.838
18503TIP3    H255387   6.504   4.118   8.788
18504TIP3   OH255388   7.018   4.187   8.827
18504TIP3    H155389   7.106   4.153   8.846
18504TIP3    H255390   6.986   4.122   8.761
18505TIP3   OH255391   6.993   3.757   6.965
18505TIP3    H155392   6.936   3.686   7.003
18505TIP3    H255393   7.068   3.704   6.933
18506TIP3   OH255394   7.429   3.798   6.874
18506TIP3    H155395   7.476   3.736   6.933
18506TIP3    H255396   7.486   3.800   6.795
18507TIP3   OH255397   6.659   3.620   8.993
18507TIP3    H155398   6.676   3.524   8.993
18507TIP3    H255399   6.572   3.624   8.948
18508TIP3   OH255400   6.637   3.273   7.182
18508TIP3    H155401   6.691   3.240   7.257
18508TIP3    H255402   6.706   3.278   7.113
18509TIP3   OH255403   7.269   3.704   8.763
18509TIP3    H155404   7.224   3.714   8.677
18509TIP3    H255405   7.301   3.612   8.760
18510TIP3   OH255406   7.143   3.470   6.990
18510TIP3    H155407   7.147   3.484   7.087
18510TIP3    H255408   7.143   3.372   6.987
18511TIP3   OH255409   7.764   3.697   8.371
18511TIP3    H155410   7.831   3.753   8.326
18511TIP3    H255411   7.683   3.748   8.364
18512TIP3   OH255412   6.777   3.350   8.974
18512TIP3    H155413   6.855   3.298   8.952
18512TIP3    H255414   6.802   3.387   9.062
18513TIP3   OH255415   6.846   3.176   7.407
18513TIP3    H155416   6.820   3.135   7.491
18513TIP3    H255417   6.881   3.099   7.357
18514TIP3   OH255418   7.114   3.240   8.635
18514TIP3    H155419   7.037   3.300   8.640
18514TIP3    H255420   7.162   3.274   8.556
18515TIP3   OH255421   6.945   2.967   7.249
18515TIP3    H155422   6.919   2.969   7.154
18515TIP3    H255423   7.043   2.976   7.241
18516TIP3   OH255424   7.631   3.643   8.766
18516TIP3    H155425   7.719   3.629   8.729
18516TIP3    H255426   7.630   3.579   8.839
18517TIP3   OH255427   7.768   3.302   6.909
18517TIP3    H155428   7.747   3.254   6.826
18517TIP3    H255429   7.737   3.392   6.883
18518TIP3   OH255430   7.236   3.027   8.764
18518TIP3    H155431   7.238   2.947   8.707
18518TIP3    H255432   7.194   3.093   8.705
18519TIP3   OH255433   7.240   2.813   8.568
18519TIP3    H155434   7.267   2.855   8.484
18519TIP3    H255435   7.146   2.791   8.549
18520TIP3   OH255436   7.270   3.353   8.443
18520TIP3    H155437   7.350   3.353   8.388
18520TIP3    H255438   7.213   3.418   8.397
18521TIP3   OH255439   7.851   3.319   8.821
18521TIP3    H155440   7.902   3.240   8.844
18521TIP3    H255441   7.923   3.381   8.799
18522TIP3   OH255442   7.897   3.564   8.560
18522TIP3    H155443   7.839   3.616   8.500
18522TIP3    H255444   7.984   3.584   8.520
18523TIP3   OH255445   7.114   3.143   8.991
18523TIP3    H155446   7.045   3.074   9.004
18523TIP3    H255447   7.150   3.117   8.903
18524TIP3   OH255448   7.371   2.580   8.634
18524TIP3    H155449   7.323   2.662   8.611
18524TIP3    H255450   7.302   2.512   8.621
18525TIP3   OH255451   7.499   3.085   8.851
18525TIP3    H155452   7.491   3.075   8.947
18525TIP3    H255453   7.408   3.059   8.824
18526TIP3   OH255454   7.737   3.029   8.704
18526TIP3    H155455   7.662   3.034   8.767
18526TIP3    H255456   7.811   3.003   8.762
18527TIP3   OH255457   7.970   2.971   8.853
18527TIP3    H155458   7.976   2.877   8.879
18527TIP3    H255459   7.963   3.017   8.940
18528TIP3   OH255460   6.953   2.923   9.043
18528TIP3    H155461   6.963   2.833   9.006
18528TIP3    H255462   6.990   2.910   9.133
18529TIP3   OH255463   7.466   2.591   8.890
18529TIP3    H155464   7.530   2.519   8.880
18529TIP3    H255465   7.423   2.587   8.802
18530TIP3   OH255466   7.533   2.803   9.052
18530TIP3    H155467   7.509   2.732   8.987
18530TIP3    H255468   7.455   2.863   9.045
18531TIP3   OH255469   6.752   4.033   7.150
18531TIP3    H155470   6.848   4.030   7.131
18531TIP3    H255471   6.721   4.080   7.071
18532TIP3   OH255472   6.232   3.414   7.366
18532TIP3    H155473   6.327   3.437   7.356
18532TIP3    H255474   6.229   3.325   7.326
18533TIP3   OH255475   6.150   4.027   7.786
18533TIP3    H155476   6.089   3.954   7.765
18533TIP3    H255477   6.199   3.997   7.866
18534TIP3   OH255478   8.007   4.284   7.768
18534TIP3    H155479   8.040   4.320   7.852
18534TIP3    H255480   8.072   4.317   7.704
18535TIP3   OH255481   8.038   4.299   8.053
18535TIP3    H155482   8.006   4.208   8.043
18535TIP3    H255483   8.119   4.282   8.104
18536TIP3   OH255484   8.079   3.980   8.615
18536TIP3    H155485   8.013   3.984   8.687
18536TIP3    H255486   8.126   4.065   8.626
18537TIP3   OH255487   7.901   3.490   7.243
18537TIP3    H155488   7.971   3.552   7.215
18537TIP3    H255489   7.944   3.449   7.322
18538TIP3   OH255490   8.029   3.357   7.446
18538TIP3    H155491   7.965   3.314   7.507
18538TIP3    H255492   8.096   3.393   7.507
18539TIP3   OH255493   8.079   3.745   7.875
18539TIP3    H155494   8.136   3.682   7.828
18539TIP3    H255495   8.078   3.821   7.814
18540TIP3   OH255496   7.913   4.047   8.069
18540TIP3    H155497   7.831   4.092   8.091
18540TIP3    H255498   7.882   3.990   7.994
18541TIP3   OH255499   7.968   3.263   7.095
18541TIP3    H155500   7.896   3.267   7.027
18541TIP3    H255501   7.942   3.340   7.150
18542TIP3   OH255502   7.837   2.937   7.051
18542TIP3    H155503   7.800   2.976   6.971
18542TIP3    H255504   7.812   2.843   7.040
18543TIP3   OH255505   7.843   3.211   7.594
18543TIP3    H155506   7.854   3.114   7.589
18543TIP3    H255507   7.832   3.226   7.690
18544TIP3   OH255508   6.472   3.280   8.342
18544TIP3    H155509   6.469   3.256   8.247
18544TIP3    H255510   6.569   3.285   8.356
18545TIP3   OH255511   8.132   3.636   8.445
18545TIP3    H155512   8.205   3.570   8.442
18545TIP3    H255513   8.168   3.708   8.391
18546TIP3   OH255514   8.319   3.447   8.473
18546TIP3    H155515   8.246   3.391   8.506
18546TIP3    H255516   8.394   3.386   8.486
18547TIP3   OH255517   7.783   2.671   7.037
18547TIP3    H155518   7.861   2.641   7.088
18547TIP3    H255519   7.713   2.610   7.063
18548TIP3   OH255520   7.839   2.927   7.489
18548TIP3    H155521   7.880   2.839   7.505
18548TIP3    H255522   7.899   2.960   7.420
18549TIP3   OH255523   8.002   3.106   7.982
18549TIP3    H155524   8.089   3.131   7.942
18549TIP3    H255525   8.017   3.140   8.073
18550TIP3   OH255526   8.070   3.244   8.217
18550TIP3    H155527   7.992   3.280   8.265
18550TIP3    H255528   8.103   3.324   8.171
18551TIP3   OH255529   6.686   2.973   9.012
18551TIP3    H155530   6.784   2.967   9.014
18551TIP3    H255531   6.663   2.888   9.055
18552TIP3   OH255532   7.948   2.678   7.527
18552TIP3    H155533   7.999   2.661   7.610
18552TIP3    H255534   7.889   2.599   7.526
18553TIP3   OH255535   6.649   2.664   8.348
18553TIP3    H155536   6.712   2.590   8.357
18553TIP3    H255537   6.710   2.739   8.341
18554TIP3   OH255538   6.454   2.939   8.420
18554TIP3    H155539   6.502   2.930   8.336
18554TIP3    H255540   6.479   3.028   8.447
18555TIP3   OH255541   8.388   2.976   8.602
18555TIP3    H155542   8.298   3.012   8.590
18555TIP3    H255543   8.387   2.905   8.536
18556TIP3   OH255544   8.031   2.615   7.156
18556TIP3    H155545   8.073   2.541   7.108
18556TIP3    H255546   8.100   2.684   7.151
18557TIP3   OH255547   6.435   2.442   7.920
18557TIP3    H155548   6.341   2.441   7.944
18557TIP3    H255549   6.435   2.500   7.841
18558TIP3   OH255550   7.593   4.146   7.426
18558TIP3    H155551   7.641   4.126   7.343
18558TIP3    H255552   7.655   4.207   7.469
18559TIP3   OH255553   6.655   2.522   8.735
18559TIP3    H155554   6.605   2.517   8.818
18559TIP3    H255555   6.589   2.560   8.674
18560TIP3   OH255556   6.701   3.944   8.814
18560TIP3    H155557   6.608   3.922   8.791
18560TIP3    H255558   6.701   3.931   8.909
18561TIP3   OH255559   6.870   3.979   8.362
18561TIP3    H155560   6.818   4.051   8.321
18561TIP3    H255561   6.955   3.996   8.316
18562TIP3   OH255562   8.283   2.738   8.460
18562TIP3    H155563   8.196   2.729   8.418
18562TIP3    H255564   8.321   2.648   8.446
18563TIP3   OH255565   6.564   4.245   8.381
18563TIP3    H155566   6.476   4.261   8.341
18563TIP3    H255567   6.543   4.261   8.473
18564TIP3   OH255568   6.794   4.218   8.239
18564TIP3    H155569   6.709   4.231   8.289
18564TIP3    H255570   6.766   4.245   8.149
18565TIP3   OH255571   7.219   4.242   8.035
18565TIP3    H155572   7.147   4.257   7.971
18565TIP3    H255573   7.228   4.331   8.074
18566TIP3   OH255574   7.482   4.212   8.144
18566TIP3    H155575   7.397   4.213   8.094
18566TIP3    H255576   7.540   4.259   8.081
18567TIP3   OH255577   7.675   4.373   8.005
18567TIP3    H155578   7.669   4.459   7.960
18567TIP3    H255579   7.712   4.316   7.935
18568TIP3   OH255580   6.689   3.867   7.943
18568TIP3    H155581   6.653   3.821   8.021
18568TIP3    H255582   6.724   3.948   7.982
18569TIP3   OH255583   6.940   4.020   7.978
18569TIP3    H155584   6.938   3.925   7.957
18569TIP3    H255585   6.965   4.017   8.072
18570TIP3   OH255586   7.495   2.654   8.071
18570TIP3    H155587   7.454   2.585   8.125
18570TIP3    H255588   7.569   2.607   8.028
18571TIP3   OH255589   8.021   2.537   7.980
18571TIP3    H155590   8.059   2.587   7.904
18571TIP3    H255591   7.926   2.555   7.971
18572TIP3   OH255592   8.116   2.637   7.743
18572TIP3    H155593   8.188   2.584   7.703
18572TIP3    H255594   8.151   2.728   7.728
18573TIP3   OH255595   6.746   2.364   8.092
18573TIP3    H155596   6.654   2.330   8.091
18573TIP3    H255597   6.796   2.279   8.089
18574TIP3   OH255598   6.530   2.232   7.737
18574TIP3    H155599   6.562   2.289   7.666
18574TIP3    H255600   6.502   2.297   7.804
18575TIP3   OH255601   7.187   2.398   7.971
18575TIP3    H155602   7.247   2.446   7.912
18575TIP3    H255603   7.211   2.433   8.057
18576TIP3   OH255604   7.736   2.542   7.956
18576TIP3    H155605   7.737   2.506   7.866
18576TIP3    H255606   7.723   2.460   8.010
18577TIP3   OH255607   7.766   2.463   7.516
18577TIP3    H155608   7.679   2.504   7.526
18577TIP3    H255609   7.753   2.378   7.564
18578TIP3   OH255610   6.251   3.800   7.518
18578TIP3    H155611   6.165   3.773   7.483
18578TIP3    H255612   6.242   3.896   7.513
18579TIP3   OH255613   6.648   2.393   7.502
18579TIP3    H155614   6.698   2.331   7.446
18579TIP3    H255615   6.721   2.447   7.539
18580TIP3   OH255616   7.162   2.566   7.601
18580TIP3    H155617   7.223   2.520   7.661
18580TIP3    H255618   7.183   2.659   7.626
18581TIP3   OH255619   7.021   3.994   7.099
18581TIP3    H155620   7.110   4.015   7.064
18581TIP3    H255621   6.999   3.919   7.041
18582TIP3   OH255622   7.737   4.109   7.193
18582TIP3    H155623   7.729   4.011   7.179
18582TIP3    H255624   7.696   4.142   7.111
18583TIP3   OH255625   6.954   2.643   8.982
18583TIP3    H155626   6.922   2.572   9.041
18583TIP3    H255627   7.049   2.645   9.008
18584TIP3   OH255628   7.202   2.641   9.102
18584TIP3    H155629   7.286   2.613   9.062
18584TIP3    H255630   7.190   2.572   9.170
18585TIP3   OH255631   6.325   3.830   7.159
18585TIP3    H155632   6.322   3.857   7.252
18585TIP3    H255633   6.415   3.790   7.151
18586TIP3   OH255634   8.029   2.702   8.888
18586TIP3    H155635   8.056   2.656   8.969
18586TIP3    H255636   8.113   2.714   8.839
18587TIP3   OH255637   7.985   4.261   8.380
18587TIP3    H155638   7.905   4.217   8.349
18587TIP3    H255639   7.958   4.355   8.382
18588TIP3   OH255640   9.233   3.626   7.150
18588TIP3    H155641   9.205   3.717   7.130
18588TIP3    H255642   9.156   3.577   7.115
18589TIP3   OH255643   9.226   3.628   7.524
18589TIP3    H155644   9.246   3.597   7.614
18589TIP3    H255645   9.189   3.548   7.484
18590TIP3   OH255646   8.530   3.524   7.895
18590TIP3    H155647   8.563   3.457   7.959
18590TIP3    H255648   8.609   3.578   7.883
18591TIP3   OH255649   9.476   3.927   7.208
18591TIP3    H155650   9.461   3.859   7.275
18591TIP3    H255651   9.502   4.004   7.263
18592TIP3   OH255652   8.501   3.930   7.621
18592TIP3    H155653   8.494   3.832   7.623
18592TIP3    H255654   8.598   3.940   7.613
18593TIP3   OH255655   8.208   3.136   7.406
18593TIP3    H155656   8.160   3.220   7.417
18593TIP3    H255657   8.138   3.081   7.368
18594TIP3   OH255658   8.268   3.422   7.573
18594TIP3    H155659   8.317   3.346   7.612
18594TIP3    H255660   8.330   3.451   7.504
18595TIP3   OH255661   9.119   4.388   7.225
18595TIP3    H155662   9.168   4.318   7.176
18595TIP3    H255663   9.122   4.354   7.315
18596TIP3   OH255664   9.030   3.851   7.577
18596TIP3    H155665   9.068   3.775   7.529
18596TIP3    H255666   9.114   3.896   7.600
18597TIP3   OH255667   9.442   3.369   7.608
18597TIP3    H155668   9.478   3.280   7.629
18597TIP3    H255669   9.413   3.352   7.517
18598TIP3   OH255670   8.776   3.015   7.576
18598TIP3    H155671   8.759   3.086   7.512
18598TIP3    H255672   8.731   2.940   7.531
18599TIP3   OH255673   9.467   3.104   7.194
18599TIP3    H155674   9.540   3.089   7.260
18599TIP3    H255675   9.519   3.141   7.120
18600TIP3   OH255676   8.414   3.216   7.681
18600TIP3    H155677   8.497   3.196   7.728
18600TIP3    H255678   8.426   3.161   7.601
18601TIP3   OH255679   8.855   3.414   7.475
18601TIP3    H155680   8.949   3.389   7.486
18601TIP3    H255681   8.817   3.330   7.442
18602TIP3   OH255682   8.783   3.000   8.005
18602TIP3    H155683   8.719   3.034   7.939
18602TIP3    H255684   8.730   3.008   8.086
18603TIP3   OH255685   9.121   3.845   7.022
18603TIP3    H155686   9.087   3.826   6.934
18603TIP3    H255687   9.081   3.932   7.041
18604TIP3   OH255688   8.887   3.768   7.810
18604TIP3    H155689   8.823   3.833   7.846
18604TIP3    H255690   8.929   3.820   7.738
18605TIP3   OH255691   9.680   3.099   7.356
18605TIP3    H155692   9.700   3.055   7.440
18605TIP3    H255693   9.739   3.176   7.365
18606TIP3   OH255694   8.646   3.113   7.794
18606TIP3    H155695   8.709   3.184   7.816
18606TIP3    H255696   8.694   3.070   7.719
18607TIP3   OH255697   8.710   3.963   7.902
18607TIP3    H155698   8.685   4.049   7.861
18607TIP3    H255699   8.632   3.949   7.959
18608TIP3   OH255700   8.107   3.655   7.139
18608TIP3    H155701   8.068   3.682   7.053
18608TIP3    H255702   8.138   3.740   7.175
18609TIP3   OH255703   9.545   4.168   7.376
18609TIP3    H155704   9.455   4.162   7.415
18609TIP3    H255705   9.539   4.255   7.331
18610TIP3   OH255706   9.121   2.724   7.695
18610TIP3    H155707   9.144   2.642   7.743
18610TIP3    H255708   9.050   2.759   7.753
18611TIP3   OH255709   9.248   4.218   7.053
18611TIP3    H155710   9.298   4.136   7.030
18611TIP3    H255711   9.308   4.285   7.011
18612TIP3   OH255712   9.387   4.003   6.957
18612TIP3    H155713   9.365   3.922   6.908
18612TIP3    H255714   9.423   3.966   7.041
18613TIP3   OH255715   9.757   4.085   7.721
18613TIP3    H155716   9.751   4.009   7.660
18613TIP3    H255717   9.747   4.161   7.660
18614TIP3   OH255718   9.063   3.479   6.976
18614TIP3    H155719   8.984   3.530   6.951
18614TIP3    H255720   9.113   3.476   6.893
18615TIP3   OH255721   9.023   3.262   6.696
18615TIP3    H155722   9.091   3.312   6.744
18615TIP3    H255723   9.080   3.198   6.648
18616TIP3   OH255724   9.954   3.713   7.554
18616TIP3    H155725   9.875   3.770   7.565
18616TIP3    H255726   9.992   3.749   7.471
18617TIP3   OH255727   9.409   3.560   6.951
18617TIP3    H155728   9.356   3.585   7.030
18617TIP3    H255729   9.493   3.533   6.994
18618TIP3   OH255730   9.555   3.609   7.878
18618TIP3    H155731   9.644   3.638   7.905
18618TIP3    H255732   9.565   3.611   7.782
18619TIP3   OH255733   8.643   3.560   7.368
18619TIP3    H155734   8.602   3.502   7.300
18619TIP3    H255735   8.720   3.507   7.396
18620TIP3   OH255736   8.771   3.967   7.517
18620TIP3    H155737   8.753   3.925   7.432
18620TIP3    H255738   8.862   3.937   7.536
18621TIP3   OH255739   8.777   3.531   7.720
18621TIP3    H155740   8.813   3.509   7.632
18621TIP3    H255741   8.824   3.615   7.742
18622TIP3   OH255742   9.304   4.169   7.497
18622TIP3    H155743   9.290   4.248   7.551
18622TIP3    H255744   9.291   4.095   7.561
18623TIP3   OH255745   8.916   4.088   8.045
18623TIP3    H155746   8.856   4.150   8.091
18623TIP3    H255747   8.851   4.033   7.997
18624TIP3   OH255748   9.251   3.420   6.774
18624TIP3    H155749   9.311   3.477   6.828
18624TIP3    H255750   9.278   3.446   6.683
18625TIP3   OH255751   8.671   3.645   8.142
18625TIP3    H155752   8.676   3.729   8.192
18625TIP3    H255753   8.576   3.626   8.151
18626TIP3   OH255754   8.991   4.103   7.052
18626TIP3    H155755   9.072   4.154   7.071
18626TIP3    H255756   8.933   4.169   7.013
18627TIP3   OH255757   8.711   4.258   8.130
18627TIP3    H155758   8.677   4.254   8.039
18627TIP3    H255759   8.632   4.236   8.184
18628TIP3   OH255760   9.775   2.680   6.854
18628TIP3    H155761   9.683   2.695   6.883
18628TIP3    H255762   9.782   2.740   6.777
18629TIP3   OH255763   8.508   3.402   7.174
18629TIP3    H155764   8.444   3.446   7.114
18629TIP3    H255765   8.469   3.315   7.183
18630TIP3   OH255766   9.566   4.031   6.375
18630TIP3    H155767   9.575   4.127   6.358
18630TIP3    H255768   9.657   4.000   6.353
18631TIP3   OH255769   8.288   3.785   8.079
18631TIP3    H155770   8.231   3.758   8.005
18631TIP3    H255771   8.329   3.700   8.107
18632TIP3   OH255772   8.145   3.977   7.716
18632TIP3    H155773   8.240   3.966   7.699
18632TIP3    H255774   8.145   4.059   7.768
18633TIP3   OH255775   9.991   4.455   7.738
18633TIP3    H155776  10.050   4.386   7.774
18633TIP3    H255777   9.915   4.449   7.799
18634TIP3   OH255778   9.116   4.217   7.901
18634TIP3    H155779   9.115   4.309   7.934
18634TIP3    H255780   9.045   4.177   7.956
18635TIP3   OH255781   8.870   4.343   6.855
18635TIP3    H155782   8.831   4.327   6.767
18635TIP3    H255783   8.844   4.435   6.874
18636TIP3   OH255784   8.312   4.195   7.236
18636TIP3    H155785   8.362   4.185   7.320
18636TIP3    H255786   8.255   4.116   7.241
18637TIP3   OH255787   9.077   4.243   6.494
18637TIP3    H155788   9.137   4.175   6.457
18637TIP3    H255789   9.113   4.254   6.585
18638TIP3   OH255790   9.125   4.294   6.765
18638TIP3    H155791   9.038   4.301   6.811
18638TIP3    H255792   9.180   4.255   6.834
18639TIP3   OH255793   8.495   3.969   8.069
18639TIP3    H155794   8.547   3.951   8.150
18639TIP3    H255795   8.422   3.904   8.078
18640TIP3   OH255796   8.893   2.802   7.840
18640TIP3    H155797   8.803   2.769   7.819
18640TIP3    H255798   8.869   2.880   7.894
18641TIP3   OH255799   9.326   3.473   6.517
18641TIP3    H155800   9.297   3.439   6.430
18641TIP3    H255801   9.411   3.513   6.492
18642TIP3   OH255802   9.038   2.844   6.820
18642TIP3    H155803   9.009   2.842   6.913
18642TIP3    H255804   9.004   2.758   6.789
18643TIP3   OH255805   8.827   3.307   7.867
18643TIP3    H155806   8.779   3.328   7.950
18643TIP3    H255807   8.810   3.388   7.814
18644TIP3   OH255808   8.710   3.194   7.383
18644TIP3    H155809   8.618   3.167   7.399
18644TIP3    H255810   8.725   3.153   7.295
18645TIP3   OH255811   9.201   3.279   7.109
18645TIP3    H155812   9.148   3.351   7.068
18645TIP3    H255813   9.257   3.251   7.034
18646TIP3   OH255814   9.359   3.312   7.349
18646TIP3    H155815   9.300   3.339   7.277
18646TIP3    H255816   9.390   3.227   7.311
18647TIP3   OH255817   8.645   3.339   8.079
18647TIP3    H155818   8.675   3.401   8.147
18647TIP3    H255819   8.638   3.255   8.129
18648TIP3   OH255820   8.694   2.812   6.788
18648TIP3    H155821   8.690   2.810   6.885
18648TIP3    H255822   8.615   2.865   6.767
18649TIP3   OH255823   8.239   2.861   7.659
18649TIP3    H155824   8.315   2.891   7.712
18649TIP3    H255825   8.280   2.826   7.578
18650TIP3   OH255826   8.214   2.839   7.178
18650TIP3    H155827   8.260   2.878   7.101
18650TIP3    H255828   8.154   2.913   7.200
18651TIP3   OH255829   9.313   3.537   7.777
18651TIP3    H155830   9.361   3.474   7.719
18651TIP3    H255831   9.390   3.568   7.833
18652TIP3   OH255832   9.035   3.019   7.445
18652TIP3    H155833   8.955   3.013   7.501
18652TIP3    H255834   9.106   3.012   7.512
18653TIP3   OH255835   8.472   3.070   7.454
18653TIP3    H155836   8.378   3.075   7.427
18653TIP3    H255837   8.498   2.980   7.430
18654TIP3   OH255838   8.743   3.069   7.141
18654TIP3    H155839   8.839   3.082   7.123
18654TIP3    H255840   8.700   3.093   7.056
18655TIP3   OH255841   9.495   3.103   7.632
18655TIP3    H155842   9.495   3.083   7.727
18655TIP3    H255843   9.438   3.033   7.596
18656TIP3   OH255844   8.579   3.102   6.919
18656TIP3    H155845   8.508   3.058   6.869
18656TIP3    H255846   8.633   3.138   6.846
18657TIP3   OH255847   9.696   4.781   7.862
18657TIP3    H155848   9.696   4.803   7.766
18657TIP3    H255849   9.771   4.835   7.894
18658TIP3   OH255850   8.654   3.892   8.285
18658TIP3    H155851   8.734   3.925   8.331
18658TIP3    H255852   8.592   3.887   8.360
18659TIP3   OH255853   9.120   3.344   7.539
18659TIP3    H155854   9.194   3.303   7.491
18659TIP3    H255855   9.130   3.306   7.628
18660TIP3   OH255856   8.644   2.834   7.417
18660TIP3    H155857   8.615   2.752   7.463
18660TIP3    H255858   8.703   2.799   7.349
18661TIP3   OH255859   9.096   3.247   7.813
18661TIP3    H155860   9.003   3.274   7.829
18661TIP3    H255861   9.143   3.294   7.883
18662TIP3   OH255862   8.833   3.633   6.925
18662TIP3    H155863   8.761   3.567   6.916
18662TIP3    H255864   8.818   3.666   7.017
18663TIP3   OH255865   9.731   3.871   7.555
18663TIP3    H155866   9.755   3.917   7.472
18663TIP3    H255867   9.646   3.827   7.532
18664TIP3   OH255868   9.294   2.944   6.790
18664TIP3    H155869   9.196   2.932   6.794
18664TIP3    H255870   9.306   3.039   6.809
18665TIP3   OH255871   9.233   3.947   7.925
18665TIP3    H155872   9.258   3.924   8.015
18665TIP3    H255873   9.197   4.037   7.933
18666TIP3   OH255874   9.365   3.192   6.890
18666TIP3    H155875   9.461   3.197   6.903
18666TIP3    H255876   9.348   3.269   6.833
18667TIP3   OH255877   8.524   3.650   7.604
18667TIP3    H155878   8.563   3.625   7.518
18667TIP3    H255879   8.569   3.589   7.664
18668TIP3   OH255880   8.979   3.780   6.744
18668TIP3    H155881   8.933   3.867   6.753
18668TIP3    H255882   8.927   3.725   6.806
18669TIP3   OH255883   8.405   3.578   8.217
18669TIP3    H155884   8.434   3.568   8.310
18669TIP3    H255885   8.341   3.505   8.208
18670TIP3   OH255886   9.118   3.700   8.227
18670TIP3    H155887   9.070   3.625   8.188
18670TIP3    H255888   9.210   3.674   8.218
18671TIP3   OH255889   9.394   4.205   7.822
18671TIP3    H155890   9.298   4.207   7.831
18671TIP3    H255891   9.421   4.261   7.898
18672TIP3   OH255892   9.797   3.273   6.739
18672TIP3    H155893   9.740   3.227   6.674
18672TIP3    H255894   9.817   3.350   6.683
18673TIP3   OH255895  10.007   4.133   7.803
18673TIP3    H155896   9.911   4.125   7.787
18673TIP3    H255897  10.042   4.111   7.715
18674TIP3   OH255898   9.499   4.100   6.636
18674TIP3    H155899   9.484   4.025   6.695
18674TIP3    H255900   9.518   4.056   6.550
18675TIP3   OH255901   9.498   3.726   7.483
18675TIP3    H155902   9.404   3.701   7.488
18675TIP3    H255903   9.535   3.648   7.437
18676TIP3   OH255904   8.627   3.956   7.230
18676TIP3    H155905   8.633   4.037   7.176
18676TIP3    H255906   8.532   3.943   7.233
18677TIP3   OH255907   8.189   3.262   6.928
18677TIP3    H155908   8.237   3.344   6.949
18677TIP3    H255909   8.113   3.268   6.990
18678TIP3   OH255910   8.767   3.723   7.173
18678TIP3    H155911   8.734   3.813   7.191
18678TIP3    H255912   8.732   3.673   7.249
18679TIP3   OH255913   8.895   4.301   7.698
18679TIP3    H155914   8.936   4.373   7.646
18679TIP3    H255915   8.973   4.267   7.745
18680TIP3   OH255916   8.548   4.196   7.081
18680TIP3    H155917   8.462   4.205   7.126
18680TIP3    H255918   8.581   4.288   7.084
18681TIP3   OH255919   9.287   3.936   7.655
18681TIP3    H155920   9.279   3.932   7.753
18681TIP3    H255921   9.367   3.884   7.640
18682TIP3   OH255922   9.256   3.827   6.542
18682TIP3    H155923   9.312   3.803   6.619
18682TIP3    H255924   9.169   3.800   6.576
18683TIP3   OH255925   9.534   4.471   7.706
18683TIP3    H155926   9.454   4.416   7.694
18683TIP3    H255927   9.522   4.537   7.634
18684TIP3   OH255928   9.599   4.306   6.359
18684TIP3    H155929   9.636   4.378   6.306
18684TIP3    H255930   9.518   4.350   6.392
18685TIP3   OH255931   8.615   3.081   8.220
18685TIP3    H155932   8.520   3.097   8.237
18685TIP3    H255933   8.629   2.996   8.265
18686TIP3   OH255934   9.416   3.767   6.762
18686TIP3    H155935   9.409   3.695   6.827
18686TIP3    H255936   9.513   3.762   6.742
18687TIP3   OH255937   8.331   4.165   7.861
18687TIP3    H155938   8.386   4.089   7.886
18687TIP3    H255939   8.368   4.233   7.918
18688TIP3   OH255940   8.623   3.809   6.537
18688TIP3    H155941   8.644   3.718   6.508
18688TIP3    H255942   8.607   3.795   6.633
18689TIP3   OH255943   8.571   3.812   6.812
18689TIP3    H155944   8.645   3.785   6.868
18689TIP3    H255945   8.576   3.910   6.817
18690TIP3   OH255946   8.307   3.506   7.012
18690TIP3    H155947   8.243   3.552   7.070
18690TIP3    H255948   8.325   3.576   6.947
18691TIP3   OH255949   9.428   3.181   7.929
18691TIP3    H155950   9.523   3.159   7.931
18691TIP3    H255951   9.393   3.091   7.938
18692TIP3   OH255952   9.330   2.898   7.068
18692TIP3    H155953   9.319   2.921   6.973
18692TIP3    H255954   9.371   2.979   7.104
18693TIP3   OH255955   8.834   4.010   6.758
18693TIP3    H155956   8.749   4.042   6.794
18693TIP3    H255957   8.857   4.082   6.698
18694TIP3   OH255958   9.024   3.074   7.172
18694TIP3    H155959   9.091   3.144   7.153
18694TIP3    H255960   9.031   3.067   7.269
18695TIP3   OH255961   9.322   3.386   8.062
18695TIP3    H155962   9.292   3.466   8.015
18695TIP3    H255963   9.348   3.329   7.985
18696TIP3   OH255964   9.172   2.803   7.275
18696TIP3    H155965   9.170   2.877   7.339
18696TIP3    H255966   9.230   2.841   7.205
18697TIP3   OH255967   8.576   4.086   6.825
18697TIP3    H155968   8.548   4.156   6.762
18697TIP3    H255969   8.563   4.131   6.911
18698TIP3   OH255970   8.681   2.799   7.064
18698TIP3    H155971   8.680   2.889   7.101
18698TIP3    H255972   8.777   2.779   7.073
18699TIP3   OH255973   9.584   3.491   7.349
18699TIP3    H155974   9.508   3.430   7.360
18699TIP3    H255975   9.657   3.439   7.388
18700TIP3   OH255976   8.297   3.721   6.819
18700TIP3    H155977   8.363   3.791   6.829
18700TIP3    H255978   8.344   3.665   6.752
18701TIP3   OH255979   8.244   2.992   6.953
18701TIP3    H155980   8.243   3.090   6.946
18701TIP3    H255981   8.160   2.969   6.911
18702TIP3   OH255982   9.555   4.440   7.299
18702TIP3    H155983   9.512   4.487   7.224
18702TIP3    H255984   9.649   4.461   7.280
18703TIP3   OH255985   8.627   2.715   7.828
18703TIP3    H155986   8.598   2.679   7.741
18703TIP3    H255987   8.621   2.636   7.886
18704TIP3   OH255988   8.173   3.933   7.212
18704TIP3    H155989   8.093   3.964   7.257
18704TIP3    H255990   8.158   3.969   7.122
18705TIP3   OH255991   8.325   4.469   8.280
18705TIP3    H155992   8.412   4.470   8.326
18705TIP3    H255993   8.309   4.373   8.276
18706TIP3   OH255994   8.809   4.438   8.323
18706TIP3    H155995   8.903   4.418   8.330
18706TIP3    H255996   8.784   4.381   8.248
18707TIP3   OH255997   8.789   4.013   6.451
18707TIP3    H155998   8.734   3.941   6.490
18707TIP3    H255999   8.865   3.962   6.420
18708TIP3   OH256000   9.443   4.345   8.058
18708TIP3    H156001   9.435   4.273   8.124
18708TIP3    H256002   9.524   4.392   8.087
18709TIP3   OH256003   9.224   4.053   6.361
18709TIP3    H156004   9.272   3.991   6.418
18709TIP3    H256005   9.281   4.056   6.281
18710TIP3   OH256006   8.456   3.881   8.477
18710TIP3    H156007   8.478   3.786   8.488
18710TIP3    H256008   8.368   3.877   8.435
18711TIP3   OH256009   8.432   3.530   6.671
18711TIP3    H156010   8.488   3.496   6.744
18711TIP3    H256011   8.499   3.535   6.600
18712TIP3   OH256012   9.065   3.968   8.252
18712TIP3    H156013   9.024   3.982   8.165
18712TIP3    H256014   9.093   3.873   8.246
18713TIP3   OH256015   8.933   3.725   6.477
18713TIP3    H156016   8.943   3.740   6.573
18713TIP3    H256017   8.937   3.627   6.474
18714TIP3   OH256018   9.553   3.969   7.862
18714TIP3    H156019   9.625   4.010   7.811
18714TIP3    H256020   9.482   4.034   7.847
18715TIP3   OH256021   8.573   3.614   8.456
18715TIP3    H156022   8.630   3.535   8.457
18715TIP3    H256023   8.591   3.645   8.547
18716TIP3   OH256024   8.640   3.432   6.893
18716TIP3    H156025   8.619   3.389   6.977
18716TIP3    H256026   8.678   3.358   6.841
18717TIP3   OH256027   8.913   3.498   8.122
18717TIP3    H156028   8.836   3.558   8.129
18717TIP3    H256029   8.958   3.530   8.041
18718TIP3   OH256030   8.742   3.225   6.736
18718TIP3    H156031   8.716   3.225   6.641
18718TIP3    H256032   8.840   3.232   6.728
18719TIP3   OH256033   9.415   3.869   8.227
18719TIP3    H156034   9.503   3.881   8.190
18719TIP3    H256035   9.434   3.880   8.323
18720TIP3   OH256036   9.563   3.550   6.380
18720TIP3    H156037   9.610   3.512   6.303
18720TIP3    H256038   9.533   3.636   6.342
18721TIP3   OH256039   9.017   3.278   8.253
18721TIP3    H156040   9.029   3.210   8.183
18721TIP3    H256041   8.990   3.355   8.199
18722TIP3   OH256042   9.034   3.100   8.045
18722TIP3    H156043   9.054   3.119   7.951
18722TIP3    H256044   8.945   3.059   8.037
18723TIP3   OH256045   9.078   3.599   7.924
18723TIP3    H156046   9.153   3.598   7.861
18723TIP3    H256047   9.023   3.672   7.887
18724TIP3   OH256048   9.701   3.850   8.055
18724TIP3    H156049   9.632   3.884   7.993
18724TIP3    H256050   9.760   3.807   7.990
18725TIP3   OH256051   8.918   3.404   8.477
18725TIP3    H156052   8.831   3.361   8.487
18725TIP3    H256053   8.947   3.372   8.389
18726TIP3   OH256054   9.078   2.865   8.187
18726TIP3    H156055   9.107   2.926   8.119
18726TIP3    H256056   9.139   2.788   8.166
18727TIP3   OH256057   8.741   3.179   8.497
18727TIP3    H156058   8.786   3.118   8.437
18727TIP3    H256059   8.770   3.148   8.584
18728TIP3   OH256060   8.548   4.287   6.637
18728TIP3    H156061   8.644   4.285   6.620
18728TIP3    H256062   8.519   4.337   6.558
18729TIP3   OH256063   8.029   3.670   6.856
18729TIP3    H156064   8.124   3.693   6.842
18729TIP3    H256065   8.025   3.581   6.814
18730TIP3   OH256066   7.937   4.283   7.270
18730TIP3    H156067   7.873   4.218   7.234
18730TIP3    H256068   7.985   4.227   7.335
18731TIP3   OH256069   8.076   4.139   7.455
18731TIP3    H156070   8.071   4.061   7.512
18731TIP3    H256071   8.132   4.197   7.510
18732TIP3   OH256072   9.806   4.532   7.254
18732TIP3    H156073   9.833   4.572   7.339
18732TIP3    H256074   9.863   4.580   7.192
18733TIP3   OH256075   9.830   4.555   7.535
18733TIP3    H156076   9.792   4.465   7.524
18733TIP3    H256077   9.903   4.532   7.596
18734TIP3   OH256078   9.691   3.748   6.728
18734TIP3    H156079   9.761   3.813   6.704
18734TIP3    H256080   9.734   3.704   6.804
18735TIP3   OH256081   9.813   3.613   6.930
18735TIP3    H156082   9.747   3.567   6.987
18735TIP3    H256083   9.875   3.650   6.995
18736TIP3   OH256084   9.880   4.000   7.364
18736TIP3    H156085   9.927   3.945   7.299
18736TIP3    H256086   9.869   4.083   7.313
18737TIP3   OH256087   9.711   4.301   7.559
18737TIP3    H156088   9.642   4.348   7.610
18737TIP3    H256089   9.658   4.254   7.491
18738TIP3   OH256090   9.766   3.524   6.575
18738TIP3    H156091   9.691   3.515   6.512
18738TIP3    H256092   9.734   3.599   6.629
18739TIP3   OH256093   9.620   3.199   6.543
18739TIP3    H156094   9.629   3.237   6.454
18739TIP3    H256095   9.598   3.105   6.523
18740TIP3   OH256096   9.639   3.467   7.081
18740TIP3    H156097   9.648   3.370   7.073
18740TIP3    H256098   9.625   3.480   7.177
18741TIP3   OH256099   8.267   3.545   7.826
18741TIP3    H156100   8.267   3.514   7.733
18741TIP3    H256101   8.364   3.545   7.844
18742TIP3   OH256102   9.576   2.929   6.526
18742TIP3    H156103   9.654   2.895   6.573
18742TIP3    H256104   9.506   2.866   6.550
18743TIP3   OH256105   9.638   3.188   6.975
18743TIP3    H156106   9.677   3.099   6.989
18743TIP3    H256107   9.693   3.219   6.900
18744TIP3   OH256108   9.803   3.346   7.434
18744TIP3    H156109   9.892   3.373   7.405
18744TIP3    H256110   9.799   3.396   7.519
18745TIP3   OH256111   9.814   3.494   7.652
18745TIP3    H156112   9.793   3.497   7.747
18745TIP3    H256113   9.871   3.572   7.636
18746TIP3   OH256114   8.469   3.219   8.487
18746TIP3    H156115   8.567   3.229   8.492
18746TIP3    H256116   8.456   3.143   8.547
18747TIP3   OH256117   9.736   2.936   7.021
18747TIP3    H156118   9.773   2.920   7.110
18747TIP3    H256119   9.679   2.857   7.010
18748TIP3   OH256120   8.444   2.922   7.836
18748TIP3    H156121   8.506   2.847   7.844
18748TIP3    H256122   8.507   2.996   7.828
18749TIP3   OH256123   8.249   3.196   7.905
18749TIP3    H156124   8.298   3.185   7.822
18749TIP3    H256125   8.282   3.281   7.936
18750TIP3   OH256126   9.826   2.856   6.638
18750TIP3    H156127   9.871   2.772   6.615
18750TIP3    H256128   9.878   2.918   6.582
18751TIP3   OH256129   8.231   2.699   7.408
18751TIP3    H156130   8.137   2.698   7.431
18751TIP3    H256131   8.231   2.757   7.328
18752TIP3   OH256132   9.389   4.400   6.912
18752TIP3    H156133   9.441   4.384   6.830
18752TIP3    H256134   9.443   4.468   6.956
18753TIP3   OH256135   8.427   2.774   8.222
18753TIP3    H156136   8.379   2.775   8.307
18753TIP3    H256137   8.361   2.815   8.163
18754TIP3   OH256138   8.493   4.207   8.299
18754TIP3    H156139   8.403   4.174   8.280
18754TIP3    H256140   8.503   4.184   8.393
18755TIP3   OH256141   8.668   4.235   7.845
18755TIP3    H156142   8.622   4.313   7.806
18755TIP3    H256143   8.755   4.247   7.802
18756TIP3   OH256144   9.117   4.482   7.986
18756TIP3    H156145   9.160   4.485   8.074
18756TIP3    H256146   9.182   4.531   7.932
18757TIP3   OH256147   9.294   4.631   7.841
18757TIP3    H156148   9.365   4.583   7.796
18757TIP3    H256149   9.346   4.691   7.899
18758TIP3   OH256150   8.345   4.492   7.869
18758TIP3    H156151   8.258   4.529   7.846
18758TIP3    H256152   8.358   4.530   7.957
18759TIP3   OH256153   8.582   4.471   7.726
18759TIP3    H156154   8.496   4.486   7.770
18759TIP3    H256155   8.564   4.506   7.636
18760TIP3   OH256156   9.008   4.502   7.525
18760TIP3    H156157   8.942   4.525   7.456
18760TIP3    H256158   9.023   4.590   7.567
18761TIP3   OH256159   9.277   4.442   7.576
18761TIP3    H156160   9.183   4.460   7.555
18761TIP3    H256161   9.322   4.517   7.533
18762TIP3   OH256162   9.481   4.632   7.491
18762TIP3    H156163   9.470   4.718   7.445
18762TIP3    H256164   9.510   4.575   7.417
18763TIP3   OH256165   8.256   4.287   7.615
18763TIP3    H156166   8.286   4.265   7.706
18763TIP3    H256167   8.329   4.245   7.564
18764TIP3   OH256168   8.450   4.160   7.470
18764TIP3    H156169   8.468   4.075   7.517
18764TIP3    H256170   8.540   4.198   7.465
18765TIP3   OH256171   8.714   4.255   7.473
18765TIP3    H156172   8.749   4.166   7.458
18765TIP3    H256173   8.759   4.277   7.557
18766TIP3   OH256174   9.289   2.910   7.555
18766TIP3    H156175   9.244   2.843   7.610
18766TIP3    H256176   9.363   2.858   7.517
18767TIP3   OH256177   9.803   2.792   7.479
18767TIP3    H156178   9.849   2.847   7.412
18767TIP3    H256179   9.711   2.818   7.465
18768TIP3   OH256180   9.899   2.897   7.248
18768TIP3    H156181   9.963   2.852   7.190
18768TIP3    H256182   9.924   2.991   7.233
18769TIP3   OH256183   8.542   2.620   7.579
18769TIP3    H156184   8.450   2.586   7.578
18769TIP3    H256185   8.593   2.536   7.574
18770TIP3   OH256186   8.325   2.488   7.223
18770TIP3    H156187   8.359   2.546   7.153
18770TIP3    H256188   8.299   2.553   7.291
18771TIP3   OH256189   8.982   2.655   7.460
18771TIP3    H156190   9.041   2.706   7.401
18771TIP3    H256191   9.016   2.683   7.547
18772TIP3   OH256192   9.522   2.783   7.451
18772TIP3    H156193   9.529   2.773   7.355
18772TIP3    H256194   9.551   2.696   7.481
18773TIP3   OH256195   9.552   2.725   7.008
18773TIP3    H156196   9.464   2.766   7.019
18773TIP3    H256197   9.537   2.638   7.051
18774TIP3   OH256198   8.044   4.058   7.009
18774TIP3    H156199   7.960   4.026   6.971
18774TIP3    H256200   8.035   4.153   6.990
18775TIP3   OH256201   8.445   2.650   6.989
18775TIP3    H156202   8.494   2.587   6.933
18775TIP3    H256203   8.518   2.704   7.026
18776TIP3   OH256204   8.958   2.823   7.088
18776TIP3    H156205   9.019   2.777   7.148
18776TIP3    H256206   8.980   2.916   7.113
18777TIP3   OH256207   8.817   4.251   6.588
18777TIP3    H156208   8.906   4.272   6.552
18777TIP3    H256209   8.796   4.175   6.529
18778TIP3   OH256210   9.534   4.366   6.680
18778TIP3    H156211   9.525   4.268   6.665
18778TIP3    H256212   9.492   4.400   6.598
18779TIP3   OH256213   8.121   4.084   6.646
18779TIP3    H156214   8.125   4.115   6.737
18779TIP3    H256215   8.210   4.044   6.633
18780TIP3   OH256216   9.749   4.509   7.880
18780TIP3    H156217   9.675   4.484   7.820
18780TIP3    H256218   9.746   4.606   7.873
18781TIP3   OH256219   9.981   3.389   6.913
18781TIP3    H156220   9.921   3.466   6.908
18781TIP3    H256221   9.933   3.326   6.856
18782TIP3   OH256222  10.044   3.677   7.063
18782TIP3    H156223  10.112   3.615   7.092
18782TIP3    H256224  10.071   3.684   6.970
18783TIP3   OH256225   9.896   3.918   6.651
18783TIP3    H156226   9.887   3.918   6.555
18783TIP3    H256227   9.928   4.009   6.669
18784TIP3   OH256228  10.084   4.012   7.559
18784TIP3    H156229  10.011   4.002   7.494
18784TIP3    H256230  10.126   3.923   7.556
18785TIP3   OH256231   9.945   4.233   7.207
18785TIP3    H156232  10.040   4.242   7.193
18785TIP3    H256233   9.925   4.317   7.250
18786TIP3   OH256234  10.079   4.454   6.740
18786TIP3    H156235  10.134   4.450   6.821
18786TIP3    H256236  10.029   4.372   6.747
18787TIP3   OH256237  10.231   4.241   7.573
18787TIP3    H156238  10.272   4.211   7.654
18787TIP3    H256239  10.159   4.174   7.564
18788TIP3   OH256240  10.010   3.132   7.169
18788TIP3    H156241  10.098   3.169   7.182
18788TIP3    H256242   9.994   3.155   7.076
18789TIP3   OH256243   9.969   3.612   6.404
18789TIP3    H156244  10.040   3.578   6.462
18789TIP3    H256245   9.889   3.576   6.449
18790TIP3   OH256246  10.128   4.425   7.347
18790TIP3    H156247  10.167   4.352   7.398
18790TIP3    H256248  10.150   4.502   7.401
18791TIP3   OH256249   9.964   4.186   6.699
18791TIP3    H156250   9.883   4.215   6.743
18791TIP3    H256251   9.952   4.228   6.611
18792TIP3   OH256252  10.099   4.710   7.760
18792TIP3    H156253  10.189   4.691   7.788
18792TIP3    H256254  10.064   4.619   7.748
18793TIP3   OH256255   9.819   3.924   6.321
18793TIP3    H156256   9.916   3.916   6.334
18793TIP3    H256257   9.796   3.833   6.295
18794TIP3   OH256258   9.736   4.539   6.755
18794TIP3    H156259   9.670   4.476   6.721
18794TIP3    H256260   9.783   4.483   6.821
18795TIP3   OH256261   9.870   4.391   6.945
18795TIP3    H156262   9.860   4.318   7.006
18795TIP3    H256263   9.924   4.453   6.998
18796TIP3   OH256264  10.079   3.794   7.310
18796TIP3    H156265  10.061   3.768   7.217
18796TIP3    H256266  10.169   3.830   7.302
18797TIP3   OH256267  10.046   3.460   7.372
18797TIP3    H156268  10.065   3.475   7.279
18797TIP3    H256269  10.051   3.549   7.410
18798TIP3   OH256270   9.978   3.003   6.877
18798TIP3    H156271   9.883   2.985   6.874
18798TIP3    H256272   9.997   3.023   6.785
18799TIP3   OH256273  10.135   4.742   7.360
18799TIP3    H156274  10.052   4.782   7.328
18799TIP3    H256275  10.142   4.787   7.446
18800TIP3   OH256276  10.385   4.730   7.225
18800TIP3    H156277  10.294   4.737   7.259
18800TIP3    H256278  10.375   4.765   7.134
18801TIP3   OH256279  10.053   4.542   7.097
18801TIP3    H156280  10.081   4.523   7.190
18801TIP3    H256281  10.132   4.509   7.050
18802TIP3   OH256282  10.259   4.432   6.946
18802TIP3    H156283  10.283   4.338   6.951
18802TIP3    H256284  10.347   4.474   6.955
18803TIP3   OH256285   9.842   4.313   6.493
18803TIP3    H156286   9.756   4.283   6.457
18803TIP3    H256287   9.832   4.408   6.483
18804TIP3   OH256288   9.942   4.361   6.143
18804TIP3    H156289   9.907   4.382   6.231
18804TIP3    H256290   9.995   4.282   6.161
18805TIP3   OH256291   1.683   4.413   8.838
18805TIP3    H156292   1.657   4.506   8.818
18805TIP3    H256293   1.607   4.367   8.799
18806TIP3   OH256294   1.682   4.419   9.167
18806TIP3    H156295   1.660   4.394   9.259
18806TIP3    H256296   1.647   4.345   9.116
18807TIP3   OH256297   1.928   4.715   8.896
18807TIP3    H156298   1.910   4.646   8.961
18807TIP3    H256299   1.956   4.790   8.951
18808TIP3   OH256300   1.572   5.181   8.908
18808TIP3    H156301   1.623   5.108   8.868
18808TIP3    H256302   1.558   5.151   8.999
18809TIP3   OH256303   1.515   4.637   9.180
18809TIP3    H156304   1.584   4.568   9.168
18809TIP3    H256305   1.512   4.650   9.277
18810TIP3   OH256306   2.493   3.940   9.253
18810TIP3    H156307   2.495   4.019   9.307
18810TIP3    H256308   2.519   3.975   9.166
18811TIP3   OH256309   1.928   3.884   8.890
18811TIP3    H156310   2.003   3.874   8.953
18811TIP3    H256311   1.973   3.928   8.816
18812TIP3   OH256312   1.579   4.636   8.708
18812TIP3    H156313   1.536   4.613   8.624
18812TIP3    H256314   1.536   4.721   8.728
18813TIP3   OH256315   2.146   3.893   9.058
18813TIP3    H156316   2.144   3.868   9.152
18813TIP3    H256317   2.198   3.974   9.064
18814TIP3   OH256318   0.621   4.479   8.778
18814TIP3    H156319   0.534   4.489   8.736
18814TIP3    H256320   0.604   4.508   8.868
18815TIP3   OH256321   2.003   4.957   9.067
18815TIP3    H156322   1.916   4.950   9.113
18815TIP3    H256323   1.993   5.041   9.019
18816TIP3   OH256324   1.708   5.007   8.751
18816TIP3    H156325   1.754   4.924   8.722
18816TIP3    H256326   1.764   5.073   8.703
18817TIP3   OH256327   1.842   4.792   8.645
18817TIP3    H156328   1.807   4.713   8.602
18817TIP3    H256329   1.878   4.755   8.728
18818TIP3   OH256330   2.223   4.880   9.399
18818TIP3    H156331   2.207   4.806   9.338
18818TIP3    H256332   2.204   4.957   9.341
18819TIP3   OH256333   1.515   4.267   8.666
18819TIP3    H156334   1.434   4.317   8.644
18819TIP3    H256335   1.561   4.265   8.580
18820TIP3   OH256336   1.476   4.048   8.389
18820TIP3    H156337   1.545   4.101   8.433
18820TIP3    H256338   1.533   3.986   8.339
18821TIP3   OH256339   2.435   4.515   9.252
18821TIP3    H156340   2.343   4.547   9.262
18821TIP3    H256341   2.452   4.538   9.158
18822TIP3   OH256342   1.863   4.348   8.641
18822TIP3    H156343   1.808   4.374   8.718
18822TIP3    H256344   1.946   4.322   8.685
18823TIP3   OH256345   1.092   4.334   9.042
18823TIP3    H156346   1.046   4.282   8.973
18823TIP3    H256347   1.158   4.270   9.072
18824TIP3   OH256348   1.272   4.793   9.139
18824TIP3    H156349   1.233   4.724   9.083
18824TIP3    H256350   1.357   4.750   9.165
18825TIP3   OH256351   1.773   4.953   9.207
18825TIP3    H156352   1.732   5.038   9.231
18825TIP3    H256353   1.730   4.888   9.265
18826TIP3   OH256354   1.705   4.205   8.466
18826TIP3    H156355   1.764   4.265   8.518
18826TIP3    H256356   1.731   4.231   8.373
18827TIP3   OH256357   1.448   4.887   8.735
18827TIP3    H156358   1.521   4.944   8.765
18827TIP3    H256359   1.382   4.949   8.704
18828TIP3   OH256360   2.221   3.449   8.514
18828TIP3    H156361   2.139   3.471   8.564
18828TIP3    H256362   2.235   3.531   8.463
18829TIP3   OH256363   0.967   4.185   8.848
18829TIP3    H156364   0.897   4.224   8.791
18829TIP3    H256365   0.915   4.123   8.901
18830TIP3   OH256366   2.018   4.817   8.063
18830TIP3    H156367   2.027   4.914   8.047
18830TIP3    H256368   2.111   4.787   8.050
18831TIP3   OH256369   2.452   5.245   9.438
18831TIP3    H156370   2.461   5.147   9.433
18831TIP3    H256371   2.363   5.252   9.474
18832TIP3   OH256372   1.326   5.134   8.542
18832TIP3    H156373   1.281   5.114   8.458
18832TIP3    H256374   1.294   5.224   8.563
18833TIP3   OH256375   0.796   4.975   8.867
18833TIP3    H156376   0.819   4.961   8.961
18833TIP3    H256377   0.710   4.932   8.856
18834TIP3   OH256378   1.530   5.033   8.184
18834TIP3    H156379   1.589   4.964   8.147
18834TIP3    H256380   1.565   5.042   8.275
18835TIP3   OH256381   1.579   5.083   8.455
18835TIP3    H156382   1.491   5.091   8.498
18835TIP3    H256383   1.629   5.037   8.524
18836TIP3   OH256384   1.781   4.258   8.212
18836TIP3    H156385   1.748   4.230   8.124
18836TIP3    H256386   1.863   4.304   8.185
18837TIP3   OH256387   1.495   3.628   8.511
18837TIP3    H156388   1.461   3.627   8.602
18837TIP3    H256389   1.453   3.547   8.476
18838TIP3   OH256390   1.125   3.990   9.048
18838TIP3    H156391   1.073   3.914   9.076
18838TIP3    H256392   1.160   3.954   8.964
18839TIP3   OH256393   1.651   4.066   8.795
18839TIP3    H156394   1.599   4.140   8.756
18839TIP3    H256395   1.709   4.042   8.720
18840TIP3   OH256396   1.824   4.109   9.027
18840TIP3    H156397   1.755   4.131   8.963
18840TIP3    H256398   1.846   4.019   8.998
18841TIP3   OH256399   1.150   3.602   8.479
18841TIP3    H156400   1.140   3.598   8.576
18841TIP3    H256401   1.069   3.651   8.454
18842TIP3   OH256402   0.669   3.633   8.863
18842TIP3    H156403   0.711   3.675   8.785
18842TIP3    H256404   0.636   3.708   8.911
18843TIP3   OH256405   1.205   3.854   8.820
18843TIP3    H156406   1.293   3.877   8.788
18843TIP3    H256407   1.146   3.876   8.744
18844TIP3   OH256408   1.034   3.887   8.611
18844TIP3    H156409   0.960   3.844   8.565
18844TIP3    H256410   1.084   3.923   8.535
18845TIP3   OH256411   2.132   5.644   9.523
18845TIP3    H156412   2.139   5.621   9.428
18845TIP3    H256413   2.227   5.657   9.545
18846TIP3   OH256414   1.287   4.421   8.619
18846TIP3    H156415   1.215   4.355   8.608
18846TIP3    H256416   1.271   4.452   8.712
18847TIP3   OH256417   2.182   4.647   9.252
18847TIP3    H156418   2.217   4.695   9.173
18847TIP3    H256419   2.101   4.606   9.214
18848TIP3   OH256420   1.747   3.731   8.481
18848TIP3    H156421   1.650   3.717   8.483
18848TIP3    H256422   1.757   3.827   8.497
18849TIP3   OH256423   1.816   3.979   8.582
18849TIP3    H156424   1.913   3.986   8.595
18849TIP3    H256425   1.797   4.057   8.526
18850TIP3   OH256426   1.432   4.569   8.437
18850TIP3    H156427   1.386   4.655   8.445
18850TIP3    H256428   1.378   4.514   8.498
18851TIP3   OH256429   2.259   4.067   8.417
18851TIP3    H156430   2.195   4.023   8.357
18851TIP3    H256431   2.255   4.156   8.376
18852TIP3   OH256432   2.475   4.976   9.460
18852TIP3    H156433   2.386   4.937   9.460
18852TIP3    H256434   2.515   4.919   9.391
18853TIP3   OH256435   1.953   4.888   8.325
18853TIP3    H156436   1.934   4.815   8.386
18853TIP3    H256437   1.969   4.843   8.240
18854TIP3   OH256438   1.949   4.514   9.172
18854TIP3    H156439   1.855   4.489   9.165
18854TIP3    H256440   1.989   4.437   9.126
18855TIP3   OH256441   1.076   4.736   8.901
18855TIP3    H156442   1.093   4.822   8.858
18855TIP3    H256443   0.981   4.740   8.916
18856TIP3   OH256444   0.639   4.055   8.624
18856TIP3    H156445   0.710   4.123   8.629
18856TIP3    H256446   0.576   4.099   8.685
18857TIP3   OH256447   1.227   4.508   8.871
18857TIP3    H156448   1.185   4.596   8.880
18857TIP3    H256449   1.178   4.457   8.938
18858TIP3   OH256450   1.038   4.988   8.757
18858TIP3    H156451   0.946   4.990   8.793
18858TIP3    H256452   1.060   5.083   8.763
18859TIP3   OH256453   1.709   4.616   8.229
18859TIP3    H156454   1.763   4.591   8.307
18859TIP3    H256455   1.621   4.588   8.259
18860TIP3   OH256456   1.992   5.252   9.384
18860TIP3    H156457   1.900   5.222   9.389
18860TIP3    H256458   1.982   5.329   9.324
18861TIP3   OH256459   2.050   5.092   8.047
18861TIP3    H156460   2.092   5.166   7.998
18861TIP3    H256461   1.970   5.138   8.079
18862TIP3   OH256462   1.870   4.552   8.448
18862TIP3    H156463   1.861   4.483   8.516
18862TIP3    H256464   1.967   4.549   8.432
18863TIP3   OH256465   1.078   4.597   8.227
18863TIP3    H156466   1.093   4.506   8.197
18863TIP3    H256467   1.061   4.583   8.322
18864TIP3   OH256468   1.026   4.601   8.501
18864TIP3    H156469   1.096   4.574   8.562
18864TIP3    H256470   1.031   4.699   8.506
18865TIP3   OH256471   0.779   4.285   8.678
18865TIP3    H156472   0.717   4.337   8.735
18865TIP3    H256473   0.798   4.354   8.613
18866TIP3   OH256474   1.793   3.682   8.753
18866TIP3    H156475   1.774   3.707   8.661
18866TIP3    H256476   1.829   3.766   8.790
18867TIP3   OH256477   1.289   4.799   8.449
18867TIP3    H156478   1.202   4.828   8.483
18867TIP3    H256479   1.307   4.868   8.385
18868TIP3   OH256480   1.495   3.855   8.865
18868TIP3    H156481   1.555   3.925   8.829
18868TIP3    H256482   1.474   3.894   8.951
18869TIP3   OH256483   1.639   3.583   8.956
18869TIP3    H156484   1.635   3.654   9.022
18869TIP3    H256485   1.690   3.626   8.884
18870TIP3   OH256486   1.029   4.873   8.510
18870TIP3    H156487   1.000   4.944   8.449
18870TIP3    H256488   1.028   4.919   8.597
18871TIP3   OH256489   1.136   3.583   8.755
18871TIP3    H156490   1.130   3.673   8.792
18871TIP3    H256491   1.232   3.567   8.766
18872TIP3   OH256492   2.037   4.283   9.042
18872TIP3    H156493   1.959   4.223   9.051
18872TIP3    H256494   2.107   4.231   9.086
18873TIP3   OH256495   0.759   4.515   8.499
18873TIP3    H156496   0.832   4.578   8.512
18873TIP3    H256497   0.801   4.457   8.432
18874TIP3   OH256498   0.702   3.788   8.639
18874TIP3    H156499   0.691   3.885   8.638
18874TIP3    H256500   0.624   3.757   8.592
18875TIP3   OH256501   2.005   5.231   8.991
18875TIP3    H156502   1.963   5.278   8.915
18875TIP3    H256503   2.099   5.250   8.970
18876TIP3   OH256504   0.644   4.706   8.943
18876TIP3    H156505   0.574   4.752   8.892
18876TIP3    H256506   0.705   4.685   8.870
18877TIP3   OH256507   1.242   4.801   8.142
18877TIP3    H156508   1.186   4.730   8.180
18877TIP3    H256509   1.317   4.749   8.109
18878TIP3   OH256510   1.678   4.843   8.051
18878TIP3    H156511   1.724   4.780   8.109
18878TIP3    H256512   1.735   4.844   7.972
18879TIP3   OH256513   0.888   4.318   8.360
18879TIP3    H156514   0.942   4.283   8.433
18879TIP3    H256515   0.956   4.323   8.289
18880TIP3   OH256516   1.391   4.515   8.168
18880TIP3    H156517   1.395   4.528   8.265
18880TIP3    H256518   1.392   4.417   8.163
18881TIP3   OH256519   1.098   4.221   8.585
18881TIP3    H156520   1.064   4.183   8.669
18881TIP3    H256521   1.129   4.141   8.538
18882TIP3   OH256522   1.194   4.010   8.425
18882TIP3    H156523   1.166   4.014   8.331
18882TIP3    H256524   1.291   4.020   8.416
18883TIP3   OH256525   2.018   4.347   8.088
18883TIP3    H156526   2.003   4.296   8.005
18883TIP3    H256527   1.986   4.435   8.058
18884TIP3   OH256528   1.000   5.079   8.328
18884TIP3    H156529   1.096   5.074   8.309
18884TIP3    H256530   0.970   5.125   8.247
18885TIP3   OH256531   0.492   4.475   8.489
18885TIP3    H156532   0.587   4.487   8.514
18885TIP3    H256533   0.489   4.378   8.477
18886TIP3   OH256534   2.256   5.324   8.943
18886TIP3    H156535   2.289   5.360   9.027
18886TIP3    H256536   2.318   5.362   8.879
18887TIP3   OH256537   2.290   5.346   9.222
18887TIP3    H156538   2.247   5.258   9.216
18887TIP3    H256539   2.369   5.323   9.273
18888TIP3   OH256540   2.150   4.534   8.420
18888TIP3    H156541   2.219   4.598   8.391
18888TIP3    H256542   2.194   4.493   8.498
18889TIP3   OH256543   2.279   4.399   8.622
18889TIP3    H156544   2.213   4.357   8.681
18889TIP3    H256545   2.341   4.441   8.686
18890TIP3   OH256546   2.329   4.785   9.063
18890TIP3    H156547   2.383   4.726   9.007
18890TIP3    H256548   2.322   4.864   9.005
18891TIP3   OH256549   2.169   5.098   9.246
18891TIP3    H156550   2.098   5.144   9.297
18891TIP3    H256551   2.116   5.052   9.177
18892TIP3   OH256552   2.216   4.307   8.273
18892TIP3    H156553   2.146   4.309   8.204
18892TIP3    H256554   2.189   4.385   8.325
18893TIP3   OH256555   2.086   3.982   8.228
18893TIP3    H156556   2.065   4.024   8.144
18893TIP3    H256557   2.058   3.889   8.211
18894TIP3   OH256558   2.094   4.256   8.772
18894TIP3    H156559   2.100   4.159   8.767
18894TIP3    H256560   2.078   4.271   8.868
18895TIP3   OH256561   2.033   3.714   8.213
18895TIP3    H156562   2.106   3.683   8.270
18895TIP3    H256563   1.958   3.656   8.237
18896TIP3   OH256564   2.089   3.973   8.667
18896TIP3    H156565   2.130   3.885   8.681
18896TIP3    H256566   2.146   4.007   8.596
18897TIP3   OH256567   2.253   4.151   9.149
18897TIP3    H156568   2.343   4.179   9.118
18897TIP3    H256569   2.256   4.178   9.241
18898TIP3   OH256570   2.199   3.722   8.702
18898TIP3    H156571   2.247   3.707   8.785
18898TIP3    H256572   2.138   3.646   8.700
18899TIP3   OH256573   2.283   3.656   8.339
18899TIP3    H156574   2.321   3.586   8.281
18899TIP3    H256575   2.345   3.730   8.325
18900TIP3   OH256576   1.843   5.190   8.603
18900TIP3    H156577   1.891   5.170   8.520
18900TIP3    H256578   1.902   5.254   8.644
18901TIP3   OH256579   1.479   5.298   9.179
18901TIP3    H156580   1.397   5.296   9.127
18901TIP3    H256581   1.464   5.379   9.231
18902TIP3   OH256582   1.725   5.227   9.271
18902TIP3    H156583   1.634   5.247   9.241
18902TIP3    H256584   1.776   5.293   9.221
18903TIP3   OH256585   1.934   5.426   9.180
18903TIP3    H156586   1.919   5.509   9.130
18903TIP3    H256587   1.961   5.364   9.108
18904TIP3   OH256588   0.894   4.959   9.119
18904TIP3    H156589   0.920   4.879   9.171
18904TIP3    H256590   0.978   5.009   9.124
18905TIP3   OH256591   1.163   5.055   9.149
18905TIP3    H156592   1.212   4.971   9.136
18905TIP3    H256593   1.178   5.073   9.243
18906TIP3   OH256594   2.274   3.597   9.156
18906TIP3    H156595   2.315   3.640   9.077
18906TIP3    H256596   2.180   3.612   9.137
18907TIP3   OH256597   2.367   3.678   8.916
18907TIP3    H156598   2.442   3.631   8.873
18907TIP3    H256599   2.397   3.771   8.904
18908TIP3   OH256600   2.004   3.587   9.094
18908TIP3    H156601   1.980   3.583   9.000
18908TIP3    H256602   2.013   3.493   9.117
18909TIP3   OH256603   2.016   3.510   8.694
18909TIP3    H156604   1.929   3.555   8.699
18909TIP3    H256605   1.995   3.425   8.738
18910TIP3   OH256606   0.901   3.454   8.653
18910TIP3    H156607   0.953   3.382   8.614
18910TIP3    H256608   0.967   3.499   8.709
18911TIP3   OH256609   1.415   3.608   8.779
18911TIP3    H156610   1.477   3.565   8.839
18911TIP3    H256611   1.432   3.702   8.803
18912TIP3   OH256612   1.269   5.039   8.276
18912TIP3    H156613   1.358   5.060   8.241
18912TIP3    H256614   1.248   4.963   8.218
18913TIP3   OH256615   1.986   5.154   8.370
18913TIP3    H156616   1.979   5.056   8.356
18913TIP3    H256617   1.944   5.187   8.288
18914TIP3   OH256618   0.590   4.878   8.378
18914TIP3    H156619   0.609   4.973   8.392
18914TIP3    H256620   0.674   4.843   8.340
18915TIP3   OH256621   3.481   4.672   8.325
18915TIP3    H156622   3.454   4.764   8.304
18915TIP3    H256623   3.404   4.624   8.292
18916TIP3   OH256624   3.487   4.670   8.700
18916TIP3    H156625   3.509   4.638   8.789
18916TIP3    H256626   3.437   4.596   8.663
18917TIP3   OH256627   2.782   4.567   9.066
18917TIP3    H156628   2.815   4.506   9.133
18917TIP3    H256629   2.855   4.631   9.061
18918TIP3   OH256630   3.726   4.970   8.384
18918TIP3    H156631   3.706   4.903   8.451
18918TIP3    H256632   3.749   5.048   8.439
18919TIP3   OH256633   2.753   4.975   8.805
18919TIP3    H156634   2.743   4.878   8.803
18919TIP3    H256635   2.849   4.982   8.789
18920TIP3   OH256636   2.458   4.181   8.584
18920TIP3    H156637   2.409   4.264   8.595
18920TIP3    H256638   2.388   4.126   8.543
18921TIP3   OH256639   2.519   4.469   8.751
18921TIP3    H156640   2.569   4.392   8.787
18921TIP3    H256641   2.573   4.495   8.675
18922TIP3   OH256642   3.371   5.436   8.400
18922TIP3    H156643   3.423   5.366   8.355
18922TIP3    H256644   3.362   5.400   8.489
18923TIP3   OH256645   3.279   4.897   8.756
18923TIP3    H156646   3.311   4.825   8.699
18923TIP3    H256647   3.365   4.939   8.778
18924TIP3   OH256648   4.293   4.217   8.751
18924TIP3    H156649   4.319   4.300   8.796
18924TIP3    H256650   4.308   4.240   8.658
18925TIP3   OH256651   3.692   4.399   8.788
18925TIP3    H156652   3.733   4.312   8.805
18925TIP3    H256653   3.661   4.387   8.696
18926TIP3   OH256654   3.029   4.058   8.753
18926TIP3    H156655   3.007   4.131   8.690
18926TIP3    H256656   2.981   3.984   8.709
18927TIP3   OH256657   3.723   4.148   8.377
18927TIP3    H156658   3.798   4.133   8.439
18927TIP3    H256659   3.770   4.185   8.300
18928TIP3   OH256660   2.663   4.261   8.859
18928TIP3    H156661   2.746   4.239   8.905
18928TIP3    H256662   2.672   4.205   8.779
18929TIP3   OH256663   3.105   4.458   8.649
18929TIP3    H156664   3.197   4.431   8.662
18929TIP3    H256665   3.063   4.376   8.616
18930TIP3   OH256666   4.363   4.423   8.922
18930TIP3    H156667   4.282   4.473   8.902
18930TIP3    H256668   4.378   4.449   9.014
18931TIP3   OH256669   3.025   4.040   9.188
18931TIP3    H156670   2.969   4.080   9.119
18931TIP3    H256671   2.966   4.041   9.265
18932TIP3   OH256672   3.382   4.895   8.191
18932TIP3    H156673   3.328   4.867   8.116
18932TIP3    H256674   3.337   4.980   8.214
18933TIP3   OH256675   3.133   4.816   8.985
18933TIP3    H156676   3.068   4.880   9.021
18933TIP3    H256677   3.173   4.867   8.911
18934TIP3   OH256678   3.939   4.147   8.544
18934TIP3    H156679   3.921   4.104   8.629
18934TIP3    H256680   3.989   4.226   8.572
18935TIP3   OH256681   2.899   4.155   8.973
18935TIP3    H156682   2.959   4.231   8.992
18935TIP3    H256683   2.945   4.115   8.895
18936TIP3   OH256684   2.960   5.009   9.080
18936TIP3    H156685   2.933   5.091   9.037
18936TIP3    H256686   2.881   4.993   9.136
18937TIP3   OH256687   2.356   4.699   8.317
18937TIP3    H156688   2.316   4.728   8.232
18937TIP3    H256689   2.385   4.784   8.356
18938TIP3   OH256690   3.797   5.215   8.556
18938TIP3    H156691   3.707   5.206   8.595
18938TIP3    H256692   3.788   5.300   8.509
18939TIP3   OH256693   4.085   4.115   8.916
18939TIP3    H156694   3.997   4.146   8.889
18939TIP3    H256695   4.142   4.148   8.844
18940TIP3   OH256696   3.388   3.761   8.902
18940TIP3    H156697   3.370   3.666   8.915
18940TIP3    H256698   3.309   3.799   8.946
18941TIP3   OH256699   3.510   5.266   8.240
18941TIP3    H156700   3.553   5.182   8.211
18941TIP3    H256701   3.564   5.331   8.189
18942TIP3   OH256702   3.642   5.048   8.131
18942TIP3    H156703   3.589   4.973   8.099
18942TIP3    H256704   3.677   5.012   8.216
18943TIP3   OH256705   4.022   5.131   8.897
18943TIP3    H156706   4.010   5.053   8.839
18943TIP3    H256707   4.003   5.205   8.836
18944TIP3   OH256708   3.315   4.520   8.156
18944TIP3    H156709   3.231   4.571   8.140
18944TIP3    H256710   3.355   4.522   8.067
18945TIP3   OH256711   3.272   4.306   7.874
18945TIP3    H156712   3.340   4.357   7.922
18945TIP3    H256713   3.328   4.243   7.825
18946TIP3   OH256714   4.217   4.765   8.742
18946TIP3    H156715   4.134   4.817   8.748
18946TIP3    H256716   4.245   4.790   8.651
18947TIP3   OH256717   3.659   4.606   8.128
18947TIP3    H156718   3.603   4.632   8.204
18947TIP3    H256719   3.741   4.580   8.173
18948TIP3   OH256720   3.896   4.646   9.036
18948TIP3    H156721   3.892   4.730   9.086
18948TIP3    H256722   3.809   4.650   8.991
18949TIP3   OH256723   2.886   4.603   8.545
18949TIP3    H156724   2.847   4.549   8.474
18949TIP3    H256725   2.968   4.554   8.565
18950TIP3   OH256726   3.021   5.010   8.690
18950TIP3    H156727   3.005   4.956   8.611
18950TIP3    H256728   3.113   4.984   8.712
18951TIP3   OH256729   3.037   4.571   8.899
18951TIP3    H156730   3.061   4.557   8.805
18951TIP3    H256731   3.073   4.661   8.917
18952TIP3   OH256732   3.556   5.212   8.675
18952TIP3    H156733   3.538   5.292   8.728
18952TIP3    H256734   3.540   5.139   8.738
18953TIP3   OH256735   3.164   5.132   9.222
18953TIP3    H156736   3.103   5.196   9.266
18953TIP3    H256737   3.099   5.079   9.171
18954TIP3   OH256738   3.505   4.459   7.952
18954TIP3    H156739   3.560   4.522   8.005
18954TIP3    H256740   3.529   4.486   7.860
18955TIP3   OH256741   2.922   4.688   9.318
18955TIP3    H156742   2.922   4.772   9.368
18955TIP3    H256743   2.829   4.662   9.330
18956TIP3   OH256744   3.252   5.139   8.222
18956TIP3    H156745   3.310   5.209   8.253
18956TIP3    H256746   3.172   5.186   8.193
18957TIP3   OH256747   2.962   5.301   9.308
18957TIP3    H156748   2.927   5.300   9.216
18957TIP3    H256749   2.883   5.275   9.361
18958TIP3   OH256750   4.017   3.705   8.002
18958TIP3    H156751   3.935   3.724   8.051
18958TIP3    H256752   4.029   3.788   7.951
18959TIP3   OH256753   2.758   4.445   8.348
18959TIP3    H156754   2.698   4.497   8.291
18959TIP3    H256755   2.709   4.363   8.357
18960TIP3   OH256756   3.813   5.073   7.547
18960TIP3    H156757   3.821   5.170   7.535
18960TIP3    H256758   3.906   5.044   7.535
18961TIP3   OH256759   2.549   4.819   9.252
18961TIP3    H156760   2.480   4.802   9.184
18961TIP3    H256761   2.581   4.729   9.272
18962TIP3   OH256762   2.395   5.015   8.903
18962TIP3    H156763   2.487   5.016   8.876
18962TIP3    H256764   2.384   5.103   8.941
18963TIP3   OH256765   4.259   5.473   8.943
18963TIP3    H156766   4.257   5.377   8.955
18963TIP3    H256767   4.175   5.499   8.988
18964TIP3   OH256768   3.367   5.259   9.080
18964TIP3    H156769   3.365   5.352   9.109
18964TIP3    H256770   3.292   5.221   9.132
18965TIP3   OH256771   3.127   5.396   8.027
18965TIP3    H156772   3.072   5.370   7.951
18965TIP3    H256773   3.094   5.485   8.049
18966TIP3   OH256774   2.542   5.248   8.423
18966TIP3    H156775   2.614   5.230   8.485
18966TIP3    H256776   2.503   5.160   8.414
18967TIP3   OH256777   3.328   5.293   7.670
18967TIP3    H156778   3.385   5.221   7.635
18967TIP3    H256779   3.358   5.299   7.763
18968TIP3   OH256780   3.377   5.338   7.940
18968TIP3    H156781   3.287   5.350   7.979
18968TIP3    H256782   3.420   5.289   8.012
18969TIP3   OH256783   4.151   4.607   9.216
18969TIP3    H156784   4.068   4.622   9.168
18969TIP3    H256785   4.162   4.510   9.206
18970TIP3   OH256786   2.744   5.011   9.246
18970TIP3    H156787   2.789   4.994   9.332
18970TIP3    H256788   2.673   4.944   9.248
18971TIP3   OH256789   3.145   3.837   9.023
18971TIP3    H156790   3.055   3.806   8.998
18971TIP3    H256791   3.121   3.923   9.062
18972TIP3   OH256792   3.694   3.956   9.220
18972TIP3    H156793   3.751   3.914   9.287
18972TIP3    H256794   3.603   3.931   9.248
18973TIP3   OH256795   3.919   4.383   9.137
18973TIP3    H156796   3.871   4.377   9.223
18973TIP3    H256797   3.893   4.471   9.103
18974TIP3   OH256798   3.578   4.510   7.696
18974TIP3    H156799   3.544   4.485   7.608
18974TIP3    H256800   3.654   4.566   7.671
18975TIP3   OH256801   3.293   3.884   7.998
18975TIP3    H156802   3.257   3.884   8.089
18975TIP3    H256803   3.250   3.803   7.964
18976TIP3   OH256804   3.077   4.350   9.048
18976TIP3    H156805   3.026   4.372   9.129
18976TIP3    H256806   3.062   4.431   8.993
18977TIP3   OH256807   2.961   4.236   8.561
18977TIP3    H156808   2.867   4.215   8.576
18977TIP3    H256809   2.973   4.198   8.471
18978TIP3   OH256810   3.451   4.324   8.288
18978TIP3    H156811   3.396   4.395   8.248
18978TIP3    H256812   3.503   4.296   8.210
18979TIP3   OH256813   3.628   4.615   9.366
18979TIP3    H156814   3.601   4.535   9.416
18979TIP3    H256815   3.722   4.622   9.391
18980TIP3   OH256816   3.608   4.354   8.528
18980TIP3    H156817   3.549   4.387   8.457
18980TIP3    H256818   3.638   4.272   8.484
18981TIP3   OH256819   2.897   4.385   9.259
18981TIP3    H156820   2.911   4.456   9.323
18981TIP3    H256821   2.834   4.328   9.306
18982TIP3   OH256822   2.947   3.859   7.966
18982TIP3    H156823   2.934   3.856   8.063
18982TIP3    H256824   2.868   3.909   7.938
18983TIP3   OH256825   2.486   3.905   8.836
18983TIP3    H156826   2.562   3.936   8.888
18983TIP3    H256827   2.525   3.874   8.753
18984TIP3   OH256828   2.466   3.888   8.356
18984TIP3    H156829   2.507   3.926   8.276
18984TIP3    H256830   2.401   3.958   8.377
18985TIP3   OH256831   3.622   4.602   8.951
18985TIP3    H156832   3.652   4.529   8.893
18985TIP3    H256833   3.590   4.550   9.028
18986TIP3   OH256834   3.286   4.057   8.623
18986TIP3    H156835   3.200   4.057   8.670
18986TIP3    H256836   3.348   4.066   8.696
18987TIP3   OH256837   2.720   4.115   8.632
18987TIP3    H156838   2.626   4.125   8.605
18987TIP3    H256839   2.741   4.025   8.605
18988TIP3   OH256840   2.994   4.113   8.317
18988TIP3    H156841   3.086   4.132   8.291
18988TIP3    H256842   2.943   4.136   8.236
18989TIP3   OH256843   3.779   4.133   8.821
18989TIP3    H156844   3.744   4.148   8.912
18989TIP3    H256845   3.711   4.073   8.786
18990TIP3   OH256846   2.832   4.142   8.100
18990TIP3    H156847   2.758   4.100   8.053
18990TIP3    H256848   2.882   4.179   8.024
18991TIP3   OH256849   3.947   5.824   9.041
18991TIP3    H156850   3.944   5.847   8.947
18991TIP3    H256851   4.023   5.876   9.072
18992TIP3   OH256852   2.895   4.933   9.472
18992TIP3    H156853   2.955   5.004   9.501
18992TIP3    H256854   2.837   4.925   9.550
18993TIP3   OH256855   3.371   4.386   8.719
18993TIP3    H156856   3.443   4.349   8.666
18993TIP3    H256857   3.386   4.345   8.806
18994TIP3   OH256858   2.900   3.876   8.597
18994TIP3    H156859   2.863   3.795   8.639
18994TIP3    H256860   2.940   3.841   8.516
18995TIP3   OH256861   3.346   4.277   9.020
18995TIP3    H156862   3.257   4.318   9.024
18995TIP3    H256863   3.404   4.344   9.061
18996TIP3   OH256864   3.091   4.671   8.110
18996TIP3    H156865   3.010   4.620   8.092
18996TIP3    H256866   3.064   4.722   8.190
18997TIP3   OH256867   3.985   4.911   8.735
18997TIP3    H156868   4.008   4.960   8.653
18997TIP3    H256869   3.899   4.871   8.712
18998TIP3   OH256870   3.543   3.989   7.964
18998TIP3    H156871   3.446   3.972   7.971
18998TIP3    H256872   3.551   4.084   7.987
18999TIP3   OH256873   3.487   4.995   9.102
18999TIP3    H156874   3.501   4.972   9.194
18999TIP3    H256875   3.445   5.083   9.107
19000TIP3   OH256876   3.612   4.234   8.069
19000TIP3    H156877   3.709   4.244   8.082
19000TIP3    H256878   3.590   4.314   8.016
19001TIP3   OH256879   2.779   4.699   8.784
19001TIP3    H156880   2.811   4.670   8.695
19001TIP3    H256881   2.810   4.627   8.841
19002TIP3   OH256882   3.227   4.825   7.924
19002TIP3    H156883   3.180   4.912   7.931
19002TIP3    H256884   3.173   4.771   7.986
19003TIP3   OH256885   2.669   4.596   9.381
19003TIP3    H156886   2.643   4.629   9.470
19003TIP3    H256887   2.589   4.545   9.356
19004TIP3   OH256888   3.376   4.730   9.405
19004TIP3    H156889   3.319   4.670   9.355
19004TIP3    H256890   3.465   4.701   9.376
19005TIP3   OH256891   3.646   5.254   8.997
19005TIP3    H156892   3.549   5.250   9.007
19005TIP3    H256893   3.671   5.307   9.075
19006TIP3   OH256894   4.056   4.323   7.904
19006TIP3    H156895   3.993   4.278   7.843
19006TIP3    H256896   4.051   4.413   7.864
19007TIP3   OH256897   4.272   5.182   8.987
19007TIP3    H156898   4.174   5.177   8.979
19007TIP3    H256899   4.297   5.152   8.896
19008TIP3   OH256900   3.758   5.144   7.814
19008TIP3    H156901   3.726   5.077   7.876
19008TIP3    H256902   3.764   5.096   7.730
19009TIP3   OH256903   3.750   4.773   8.656
19009TIP3    H156904   3.656   4.747   8.668
19009TIP3    H256905   3.784   4.695   8.608
19010TIP3   OH256906   2.443   4.304   8.114
19010TIP3    H156907   2.485   4.391   8.129
19010TIP3    H256908   2.362   4.312   8.169
19011TIP3   OH256909   3.025   4.787   8.362
19011TIP3    H156910   2.965   4.852   8.318
19011TIP3    H256911   2.964   4.740   8.421
19012TIP3   OH256912   3.145   5.345   8.876
19012TIP3    H156913   3.182   5.418   8.823
19012TIP3    H256914   3.224   5.313   8.922
19013TIP3   OH256915   3.536   4.980   8.832
19013TIP3    H156916   3.528   4.977   8.930
19013TIP3    H256917   3.615   4.925   8.819
19014TIP3   OH256918   3.506   4.871   7.713
19014TIP3    H156919   3.557   4.846   7.793
19014TIP3    H256920   3.416   4.848   7.742
19015TIP3   OH256921   3.783   5.515   8.884
19015TIP3    H156922   3.705   5.458   8.875
19015TIP3    H256923   3.768   5.579   8.811
19016TIP3   OH256924   3.848   5.348   7.535
19016TIP3    H156925   3.884   5.420   7.481
19016TIP3    H256926   3.768   5.393   7.569
19017TIP3   OH256927   3.666   4.803   7.928
19017TIP3    H156928   3.656   4.740   8.002
19017TIP3    H256929   3.764   4.804   7.919
19018TIP3   OH256930   2.582   5.213   9.036
19018TIP3    H156931   2.633   5.134   9.059
19018TIP3    H256932   2.618   5.278   9.097
19019TIP3   OH256933   2.878   4.852   7.718
19019TIP3    H156934   2.888   4.762   7.682
19019TIP3    H256935   2.871   4.834   7.813
19020TIP3   OH256936   2.558   4.554   8.191
19020TIP3    H156937   2.492   4.599   8.248
19020TIP3    H256938   2.576   4.626   8.127
19021TIP3   OH256939   3.705   4.191   9.079
19021TIP3    H156940   3.784   4.233   9.119
19021TIP3    H256941   3.695   4.110   9.133
19022TIP3   OH256942   3.586   3.940   8.244
19022TIP3    H156943   3.567   3.964   8.151
19022TIP3    H256944   3.622   4.024   8.280
19023TIP3   OH256945   3.084   5.055   7.935
19023TIP3    H156946   3.008   5.058   7.996
19023TIP3    H256947   3.075   5.138   7.885
19024TIP3   OH256948   3.281   4.115   8.348
19024TIP3    H156949   3.342   4.189   8.330
19024TIP3    H256950   3.280   4.113   8.446
19025TIP3   OH256951   3.541   4.438   9.153
19025TIP3    H156952   3.555   4.493   9.232
19025TIP3    H256953   3.598   4.361   9.170
19026TIP3   OH256954   3.423   3.850   8.456
19026TIP3    H156955   3.404   3.930   8.508
19026TIP3    H256956   3.480   3.887   8.385
19027TIP3   OH256957   2.929   3.842   8.244
19027TIP3    H156958   2.926   3.935   8.274
19027TIP3    H256959   3.026   3.827   8.250
19028TIP3   OH256960   4.183   4.335   9.136
19028TIP3    H156961   4.084   4.337   9.142
19028TIP3    H256962   4.193   4.303   9.045
19029TIP3   OH256963   3.836   4.532   8.526
19029TIP3    H156964   3.758   4.474   8.537
19029TIP3    H256965   3.906   4.484   8.574
19030TIP3   OH256966   2.547   4.772   8.006
19030TIP3    H156967   2.606   4.844   8.037
19030TIP3    H256968   2.600   4.731   7.935
19031TIP3   OH256969   2.491   4.035   8.128
19031TIP3    H156970   2.491   4.133   8.126
19031TIP3    H256971   2.406   4.015   8.087
19032TIP3   OH256972   3.803   5.488   8.477
19032TIP3    H156973   3.759   5.533   8.402
19032TIP3    H256974   3.897   5.506   8.455
19033TIP3   OH256975   2.881   3.761   9.001
19033TIP3    H156976   2.847   3.729   8.915
19033TIP3    H256977   2.869   3.682   9.058
19034TIP3   OH256978   2.419   4.973   8.400
19034TIP3    H156979   2.334   5.018   8.397
19034TIP3    H256980   2.452   4.993   8.311
19035TIP3   OH256981   2.576   5.513   9.429
19035TIP3    H156982   2.652   5.496   9.489
19035TIP3    H256983   2.531   5.426   9.433
19036TIP3   OH256984   3.064   5.472   9.507
19036TIP3    H156985   3.159   5.457   9.499
19036TIP3    H256986   3.031   5.421   9.430
19037TIP3   OH256987   3.036   5.058   7.625
19037TIP3    H156988   2.979   4.991   7.669
19037TIP3    H256989   3.111   5.002   7.600
19038TIP3   OH256990   3.694   5.390   9.233
19038TIP3    H156991   3.686   5.317   9.299
19038TIP3    H256992   3.774   5.437   9.263
19039TIP3   OH256993   3.476   5.100   7.539
19039TIP3    H156994   3.518   5.034   7.596
19039TIP3    H256995   3.532   5.099   7.459
19040TIP3   OH256996   2.686   4.583   7.847
19040TIP3    H156997   2.735   4.542   7.920
19040TIP3    H256998   2.754   4.580   7.776
19041TIP3   OH256999   3.326   5.003   9.409
19041TIP3    H157000   3.275   5.014   9.327
19041TIP3    H257001   3.348   4.907   9.408
19042TIP3   OH257002   3.192   4.774   7.654
19042TIP3    H157003   3.191   4.787   7.751
19042TIP3    H257004   3.188   4.676   7.650
19043TIP3   OH257005   3.807   5.013   9.034
19043TIP3    H157006   3.878   5.062   8.989
19043TIP3    H257007   3.733   5.075   9.023
19044TIP3   OH257008   2.889   4.476   8.067
19044TIP3    H157009   2.862   4.438   8.152
19044TIP3    H257010   2.924   4.398   8.020
19045TIP3   OH257011   3.165   4.542   9.304
19045TIP3    H157012   3.085   4.599   9.307
19045TIP3    H257013   3.206   4.572   9.221
19046TIP3   OH257014   2.990   4.265   7.912
19046TIP3    H157015   2.961   4.269   7.818
19046TIP3    H257016   3.087   4.278   7.902
19047TIP3   OH257017   3.675   4.944   9.429
19047TIP3    H157018   3.756   4.927   9.379
19047TIP3    H257019   3.681   4.877   9.499
19048TIP3   OH257020   3.818   4.603   7.570
19048TIP3    H157021   3.792   4.555   7.489
19048TIP3    H257022   3.785   4.693   7.547
19049TIP3   OH257023   3.263   4.312   9.436
19049TIP3    H157024   3.265   4.245   9.364
19049TIP3    H257025   3.222   4.389   9.391
19050TIP3   OH257026   3.284   4.110   9.235
19050TIP3    H157027   3.311   4.159   9.154
19050TIP3    H257028   3.189   4.091   9.215
19051TIP3   OH257029   3.317   4.653   9.104
19051TIP3    H157030   3.396   4.662   9.049
19051TIP3    H257031   3.257   4.719   9.063
19052TIP3   OH257032   3.903   4.607   9.478
19052TIP3    H157033   3.954   4.526   9.493
19052TIP3    H257034   3.972   4.671   9.456
19053TIP3   OH257035   3.937   4.871   9.222
19053TIP3    H157036   3.878   4.923   9.163
19053TIP3    H257037   4.024   4.891   9.181
19054TIP3   OH257038   3.434   3.878   9.241
19054TIP3    H157039   3.381   3.960   9.229
19054TIP3    H257040   3.366   3.813   9.261
19055TIP3   OH257041   3.527   4.385   9.466
19055TIP3    H157042   3.556   4.322   9.535
19055TIP3    H257043   3.432   4.363   9.457
19056TIP3   OH257044   3.789   4.328   9.365
19056TIP3    H157045   3.707   4.330   9.417
19056TIP3    H257046   3.855   4.313   9.434
19057TIP3   OH257047   4.007   4.315   9.551
19057TIP3    H157048   4.020   4.218   9.534
19057TIP3    H257049   3.998   4.317   9.648
19058TIP3   OH257050   3.592   3.780   9.499
19058TIP3    H157051   3.646   3.861   9.507
19058TIP3    H257052   3.503   3.817   9.486
19059TIP3   OH257053   2.795   5.348   7.808
19059TIP3    H157054   2.890   5.328   7.797
19059TIP3    H257055   2.774   5.388   7.723
19060TIP3   OH257056   2.278   4.714   8.032
19060TIP3    H157057   2.373   4.737   8.020
19060TIP3    H257058   2.274   4.626   7.990
19061TIP3   OH257059   2.186   5.330   8.444
19061TIP3    H157060   2.122   5.264   8.409
19061TIP3    H257061   2.233   5.276   8.511
19062TIP3   OH257062   2.312   5.191   8.638
19062TIP3    H157063   2.319   5.104   8.679
19062TIP3    H257064   2.377   5.242   8.690
19063TIP3   OH257065   4.056   5.577   8.430
19063TIP3    H157066   4.081   5.613   8.517
19063TIP3    H257067   4.113   5.628   8.370
19064TIP3   OH257068   4.086   5.600   8.712
19064TIP3    H157069   4.041   5.513   8.707
19064TIP3    H257070   4.160   5.577   8.771
19065TIP3   OH257071   4.132   5.276   9.286
19065TIP3    H157072   4.057   5.283   9.348
19065TIP3    H257073   4.172   5.365   9.291
19066TIP3   OH257074   3.949   4.789   7.906
19066TIP3    H157075   4.017   4.853   7.880
19066TIP3    H257076   3.990   4.749   7.986
19067TIP3   OH257077   4.076   4.656   8.109
19067TIP3    H157078   4.009   4.614   8.167
19067TIP3    H257079   4.137   4.697   8.174
19068TIP3   OH257080   4.130   5.048   8.545
19068TIP3    H157081   4.181   4.986   8.490
19068TIP3    H257082   4.116   5.123   8.483
19069TIP3   OH257083   3.962   5.349   8.739
19069TIP3    H157084   3.890   5.391   8.790
19069TIP3    H257085   3.911   5.301   8.669
19070TIP3   OH257086   4.014   4.564   7.758
19070TIP3    H157087   3.942   4.567   7.690
19070TIP3    H257088   3.986   4.640   7.813
19071TIP3   OH257089   3.888   4.236   7.711
19071TIP3    H157090   3.841   4.280   7.639
19071TIP3    H257091   3.859   4.143   7.699
19072TIP3   OH257092   3.892   4.512   8.257
19072TIP3    H157093   3.896   4.415   8.253
19072TIP3    H257094   3.877   4.528   8.353
19073TIP3   OH257095   2.517   4.588   9.000
19073TIP3    H157096   2.514   4.559   8.906
19073TIP3    H257097   2.614   4.588   9.016
19074TIP3   OH257098   4.178   4.937   9.113
19074TIP3    H157099   4.251   4.873   9.104
19074TIP3    H257100   4.204   5.008   9.052
19075TIP3   OH257101   4.366   4.747   9.132
19075TIP3    H157102   4.291   4.697   9.171
19075TIP3    H257103   4.438   4.682   9.145
19076TIP3   OH257104   3.829   3.970   7.698
19076TIP3    H157105   3.901   3.939   7.757
19076TIP3    H257106   3.753   3.914   7.723
19077TIP3   OH257107   3.886   4.229   8.155
19077TIP3    H157108   3.927   4.140   8.169
19077TIP3    H257109   3.943   4.263   8.083
19078TIP3   OH257110   4.049   4.402   8.648
19078TIP3    H157111   4.134   4.430   8.607
19078TIP3    H257112   4.060   4.441   8.736
19079TIP3   OH257113   4.115   4.547   8.880
19079TIP3    H157114   4.036   4.581   8.928
19079TIP3    H257115   4.146   4.628   8.835
19080TIP3   OH257116   4.561   4.142   9.426
19080TIP3    H157117   4.620   4.078   9.381
19080TIP3    H257118   4.536   4.202   9.353
19081TIP3   OH257119   3.996   3.978   8.189
19081TIP3    H157120   4.041   3.962   8.275
19081TIP3    H257121   3.933   3.903   8.187
19082TIP3   OH257122   2.695   3.966   9.005
19082TIP3    H157123   2.756   3.891   9.016
19082TIP3    H257124   2.757   4.041   9.000
19083TIP3   OH257125   2.504   4.238   9.089
19083TIP3    H157126   2.549   4.234   9.002
19083TIP3    H257127   2.525   4.328   9.117
19084TIP3   OH257128   4.440   4.285   9.233
19084TIP3    H157129   4.353   4.322   9.262
19084TIP3    H257130   4.408   4.212   9.178
19085TIP3   OH257131   4.079   3.913   7.825
19085TIP3    H157132   4.116   3.843   7.768
19085TIP3    H257133   4.142   3.986   7.812
19086TIP3   OH257134   2.480   3.745   8.585
19086TIP3    H157135   2.385   3.742   8.607
19086TIP3    H257136   2.480   3.802   8.505
19087TIP3   OH257137   3.642   5.445   8.089
19087TIP3    H157138   3.691   5.429   8.006
19087TIP3    H257139   3.695   5.514   8.130
19088TIP3   OH257140   2.748   5.240   9.478
19088TIP3    H157141   2.656   5.226   9.450
19088TIP3    H257142   2.737   5.270   9.570
19089TIP3   OH257143   2.918   5.281   9.025
19089TIP3    H157144   2.867   5.355   8.985
19089TIP3    H257145   3.003   5.296   8.978
19090TIP3   OH257146   3.365   5.525   9.158
19090TIP3    H157147   3.407   5.530   9.247
19090TIP3    H257148   3.430   5.576   9.105
19091TIP3   OH257149   3.543   5.677   9.018
19091TIP3    H157150   3.614   5.626   8.975
19091TIP3    H257151   3.595   5.734   9.078
19092TIP3   OH257152   4.339   4.042   9.117
19092TIP3    H157153   4.248   4.043   9.085
19092TIP3    H257154   4.365   3.949   9.102
19093TIP3   OH257155   2.599   5.539   9.046
19093TIP3    H157156   2.511   5.573   9.019
19093TIP3    H257157   2.603   5.573   9.136
19094TIP3   OH257158   2.834   5.518   8.903
19094TIP3    H157159   2.748   5.531   8.949
19094TIP3    H257160   2.813   5.549   8.813
19095TIP3   OH257161   3.260   5.547   8.701
19095TIP3    H157162   3.188   5.564   8.637
19095TIP3    H257163   3.270   5.636   8.742
19096TIP3   OH257164   3.526   5.488   8.753
19096TIP3    H157165   3.431   5.502   8.733
19096TIP3    H257166   3.566   5.564   8.708
19097TIP3   OH257167   3.738   5.681   8.669
19097TIP3    H157168   3.721   5.765   8.621
19097TIP3    H257169   3.760   5.620   8.595
19098TIP3   OH257170   2.504   5.333   8.792
19098TIP3    H157171   2.534   5.308   8.882
19098TIP3    H257172   2.575   5.292   8.739
19099TIP3   OH257173   2.701   5.208   8.652
19099TIP3    H157174   2.717   5.120   8.692
19099TIP3    H257175   2.791   5.243   8.640
19100TIP3   OH257176   2.969   5.304   8.645
19100TIP3    H157177   2.998   5.213   8.628
19100TIP3    H257178   3.007   5.319   8.733
19101TIP3   OH257179   3.548   3.958   8.745
19101TIP3    H157180   3.498   3.890   8.794
19101TIP3    H257181   3.608   3.906   8.690
19102TIP3   OH257182   4.070   3.834   8.645
19102TIP3    H157183   4.104   3.889   8.571
19102TIP3    H257184   3.974   3.851   8.639
19103TIP3   OH257185   4.163   3.935   8.408
19103TIP3    H157186   4.235   3.887   8.363
19103TIP3    H257187   4.192   4.028   8.394
19104TIP3   OH257188   2.792   3.666   8.755
19104TIP3    H157189   2.700   3.633   8.753
19104TIP3    H257190   2.841   3.581   8.751
19105TIP3   OH257191   2.583   3.532   8.403
19105TIP3    H157192   2.608   3.590   8.328
19105TIP3    H257193   2.547   3.597   8.466
19106TIP3   OH257194   3.237   3.694   8.633
19106TIP3    H157195   3.294   3.749   8.577
19106TIP3    H257196   3.247   3.736   8.720
19107TIP3   OH257197   3.792   3.842   8.617
19107TIP3    H157198   3.771   3.813   8.528
19107TIP3    H257199   3.771   3.761   8.670
19108TIP3   OH257200   3.812   3.765   8.181
19108TIP3    H157201   3.725   3.810   8.189
19108TIP3    H257202   3.793   3.680   8.227
19109TIP3   OH257203   2.285   5.099   8.192
19109TIP3    H157204   2.202   5.072   8.150
19109TIP3    H257205   2.284   5.194   8.174
19110TIP3   OH257206   2.692   3.690   8.170
19110TIP3    H157207   2.742   3.632   8.109
19110TIP3    H257208   2.764   3.747   8.204
19111TIP3   OH257209   3.207   3.867   8.264
19111TIP3    H157210   3.266   3.820   8.325
19111TIP3    H257211   3.228   3.960   8.288
19112TIP3   OH257212   3.065   5.292   7.763
19112TIP3    H157213   3.154   5.315   7.728
19112TIP3    H257214   3.044   5.217   7.704
19113TIP3   OH257215   3.787   5.411   7.856
19113TIP3    H157216   3.778   5.314   7.843
19113TIP3    H257217   3.740   5.444   7.776
19114TIP3   OH257218   2.371   5.134   7.825
19114TIP3    H157219   2.373   5.157   7.919
19114TIP3    H257220   2.459   5.093   7.811
19115TIP3   OH257221   4.053   4.047   9.499
19115TIP3    H157222   4.074   3.993   9.579
19115TIP3    H257223   4.141   4.041   9.455
19116TIP3   OH257224   4.013   5.556   9.044
19116TIP3    H157225   3.934   5.523   8.997
19116TIP3    H257226   3.993   5.652   9.047
19117TIP3   OH257227   5.278   4.928   7.812
19117TIP3    H157228   5.251   5.020   7.792
19117TIP3    H257229   5.200   4.879   7.779
19118TIP3   OH257230   5.277   4.928   8.189
19118TIP3    H157231   5.306   4.896   8.277
19118TIP3    H257232   5.234   4.849   8.153
19119TIP3   OH257233   4.578   4.824   8.555
19119TIP3    H157234   4.610   4.758   8.619
19119TIP3    H257235   4.654   4.884   8.551
19120TIP3   OH257236   5.519   5.228   7.872
19120TIP3    H157237   5.506   5.159   7.938
19120TIP3    H257238   5.546   5.304   7.926
19121TIP3   OH257239   4.548   5.233   8.284
19121TIP3    H157240   4.538   5.136   8.287
19121TIP3    H257241   4.644   5.241   8.277
19122TIP3   OH257242   4.254   4.438   8.070
19122TIP3    H157243   4.205   4.521   8.083
19122TIP3    H257244   4.184   4.382   8.031
19123TIP3   OH257245   4.316   4.726   8.238
19123TIP3    H157246   4.364   4.649   8.275
19123TIP3    H257247   4.371   4.749   8.162
19124TIP3   OH257248   5.167   5.692   7.887
19124TIP3    H157249   5.216   5.621   7.841
19124TIP3    H257250   5.161   5.657   7.977
19125TIP3   OH257251   5.076   5.153   8.240
19125TIP3    H157252   5.112   5.077   8.191
19125TIP3    H257253   5.160   5.197   8.263
19126TIP3   OH257254   6.080   4.476   8.236
19126TIP3    H157255   6.114   4.555   8.282
19126TIP3    H257256   6.104   4.495   8.144
19127TIP3   OH257257   5.487   4.656   8.274
19127TIP3    H157258   5.530   4.571   8.293
19127TIP3    H257259   5.457   4.642   8.182
19128TIP3   OH257260   4.824   4.315   8.239
19128TIP3    H157261   4.803   4.388   8.177
19128TIP3    H257262   4.776   4.242   8.194
19129TIP3   OH257263   5.518   4.405   7.862
19129TIP3    H157264   5.591   4.389   7.926
19129TIP3    H257265   5.568   4.441   7.787
19130TIP3   OH257266   4.459   4.517   8.345
19130TIP3    H157267   4.542   4.497   8.392
19130TIP3    H257268   4.470   4.461   8.265
19131TIP3   OH257269   4.901   4.715   8.135
19131TIP3    H157270   4.994   4.688   8.150
19131TIP3    H257271   4.861   4.631   8.104
19132TIP3   OH257272   6.160   4.681   8.405
19132TIP3    H157273   6.077   4.730   8.388
19132TIP3    H257274   6.175   4.703   8.499
19133TIP3   OH257275   4.821   4.297   8.673
19133TIP3    H157276   4.762   4.335   8.605
19133TIP3    H257277   4.770   4.317   8.754
19134TIP3   OH257278   5.173   5.150   7.681
19134TIP3    H157279   5.127   5.126   7.599
19134TIP3    H257280   5.128   5.235   7.703
19135TIP3   OH257281   4.929   5.073   8.470
19135TIP3    H157282   4.864   5.137   8.508
19135TIP3    H257283   4.970   5.125   8.398
19136TIP3   OH257284   5.731   4.407   8.031
19136TIP3    H157285   5.725   4.357   8.113
19136TIP3    H257286   5.787   4.482   8.057
19137TIP3   OH257287   4.693   4.413   8.458
19137TIP3    H157288   4.754   4.487   8.479
19137TIP3    H257289   4.741   4.372   8.382
19138TIP3   OH257290   4.756   5.265   8.565
19138TIP3    H157291   4.730   5.350   8.525
19138TIP3    H257292   4.677   5.250   8.622
19139TIP3   OH257293   4.155   4.956   7.801
19139TIP3    H157294   4.109   4.981   7.719
19139TIP3    H257295   4.181   5.043   7.838
19140TIP3   OH257296   5.592   5.471   8.042
19140TIP3    H157297   5.502   5.463   8.081
19140TIP3    H257298   5.584   5.557   7.996
19141TIP3   OH257299   5.880   4.373   8.404
19141TIP3    H157300   5.793   4.405   8.374
19141TIP3    H257301   5.940   4.405   8.333
19142TIP3   OH257302   5.181   4.021   8.385
19142TIP3    H157303   5.168   3.926   8.400
19142TIP3    H257304   5.103   4.058   8.432
19143TIP3   OH257305   5.296   5.520   7.719
19143TIP3    H157306   5.345   5.438   7.695
19143TIP3    H257307   5.355   5.586   7.675
19144TIP3   OH257308   5.437   5.305   7.619
19144TIP3    H157309   5.395   5.226   7.581
19144TIP3    H257310   5.471   5.269   7.704
19145TIP3   OH257311   5.817   5.387   8.385
19145TIP3    H157312   5.807   5.309   8.326
19145TIP3    H257313   5.800   5.461   8.323
19146TIP3   OH257314   5.108   4.779   7.641
19146TIP3    H157315   5.027   4.830   7.619
19146TIP3    H257316   5.154   4.777   7.555
19147TIP3   OH257317   5.068   4.563   7.360
19147TIP3    H157318   5.136   4.613   7.408
19147TIP3    H257319   5.123   4.499   7.312
19148TIP3   OH257320   6.012   5.022   8.229
19148TIP3    H157321   5.930   5.075   8.235
19148TIP3    H257322   6.041   5.045   8.138
19149TIP3   OH257323   5.455   4.862   7.614
19149TIP3    H157324   5.400   4.888   7.692
19149TIP3    H257325   5.538   4.835   7.659
19150TIP3   OH257326   5.691   4.903   8.523
19150TIP3    H157327   5.688   4.987   8.572
19150TIP3    H257328   5.605   4.906   8.478
19151TIP3   OH257329   4.688   4.861   8.029
19151TIP3    H157330   4.645   4.803   7.962
19151TIP3    H257331   4.765   4.807   8.056
19152TIP3   OH257332   4.818   5.271   8.179
19152TIP3    H157333   4.796   5.227   8.096
19152TIP3    H257334   4.908   5.239   8.196
19153TIP3   OH257335   4.830   4.830   8.385
19153TIP3    H157336   4.859   4.813   8.293
19153TIP3    H257337   4.869   4.917   8.405
19154TIP3   OH257338   5.350   5.469   8.161
19154TIP3    H157339   5.335   5.548   8.215
19154TIP3    H257340   5.336   5.396   8.224
19155TIP3   OH257341   4.961   5.387   8.710
19155TIP3    H157342   4.901   5.451   8.754
19155TIP3    H257343   4.895   5.334   8.660
19156TIP3   OH257344   5.299   4.718   7.440
19156TIP3    H157345   5.356   4.778   7.492
19156TIP3    H257346   5.324   4.744   7.348
19157TIP3   OH257347   4.715   4.945   8.807
19157TIP3    H157348   4.719   5.031   8.853
19157TIP3    H257349   4.619   4.926   8.816
19158TIP3   OH257350   5.039   5.401   7.715
19158TIP3    H157351   5.115   5.457   7.737
19158TIP3    H257352   4.976   5.463   7.676
19159TIP3   OH257353   4.757   5.558   8.795
19159TIP3    H157354   4.722   5.555   8.704
19159TIP3    H257355   4.677   5.536   8.848
19160TIP3   OH257356   5.812   3.962   7.487
19160TIP3    H157357   5.732   3.981   7.539
19160TIP3    H257358   5.824   4.046   7.438
19161TIP3   OH257359   4.554   4.702   7.835
19161TIP3    H157360   4.490   4.750   7.778
19161TIP3    H257361   4.509   4.618   7.848
19162TIP3   OH257362   5.610   5.330   7.035
19162TIP3    H157363   5.618   5.426   7.021
19162TIP3    H257364   5.702   5.301   7.022
19163TIP3   OH257365   4.336   5.087   8.741
19163TIP3    H157366   4.270   5.066   8.673
19163TIP3    H257367   4.371   4.998   8.765
19164TIP3   OH257368   4.189   5.279   8.377
19164TIP3    H157369   4.285   5.277   8.366
19164TIP3    H257370   4.176   5.360   8.427
19165TIP3   OH257371   6.054   5.729   8.429
19165TIP3    H157372   6.053   5.633   8.443
19165TIP3    H257373   5.971   5.755   8.475
19166TIP3   OH257374   5.161   5.517   8.566
19166TIP3    H157375   5.161   5.610   8.597
19166TIP3    H257376   5.089   5.478   8.620
19167TIP3   OH257377   4.920   5.647   7.516
19167TIP3    H157378   4.873   5.627   7.433
19167TIP3    H257379   4.887   5.736   7.538
19168TIP3   OH257380   4.358   5.497   7.898
19168TIP3    H157381   4.405   5.486   7.984
19168TIP3    H257382   4.297   5.421   7.903
19169TIP3   OH257383   5.123   5.548   7.157
19169TIP3    H157384   5.182   5.478   7.121
19169TIP3    H257385   5.156   5.556   7.249
19170TIP3   OH257386   5.172   5.595   7.428
19170TIP3    H157387   5.083   5.605   7.469
19170TIP3    H257388   5.221   5.552   7.500
19171TIP3   OH257389   5.944   4.863   8.704
19171TIP3    H157390   5.865   4.876   8.650
19171TIP3    H257391   5.960   4.767   8.693
19172TIP3   OH257392   4.541   5.270   8.732
19172TIP3    H157393   4.590   5.252   8.815
19172TIP3    H257394   4.467   5.206   8.739
19173TIP3   OH257395   4.941   4.093   8.514
19173TIP3    H157396   4.851   4.063   8.489
19173TIP3    H257397   4.918   4.177   8.557
19174TIP3   OH257398   5.473   4.208   8.708
19174TIP3    H157399   5.541   4.183   8.774
19174TIP3    H257400   5.389   4.189   8.754
19175TIP3   OH257401   5.714   4.637   8.626
19175TIP3    H157402   5.666   4.634   8.712
19175TIP3    H257403   5.689   4.725   8.591
19176TIP3   OH257404   5.373   4.768   7.183
19176TIP3    H157405   5.340   4.742   7.095
19176TIP3    H257406   5.452   4.820   7.159
19177TIP3   OH257407   5.087   4.143   7.485
19177TIP3    H157408   5.054   4.142   7.577
19177TIP3    H257409   5.047   4.060   7.452
19178TIP3   OH257410   4.872   4.607   8.533
19178TIP3    H157411   4.821   4.629   8.614
19178TIP3    H257412   4.857   4.688   8.479
19179TIP3   OH257413   4.756   4.494   8.047
19179TIP3    H157414   4.662   4.469   8.063
19179TIP3    H257415   4.769   4.454   7.958
19180TIP3   OH257416   5.246   4.581   7.773
19180TIP3    H157417   5.192   4.652   7.733
19180TIP3    H257418   5.300   4.552   7.697
19181TIP3   OH257419   5.421   4.863   8.864
19181TIP3    H157420   5.398   4.788   8.924
19181TIP3    H257421   5.516   4.873   8.884
19182TIP3   OH257422   5.404   4.611   8.014
19182TIP3    H157423   5.345   4.641   7.943
19182TIP3    H257424   5.436   4.528   7.972
19183TIP3   OH257425   4.692   4.638   8.742
19183TIP3    H157426   4.712   4.703   8.811
19183TIP3    H257427   4.678   4.557   8.794
19184TIP3   OH257428   4.742   4.115   7.452
19184TIP3    H157429   4.732   4.112   7.549
19184TIP3    H257430   4.662   4.166   7.427
19185TIP3   OH257431   4.283   4.160   8.324
19185TIP3    H157432   4.360   4.192   8.375
19185TIP3    H257433   4.321   4.130   8.240
19186TIP3   OH257434   4.262   4.143   7.843
19186TIP3    H157435   4.304   4.183   7.764
19186TIP3    H257436   4.198   4.214   7.864
19187TIP3   OH257437   5.415   4.857   8.438
19187TIP3    H157438   5.447   4.785   8.380
19187TIP3    H257439   5.386   4.806   8.516
19188TIP3   OH257440   5.080   4.316   8.109
19188TIP3    H157441   4.998   4.315   8.161
19188TIP3    H257442   5.147   4.320   8.179
19189TIP3   OH257443   4.517   4.372   8.118
19189TIP3    H157444   4.422   4.381   8.091
19189TIP3    H257445   4.539   4.281   8.092
19190TIP3   OH257446   4.789   4.369   7.804
19190TIP3    H157447   4.882   4.386   7.782
19190TIP3    H257448   4.741   4.393   7.722
19191TIP3   OH257449   5.574   4.393   8.310
19191TIP3    H157450   5.538   4.404   8.401
19191TIP3    H257451   5.509   4.331   8.272
19192TIP3   OH257452   4.627   4.401   7.585
19192TIP3    H157453   4.553   4.358   7.538
19192TIP3    H257454   4.678   4.437   7.510
19193TIP3   OH257455   5.743   6.081   8.528
19193TIP3    H157456   5.742   6.105   8.434
19193TIP3    H257457   5.821   6.130   8.560
19194TIP3   OH257458   4.701   5.190   8.951
19194TIP3    H157459   4.780   5.224   8.998
19194TIP3    H257460   4.636   5.190   9.023
19195TIP3   OH257461   5.167   4.643   8.205
19195TIP3    H157462   5.240   4.605   8.154
19195TIP3    H257463   5.179   4.603   8.293
19196TIP3   OH257464   4.693   4.133   8.082
19196TIP3    H157465   4.659   4.052   8.125
19196TIP3    H257466   4.740   4.099   8.005
19197TIP3   OH257467   5.143   4.538   8.499
19197TIP3    H157468   5.053   4.576   8.510
19197TIP3    H257469   5.200   4.600   8.548
19198TIP3   OH257470   4.881   4.933   7.591
19198TIP3    H157471   4.808   4.868   7.580
19198TIP3    H257472   4.862   4.966   7.682
19199TIP3   OH257473   5.781   5.169   8.221
19199TIP3    H157474   5.805   5.217   8.139
19199TIP3    H257475   5.695   5.128   8.197
19200TIP3   OH257476   5.338   4.246   7.449
19200TIP3    H157477   5.242   4.231   7.458
19200TIP3    H257478   5.349   4.341   7.474
19201TIP3   OH257479   5.281   5.251   8.587
19201TIP3    H157480   5.296   5.227   8.679
19201TIP3    H257481   5.240   5.340   8.594
19202TIP3   OH257482   5.408   4.491   7.555
19202TIP3    H157483   5.504   4.498   7.571
19202TIP3    H257484   5.389   4.571   7.501
19203TIP3   OH257485   4.573   4.955   8.269
19203TIP3    H157486   4.609   4.926   8.183
19203TIP3    H257487   4.607   4.888   8.329
19204TIP3   OH257488   5.025   5.083   7.411
19204TIP3    H157489   4.978   5.169   7.418
19204TIP3    H257490   4.970   5.027   7.471
19205TIP3   OH257491   4.452   4.873   8.878
19205TIP3    H157492   4.470   4.860   8.974
19205TIP3    H257493   4.380   4.809   8.863
19206TIP3   OH257494   5.175   4.988   8.900
19206TIP3    H157495   5.116   4.929   8.849
19206TIP3    H257496   5.263   4.955   8.871
19207TIP3   OH257497   5.441   5.510   8.483
19207TIP3    H157498   5.344   5.508   8.494
19207TIP3    H257499   5.468   5.563   8.561
19208TIP3   OH257500   5.852   4.580   7.391
19208TIP3    H157501   5.789   4.535   7.331
19208TIP3    H257502   5.847   4.669   7.351
19209TIP3   OH257503   6.067   5.438   8.474
19209TIP3    H157504   5.969   5.433   8.465
19209TIP3    H257505   6.093   5.409   8.383
19210TIP3   OH257506   5.551   5.401   7.300
19210TIP3    H157507   5.524   5.331   7.361
19210TIP3    H257508   5.561   5.354   7.215
19211TIP3   OH257509   5.545   5.030   8.142
19211TIP3    H157510   5.452   5.004   8.154
19211TIP3    H257511   5.580   4.951   8.095
19212TIP3   OH257512   4.671   5.257   7.891
19212TIP3    H157513   4.673   5.339   7.838
19212TIP3    H257514   4.576   5.242   7.900
19213TIP3   OH257515   4.236   4.562   7.594
19213TIP3    H157516   4.281   4.647   7.614
19213TIP3    H257517   4.157   4.569   7.654
19214TIP3   OH257518   4.815   5.025   7.838
19214TIP3    H157519   4.778   5.115   7.854
19214TIP3    H257520   4.776   4.975   7.912
19215TIP3   OH257521   4.941   5.602   8.362
19215TIP3    H157522   4.980   5.675   8.310
19215TIP3    H257523   5.018   5.569   8.410
19216TIP3   OH257524   4.593   5.496   7.745
19216TIP3    H157525   4.506   5.503   7.790
19216TIP3    H257526   4.623   5.589   7.747
19217TIP3   OH257527   5.332   5.236   8.318
19217TIP3    H157528   5.324   5.234   8.416
19217TIP3    H257529   5.412   5.183   8.305
19218TIP3   OH257530   5.303   5.127   7.201
19218TIP3    H157531   5.355   5.103   7.281
19218TIP3    H257532   5.213   5.102   7.230
19219TIP3   OH257533   5.579   5.772   8.371
19219TIP3    H157534   5.500   5.714   8.362
19219TIP3    H257535   5.564   5.836   8.298
19220TIP3   OH257536   5.644   5.605   7.022
19220TIP3    H157537   5.680   5.676   6.967
19220TIP3    H257538   5.564   5.650   7.056
19221TIP3   OH257539   4.665   4.379   8.889
19221TIP3    H157540   4.569   4.387   8.905
19221TIP3    H257541   4.692   4.321   8.962
19222TIP3   OH257542   5.463   5.063   7.419
19222TIP3    H157543   5.453   4.996   7.490
19222TIP3    H257544   5.560   5.061   7.407
19223TIP3   OH257545   4.382   5.467   8.520
19223TIP3    H157546   4.431   5.389   8.550
19223TIP3    H257547   4.409   5.532   8.585
19224TIP3   OH257548   4.673   5.110   7.200
19224TIP3    H157549   4.685   5.018   7.170
19224TIP3    H257550   4.653   5.097   7.295
19225TIP3   OH257551   4.618   5.114   7.473
19225TIP3    H157552   4.686   5.088   7.536
19225TIP3    H257553   4.621   5.212   7.479
19226TIP3   OH257554   4.354   4.810   7.677
19226TIP3    H157555   4.287   4.853   7.733
19226TIP3    H257556   4.367   4.879   7.609
19227TIP3   OH257557   5.498   4.446   8.569
19227TIP3    H157558   5.579   4.483   8.606
19227TIP3    H257559   5.485   4.365   8.622
19228TIP3   OH257560   5.379   4.198   7.731
19228TIP3    H157561   5.365   4.222   7.638
19228TIP3    H257562   5.419   4.280   7.768
19229TIP3   OH257563   4.882   5.313   7.423
19229TIP3    H157564   4.795   5.341   7.458
19229TIP3    H257565   4.898   5.383   7.358
19230TIP3   OH257566   5.073   4.374   7.835
19230TIP3    H157567   5.137   4.446   7.817
19230TIP3    H257568   5.076   4.368   7.933
19231TIP3   OH257569   5.339   4.695   8.645
19231TIP3    H157570   5.357   4.749   8.724
19231TIP3    H257571   5.395   4.617   8.659
19232TIP3   OH257572   5.217   4.105   7.940
19232TIP3    H157573   5.208   4.182   7.999
19232TIP3    H257574   5.276   4.142   7.870
19233TIP3   OH257575   4.624   5.387   7.489
19233TIP3    H157576   4.594   5.456   7.425
19233TIP3    H257577   4.607   5.431   7.575
19234TIP3   OH257578   4.726   4.099   7.730
19234TIP3    H157579   4.723   4.191   7.762
19234TIP3    H257580   4.822   4.083   7.737
19235TIP3   OH257581   5.982   4.597   8.623
19235TIP3    H157582   5.884   4.594   8.630
19235TIP3    H257583   5.993   4.554   8.537
19236TIP3   OH257584   5.630   4.790   8.012
19236TIP3    H157585   5.555   4.730   8.025
19236TIP3    H257586   5.703   4.743   8.060
19237TIP3   OH257587   4.342   5.020   7.484
19237TIP3    H157588   4.404   5.094   7.491
19237TIP3    H257589   4.389   4.967   7.416
19238TIP3   OH257590   4.289   4.293   7.615
19238TIP3    H157591   4.286   4.391   7.611
19238TIP3    H257592   4.203   4.269   7.576
19239TIP3   OH257593   5.599   5.744   7.963
19239TIP3    H157594   5.556   5.790   7.888
19239TIP3    H257595   5.693   5.762   7.942
19240TIP3   OH257596   4.677   4.014   8.490
19240TIP3    H157597   4.643   3.984   8.403
19240TIP3    H257598   4.663   3.935   8.547
19241TIP3   OH257599   4.217   5.234   7.873
19241TIP3    H157600   4.141   5.263   7.925
19241TIP3    H257601   4.194   5.272   7.785
19242TIP3   OH257602   4.369   5.770   8.941
19242TIP3    H157603   4.455   5.769   8.988
19242TIP3    H257604   4.346   5.676   8.940
19243TIP3   OH257605   4.855   5.738   8.987
19243TIP3    H157606   4.950   5.720   8.990
19243TIP3    H257607   4.828   5.682   8.912
19244TIP3   OH257608   4.835   5.315   7.116
19244TIP3    H157609   4.778   5.243   7.153
19244TIP3    H257610   4.909   5.261   7.082
19245TIP3   OH257611   5.491   5.645   8.718
19245TIP3    H157612   5.484   5.575   8.786
19245TIP3    H257613   5.570   5.695   8.748
19246TIP3   OH257614   5.271   5.356   7.025
19246TIP3    H157615   5.317   5.292   7.082
19246TIP3    H257616   5.327   5.357   6.945
19247TIP3   OH257617   4.502   5.179   9.142
19247TIP3    H157618   4.518   5.083   9.145
19247TIP3    H257619   4.413   5.182   9.100
19248TIP3   OH257620   4.478   4.833   7.333
19248TIP3    H157621   4.532   4.798   7.406
19248TIP3    H257622   4.546   4.836   7.262
19249TIP3   OH257623   5.110   5.263   8.915
19249TIP3    H157624   5.067   5.278   8.828
19249TIP3    H257625   5.140   5.169   8.907
19250TIP3   OH257626   4.987   5.029   7.141
19250TIP3    H157627   4.988   5.042   7.238
19250TIP3    H257628   4.984   4.931   7.137
19251TIP3   OH257629   5.603   5.270   8.521
19251TIP3    H157630   5.675   5.317   8.476
19251TIP3    H257631   5.530   5.334   8.509
19252TIP3   OH257632   4.620   4.913   9.123
19252TIP3    H157633   4.691   4.850   9.107
19252TIP3    H257634   4.643   4.945   9.212
19253TIP3   OH257635   4.690   4.733   7.559
19253TIP3    H157636   4.660   4.691   7.641
19253TIP3    H257637   4.723   4.656   7.508
19254TIP3   OH257638   4.957   4.800   8.787
19254TIP3    H157639   4.878   4.858   8.790
19254TIP3    H257640   5.002   4.832   8.706
19255TIP3   OH257641   4.786   4.525   7.399
19255TIP3    H157642   4.758   4.527   7.305
19255TIP3    H257643   4.883   4.534   7.390
19256TIP3   OH257644   5.473   5.201   8.922
19256TIP3    H157645   5.551   5.180   8.869
19256TIP3    H257646   5.472   5.130   8.988
19257TIP3   OH257647   5.612   4.860   7.058
19257TIP3    H157648   5.588   4.812   6.976
19257TIP3    H257649   5.580   4.950   7.034
19258TIP3   OH257650   5.078   4.585   8.913
19258TIP3    H157651   5.078   4.505   8.857
19258TIP3    H257652   5.035   4.651   8.854
19259TIP3   OH257653   5.081   4.369   8.718
19259TIP3    H157654   5.108   4.413   8.634
19259TIP3    H257655   4.987   4.349   8.700
19260TIP3   OH257656   5.112   4.910   8.591
19260TIP3    H157657   5.192   4.916   8.538
19260TIP3    H257658   5.054   4.977   8.548
19261TIP3   OH257659   5.692   4.877   8.976
19261TIP3    H157660   5.740   4.793   8.984
19261TIP3    H257661   5.761   4.935   8.940
19262TIP3   OH257662   5.732   5.129   8.711
19262TIP3    H157663   5.675   5.181   8.650
19262TIP3    H257664   5.820   5.147   8.670
19263TIP3   OH257665   4.957   4.701   9.141
19263TIP3    H157666   4.887   4.635   9.156
19263TIP3    H257667   4.991   4.674   9.054
19264TIP3   OH257668   5.213   4.136   8.784
19264TIP3    H157669   5.166   4.220   8.762
19264TIP3    H257670   5.142   4.070   8.772
19265TIP3   OH257671   5.339   4.643   9.001
19265TIP3    H157672   5.328   4.630   9.097
19265TIP3    H257673   5.249   4.618   8.972
19266TIP3   OH257674   5.579   4.591   8.857
19266TIP3    H157675   5.503   4.592   8.918
19266TIP3    H257676   5.652   4.560   8.914
19267TIP3   OH257677   5.807   4.529   9.009
19267TIP3    H157678   5.820   4.434   9.029
19267TIP3    H257679   5.804   4.570   9.098
19268TIP3   OH257680   4.797   4.480   9.192
19268TIP3    H157681   4.805   4.389   9.157
19268TIP3    H257682   4.833   4.468   9.283
19269TIP3   OH257683   5.310   4.146   9.040
19269TIP3    H157684   5.377   4.076   9.035
19269TIP3    H257685   5.269   4.140   8.952
19270TIP3   OH257686   5.374   4.362   9.199
19270TIP3    H157687   5.350   4.291   9.136
19270TIP3    H257688   5.296   4.422   9.193
19271TIP3   OH257689   4.593   5.590   7.302
19271TIP3    H157690   4.689   5.589   7.281
19271TIP3    H257691   4.560   5.637   7.223
19272TIP3   OH257692   4.074   4.971   7.520
19272TIP3    H157693   4.169   4.993   7.506
19272TIP3    H257694   4.068   4.883   7.477
19273TIP3   OH257695   3.988   5.584   7.930
19273TIP3    H157696   3.920   5.523   7.896
19273TIP3    H257697   4.032   5.527   7.997
19274TIP3   OH257698   4.125   5.439   8.117
19274TIP3    H157699   4.110   5.363   8.176
19274TIP3    H257700   4.174   5.499   8.177
19275TIP3   OH257701   5.850   5.836   7.917
19275TIP3    H157702   5.877   5.869   8.004
19275TIP3    H257703   5.911   5.883   7.858
19276TIP3   OH257704   5.882   5.857   8.199
19276TIP3    H157705   5.839   5.769   8.195
19276TIP3    H257706   5.956   5.836   8.257
19277TIP3   OH257707   5.928   5.533   8.771
19277TIP3    H157708   5.854   5.541   8.836
19277TIP3    H257709   5.969   5.622   8.776
19278TIP3   OH257710   5.744   5.046   7.393
19278TIP3    H157711   5.813   5.110   7.367
19278TIP3    H257712   5.785   5.006   7.473
19279TIP3   OH257713   5.871   4.914   7.597
19279TIP3    H157714   5.805   4.871   7.656
19279TIP3    H257715   5.934   4.953   7.660
19280TIP3   OH257716   5.924   5.304   8.030
19280TIP3    H157717   5.978   5.241   7.978
19280TIP3    H257718   5.914   5.379   7.968
19281TIP3   OH257719   5.758   5.605   8.225
19281TIP3    H157720   5.687   5.647   8.277
19281TIP3    H257721   5.707   5.557   8.156
19282TIP3   OH257722   5.809   4.821   7.244
19282TIP3    H157723   5.738   4.824   7.177
19282TIP3    H257724   5.783   4.897   7.300
19283TIP3   OH257725   5.682   4.494   7.198
19283TIP3    H157726   5.638   4.535   7.123
19283TIP3    H257727   5.655   4.400   7.187
19284TIP3   OH257728   5.686   4.768   7.744
19284TIP3    H157729   5.694   4.672   7.740
19284TIP3    H257730   5.673   4.784   7.840
19285TIP3   OH257731   4.313   4.840   8.491
19285TIP3    H157732   4.310   4.813   8.396
19285TIP3    H257733   4.410   4.843   8.506
19286TIP3   OH257734   5.973   5.193   8.600
19286TIP3    H157735   6.047   5.128   8.592
19286TIP3    H257736   6.001   5.264   8.539
19287TIP3   OH257737   6.160   5.002   8.621
19287TIP3    H157738   6.086   4.951   8.659
19287TIP3    H257739   6.233   4.937   8.634
19288TIP3   OH257740   5.625   4.227   7.184
19288TIP3    H157741   5.700   4.198   7.239
19288TIP3    H257742   5.552   4.170   7.212
19289TIP3   OH257743   5.681   4.485   7.640
19289TIP3    H157744   5.721   4.397   7.656
19289TIP3    H257745   5.740   4.518   7.571
19290TIP3   OH257746   5.844   4.663   8.133
19290TIP3    H157747   5.930   4.689   8.094
19290TIP3    H257748   5.857   4.697   8.223
19291TIP3   OH257749   5.910   4.804   8.368
19291TIP3    H157750   5.832   4.838   8.415
19291TIP3    H257751   5.943   4.884   8.322
19292TIP3   OH257752   4.531   4.535   9.162
19292TIP3    H157753   4.629   4.526   9.166
19292TIP3    H257754   4.504   4.450   9.203
19293TIP3   OH257755   6.364   4.393   8.923
19293TIP3    H157756   6.421   4.327   8.878
19293TIP3    H257757   6.336   4.450   8.848
19294TIP3   OH257758   5.790   4.235   7.676
19294TIP3    H157759   5.841   4.219   7.759
19294TIP3    H257760   5.730   4.158   7.676
19295TIP3   OH257761   4.492   4.221   8.495
19295TIP3    H157762   4.556   4.148   8.506
19295TIP3    H257763   4.551   4.298   8.491
19296TIP3   OH257764   4.296   4.495   8.572
19296TIP3    H157765   4.343   4.489   8.486
19296TIP3    H257766   4.320   4.585   8.599
19297TIP3   OH257767   6.237   4.536   8.730
19297TIP3    H157768   6.148   4.573   8.748
19297TIP3    H257769   6.213   4.464   8.668
19298TIP3   OH257770   5.872   4.173   7.307
19298TIP3    H157771   5.915   4.099   7.260
19298TIP3    H257772   5.940   4.242   7.302
19299TIP3   OH257773   4.276   4.001   8.072
19299TIP3    H157774   4.182   3.998   8.095
19299TIP3    H257775   4.275   4.058   7.992
19300TIP3   OH257776   5.436   5.701   7.576
19300TIP3    H157777   5.486   5.685   7.494
19300TIP3    H257778   5.490   5.769   7.619
19301TIP3   OH257779   4.495   4.073   8.881
19301TIP3    H157780   4.448   4.075   8.966
19301TIP3    H257781   4.430   4.118   8.824
19302TIP3   OH257782   4.538   5.503   8.964
19302TIP3    H157783   4.446   5.477   8.943
19302TIP3    H257784   4.541   5.487   9.059
19303TIP3   OH257785   4.715   5.536   8.511
19303TIP3    H157786   4.664   5.610   8.472
19303TIP3    H257787   4.800   5.552   8.465
19304TIP3   OH257788   5.161   5.783   8.646
19304TIP3    H157789   5.203   5.785   8.735
19304TIP3    H257790   5.227   5.834   8.594
19305TIP3   OH257791   5.340   5.934   8.504
19305TIP3    H157792   5.411   5.883   8.463
19305TIP3    H257793   5.391   5.991   8.565
19306TIP3   OH257794   6.132   4.298   8.608
19306TIP3    H157795   6.042   4.290   8.571
19306TIP3    H257796   6.164   4.205   8.598
19307TIP3   OH257797   4.393   5.797   8.531
19307TIP3    H157798   4.304   5.831   8.506
19307TIP3    H257799   4.397   5.826   8.623
19308TIP3   OH257800   4.629   5.774   8.389
19308TIP3    H157801   4.543   5.787   8.435
19308TIP3    H257802   4.607   5.807   8.300
19309TIP3   OH257803   5.054   5.804   8.187
19309TIP3    H157804   4.985   5.824   8.122
19309TIP3    H257805   5.067   5.892   8.229
19310TIP3   OH257806   5.322   5.744   8.238
19310TIP3    H157807   5.227   5.759   8.219
19310TIP3    H257808   5.363   5.821   8.197
19311TIP3   OH257809   5.532   5.937   8.155
19311TIP3    H157810   5.517   6.021   8.108
19311TIP3    H257811   5.556   5.876   8.082
19312TIP3   OH257812   4.304   5.591   8.278
19312TIP3    H157813   4.330   5.565   8.369
19312TIP3    H257814   4.375   5.546   8.227
19313TIP3   OH257815   4.495   5.461   8.133
19313TIP3    H157816   4.511   5.376   8.182
19313TIP3    H257817   4.586   5.498   8.128
19314TIP3   OH257818   4.762   5.558   8.134
19314TIP3    H157819   4.793   5.466   8.121
19314TIP3    H257820   4.803   5.577   8.220
19315TIP3   OH257821   5.339   4.214   8.224
19315TIP3    H157822   5.295   4.144   8.276
19315TIP3    H257823   5.410   4.164   8.178
19316TIP3   OH257824   5.865   4.090   8.130
19316TIP3    H157825   5.903   4.143   8.056
19316TIP3    H257826   5.770   4.111   8.123
19317TIP3   OH257827   5.957   4.194   7.893
19317TIP3    H157828   6.033   4.143   7.856
19317TIP3    H257829   5.991   4.286   7.879
19318TIP3   OH257830   4.588   3.922   8.243
19318TIP3    H157831   4.495   3.890   8.240
19318TIP3    H257832   4.637   3.838   8.235
19319TIP3   OH257833   4.381   3.789   7.891
19319TIP3    H157834   4.404   3.847   7.816
19319TIP3    H257835   4.343   3.853   7.954
19320TIP3   OH257836   5.031   3.952   8.122
19320TIP3    H157837   5.088   4.003   8.062
19320TIP3    H257838   5.048   3.994   8.207
19321TIP3   OH257839   5.580   4.099   8.106
19321TIP3    H157840   5.576   4.066   8.016
19321TIP3    H257841   5.564   4.017   8.159
19322TIP3   OH257842   5.607   4.021   7.667
19322TIP3    H157843   5.520   4.064   7.677
19322TIP3    H257844   5.592   3.937   7.714
19323TIP3   OH257845   4.092   5.359   7.669
19323TIP3    H157846   4.007   5.325   7.635
19323TIP3    H257847   4.079   5.454   7.654
19324TIP3   OH257848   4.489   3.949   7.655
19324TIP3    H157849   4.538   3.888   7.596
19324TIP3    H257850   4.561   4.004   7.690
19325TIP3   OH257851   5.003   4.124   7.752
19325TIP3    H157852   5.065   4.079   7.812
19325TIP3    H257853   5.023   4.217   7.775
19326TIP3   OH257854   4.863   5.553   7.250
19326TIP3    H157855   4.951   5.574   7.214
19326TIP3    H257856   4.840   5.477   7.192
19327TIP3   OH257857   5.582   5.668   7.343
19327TIP3    H157858   5.573   5.570   7.330
19327TIP3    H257859   5.536   5.701   7.263
19328TIP3   OH257860   4.796   4.199   9.129
19328TIP3    H157861   4.762   4.131   9.190
19328TIP3    H257862   4.890   4.202   9.157
19329TIP3   OH257863   5.042   4.198   9.251
19329TIP3    H157864   5.129   4.171   9.216
19329TIP3    H257865   5.030   4.132   9.322
19330TIP3   OH257866   4.167   5.389   7.309
19330TIP3    H157867   4.163   5.416   7.401
19330TIP3    H257868   4.256   5.348   7.301
19331TIP3   OH257869   5.867   4.259   9.039
19331TIP3    H157870   5.888   4.229   9.130
19331TIP3    H257871   5.955   4.256   8.996
19332TIP3   OH257872   5.809   5.813   8.531
19332TIP3    H157873   5.730   5.781   8.484
19332TIP3    H257874   5.789   5.909   8.533
19333TIP3   OH257875   7.074   5.184   7.298
19333TIP3    H157876   7.047   5.277   7.281
19333TIP3    H257877   6.993   5.138   7.270
19334TIP3   OH257878   7.078   5.179   7.674
19334TIP3    H157879   7.102   5.156   7.765
19334TIP3    H257880   7.028   5.101   7.646
19335TIP3   OH257881   6.374   5.080   8.042
19335TIP3    H157882   6.405   5.014   8.106
19335TIP3    H257883   6.450   5.141   8.040
19336TIP3   OH257884   7.317   5.478   7.362
19336TIP3    H157885   7.300   5.420   7.438
19336TIP3    H257886   7.345   5.560   7.407
19337TIP3   OH257887   6.342   5.490   7.770
19337TIP3    H157888   6.334   5.392   7.773
19337TIP3    H257889   6.439   5.498   7.766
19338TIP3   OH257890   6.051   4.697   7.556
19338TIP3    H157891   6.000   4.779   7.568
19338TIP3    H257892   5.982   4.638   7.522
19339TIP3   OH257893   6.111   4.981   7.724
19339TIP3    H157894   6.159   4.905   7.762
19339TIP3    H257895   6.168   5.005   7.650
19340TIP3   OH257896   6.963   5.950   7.374
19340TIP3    H157897   7.011   5.878   7.328
19340TIP3    H257898   6.959   5.916   7.464
19341TIP3   OH257899   6.872   5.410   7.726
19341TIP3    H157900   6.908   5.336   7.675
19341TIP3    H257901   6.956   5.454   7.751
19342TIP3   OH257902   7.873   4.736   7.716
19342TIP3    H157903   7.906   4.813   7.767
19342TIP3    H257904   7.917   4.750   7.630
19343TIP3   OH257905   7.292   4.919   7.754
19343TIP3    H157906   7.323   4.829   7.775
19343TIP3    H257907   7.261   4.907   7.662
19344TIP3   OH257908   6.622   4.571   7.724
19344TIP3    H157909   6.598   4.643   7.662
19344TIP3    H257910   6.574   4.497   7.681
19345TIP3   OH257911   7.324   4.670   7.345
19345TIP3    H157912   7.384   4.624   7.407
19345TIP3    H257913   7.362   4.646   7.259
19346TIP3   OH257914   6.256   4.775   7.831
19346TIP3    H157915   6.337   4.751   7.880
19346TIP3    H257916   6.265   4.717   7.753
19347TIP3   OH257917   6.697   4.972   7.620
19347TIP3    H157918   6.789   4.944   7.637
19347TIP3    H257919   6.656   4.888   7.591
19348TIP3   OH257920   7.951   4.931   7.896
19348TIP3    H157921   7.871   4.985   7.879
19348TIP3    H257922   7.979   4.968   7.982
19349TIP3   OH257923   6.618   4.551   8.157
19349TIP3    H157924   6.559   4.596   8.093
19349TIP3    H257925   6.568   4.567   8.240
19350TIP3   OH257926   6.967   5.404   7.168
19350TIP3    H157927   6.923   5.384   7.085
19350TIP3    H257928   6.925   5.490   7.191
19351TIP3   OH257929   6.724   5.329   7.957
19351TIP3    H157930   6.660   5.393   7.995
19351TIP3    H257931   6.766   5.383   7.887
19352TIP3   OH257932   7.540   4.673   7.524
19352TIP3    H157933   7.512   4.600   7.582
19352TIP3    H257934   7.616   4.707   7.574
19353TIP3   OH257935   6.490   4.668   7.944
19353TIP3    H157936   6.550   4.743   7.965
19353TIP3    H257937   6.538   4.629   7.868
19354TIP3   OH257938   6.551   5.521   8.051
19354TIP3    H157939   6.526   5.608   8.012
19354TIP3    H257940   6.472   5.507   8.109
19355TIP3   OH257941   5.950   5.213   7.288
19355TIP3    H157942   5.906   5.238   7.205
19355TIP3    H257943   5.978   5.299   7.325
19356TIP3   OH257944   7.385   5.725   7.526
19356TIP3    H157945   7.295   5.720   7.566
19356TIP3    H257946   7.381   5.813   7.482
19357TIP3   OH257947   7.678   4.628   7.890
19357TIP3    H157948   7.592   4.663   7.864
19357TIP3    H257949   7.738   4.662   7.820
19358TIP3   OH257950   6.980   4.277   7.874
19358TIP3    H157951   6.967   4.181   7.893
19358TIP3    H257952   6.900   4.312   7.918
19359TIP3   OH257953   7.091   5.777   7.204
19359TIP3    H157954   7.141   5.696   7.181
19359TIP3    H257955   7.150   5.844   7.162
19360TIP3   OH257956   7.231   5.561   7.110
19360TIP3    H157957   7.196   5.484   7.065
19360TIP3    H257958   7.266   5.522   7.193
19361TIP3   OH257959   7.612   5.643   7.873
19361TIP3    H157960   7.605   5.567   7.812
19361TIP3    H257961   7.597   5.719   7.812
19362TIP3   OH257962   6.905   5.035   7.127
19362TIP3    H157963   6.823   5.085   7.109
19362TIP3    H257964   6.946   5.034   7.039
19363TIP3   OH257965   6.864   4.819   6.847
19363TIP3    H157966   6.933   4.871   6.892
19363TIP3    H257967   6.920   4.755   6.799
19364TIP3   OH257968   7.806   5.271   7.711
19364TIP3    H157969   7.728   5.330   7.719
19364TIP3    H257970   7.841   5.300   7.624
19365TIP3   OH257971   7.244   5.120   7.100
19365TIP3    H157972   7.180   5.151   7.168
19365TIP3    H257973   7.318   5.098   7.156
19366TIP3   OH257974   7.488   5.159   8.011
19366TIP3    H157975   7.489   5.242   8.063
19366TIP3    H257976   7.399   5.165   7.969
19367TIP3   OH257977   6.484   5.117   7.516
19367TIP3    H157978   6.442   5.060   7.449
19367TIP3    H257979   6.561   5.064   7.543
19368TIP3   OH257980   6.614   5.529   7.665
19368TIP3    H157981   6.593   5.482   7.583
19368TIP3    H257982   6.704   5.497   7.684
19369TIP3   OH257983   6.626   5.086   7.871
19369TIP3    H157984   6.655   5.071   7.779
19369TIP3    H257985   6.664   5.174   7.892
19370TIP3   OH257986   7.145   5.725   7.648
19370TIP3    H157987   7.131   5.806   7.700
19370TIP3    H257988   7.131   5.654   7.713
19371TIP3   OH257989   6.757   5.644   8.194
19371TIP3    H157990   6.699   5.707   8.242
19371TIP3    H257991   6.690   5.591   8.147
19372TIP3   OH257992   7.096   4.969   6.924
19372TIP3    H157993   7.151   5.033   6.975
19372TIP3    H257994   7.119   4.995   6.832
19373TIP3   OH257995   6.511   5.202   8.293
19373TIP3    H157996   6.516   5.288   8.340
19373TIP3    H257997   6.416   5.183   8.303
19374TIP3   OH257998   6.836   5.657   7.202
19374TIP3    H157999   6.913   5.713   7.222
19374TIP3    H258000   6.773   5.720   7.164
19375TIP3   OH258001   6.553   5.814   8.281
19375TIP3    H158002   6.517   5.810   8.190
19375TIP3    H258003   6.474   5.793   8.335
19376TIP3   OH258004   7.609   4.220   6.974
19376TIP3    H158005   7.527   4.239   7.025
19376TIP3    H258006   7.620   4.303   6.923
19377TIP3   OH258007   6.351   4.959   7.322
19377TIP3    H158008   6.285   5.005   7.264
19377TIP3    H258009   6.308   4.874   7.336
19378TIP3   OH258010   7.408   5.586   6.523
19378TIP3    H158011   7.416   5.682   6.507
19378TIP3    H258012   7.501   5.557   6.511
19379TIP3   OH258013   6.132   5.343   8.229
19379TIP3    H158014   6.067   5.320   8.159
19379TIP3    H258015   6.168   5.256   8.254
19380TIP3   OH258016   5.985   5.536   7.863
19380TIP3    H158017   6.081   5.531   7.853
19380TIP3    H258018   5.975   5.616   7.916
19381TIP3   OH258019   7.852   5.986   7.917
19381TIP3    H158020   7.850   5.889   7.932
19381TIP3    H258021   7.768   6.012   7.962
19382TIP3   OH258022   6.956   5.775   8.050
19382TIP3    H158023   6.957   5.867   8.084
19382TIP3    H258024   6.886   5.735   8.106
19383TIP3   OH258025   6.714   5.903   7.003
19383TIP3    H158026   6.670   5.882   6.919
19383TIP3    H258027   6.682   5.993   7.023
19384TIP3   OH258028   6.154   5.754   7.386
19384TIP3    H158029   6.202   5.743   7.471
19384TIP3    H258030   6.094   5.677   7.390
19385TIP3   OH258031   6.918   5.803   6.645
19385TIP3    H158032   6.977   5.734   6.607
19385TIP3    H258033   6.954   5.811   6.736
19386TIP3   OH258034   6.967   5.852   6.916
19386TIP3    H158035   6.879   5.860   6.959
19386TIP3    H258036   7.019   5.810   6.986
19387TIP3   OH258037   7.741   5.118   8.193
19387TIP3    H158038   7.661   5.133   8.141
19387TIP3    H258039   7.755   5.022   8.182
19388TIP3   OH258040   6.337   5.526   8.219
19388TIP3    H158041   6.387   5.509   8.302
19388TIP3    H258042   6.263   5.462   8.227
19389TIP3   OH258043   6.733   4.346   7.997
19389TIP3    H158044   6.650   4.306   7.968
19389TIP3    H258045   6.701   4.426   8.045
19390TIP3   OH258046   7.263   4.464   8.200
19390TIP3    H158047   7.301   4.492   8.284
19390TIP3    H258048   7.169   4.446   8.226
19391TIP3   OH258049   7.506   4.893   8.111
19391TIP3    H158050   7.462   4.890   8.199
19391TIP3    H258051   7.486   4.983   8.079
19392TIP3   OH258052   7.168   5.025   6.670
19392TIP3    H158053   7.136   4.999   6.582
19392TIP3    H258054   7.248   5.075   6.646
19393TIP3   OH258055   6.885   4.399   6.971
19393TIP3    H158056   6.851   4.397   7.062
19393TIP3    H258057   6.845   4.316   6.937
19394TIP3   OH258058   6.669   4.864   8.020
19394TIP3    H158059   6.618   4.885   8.101
19394TIP3    H258060   6.653   4.945   7.966
19395TIP3   OH258061   6.552   4.751   7.533
19395TIP3    H158062   6.459   4.725   7.551
19395TIP3    H258063   6.564   4.710   7.445
19396TIP3   OH258064   7.044   4.839   7.261
19396TIP3    H158065   6.988   4.909   7.221
19396TIP3    H258066   7.100   4.813   7.185
19397TIP3   OH258067   7.217   5.116   8.346
19397TIP3    H158068   7.195   5.045   8.410
19397TIP3    H258069   7.309   5.134   8.370
19398TIP3   OH258070   7.215   4.874   7.492
19398TIP3    H158071   7.146   4.908   7.432
19398TIP3    H258072   7.229   4.787   7.450
19399TIP3   OH258073   6.488   4.894   8.229
19399TIP3    H158074   6.510   4.958   8.298
19399TIP3    H258075   6.474   4.812   8.281
19400TIP3   OH258076   6.538   4.372   6.938
19400TIP3    H158077   6.530   4.368   7.035
19400TIP3    H258078   6.457   4.422   6.915
19401TIP3   OH258079   6.078   4.420   7.804
19401TIP3    H158080   6.155   4.446   7.860
19401TIP3    H258081   6.119   4.377   7.728
19402TIP3   OH258082   6.056   4.398   7.327
19402TIP3    H158083   6.101   4.438   7.250
19402TIP3    H258084   5.995   4.471   7.350
19403TIP3   OH258085   7.211   5.114   7.923
19403TIP3    H158086   7.244   5.041   7.867
19403TIP3    H258087   7.182   5.064   8.002
19404TIP3   OH258088   6.879   4.577   7.596
19404TIP3    H158089   6.793   4.572   7.643
19404TIP3    H258090   6.941   4.574   7.671
19405TIP3   OH258091   6.314   4.629   7.604
19405TIP3    H158092   6.219   4.635   7.578
19405TIP3    H258093   6.337   4.536   7.582
19406TIP3   OH258094   6.586   4.628   7.291
19406TIP3    H158095   6.679   4.642   7.265
19406TIP3    H258096   6.536   4.649   7.208
19407TIP3   OH258097   7.365   4.650   7.788
19407TIP3    H158098   7.338   4.662   7.882
19407TIP3    H258099   7.299   4.585   7.760
19408TIP3   OH258100   6.422   4.659   7.072
19408TIP3    H158101   6.348   4.615   7.026
19408TIP3    H258102   6.473   4.693   6.996
19409TIP3   OH258103   7.540   6.339   8.014
19409TIP3    H158104   7.540   6.363   7.919
19409TIP3    H258105   7.618   6.386   8.046
19410TIP3   OH258106   6.498   5.448   8.438
19410TIP3    H158107   6.578   5.479   8.486
19410TIP3    H258108   6.433   5.448   8.511
19411TIP3   OH258109   6.964   4.902   7.695
19411TIP3    H158110   7.031   4.852   7.648
19411TIP3    H258111   6.968   4.864   7.785
19412TIP3   OH258112   6.490   4.391   7.568
19412TIP3    H158113   6.448   4.314   7.615
19412TIP3    H258114   6.539   4.345   7.499
19413TIP3   OH258115   6.940   4.799   7.981
19413TIP3    H158116   6.849   4.833   7.996
19413TIP3    H258117   6.995   4.859   8.035
19414TIP3   OH258118   6.677   5.188   7.079
19414TIP3    H158119   6.604   5.124   7.067
19414TIP3    H258120   6.658   5.223   7.170
19415TIP3   OH258121   7.578   5.425   7.705
19415TIP3    H158122   7.607   5.476   7.625
19415TIP3    H258123   7.488   5.397   7.681
19416TIP3   OH258124   7.134   4.504   6.946
19416TIP3    H158125   7.037   4.483   6.946
19416TIP3    H258126   7.135   4.601   6.952
19417TIP3   OH258127   7.073   5.506   8.075
19417TIP3    H158128   7.097   5.485   8.167
19417TIP3    H258129   7.037   5.596   8.082
19418TIP3   OH258130   7.226   4.758   7.044
19418TIP3    H158131   7.310   4.745   6.997
19418TIP3    H258132   7.185   4.830   6.992
19419TIP3   OH258133   6.369   5.212   7.755
19419TIP3    H158134   6.406   5.182   7.670
19419TIP3    H258135   6.403   5.145   7.817
19420TIP3   OH258136   6.822   5.338   6.899
19420TIP3    H158137   6.775   5.425   6.905
19420TIP3    H258138   6.766   5.283   6.958
19421TIP3   OH258139   6.247   5.131   8.366
19421TIP3    H158140   6.269   5.118   8.461
19421TIP3    H258141   6.178   5.065   8.352
19422TIP3   OH258142   6.972   5.244   8.387
19422TIP3    H158143   6.914   5.185   8.336
19422TIP3    H258144   7.061   5.213   8.358
19423TIP3   OH258145   7.235   5.762   7.971
19423TIP3    H158146   7.139   5.766   7.983
19423TIP3    H258147   7.265   5.816   8.047
19424TIP3   OH258148   7.658   4.843   6.867
19424TIP3    H158149   7.588   4.794   6.818
19424TIP3    H258150   7.647   4.930   6.823
19425TIP3   OH258151   7.863   5.693   7.963
19425TIP3    H158152   7.765   5.690   7.954
19425TIP3    H258153   7.889   5.665   7.872
19426TIP3   OH258154   7.338   5.657   6.784
19426TIP3    H158155   7.325   5.583   6.844
19426TIP3    H258156   7.359   5.614   6.699
19427TIP3   OH258157   7.333   5.291   7.624
19427TIP3    H158158   7.238   5.269   7.636
19427TIP3    H258159   7.373   5.204   7.627
19428TIP3   OH258160   6.467   5.512   7.376
19428TIP3    H158161   6.469   5.595   7.325
19428TIP3    H258162   6.372   5.499   7.387
19429TIP3   OH258163   6.031   4.820   7.080
19429TIP3    H158164   6.077   4.903   7.101
19429TIP3    H258165   5.954   4.826   7.141
19430TIP3   OH258166   6.612   5.282   7.325
19430TIP3    H158167   6.575   5.371   7.341
19430TIP3    H258168   6.572   5.231   7.399
19431TIP3   OH258169   6.737   5.858   7.848
19431TIP3    H158170   6.778   5.931   7.798
19431TIP3    H258171   6.814   5.825   7.899
19432TIP3   OH258172   6.389   5.753   7.232
19432TIP3    H158173   6.302   5.760   7.277
19432TIP3    H258174   6.419   5.846   7.234
19433TIP3   OH258175   7.126   5.491   7.807
19433TIP3    H158176   7.117   5.492   7.904
19433TIP3    H258177   7.212   5.446   7.797
19434TIP3   OH258178   7.097   5.382   6.688
19434TIP3    H158179   7.151   5.360   6.768
19434TIP3    H258180   7.008   5.359   6.719
19435TIP3   OH258181   7.375   6.027   7.857
19435TIP3    H158182   7.295   5.971   7.847
19435TIP3    H258183   7.361   6.093   7.785
19436TIP3   OH258184   7.439   5.861   6.509
19436TIP3    H158185   7.483   5.931   6.457
19436TIP3    H258186   7.360   5.910   6.538
19437TIP3   OH258187   6.462   4.637   8.375
19437TIP3    H158188   6.365   4.638   8.386
19437TIP3    H258189   6.487   4.570   8.441
19438TIP3   OH258190   7.259   5.323   6.906
19438TIP3    H158191   7.251   5.254   6.974
19438TIP3    H258192   7.355   5.322   6.890
19439TIP3   OH258193   6.177   5.723   8.008
19439TIP3    H158194   6.227   5.646   8.037
19439TIP3    H258195   6.205   5.789   8.071
19440TIP3   OH258196   6.467   5.366   6.687
19440TIP3    H158197   6.481   5.275   6.657
19440TIP3    H258198   6.449   5.353   6.782
19441TIP3   OH258199   6.414   5.371   6.960
19441TIP3    H158200   6.482   5.344   7.023
19441TIP3    H258201   6.418   5.469   6.966
19442TIP3   OH258202   6.150   5.066   7.163
19442TIP3    H158203   6.084   5.109   7.220
19442TIP3    H258204   6.164   5.136   7.096
19443TIP3   OH258205   7.299   4.698   8.048
19443TIP3    H158206   7.373   4.743   8.093
19443TIP3    H258207   7.282   4.620   8.105
19444TIP3   OH258208   7.172   4.455   7.218
19444TIP3    H158209   7.157   4.470   7.123
19444TIP3    H258210   7.198   4.543   7.249
19445TIP3   OH258211   6.678   5.568   6.910
19445TIP3    H158212   6.592   5.598   6.944
19445TIP3    H258213   6.695   5.637   6.844
19446TIP3   OH258214   6.872   4.629   7.323
19446TIP3    H158215   6.933   4.705   7.306
19446TIP3    H258216   6.870   4.626   7.420
19447TIP3   OH258217   7.136   4.952   8.131
19447TIP3    H158218   7.151   5.010   8.209
19447TIP3    H258219   7.193   4.877   8.152
19448TIP3   OH258220   7.013   4.363   7.431
19448TIP3    H158221   7.000   4.443   7.485
19448TIP3    H258222   7.070   4.398   7.359
19449TIP3   OH258223   6.420   5.644   6.975
19449TIP3    H158224   6.390   5.714   6.912
19449TIP3    H258225   6.404   5.688   7.062
19450TIP3   OH258226   6.522   4.356   7.213
19450TIP3    H158227   6.518   4.445   7.253
19450TIP3    H258228   6.618   4.337   7.223
19451TIP3   OH258229   7.774   4.851   8.114
19451TIP3    H158230   7.676   4.847   8.116
19451TIP3    H258231   7.792   4.820   8.024
19452TIP3   OH258232   6.138   5.277   6.970
19452TIP3    H158233   6.201   5.350   6.978
19452TIP3    H258234   6.185   5.223   6.903
19453TIP3   OH258235   6.086   4.551   7.100
19453TIP3    H158236   6.083   4.648   7.096
19453TIP3    H258237   6.000   4.526   7.066
19454TIP3   OH258238   7.395   5.998   7.450
19454TIP3    H158239   7.354   6.048   7.376
19454TIP3    H258240   7.490   6.019   7.431
19455TIP3   OH258241   6.013   5.491   7.360
19455TIP3    H158242   5.937   5.520   7.412
19455TIP3    H258243   5.991   5.529   7.272
19456TIP3   OH258244   6.166   6.027   8.428
19456TIP3    H158245   6.252   6.027   8.475
19456TIP3    H258246   6.145   5.932   8.427
19457TIP3   OH258247   6.650   5.997   8.472
19457TIP3    H158248   6.744   5.978   8.482
19457TIP3    H258249   6.626   5.939   8.397
19458TIP3   OH258250   6.631   5.572   6.604
19458TIP3    H158251   6.575   5.499   6.640
19458TIP3    H258252   6.706   5.520   6.568
19459TIP3   OH258253   7.289   5.899   8.204
19459TIP3    H158254   7.280   5.830   8.274
19459TIP3    H258255   7.366   5.951   8.235
19460TIP3   OH258256   7.066   5.613   6.511
19460TIP3    H158257   7.117   5.554   6.568
19460TIP3    H258258   7.121   5.616   6.430
19461TIP3   OH258259   6.297   5.435   8.629
19461TIP3    H158260   6.315   5.339   8.632
19461TIP3    H258261   6.209   5.438   8.586
19462TIP3   OH258262   6.274   5.089   6.820
19462TIP3    H158263   6.328   5.054   6.893
19462TIP3    H258264   6.342   5.093   6.749
19463TIP3   OH258265   6.907   5.520   8.402
19463TIP3    H158266   6.864   5.534   8.315
19463TIP3    H258267   6.937   5.427   8.395
19464TIP3   OH258268   6.781   5.285   6.629
19464TIP3    H158269   6.784   5.298   6.725
19464TIP3    H258270   6.780   5.187   6.624
19465TIP3   OH258271   7.397   5.525   8.003
19465TIP3    H158272   7.472   5.572   7.963
19465TIP3    H258273   7.327   5.593   7.996
19466TIP3   OH258274   6.416   5.168   8.609
19466TIP3    H158275   6.489   5.108   8.592
19466TIP3    H258276   6.439   5.202   8.698
19467TIP3   OH258277   6.486   4.989   7.046
19467TIP3    H158278   6.455   4.948   7.128
19467TIP3    H258279   6.518   4.913   6.995
19468TIP3   OH258280   6.752   5.055   8.273
19468TIP3    H158281   6.674   5.114   8.277
19468TIP3    H258282   6.798   5.088   8.192
19469TIP3   OH258283   6.582   4.782   6.885
19469TIP3    H158284   6.554   4.783   6.791
19469TIP3    H258285   6.679   4.791   6.876
19470TIP3   OH258286   7.265   5.454   8.405
19470TIP3    H158287   7.351   5.440   8.363
19470TIP3    H258288   7.268   5.390   8.478
19471TIP3   OH258289   7.405   5.115   6.547
19471TIP3    H158290   7.385   5.069   6.463
19471TIP3    H258291   7.376   5.206   6.522
19472TIP3   OH258292   6.877   4.843   8.399
19472TIP3    H158293   6.872   4.762   8.344
19472TIP3    H258294   6.831   4.909   8.342
19473TIP3   OH258295   6.877   4.626   8.203
19473TIP3    H158296   6.902   4.670   8.119
19473TIP3    H258297   6.783   4.603   8.186
19474TIP3   OH258298   6.907   5.164   8.076
19474TIP3    H158299   6.989   5.176   8.026
19474TIP3    H258300   6.850   5.233   8.036
19475TIP3   OH258301   7.487   5.132   8.458
19475TIP3    H158302   7.541   5.054   8.477
19475TIP3    H258303   7.555   5.195   8.429
19476TIP3   OH258304   7.529   5.382   8.192
19476TIP3    H158305   7.471   5.436   8.134
19476TIP3    H258306   7.616   5.404   8.153
19477TIP3   OH258307   6.752   4.957   8.627
19477TIP3    H158308   6.683   4.889   8.642
19477TIP3    H258309   6.787   4.931   8.540
19478TIP3   OH258310   7.008   4.394   8.269
19478TIP3    H158311   6.957   4.475   8.248
19478TIP3    H258312   6.938   4.325   8.257
19479TIP3   OH258313   7.138   4.898   8.488
19479TIP3    H158314   7.126   4.889   8.584
19479TIP3    H258315   7.047   4.874   8.459
19480TIP3   OH258316   7.372   4.835   8.341
19480TIP3    H158317   7.299   4.849   8.404
19480TIP3    H258318   7.447   4.813   8.401
19481TIP3   OH258319   7.599   4.777   8.496
19481TIP3    H158320   7.609   4.684   8.525
19481TIP3    H258321   7.598   4.826   8.582
19482TIP3   OH258322   6.593   4.738   8.679
19482TIP3    H158323   6.595   4.647   8.645
19482TIP3    H258324   6.626   4.724   8.770
19483TIP3   OH258325   7.114   4.413   8.519
19483TIP3    H158326   7.147   4.324   8.535
19483TIP3    H258327   7.063   4.402   8.436
19484TIP3   OH258328   7.169   4.620   8.689
19484TIP3    H158329   7.146   4.553   8.622
19484TIP3    H258330   7.093   4.681   8.685
19485TIP3   OH258331   6.390   5.849   6.789
19485TIP3    H158332   6.485   5.845   6.769
19485TIP3    H258333   6.358   5.894   6.709
19486TIP3   OH258334   5.870   5.228   7.006
19486TIP3    H158335   5.965   5.250   6.993
19486TIP3    H258336   5.865   5.139   6.964
19487TIP3   OH258337   5.784   5.841   7.417
19487TIP3    H158338   5.716   5.779   7.383
19487TIP3    H258339   5.828   5.785   7.484
19488TIP3   OH258340   5.920   5.695   7.605
19488TIP3    H158341   5.908   5.620   7.664
19488TIP3    H258342   5.970   5.755   7.663
19489TIP3   OH258343   7.644   6.096   7.404
19489TIP3    H158344   7.674   6.136   7.488
19489TIP3    H258345   7.708   6.133   7.342
19490TIP3   OH258346   7.674   6.115   7.690
19490TIP3    H158347   7.637   6.025   7.683
19490TIP3    H258348   7.755   6.097   7.739
19491TIP3   OH258349   7.722   5.789   8.259
19491TIP3    H158350   7.650   5.798   8.323
19491TIP3    H258351   7.764   5.877   8.263
19492TIP3   OH258352   7.537   5.305   6.880
19492TIP3    H158353   7.604   5.370   6.848
19492TIP3    H258354   7.584   5.267   6.957
19493TIP3   OH258355   7.667   5.178   7.088
19493TIP3    H158356   7.622   5.164   7.171
19493TIP3    H258357   7.752   5.217   7.119
19494TIP3   OH258358   7.716   5.558   7.512
19494TIP3    H158359   7.775   5.500   7.460
19494TIP3    H258360   7.713   5.638   7.456
19495TIP3   OH258361   7.553   5.859   7.713
19495TIP3    H158362   7.484   5.905   7.764
19495TIP3    H258363   7.502   5.813   7.643
19496TIP3   OH258364   7.603   5.079   6.732
19496TIP3    H158365   7.533   5.082   6.663
19496TIP3    H258366   7.578   5.158   6.783
19497TIP3   OH258367   7.466   4.753   6.696
19497TIP3    H158368   7.440   4.794   6.613
19497TIP3    H258369   7.446   4.658   6.679
19498TIP3   OH258370   6.109   5.100   7.976
19498TIP3    H158371   6.107   5.070   7.883
19498TIP3    H258372   6.206   5.101   7.993
19499TIP3   OH258373   7.770   5.450   8.085
19499TIP3    H158374   7.844   5.386   8.078
19499TIP3    H258375   7.800   5.523   8.028
19500TIP3   OH258376   7.955   5.257   8.107
19500TIP3    H158377   7.883   5.206   8.148
19500TIP3    H258378   8.030   5.195   8.119
19501TIP3   OH258379   7.420   4.486   6.676
19501TIP3    H158380   7.498   4.455   6.725
19501TIP3    H258381   7.350   4.423   6.699
19502TIP3   OH258382   7.638   4.938   7.600
19502TIP3    H158383   7.732   4.961   7.579
19502TIP3    H258384   7.639   4.964   7.695
19503TIP3   OH258385   7.700   5.056   7.847
19503TIP3    H158386   7.627   5.094   7.901
19503TIP3    H258387   7.737   5.137   7.805
19504TIP3   OH258388   6.325   4.789   8.654
19504TIP3    H158389   6.423   4.781   8.652
19504TIP3    H258390   6.301   4.703   8.694
19505TIP3   OH258391   8.155   4.644   8.410
19505TIP3    H158392   8.216   4.581   8.367
19505TIP3    H258393   8.132   4.705   8.336
19506TIP3   OH258394   7.573   4.496   7.175
19506TIP3    H158395   7.634   4.473   7.248
19506TIP3    H258396   7.522   4.414   7.165
19507TIP3   OH258397   6.283   4.475   7.980
19507TIP3    H158398   6.329   4.393   8.004
19507TIP3    H258399   6.355   4.541   7.978
19508TIP3   OH258400   6.090   4.753   8.056
19508TIP3    H158401   6.139   4.744   7.972
19508TIP3    H258402   6.121   4.840   8.085
19509TIP3   OH258403   8.032   4.793   8.218
19509TIP3    H158404   7.945   4.831   8.241
19509TIP3    H258405   8.005   4.722   8.157
19510TIP3   OH258406   7.669   4.428   6.794
19510TIP3    H158407   7.711   4.355   6.744
19510TIP3    H258408   7.736   4.499   6.788
19511TIP3   OH258409   6.070   4.257   7.557
19511TIP3    H158410   5.976   4.255   7.581
19511TIP3    H258411   6.070   4.314   7.477
19512TIP3   OH258412   7.231   5.962   7.064
19512TIP3    H158413   7.277   5.941   6.980
19512TIP3    H258414   7.293   6.022   7.105
19513TIP3   OH258415   6.298   4.359   8.382
19513TIP3    H158416   6.244   4.332   8.459
19513TIP3    H258417   6.229   4.376   8.316
19514TIP3   OH258418   6.333   5.761   8.449
19514TIP3    H158419   6.241   5.733   8.432
19514TIP3    H258420   6.342   5.744   8.544
19515TIP3   OH258421   6.510   5.792   7.996
19515TIP3    H158422   6.461   5.868   7.957
19515TIP3    H258423   6.596   5.807   7.951
19516TIP3   OH258424   6.958   6.041   8.133
19516TIP3    H158425   6.999   6.041   8.222
19516TIP3    H258426   7.025   6.091   8.082
19517TIP3   OH258427   7.137   6.190   7.990
19517TIP3    H158428   7.210   6.139   7.952
19517TIP3    H258429   7.186   6.249   8.052
19518TIP3   OH258430   7.928   4.555   8.092
19518TIP3    H158431   7.837   4.550   8.058
19518TIP3    H258432   7.959   4.462   8.079
19519TIP3   OH258433   6.188   6.053   8.018
19519TIP3    H158434   6.099   6.088   7.995
19519TIP3    H258435   6.196   6.084   8.109
19520TIP3   OH258436   6.424   6.030   7.876
19520TIP3    H158437   6.338   6.044   7.922
19520TIP3    H258438   6.403   6.064   7.786
19521TIP3   OH258439   6.851   6.061   7.673
19521TIP3    H158440   6.780   6.083   7.609
19521TIP3    H258441   6.864   6.148   7.718
19522TIP3   OH258442   7.118   5.998   7.723
19522TIP3    H158443   7.024   6.017   7.705
19522TIP3    H258444   7.162   6.076   7.685
19523TIP3   OH258445   7.324   6.192   7.642
19523TIP3    H158446   7.311   6.277   7.594
19523TIP3    H258447   7.353   6.132   7.569
19524TIP3   OH258448   6.100   5.847   7.765
19524TIP3    H158449   6.126   5.822   7.856
19524TIP3    H258450   6.171   5.803   7.714
19525TIP3   OH258451   6.292   5.717   7.620
19525TIP3    H158452   6.307   5.633   7.668
19525TIP3    H258453   6.382   5.754   7.616
19526TIP3   OH258454   6.558   5.814   7.622
19526TIP3    H158455   6.589   5.723   7.610
19526TIP3    H258456   6.600   5.835   7.707
19527TIP3   OH258457   7.138   4.469   7.714
19527TIP3    H158458   7.090   4.402   7.766
19527TIP3    H258459   7.201   4.415   7.664
19528TIP3   OH258460   7.661   4.352   7.621
19528TIP3    H158461   7.699   4.399   7.544
19528TIP3    H258462   7.565   4.362   7.608
19529TIP3   OH258463   7.752   4.452   7.383
19529TIP3    H158464   7.823   4.396   7.343
19529TIP3    H258465   7.790   4.541   7.365
19530TIP3   OH258466   6.383   4.183   7.702
19530TIP3    H158467   6.295   4.150   7.730
19530TIP3    H258468   6.438   4.111   7.740
19531TIP3   OH258469   6.161   4.046   7.370
19531TIP3    H158470   6.197   4.107   7.303
19531TIP3    H258471   6.140   4.108   7.443
19532TIP3   OH258472   6.826   4.213   7.603
19532TIP3    H158473   6.891   4.264   7.553
19532TIP3    H258474   6.839   4.244   7.693
19533TIP3   OH258475   7.381   4.358   7.583
19533TIP3    H158476   7.372   4.312   7.498
19533TIP3    H258477   7.366   4.282   7.645
19534TIP3   OH258478   7.403   4.276   7.154
19534TIP3    H158479   7.314   4.314   7.161
19534TIP3    H258480   7.390   4.191   7.201
19535TIP3   OH258481   5.887   5.616   7.156
19535TIP3    H158482   5.803   5.582   7.121
19535TIP3    H258483   5.875   5.710   7.140
19536TIP3   OH258484   6.285   4.209   7.137
19536TIP3    H158485   6.335   4.145   7.083
19536TIP3    H258486   6.357   4.262   7.176
19537TIP3   OH258487   6.800   4.381   7.236
19537TIP3    H158488   6.853   4.331   7.300
19537TIP3    H258489   6.822   4.472   7.263
19538TIP3   OH258490   6.658   5.810   6.737
19538TIP3    H158491   6.748   5.830   6.701
19538TIP3    H258492   6.636   5.734   6.678
19539TIP3   OH258493   7.371   5.923   6.831
19539TIP3    H158494   7.364   5.825   6.814
19539TIP3    H258495   7.334   5.957   6.747
19540TIP3   OH258496   6.590   4.466   8.625
19540TIP3    H158497   6.557   4.390   8.675
19540TIP3    H258498   6.685   4.463   8.649
19541TIP3   OH258499   6.840   4.456   8.741
19541TIP3    H158500   6.926   4.428   8.706
19541TIP3    H258501   6.823   4.386   8.807
19542TIP3   OH258502   5.964   5.646   6.796
19542TIP3    H158503   5.961   5.671   6.889
19542TIP3    H258504   6.052   5.604   6.787
19543TIP3   OH258505   7.656   4.481   8.516
19543TIP3    H158506   7.680   4.471   8.611
19543TIP3    H258507   7.743   4.504   8.477
19544TIP3   OH258508   7.605   6.070   8.018
19544TIP3    H158509   7.526   6.039   7.971
19544TIP3    H258510   7.588   6.166   8.019
19545TIP3   OH258511   8.866   5.441   6.787
19545TIP3    H158512   8.841   5.533   6.766
19545TIP3    H258513   8.791   5.394   6.748
19546TIP3   OH258514   8.864   5.442   7.164
19546TIP3    H158515   8.896   5.411   7.250
19546TIP3    H258516   8.827   5.362   7.124
19547TIP3   OH258517   8.167   5.339   7.536
19547TIP3    H158518   8.203   5.273   7.598
19547TIP3    H258519   8.246   5.392   7.517
19548TIP3   OH258520   9.103   5.729   6.839
19548TIP3    H158521   9.105   5.664   6.910
19548TIP3    H258522   9.110   5.813   6.886
19549TIP3   OH258523   8.139   5.741   7.261
19549TIP3    H158524   8.132   5.644   7.262
19549TIP3    H258525   8.235   5.752   7.246
19550TIP3   OH258526   7.835   4.940   7.054
19550TIP3    H158527   7.798   5.029   7.052
19550TIP3    H258528   7.772   4.893   6.996
19551TIP3   OH258529   7.907   5.234   7.200
19551TIP3    H158530   7.958   5.162   7.243
19551TIP3    H258531   7.976   5.277   7.147
19552TIP3   OH258532   8.765   6.202   6.867
19552TIP3    H158533   8.803   6.130   6.813
19552TIP3    H258534   8.762   6.162   6.955
19553TIP3   OH258535   8.668   5.665   7.217
19553TIP3    H158536   8.706   5.591   7.167
19553TIP3    H258537   8.752   5.712   7.238
19554TIP3   OH258538   9.677   4.983   7.210
19554TIP3    H158539   9.703   5.065   7.256
19554TIP3    H258540   9.711   5.000   7.120
19555TIP3   OH258541   9.074   5.168   7.250
19555TIP3    H158542   9.123   5.085   7.268
19555TIP3    H258543   9.049   5.154   7.156
19556TIP3   OH258544   8.413   4.827   7.215
19556TIP3    H158545   8.398   4.900   7.151
19556TIP3    H258546   8.367   4.755   7.167
19557TIP3   OH258547   9.110   4.918   6.836
19557TIP3    H158548   9.184   4.904   6.900
19557TIP3    H258549   9.160   4.954   6.761
19558TIP3   OH258550   8.051   5.030   7.318
19558TIP3    H158551   8.136   5.012   7.364
19558TIP3    H258552   8.065   4.977   7.237
19559TIP3   OH258553   8.492   5.227   7.114
19559TIP3    H158554   8.587   5.203   7.124
19559TIP3    H258555   8.455   5.144   7.079
19560TIP3   OH258556   9.743   5.185   7.389
19560TIP3    H158557   9.673   5.248   7.362
19560TIP3    H258558   9.785   5.234   7.462
19561TIP3   OH258559   8.413   4.810   7.645
19561TIP3    H158560   8.355   4.849   7.577
19561TIP3    H258561   8.363   4.831   7.726
19562TIP3   OH258562   8.757   5.663   6.649
19562TIP3    H158563   8.698   5.644   6.575
19562TIP3    H258564   8.719   5.747   6.680
19563TIP3   OH258565   8.520   5.585   7.443
19563TIP3    H158566   8.458   5.652   7.479
19563TIP3    H258567   8.564   5.634   7.371
19564TIP3   OH258568   9.323   4.922   7.006
19564TIP3    H158569   9.322   4.873   7.089
19564TIP3    H258570   9.383   4.995   7.026
19565TIP3   OH258571   8.282   4.926   7.432
19565TIP3    H158572   8.345   4.999   7.454
19565TIP3    H258573   8.332   4.885   7.356
19566TIP3   OH258574   8.348   5.779   7.539
19566TIP3    H158575   8.324   5.863   7.496
19566TIP3    H258576   8.268   5.767   7.596
19567TIP3   OH258577   7.740   5.470   6.778
19567TIP3    H158578   7.708   5.496   6.689
19567TIP3    H258579   7.773   5.556   6.813
19568TIP3   OH258580   9.207   5.987   7.024
19568TIP3    H158581   9.119   5.962   7.064
19568TIP3    H258582   9.248   5.903   7.008
19569TIP3   OH258583   9.473   4.880   7.374
19569TIP3    H158584   9.388   4.920   7.348
19569TIP3    H258585   9.534   4.917   7.307
19570TIP3   OH258586   8.772   4.531   7.357
19570TIP3    H158587   8.762   4.436   7.375
19570TIP3    H258588   8.694   4.568   7.404
19571TIP3   OH258589   8.884   6.034   6.687
19571TIP3    H158590   8.934   5.951   6.663
19571TIP3    H258591   8.942   6.100   6.643
19572TIP3   OH258592   9.025   5.818   6.591
19572TIP3    H158593   8.981   5.742   6.551
19572TIP3    H258594   9.061   5.778   6.673
19573TIP3   OH258595   9.408   5.906   7.368
19573TIP3    H158596   9.398   5.829   7.307
19573TIP3    H258597   9.399   5.980   7.304
19574TIP3   OH258598   8.707   5.288   6.616
19574TIP3    H158599   8.623   5.338   6.600
19574TIP3    H258600   8.749   5.294   6.529
19575TIP3   OH258601   8.660   5.074   6.334
19575TIP3    H158602   8.725   5.126   6.385
19575TIP3    H258603   8.720   5.014   6.286
19576TIP3   OH258604   9.045   5.373   6.589
19576TIP3    H158605   8.992   5.401   6.667
19576TIP3    H258606   9.129   5.348   6.632
19577TIP3   OH258607   9.280   5.414   7.500
19577TIP3    H158608   9.284   5.501   7.544
19577TIP3    H258609   9.198   5.424   7.448
19578TIP3   OH258610   8.276   5.373   7.009
19578TIP3    H158611   8.238   5.317   6.938
19578TIP3    H258612   8.357   5.323   7.032
19579TIP3   OH258613   8.403   5.773   7.158
19579TIP3    H158614   8.388   5.745   7.066
19579TIP3    H258615   8.496   5.748   7.172
19580TIP3   OH258616   8.410   5.347   7.357
19580TIP3    H158617   8.447   5.324   7.269
19580TIP3    H258618   8.458   5.431   7.378
19581TIP3   OH258619   8.920   5.975   7.132
19581TIP3    H158620   8.923   6.059   7.183
19581TIP3    H258621   8.920   5.907   7.203
19582TIP3   OH258622   8.552   5.900   7.685
19582TIP3    H158623   8.493   5.965   7.728
19582TIP3    H258624   8.487   5.848   7.634
19583TIP3   OH258625   8.893   5.230   6.412
19583TIP3    H158626   8.948   5.290   6.466
19583TIP3    H258627   8.918   5.257   6.321
19584TIP3   OH258628   8.309   5.457   7.784
19584TIP3    H158629   8.314   5.545   7.828
19584TIP3    H258630   8.213   5.442   7.786
19585TIP3   OH258631   8.627   5.919   6.707
19585TIP3    H158632   8.707   5.974   6.709
19585TIP3    H258633   8.570   5.967   6.645
19586TIP3   OH258634   8.348   6.075   7.770
19586TIP3    H158635   8.316   6.072   7.677
19586TIP3    H258636   8.268   6.049   7.820
19587TIP3   OH258637   9.404   4.476   6.460
19587TIP3    H158638   9.324   4.496   6.512
19587TIP3    H258639   9.417   4.560   6.411
19588TIP3   OH258640   8.142   5.216   6.815
19588TIP3    H158641   8.087   5.264   6.751
19588TIP3    H258642   8.104   5.128   6.811
19589TIP3   OH258643   9.202   5.843   6.005
19589TIP3    H158644   9.210   5.940   5.996
19589TIP3    H258645   9.295   5.814   5.994
19590TIP3   OH258646   7.926   5.600   7.717
19590TIP3    H158647   7.868   5.576   7.643
19590TIP3    H258648   7.966   5.514   7.744
19591TIP3   OH258649   7.784   5.788   7.357
19591TIP3    H158650   7.878   5.784   7.338
19591TIP3    H258651   7.778   5.872   7.405
19592TIP3   OH258652   8.754   6.024   7.542
19592TIP3    H158653   8.747   6.117   7.572
19592TIP3    H258654   8.681   5.983   7.593
19593TIP3   OH258655   8.511   6.156   6.491
19593TIP3    H158656   8.468   6.130   6.407
19593TIP3    H258657   8.479   6.247   6.504
19594TIP3   OH258658   7.945   6.010   6.874
19594TIP3    H158659   8.001   6.000   6.954
19594TIP3    H258660   7.889   5.931   6.883
19595TIP3   OH258661   8.714   6.062   6.130
19595TIP3    H158662   8.771   5.990   6.097
19595TIP3    H258663   8.743   6.068   6.223
19596TIP3   OH258664   8.764   6.110   6.401
19596TIP3    H158665   8.673   6.116   6.440
19596TIP3    H258666   8.809   6.059   6.469
19597TIP3   OH258667   9.543   5.378   7.673
19597TIP3    H158668   9.468   5.394   7.613
19597TIP3    H258669   9.556   5.282   7.663
19598TIP3   OH258670   8.133   5.783   7.707
19598TIP3    H158671   8.184   5.766   7.789
19598TIP3    H258672   8.059   5.720   7.715
19599TIP3   OH258673   8.531   4.604   7.487
19599TIP3    H158674   8.441   4.577   7.463
19599TIP3    H258675   8.511   4.690   7.529
19600TIP3   OH258676   9.066   4.722   7.682
19600TIP3    H158677   9.134   4.695   7.746
19600TIP3    H258678   8.982   4.701   7.727
19601TIP3   OH258679   9.301   5.146   7.595
19601TIP3    H158680   9.257   5.149   7.682
19601TIP3    H258681   9.286   5.237   7.560
19602TIP3   OH258682   8.962   5.279   6.154
19602TIP3    H158683   8.933   5.254   6.065
19602TIP3    H258684   9.040   5.334   6.135
19603TIP3   OH258685   8.675   4.658   6.457
19603TIP3    H158686   8.646   4.657   6.550
19603TIP3    H258687   8.640   4.572   6.428
19604TIP3   OH258688   8.460   5.122   7.504
19604TIP3    H158689   8.415   5.147   7.587
19604TIP3    H258690   8.446   5.203   7.450
19605TIP3   OH258691   8.349   5.005   7.021
19605TIP3    H158692   8.255   4.984   7.034
19605TIP3    H258693   8.364   4.968   6.932
19606TIP3   OH258694   8.837   5.089   6.746
19606TIP3    H158695   8.785   5.163   6.707
19606TIP3    H258696   8.894   5.065   6.671
19607TIP3   OH258697   9.012   5.375   7.838
19607TIP3    H158698   8.992   5.300   7.898
19607TIP3    H258699   9.107   5.385   7.850
19608TIP3   OH258700   8.994   5.122   6.990
19608TIP3    H158701   8.939   5.157   6.916
19608TIP3    H258702   9.026   5.041   6.946
19609TIP3   OH258703   8.279   5.153   7.718
19609TIP3    H158704   8.315   5.216   7.782
19609TIP3    H258705   8.275   5.071   7.770
19610TIP3   OH258706   8.328   4.624   6.425
19610TIP3    H158707   8.326   4.625   6.523
19610TIP3    H258708   8.253   4.682   6.404
19611TIP3   OH258709   7.870   4.680   7.302
19611TIP3    H158710   7.950   4.709   7.351
19611TIP3    H258711   7.905   4.649   7.217
19612TIP3   OH258712   7.853   4.652   6.815
19612TIP3    H158713   7.898   4.690   6.737
19612TIP3    H258714   7.793   4.727   6.836
19613TIP3   OH258715   8.997   5.369   7.410
19613TIP3    H158716   9.034   5.298   7.353
19613TIP3    H258717   8.975   5.317   7.490
19614TIP3   OH258718   8.672   4.828   7.083
19614TIP3    H158719   8.592   4.829   7.139
19614TIP3    H258720   8.743   4.833   7.148
19615TIP3   OH258721   8.106   4.883   7.093
19615TIP3    H158722   8.011   4.883   7.066
19615TIP3    H258723   8.137   4.795   7.066
19616TIP3   OH258724   8.381   4.882   6.778
19616TIP3    H158725   8.476   4.898   6.760
19616TIP3    H258726   8.337   4.907   6.693
19617TIP3   OH258727   9.167   4.907   7.285
19617TIP3    H158728   9.128   4.918   7.375
19617TIP3    H258729   9.103   4.845   7.245
19618TIP3   OH258730   8.218   4.910   6.556
19618TIP3    H158731   8.146   4.871   6.502
19618TIP3    H258732   8.271   4.953   6.486
19619TIP3   OH258733   8.294   5.703   7.926
19619TIP3    H158734   8.374   5.736   7.971
19619TIP3    H258735   8.230   5.706   8.000
19620TIP3   OH258736   8.759   5.152   7.176
19620TIP3    H158737   8.834   5.122   7.122
19620TIP3    H258738   8.780   5.116   7.263
19621TIP3   OH258739   8.280   4.649   7.054
19621TIP3    H158740   8.254   4.566   7.098
19621TIP3    H258741   8.338   4.618   6.983
19622TIP3   OH258742   8.734   5.047   7.479
19622TIP3    H158743   8.648   5.092   7.484
19622TIP3    H258744   8.795   5.111   7.522
19623TIP3   OH258745   8.476   5.416   6.582
19623TIP3    H158746   8.387   5.390   6.553
19623TIP3    H258747   8.456   5.477   6.656
19624TIP3   OH258748   9.347   5.705   7.202
19624TIP3    H158749   9.424   5.688   7.144
19624TIP3    H258750   9.283   5.639   7.169
19625TIP3   OH258751   8.931   4.759   6.423
19625TIP3    H158752   8.833   4.748   6.430
19625TIP3    H258753   8.945   4.853   6.447
19626TIP3   OH258754   8.863   5.757   7.566
19626TIP3    H158755   8.896   5.746   7.656
19626TIP3    H258756   8.835   5.851   7.565
19627TIP3   OH258757   9.002   5.003   6.526
19627TIP3    H158758   9.097   5.011   6.544
19627TIP3    H258759   8.982   5.084   6.475
19628TIP3   OH258760   8.154   5.454   7.243
19628TIP3    H158761   8.195   5.438   7.155
19628TIP3    H258762   8.214   5.404   7.300
19629TIP3   OH258763   8.041   5.391   7.855
19629TIP3    H158764   8.071   5.380   7.948
19629TIP3    H258765   7.977   5.318   7.846
19630TIP3   OH258766   8.768   5.500   7.875
19630TIP3    H158767   8.713   5.446   7.816
19630TIP3    H258768   8.858   5.470   7.848
19631TIP3   OH258769   9.030   6.017   7.458
19631TIP3    H158770   8.934   6.021   7.467
19631TIP3    H258771   9.059   6.076   7.531
19632TIP3   OH258772   9.440   5.093   6.366
19632TIP3    H158773   9.378   5.048   6.303
19632TIP3    H258774   9.438   5.182   6.325
19633TIP3   OH258775   9.664   5.941   7.451
19633TIP3    H158776   9.568   5.947   7.435
19633TIP3    H258777   9.693   5.915   7.361
19634TIP3   OH258778   9.140   5.914   6.271
19634TIP3    H158779   9.119   5.846   6.336
19634TIP3    H258780   9.153   5.864   6.189
19635TIP3   OH258781   9.133   5.542   7.112
19635TIP3    H158782   9.040   5.514   7.121
19635TIP3    H258783   9.172   5.464   7.067
19636TIP3   OH258784   8.265   5.772   6.875
19636TIP3    H158785   8.278   5.850   6.818
19636TIP3    H258786   8.171   5.756   6.861
19637TIP3   OH258787   7.827   5.076   6.565
19637TIP3    H158788   7.876   5.158   6.583
19637TIP3    H258789   7.751   5.086   6.626
19638TIP3   OH258790   8.406   5.539   6.816
19638TIP3    H158791   8.374   5.630   6.827
19638TIP3    H258792   8.364   5.494   6.891
19639TIP3   OH258793   8.532   6.115   7.334
19639TIP3    H158794   8.570   6.188   7.281
19639TIP3    H258795   8.612   6.082   7.379
19640TIP3   OH258796   8.193   6.010   6.729
19640TIP3    H158797   8.102   6.020   6.761
19640TIP3    H258798   8.223   6.103   6.724
19641TIP3   OH258799   8.928   5.746   7.296
19641TIP3    H158800   8.921   5.740   7.393
19641TIP3    H258801   9.008   5.693   7.279
19642TIP3   OH258802   8.898   5.641   6.171
19642TIP3    H158803   8.946   5.615   6.253
19642TIP3    H258804   8.806   5.628   6.198
19643TIP3   OH258805   9.162   6.289   7.350
19643TIP3    H158806   9.092   6.230   7.323
19643TIP3    H258807   9.161   6.355   7.276
19644TIP3   OH258808   9.236   6.119   5.996
19644TIP3    H158809   9.276   6.194   5.949
19644TIP3    H258810   9.155   6.163   6.029
19645TIP3   OH258811   8.259   4.894   7.864
19645TIP3    H158812   8.164   4.899   7.882
19645TIP3    H258813   8.290   4.834   7.934
19646TIP3   OH258814   9.055   5.573   6.391
19646TIP3    H158815   9.046   5.509   6.464
19646TIP3    H258816   9.152   5.574   6.380
19647TIP3   OH258817   7.968   5.979   7.497
19647TIP3    H158818   8.026   5.906   7.524
19647TIP3    H258819   8.003   6.052   7.551
19648TIP3   OH258820   8.231   5.612   6.174
19648TIP3    H158821   8.275   5.531   6.147
19648TIP3    H258822   8.259   5.619   6.267
19649TIP3   OH258823   8.211   5.626   6.467
19649TIP3    H158824   8.308   5.619   6.475
19649TIP3    H258825   8.203   5.724   6.459
19650TIP3   OH258826   7.943   5.319   6.649
19650TIP3    H158827   7.881   5.371   6.705
19650TIP3    H258828   7.968   5.386   6.583
19651TIP3   OH258829   9.087   4.962   7.544
19651TIP3    H158830   9.171   5.000   7.573
19651TIP3    H258831   9.080   4.880   7.598
19652TIP3   OH258832   8.970   4.712   6.705
19652TIP3    H158833   8.959   4.737   6.611
19652TIP3    H258834   9.011   4.793   6.742
19653TIP3   OH258835   8.661   4.887   6.808
19653TIP3    H158836   8.726   4.958   6.788
19653TIP3    H258837   8.669   4.882   6.906
19654TIP3   OH258838   8.929   5.206   7.620
19654TIP3    H158839   8.952   5.260   7.699
19654TIP3    H258840   8.989   5.130   7.628
19655TIP3   OH258841   8.808   4.618   6.912
19655TIP3    H158842   8.804   4.692   6.974
19655TIP3    H258843   8.868   4.655   6.843
19656TIP3   OH258844   8.167   5.896   6.460
19656TIP3    H158845   8.172   5.968   6.394
19656TIP3    H258846   8.200   5.940   6.540
19657TIP3   OH258847   8.318   4.613   6.703
19657TIP3    H158848   8.317   4.705   6.735
19657TIP3    H258849   8.414   4.594   6.711
19658TIP3   OH258850   9.570   5.106   7.607
19658TIP3    H158851   9.472   5.100   7.598
19658TIP3    H258852   9.597   5.098   7.514
19659TIP3   OH258853   9.222   5.303   6.989
19659TIP3    H158854   9.151   5.238   7.000
19659TIP3    H258855   9.297   5.260   7.036
19660TIP3   OH258856   7.935   5.537   6.456
19660TIP3    H158857   8.003   5.605   6.472
19660TIP3    H258858   7.983   5.485   6.388
19661TIP3   OH258859   7.879   4.805   6.591
19661TIP3    H158860   7.883   4.903   6.584
19661TIP3    H258861   7.798   4.786   6.544
19662TIP3   OH258862   9.147   6.242   6.915
19662TIP3    H158863   9.080   6.201   6.857
19662TIP3    H258864   9.216   6.176   6.913
19663TIP3   OH258865   8.263   4.528   7.466
19663TIP3    H158866   8.236   4.495   7.378
19663TIP3    H258867   8.256   4.448   7.522
19664TIP3   OH258868   7.808   5.740   6.852
19664TIP3    H158869   7.727   5.780   6.885
19664TIP3    H258870   7.808   5.777   6.761
19665TIP3   OH258871   7.963   6.281   7.917
19665TIP3    H158872   8.050   6.280   7.962
19665TIP3    H258873   7.943   6.186   7.913
19666TIP3   OH258874   8.458   6.246   7.965
19666TIP3    H158875   8.551   6.219   7.955
19666TIP3    H258876   8.419   6.199   7.890
19667TIP3   OH258877   8.420   5.836   6.081
19667TIP3    H158878   8.390   5.788   6.160
19667TIP3    H258879   8.508   5.797   6.073
19668TIP3   OH258880   9.089   6.157   7.691
19668TIP3    H158881   9.064   6.089   7.757
19668TIP3    H258882   9.168   6.197   7.731
19669TIP3   OH258883   8.863   5.869   5.998
19669TIP3    H158884   8.906   5.806   6.058
19669TIP3    H258885   8.924   5.871   5.922
19670TIP3   OH258886   8.093   5.691   8.116
19670TIP3    H158887   8.111   5.596   8.120
19670TIP3    H258888   8.005   5.694   8.073
19671TIP3   OH258889   8.068   5.340   6.309
19671TIP3    H158890   8.127   5.312   6.382
19671TIP3    H258891   8.136   5.354   6.239
19672TIP3   OH258892   8.701   5.775   7.889
19672TIP3    H158893   8.661   5.792   7.802
19672TIP3    H258894   8.733   5.683   7.881
19673TIP3   OH258895   8.582   5.540   6.109
19673TIP3    H158896   8.555   5.582   6.194
19673TIP3    H258897   8.571   5.445   6.128
19674TIP3   OH258898   9.192   5.786   7.499
19674TIP3    H158899   9.268   5.820   7.447
19674TIP3    H258900   9.125   5.855   7.478
19675TIP3   OH258901   8.210   5.420   8.097
19675TIP3    H158902   8.289   5.370   8.076
19675TIP3    H258903   8.234   5.456   8.185
19676TIP3   OH258904   8.255   5.239   6.523
19676TIP3    H158905   8.261   5.206   6.613
19676TIP3    H258906   8.308   5.174   6.473
19677TIP3   OH258907   8.544   5.306   7.754
19677TIP3    H158908   8.471   5.372   7.761
19677TIP3    H258909   8.595   5.342   7.678
19678TIP3   OH258910   8.380   5.035   6.374
19678TIP3    H158911   8.353   5.042   6.280
19678TIP3    H258912   8.477   5.048   6.366
19679TIP3   OH258913   9.065   5.714   7.892
19679TIP3    H158914   9.144   5.695   7.840
19679TIP3    H258915   9.066   5.644   7.959
19680TIP3   OH258916   9.204   5.373   6.031
19680TIP3    H158917   9.178   5.326   5.949
19680TIP3    H258918   9.172   5.463   6.008
19681TIP3   OH258919   8.669   5.097   7.887
19681TIP3    H158920   8.672   5.018   7.830
19681TIP3    H258921   8.628   5.163   7.827
19682TIP3   OH258922   8.672   4.883   7.695
19682TIP3    H158923   8.702   4.927   7.612
19682TIP3    H258924   8.579   4.861   7.673
19683TIP3   OH258925   8.702   5.421   7.566
19683TIP3    H158926   8.786   5.427   7.516
19683TIP3    H258927   8.649   5.491   7.522
19684TIP3   OH258928   9.298   5.388   7.962
19684TIP3    H158929   9.340   5.305   7.936
19684TIP3    H258930   9.359   5.453   7.923
19685TIP3   OH258931   9.322   5.639   7.683
19685TIP3    H158932   9.267   5.694   7.622
19685TIP3    H258933   9.411   5.658   7.643
19686TIP3   OH258934   8.545   5.214   8.113
19686TIP3    H158935   8.477   5.145   8.126
19686TIP3    H258936   8.583   5.187   8.026
19687TIP3   OH258937   8.806   4.650   7.759
19687TIP3    H158938   8.758   4.733   7.736
19687TIP3    H258939   8.737   4.583   7.746
19688TIP3   OH258940   8.931   5.155   7.976
19688TIP3    H158941   8.918   5.145   8.072
19688TIP3    H258942   8.841   5.130   7.945
19689TIP3   OH258943   9.174   5.111   7.833
19689TIP3    H158944   9.095   5.106   7.891
19689TIP3    H258945   9.245   5.076   7.891
19690TIP3   OH258946   9.389   5.043   7.995
19690TIP3    H158947   9.407   4.947   8.007
19690TIP3    H258948   9.395   5.078   8.086
19691TIP3   OH258949   8.385   4.994   8.167
19691TIP3    H158950   8.398   4.904   8.131
19691TIP3    H258951   8.422   4.982   8.257
19692TIP3   OH258952   8.900   4.659   8.017
19692TIP3    H158953   8.969   4.589   8.011
19692TIP3    H258954   8.861   4.653   7.927
19693TIP3   OH258955   8.965   4.874   8.176
19693TIP3    H158956   8.943   4.803   8.111
19693TIP3    H258957   8.888   4.934   8.168
19694TIP3   OH258958   8.186   6.103   6.274
19694TIP3    H158959   8.283   6.099   6.258
19694TIP3    H258960   8.161   6.152   6.194
19695TIP3   OH258961   7.668   5.483   6.497
19695TIP3    H158962   7.762   5.509   6.480
19695TIP3    H258963   7.665   5.396   6.452
19696TIP3   OH258964   7.571   6.097   6.910
19696TIP3    H158965   7.510   6.031   6.871
19696TIP3    H258966   7.622   6.042   6.973
19697TIP3   OH258967   7.712   5.954   7.092
19697TIP3    H158968   7.710   5.875   7.149
19697TIP3    H258969   7.768   6.013   7.146
19698TIP3   OH258970   9.450   6.362   6.846
19698TIP3    H158971   9.467   6.343   6.942
19698TIP3    H258972   9.541   6.362   6.812
19699TIP3   OH258973   9.526   6.325   7.171
19699TIP3    H158974   9.447   6.286   7.199
19699TIP3    H258975   9.584   6.308   7.250
19700TIP3   OH258976   9.335   5.562   6.363
19700TIP3    H158977   9.406   5.624   6.340
19700TIP3    H258978   9.374   5.520   6.444
19701TIP3   OH258979   9.453   5.425   6.563
19701TIP3    H158980   9.397   5.386   6.633
19701TIP3    H258981   9.531   5.459   6.614
19702TIP3   OH258982   9.500   5.828   6.977
19702TIP3    H158983   9.556   5.755   6.948
19702TIP3    H258984   9.546   5.903   6.934
19703TIP3   OH258985   9.348   6.124   7.218
19703TIP3    H158986   9.277   6.171   7.268
19703TIP3    H258987   9.298   6.085   7.142
19704TIP3   OH258988   9.402   5.333   6.218
19704TIP3    H158989   9.329   5.340   6.152
19704TIP3    H258990   9.379   5.408   6.276
19705TIP3   OH258991   9.272   5.006   6.171
19705TIP3    H158992   9.229   5.049   6.096
19705TIP3    H258993   9.245   4.913   6.159
19706TIP3   OH258994   9.273   5.281   6.720
19706TIP3    H158995   9.289   5.185   6.719
19706TIP3    H258996   9.264   5.300   6.816
19707TIP3   OH258997   7.906   5.354   7.462
19707TIP3    H158998   7.909   5.332   7.367
19707TIP3    H258999   8.002   5.358   7.482
19708TIP3   OH259000   9.561   5.708   7.579
19708TIP3    H159001   9.641   5.652   7.579
19708TIP3    H259002   9.593   5.785   7.528
19709TIP3   OH259003   9.761   5.525   7.601
19709TIP3    H159004   9.682   5.472   7.626
19709TIP3    H259005   9.830   5.456   7.612
19710TIP3   OH259006   9.217   4.740   6.158
19710TIP3    H159007   9.295   4.713   6.211
19710TIP3    H259008   9.146   4.681   6.189
19711TIP3   OH259009   9.272   4.996   6.614
19711TIP3    H159010   9.315   4.908   6.627
19711TIP3    H259011   9.330   5.033   6.545
19712TIP3   OH259012   9.446   5.186   7.101
19712TIP3    H159013   9.517   5.235   7.057
19712TIP3    H259014   9.458   5.220   7.193
19713TIP3   OH259015   9.496   5.314   7.344
19713TIP3    H159016   9.420   5.361   7.385
19713TIP3    H259017   9.535   5.388   7.290
19714TIP3   OH259018   8.118   5.041   8.130
19714TIP3    H159019   8.216   5.039   8.136
19714TIP3    H259020   8.097   4.959   8.179
19715TIP3   OH259021   9.991   4.928   7.881
19715TIP3    H159022  10.020   4.846   7.836
19715TIP3    H259023   9.940   4.973   7.810
19716TIP3   OH259024   9.384   4.747   6.651
19716TIP3    H159025   9.433   4.732   6.734
19716TIP3    H259026   9.324   4.670   6.650
19717TIP3   OH259027   8.080   4.736   7.478
19717TIP3    H159028   8.143   4.661   7.483
19717TIP3    H259029   8.143   4.810   7.466
19718TIP3   OH259030   7.887   5.015   7.538
19718TIP3    H159031   7.942   5.007   7.457
19718TIP3    H259032   7.920   5.098   7.575
19719TIP3   OH259033   9.814   5.042   7.712
19719TIP3    H159034   9.724   5.082   7.708
19719TIP3    H259035   9.804   4.976   7.641
19720TIP3   OH259036   9.464   4.686   6.280
19720TIP3    H159037   9.507   4.613   6.231
19720TIP3    H259038   9.531   4.757   6.277
19721TIP3   OH259039   7.864   4.519   7.050
19721TIP3    H159040   7.768   4.518   7.066
19721TIP3    H259041   7.870   4.573   6.968
19722TIP3   OH259042   9.037   6.216   6.559
19722TIP3    H159043   9.072   6.198   6.469
19722TIP3    H259044   9.099   6.283   6.587
19723TIP3   OH259045   8.086   4.592   7.859
19723TIP3    H159046   8.038   4.590   7.943
19723TIP3    H259047   8.020   4.629   7.799
19724TIP3   OH259048   8.129   6.016   7.939
19724TIP3    H159049   8.038   5.989   7.918
19724TIP3    H259050   8.133   6.000   8.034
19725TIP3   OH259051   8.306   6.051   7.484
19725TIP3    H159052   8.260   6.127   7.444
19725TIP3    H259053   8.393   6.064   7.439
19726TIP3   OH259054   8.728   6.286   7.620
19726TIP3    H159055   8.775   6.293   7.705
19726TIP3    H259056   8.795   6.329   7.559
19727TIP3   OH259057   8.912   6.408   7.463
19727TIP3    H159058   8.946   6.368   7.382
19727TIP3    H259059   8.993   6.422   7.515
19728TIP3   OH259060   9.725   4.809   7.580
19728TIP3    H159061   9.635   4.808   7.541
19728TIP3    H259062   9.754   4.716   7.563
19729TIP3   OH259063   7.984   6.304   7.510
19729TIP3    H159064   7.895   6.336   7.484
19729TIP3    H259065   7.996   6.353   7.593
19730TIP3   OH259066   8.219   6.284   7.363
19730TIP3    H159067   8.133   6.299   7.408
19730TIP3    H259068   8.201   6.320   7.274
19731TIP3   OH259069   8.642   6.314   7.163
19731TIP3    H159070   8.580   6.338   7.092
19731TIP3    H259071   8.660   6.402   7.203
19732TIP3   OH259072   8.913   6.254   7.209
19732TIP3    H159073   8.823   6.272   7.179
19732TIP3    H259074   8.965   6.321   7.157
19733TIP3   OH259075   9.092   6.439   7.114
19733TIP3    H159076   9.108   6.531   7.094
19733TIP3    H259077   9.137   6.394   7.037
19734TIP3   OH259078   7.892   6.101   7.251
19734TIP3    H159079   7.922   6.079   7.342
19734TIP3    H259080   7.966   6.060   7.200
19735TIP3   OH259081   8.086   5.975   7.107
19735TIP3    H159082   8.107   5.889   7.151
19735TIP3    H259083   8.176   6.014   7.100
19736TIP3   OH259084   8.349   6.072   7.111
19736TIP3    H159085   8.387   5.986   7.087
19736TIP3    H259086   8.396   6.090   7.194
19737TIP3   OH259087   8.928   4.725   7.194
19737TIP3    H159088   8.888   4.655   7.247
19737TIP3    H259089   9.004   4.679   7.152
19738TIP3   OH259090   9.454   4.603   7.105
19738TIP3    H159091   9.493   4.655   7.031
19738TIP3    H259092   9.360   4.627   7.099
19739TIP3   OH259093   9.548   4.704   6.869
19739TIP3    H159094   9.621   4.653   6.828
19739TIP3    H259095   9.583   4.796   6.854
19740TIP3   OH259096   8.179   4.434   7.218
19740TIP3    H159097   8.088   4.401   7.215
19740TIP3    H259098   8.230   4.350   7.213
19741TIP3   OH259099   7.962   4.303   6.860
19741TIP3    H159100   7.997   4.360   6.789
19741TIP3    H259101   7.936   4.369   6.927
19742TIP3   OH259102   8.620   4.469   7.096
19742TIP3    H159103   8.678   4.518   7.035
19742TIP3    H259104   8.648   4.505   7.182
19743TIP3   OH259105   9.168   4.613   7.081
19743TIP3    H159106   9.170   4.580   6.991
19743TIP3    H259107   9.154   4.530   7.133
19744TIP3   OH259108   9.200   4.534   6.640
19744TIP3    H159109   9.113   4.577   6.650
19744TIP3    H259110   9.184   4.450   6.688
19745TIP3   OH259111   7.676   5.874   6.653
19745TIP3    H159112   7.594   5.843   6.610
19745TIP3    H259113   7.673   5.967   6.628
19746TIP3   OH259114   8.082   4.463   6.628
19746TIP3    H159115   8.132   4.402   6.570
19746TIP3    H259116   8.154   4.519   6.663
19747TIP3   OH259117   8.595   4.636   6.726
19747TIP3    H159118   8.658   4.592   6.785
19747TIP3    H259119   8.615   4.730   6.749
19748TIP3   OH259120   8.453   6.078   6.224
19748TIP3    H159121   8.542   6.092   6.186
19748TIP3    H259122   8.437   5.988   6.190
19749TIP3   OH259123   9.170   6.181   6.319
19749TIP3    H159124   9.163   6.084   6.303
19749TIP3    H259125   9.127   6.216   6.238
19750TIP3   OH259126   8.387   4.712   8.104
19750TIP3    H159127   8.356   4.643   8.164
19750TIP3    H259128   8.482   4.716   8.129
19751TIP3   OH259129   8.635   4.713   8.223
19751TIP3    H159130   8.720   4.689   8.183
19751TIP3    H259131   8.625   4.642   8.290
19752TIP3   OH259132   7.757   5.894   6.285
19752TIP3    H159133   7.770   5.931   6.374
19752TIP3    H259134   7.847   5.857   6.266
19753TIP3   OH259135   9.459   4.777   8.008
19753TIP3    H159136   9.480   4.743   8.098
19753TIP3    H259137   9.546   4.772   7.964
19754TIP3   OH259138  10.011   5.572   6.979
19754TIP3    H159139   9.992   5.512   7.052
19754TIP3    H259140  10.006   5.658   7.025
19755TIP3   OH259141   9.646   5.197   6.525
19755TIP3    H159142   9.619   5.286   6.552
19755TIP3    H259143   9.563   5.161   6.491
19756TIP3   OH259144   9.695   5.479   6.669
19756TIP3    H159145   9.735   5.428   6.742
19756TIP3    H259146   9.763   5.545   6.652
19757TIP3   OH259147  10.408   5.928   6.670
19757TIP3    H159148  10.437   5.851   6.619
19757TIP3    H259149  10.474   5.933   6.742
19758TIP3   OH259150  10.199   5.086   6.709
19758TIP3    H159151  10.197   5.154   6.639
19758TIP3    H259152  10.163   5.010   6.659
19759TIP3   OH259153   9.841   5.290   6.806
19759TIP3    H159154   9.916   5.270   6.865
19759TIP3    H259155   9.863   5.236   6.728
19760TIP3   OH259156  10.252   5.501   6.570
19760TIP3    H159157  10.343   5.486   6.602
19760TIP3    H259158  10.222   5.409   6.551
19761TIP3   OH259159  10.210   5.068   7.139
19761TIP3    H159160  10.152   5.104   7.069
19761TIP3    H259161  10.157   5.090   7.218
19762TIP3   OH259162  10.281   5.839   6.956
19762TIP3    H159163  10.197   5.885   6.966
19762TIP3    H259164  10.333   5.901   6.902
19763TIP3   OH259165  10.071   5.177   6.926
19763TIP3    H159166  10.129   5.254   6.944
19763TIP3    H259167  10.119   5.139   6.848
19764TIP3   OH259168   9.543   5.726   6.262
19764TIP3    H159169   9.498   5.759   6.182
19764TIP3    H259170   9.574   5.810   6.302
19765TIP3   OH259171  10.057   5.644   6.459
19765TIP3    H159172  10.019   5.578   6.398
19765TIP3    H259173  10.131   5.594   6.500
19766TIP3   OH259174  10.197   6.079   6.617
19766TIP3    H159175  10.140   6.017   6.569
19766TIP3    H259176  10.274   6.019   6.636
19767TIP3   OH259177  10.280   5.591   6.838
19767TIP3    H159178  10.237   5.597   6.751
19767TIP3    H259179  10.263   5.680   6.874
19768TIP3   OH259180  10.021   5.754   7.196
19768TIP3    H159181  10.024   5.840   7.237
19768TIP3    H259182   9.946   5.711   7.243
19769TIP3   OH259183  10.409   6.202   6.200
19769TIP3    H159184  10.447   6.279   6.244
19769TIP3    H259185  10.340   6.242   6.144
19770TIP3   OH259186   9.945   5.463   6.279
19770TIP3    H159187   9.875   5.511   6.231
19770TIP3    H259188   9.894   5.391   6.319
19771TIP3   OH259189   9.726   5.851   7.201
19771TIP3    H159190   9.677   5.852   7.117
19771TIP3    H259191   9.731   5.755   7.216
19772TIP3   OH259192  10.316   6.406   5.985
19772TIP3    H159193  10.271   6.382   5.902
19772TIP3    H259194  10.273   6.491   6.007
19773TIP3   OH259195   9.745   6.265   6.355
19773TIP3    H159196   9.793   6.256   6.441
19773TIP3    H259197   9.682   6.192   6.366
19774TIP3   OH259198   9.902   6.065   7.212
19774TIP3    H159199   9.962   6.018   7.271
19774TIP3    H259200   9.839   5.993   7.188
19775TIP3   OH259201  10.319   4.859   6.988
19775TIP3    H159202  10.231   4.833   6.956
19775TIP3    H259203  10.299   4.945   7.028
19776TIP3   OH259204  10.261   5.361   6.979
19776TIP3    H159205  10.218   5.391   7.062
19776TIP3    H259206  10.259   5.445   6.927
19777TIP3   OH259207  10.145   5.258   6.504
19777TIP3    H159208  10.053   5.234   6.531
19777TIP3    H259209  10.145   5.225   6.412
19778TIP3   OH259210  10.083   5.393   7.209
19778TIP3    H159211  10.109   5.447   7.283
19778TIP3    H259212  10.065   5.308   7.252
19779TIP3   OH259213  10.111   4.900   5.913
19779TIP3    H159214  10.085   4.883   6.005
19779TIP3    H259215  10.031   4.936   5.874
19780TIP3   OH259216   9.672   4.927   6.784
19780TIP3    H159217   9.742   4.966   6.840
19780TIP3    H259218   9.718   4.906   6.702
19781TIP3   OH259219   9.647   4.912   6.301
19781TIP3    H159220   9.692   4.953   6.224
19781TIP3    H259221   9.589   4.985   6.328
19782TIP3   OH259222   9.907   5.144   6.576
19782TIP3    H159223   9.811   5.153   6.552
19782TIP3    H259224   9.928   5.052   6.555
19783TIP3   OH259225  10.157   5.162   6.246
19783TIP3    H159226  10.229   5.196   6.191
19783TIP3    H259227  10.082   5.171   6.183
19784TIP3   OH259228   9.993   5.173   6.036
19784TIP3    H159229   9.926   5.131   5.979
19784TIP3    H259230  10.058   5.202   5.969
19785TIP3   OH259231  10.075   4.904   6.537
19785TIP3    H159232  10.043   4.826   6.588
19785TIP3    H259233  10.135   4.865   6.473
19786TIP3   OH259234  10.232   5.720   6.045
19786TIP3    H159235  10.177   5.640   6.051
19786TIP3    H259236  10.252   5.740   6.138
19787TIP3   OH259237  10.008   5.716   6.732
19787TIP3    H159238  10.005   5.675   6.644
19787TIP3    H259239   9.990   5.645   6.796
19788TIP3   OH259240   9.846   5.629   7.357
19788TIP3    H159241   9.817   5.599   7.446
19788TIP3    H259242   9.782   5.581   7.299
19789TIP3   OH259243  10.057   6.023   6.344
19789TIP3    H159244  10.054   6.108   6.295
19789TIP3    H259245   9.963   6.009   6.363
19790TIP3   OH259246   9.621   5.333   6.051
19790TIP3    H159247   9.670   5.415   6.074
19790TIP3    H259248   9.546   5.338   6.114
19791TIP3   OH259249  10.234   5.810   6.319
19791TIP3    H159250  10.180   5.892   6.320
19791TIP3    H259251  10.176   5.752   6.372
19792TIP3   OH259252   9.978   6.262   6.202
19792TIP3    H159253   9.892   6.268   6.249
19792TIP3    H259254  10.008   6.355   6.208
19793TIP3   OH259255  10.051   5.145   7.356
19793TIP3    H159256   9.956   5.154   7.370
19793TIP3    H259257  10.076   5.085   7.428
19794TIP3   OH259258   9.781   6.267   7.012
19794TIP3    H159259   9.750   6.185   6.964
19794TIP3    H259260   9.827   6.225   7.086
19795TIP3   OH259261  10.066   5.875   5.660
19795TIP3    H159262  10.079   5.782   5.636
19795TIP3    H259263  10.047   5.868   5.756
19796TIP3   OH259264  10.008   5.881   5.930
19796TIP3    H159265  10.086   5.846   5.979
19796TIP3    H259266  10.014   5.977   5.948
19797TIP3   OH259267   9.739   5.578   6.136
19797TIP3    H159268   9.675   5.622   6.196
19797TIP3    H259269   9.756   5.650   6.073
19798TIP3   OH259270  10.268   6.107   5.887
19798TIP3    H159271  10.178   6.118   5.925
19798TIP3    H259272  10.270   6.182   5.826
19799TIP3   OH259273  10.004   6.158   5.948
19799TIP3    H159274   9.974   6.229   5.888
19799TIP3    H259275   9.988   6.198   6.036
19800TIP3   OH259276  10.116   4.878   6.194
19800TIP3    H159277  10.086   4.960   6.238
19800TIP3    H259278  10.200   4.911   6.155
19801TIP3   OH259279   9.730   5.793   5.943
19801TIP3    H159280   9.796   5.863   5.958
19801TIP3    H259281   9.778   5.739   5.878
19802TIP3   OH259282   9.678   5.063   6.074
19802TIP3    H159283   9.678   5.161   6.070
19802TIP3    H259284   9.589   5.043   6.043
19803TIP3   OH259285  10.054   4.784   6.951
19803TIP3    H159286  10.027   4.752   6.863
19803TIP3    H259287  10.048   4.703   7.006
19804TIP3   OH259288   9.603   5.997   6.329
19804TIP3    H159289   9.536   6.031   6.389
19804TIP3    H259290   9.577   6.041   6.244
19805TIP3   OH259291  10.208   6.094   5.576
19805TIP3    H159292  10.158   6.017   5.613
19805TIP3    H259293  10.300   6.060   5.583
19806TIP3   OH259294   9.864   5.601   5.798
19806TIP3    H159295   9.917   5.570   5.872
19806TIP3    H259296   9.933   5.610   5.729
19807TIP3   OH259297  10.070   5.497   6.019
19807TIP3    H159298  10.040   5.465   6.106
19807TIP3    H259299  10.105   5.416   5.977
19808TIP3   OH259300  10.346   5.554   7.185
19808TIP3    H159301  10.299   5.604   7.254
19808TIP3    H259302  10.314   5.600   7.105
19809TIP3   OH259303  10.176   5.289   5.867
19809TIP3    H159304  10.135   5.287   5.778
19809TIP3    H259305  10.270   5.303   5.844
19810TIP3   OH259306  10.379   5.312   7.391
19810TIP3    H159307  10.433   5.252   7.336
19810TIP3    H259308  10.403   5.399   7.357
19811TIP3   OH259309  10.468   5.143   7.183
19811TIP3    H159310  10.494   5.140   7.090
19811TIP3    H259311  10.376   5.110   7.177
19812TIP3   OH259312  10.167   5.261   7.636
19812TIP3    H159313  10.216   5.246   7.553
19812TIP3    H259314  10.213   5.341   7.671
19813TIP3   OH259315   9.980   6.361   5.760
19813TIP3    H159316  10.075   6.362   5.742
19813TIP3    H259317   9.947   6.411   5.682
19814TIP3   OH259318   9.461   5.744   5.973
19814TIP3    H159319   9.556   5.766   5.966
19814TIP3    H259320   9.459   5.653   5.936
19815TIP3   OH259321   9.385   6.347   6.385
19815TIP3    H159322   9.311   6.289   6.358
19815TIP3    H259323   9.425   6.294   6.457
19816TIP3   OH259324   9.518   6.203   6.575
19816TIP3    H159325   9.520   6.123   6.630
19816TIP3    H259326   9.556   6.266   6.638
19817TIP3   OH259327   9.894   5.286   7.603
19817TIP3    H159328   9.991   5.293   7.611
19817TIP3    H259329   9.876   5.213   7.664
19818TIP3   OH259330   9.871   4.991   6.967
19818TIP3    H159331   9.938   4.920   6.970
19818TIP3    H259332   9.929   5.069   6.955
19819TIP3   OH259333   9.664   4.761   6.524
19819TIP3    H159334   9.572   4.768   6.556
19819TIP3    H259335   9.664   4.825   6.450
19820TIP3   OH259336   9.880   4.843   7.343
19820TIP3    H159337   9.833   4.846   7.428
19820TIP3    H259338   9.815   4.887   7.284
19821TIP3   OH259339   9.700   6.365   6.745
19821TIP3    H159340   9.729   6.331   6.832
19821TIP3    H259341   9.763   6.314   6.688
19822TIP3   OH259342   9.873   6.222   6.588
19822TIP3    H159343   9.878   6.142   6.644
19822TIP3    H259344   9.966   6.251   6.581
19823TIP3   OH259345  10.127   6.330   6.556
19823TIP3    H159346  10.164   6.239   6.563
19823TIP3    H259347  10.148   6.368   6.642
19824TIP3   OH259348   9.970   4.698   6.697
19824TIP3    H159349   9.877   4.669   6.697
19824TIP3    H259350  10.014   4.610   6.701
19825TIP3   OH259351   9.760   4.559   6.345
19825TIP3    H159352   9.789   4.621   6.276
19825TIP3    H259353   9.730   4.621   6.415
19826TIP3   OH259354   9.481   6.128   6.126
19826TIP3    H159355   9.395   6.097   6.092
19826TIP3    H259356   9.468   6.224   6.122
19827TIP3   OH259357   9.873   4.725   6.116
19827TIP3    H159358   9.916   4.660   6.058
19827TIP3    H259359   9.948   4.773   6.155
19828TIP3   OH259360  10.253   6.328   5.710
19828TIP3    H159361  10.349   6.335   5.702
19828TIP3    H259362  10.231   6.254   5.649
19829TIP3   OH259363  10.138   4.954   7.568
19829TIP3    H159364  10.119   4.895   7.642
19829TIP3    H259365  10.235   4.957   7.573
19830TIP3   OH259366  10.377   4.875   7.692
19830TIP3    H159367  10.437   4.935   7.643
19830TIP3    H259368  10.353   4.937   7.764
19831TIP3   OH259369   9.554   6.160   5.770
19831TIP3    H159370   9.548   6.184   5.864
19831TIP3    H259371   9.644   6.120   5.765
19832TIP3   OH259372   1.323   6.229   8.474
19832TIP3    H159373   1.295   6.321   8.456
19832TIP3    H259374   1.244   6.181   8.443
19833TIP3   OH259375   1.332   6.223   8.844
19833TIP3    H159376   1.351   6.198   8.936
19833TIP3    H259377   1.281   6.147   8.813
19834TIP3   OH259378   1.566   6.529   8.535
19834TIP3    H159379   1.548   6.461   8.601
19834TIP3    H259380   1.589   6.606   8.590
19835TIP3   OH259381   1.211   6.997   8.544
19835TIP3    H159382   1.258   6.919   8.508
19835TIP3    H259383   1.187   6.968   8.633
19836TIP3   OH259384   1.111   6.403   8.882
19836TIP3    H159385   1.189   6.358   8.845
19836TIP3    H259386   1.153   6.481   8.920
19837TIP3   OH259387   2.130   5.775   8.901
19837TIP3    H159388   2.160   5.857   8.945
19837TIP3    H259389   2.153   5.794   8.808
19838TIP3   OH259390   1.534   5.958   8.938
19838TIP3    H159391   1.576   5.872   8.955
19838TIP3    H259392   1.501   5.945   8.847
19839TIP3   OH259393   0.900   5.621   8.901
19839TIP3    H159394   0.862   5.695   8.851
19839TIP3    H259395   0.866   5.544   8.851
19840TIP3   OH259396   1.562   5.707   8.525
19840TIP3    H159397   1.635   5.691   8.589
19840TIP3    H259398   1.613   5.742   8.450
19841TIP3   OH259399   0.945   6.024   8.817
19841TIP3    H159400   1.038   5.994   8.819
19841TIP3    H259401   0.900   5.950   8.771
19842TIP3   OH259402   2.205   5.981   9.072
19842TIP3    H159403   2.121   6.030   9.055
19842TIP3    H259404   2.218   6.002   9.165
19843TIP3   OH259405   1.220   6.453   8.343
19843TIP3    H159406   1.174   6.427   8.262
19843TIP3    H259407   1.173   6.536   8.365
19844TIP3   OH259408   1.774   5.709   8.694
19844TIP3    H159409   1.773   5.652   8.771
19844TIP3    H259410   1.831   5.783   8.722
19845TIP3   OH259411   1.640   6.773   8.705
19845TIP3    H159412   1.551   6.764   8.747
19845TIP3    H259413   1.628   6.859   8.660
19846TIP3   OH259414   1.923   5.680   9.068
19846TIP3    H159415   1.835   5.704   9.031
19846TIP3    H259416   1.983   5.708   8.996
19847TIP3   OH259417   1.229   5.314   9.046
19847TIP3    H159418   1.211   5.220   9.066
19847TIP3    H259419   1.149   5.355   9.085
19848TIP3   OH259420   1.341   6.816   8.383
19848TIP3    H159421   1.392   6.735   8.358
19848TIP3    H259422   1.401   6.884   8.343
19849TIP3   OH259423   1.483   6.604   8.281
19849TIP3    H159424   1.437   6.527   8.246
19849TIP3    H259425   1.518   6.569   8.367
19850TIP3   OH259426   1.865   6.689   9.047
19850TIP3    H159427   1.850   6.611   8.990
19850TIP3    H259428   1.844   6.763   8.986
19851TIP3   OH259429   1.154   6.079   8.304
19851TIP3    H159430   1.073   6.129   8.280
19851TIP3    H259431   1.201   6.077   8.219
19852TIP3   OH259432   1.114   5.865   8.024
19852TIP3    H159433   1.183   5.914   8.071
19852TIP3    H259434   1.169   5.800   7.976
19853TIP3   OH259435   2.058   6.325   8.893
19853TIP3    H159436   1.974   6.376   8.899
19853TIP3    H259437   2.085   6.347   8.801
19854TIP3   OH259438   1.500   6.163   8.278
19854TIP3    H159439   1.445   6.189   8.355
19854TIP3    H259440   1.583   6.136   8.323
19855TIP3   OH259441   1.737   6.198   9.190
19855TIP3    H159442   1.735   6.284   9.237
19855TIP3    H259443   1.652   6.203   9.143
19856TIP3   OH259444   0.875   6.121   9.060
19856TIP3    H159445   0.909   6.089   8.973
19856TIP3    H259446   0.924   6.204   9.070
19857TIP3   OH259447   1.400   6.771   8.825
19857TIP3    H159448   1.377   6.846   8.882
19857TIP3    H259449   1.382   6.694   8.883
19858TIP3   OH259450   1.343   6.020   8.103
19858TIP3    H159451   1.401   6.080   8.156
19858TIP3    H259452   1.368   6.046   8.011
19859TIP3   OH259453   1.080   6.705   8.381
19859TIP3    H159454   1.162   6.751   8.406
19859TIP3    H259455   1.032   6.775   8.334
19860TIP3   OH259456   1.857   5.264   8.150
19860TIP3    H159457   1.776   5.282   8.202
19860TIP3    H259458   1.867   5.348   8.100
19861TIP3   OH259459   1.654   6.634   7.697
19861TIP3    H159460   1.661   6.732   7.687
19861TIP3    H259461   1.747   6.607   7.684
19862TIP3   OH259462   2.100   7.031   9.093
19862TIP3    H159463   2.099   6.934   9.105
19862TIP3    H259464   2.015   7.053   9.138
19863TIP3   OH259465   1.221   6.801   9.246
19863TIP3    H159466   1.225   6.897   9.264
19863TIP3    H259467   1.129   6.791   9.216
19864TIP3   OH259468   0.994   6.931   8.201
19864TIP3    H159469   0.955   6.911   8.114
19864TIP3    H259470   0.959   7.019   8.219
19865TIP3   OH259471   1.168   6.849   7.822
19865TIP3    H159472   1.223   6.778   7.782
19865TIP3    H259473   1.207   6.856   7.911
19866TIP3   OH259474   1.234   6.881   8.088
19866TIP3    H159475   1.149   6.892   8.136
19866TIP3    H259476   1.290   6.846   8.159
19867TIP3   OH259477   1.998   6.163   9.362
19867TIP3    H159478   1.912   6.185   9.323
19867TIP3    H259479   2.006   6.067   9.344
19868TIP3   OH259480   0.982   5.395   9.144
19868TIP3    H159481   0.932   5.335   9.201
19868TIP3    H259482   0.988   5.476   9.195
19869TIP3   OH259483   1.443   5.520   9.335
19869TIP3    H159484   1.512   5.504   9.404
19869TIP3    H259485   1.362   5.509   9.386
19870TIP3   OH259486   1.742   5.934   9.320
19870TIP3    H159487   1.763   5.965   9.411
19870TIP3    H259488   1.732   6.017   9.271
19871TIP3   OH259489   1.417   6.070   7.847
19871TIP3    H159490   1.385   6.042   7.759
19871TIP3    H259491   1.495   6.122   7.822
19872TIP3   OH259492   1.132   5.445   8.150
19872TIP3    H159493   1.099   5.442   8.241
19872TIP3    H259494   1.093   5.362   8.115
19873TIP3   OH259495   0.911   5.893   9.202
19873TIP3    H159496   0.869   5.925   9.282
19873TIP3    H259497   0.897   5.970   9.142
19874TIP3   OH259498   0.792   5.787   8.711
19874TIP3    H159499   0.697   5.799   8.697
19874TIP3    H259500   0.816   5.745   8.626
19875TIP3   OH259501   1.291   5.881   8.437
19875TIP3    H159502   1.237   5.953   8.396
19875TIP3    H259503   1.345   5.853   8.362
19876TIP3   OH259504   1.449   5.912   8.678
19876TIP3    H159505   1.390   5.943   8.607
19876TIP3    H259506   1.481   5.829   8.636
19877TIP3   OH259507   0.789   5.423   8.114
19877TIP3    H159508   0.775   5.417   8.210
19877TIP3    H259509   0.699   5.431   8.080
19878TIP3   OH259510   1.461   6.162   9.099
19878TIP3    H159511   1.493   6.091   9.039
19878TIP3    H259512   1.432   6.109   9.176
19879TIP3   OH259513   1.140   5.623   8.768
19879TIP3    H159514   1.058   5.623   8.822
19879TIP3    H259515   1.208   5.616   8.837
19880TIP3   OH259516   0.837   5.673   8.462
19880TIP3    H159517   0.933   5.687   8.450
19880TIP3    H259518   0.798   5.714   8.383
19881TIP3   OH259519   1.620   5.693   8.975
19881TIP3    H159520   1.576   5.707   9.061
19881TIP3    H259521   1.560   5.629   8.933
19882TIP3   OH259522   0.655   5.742   8.248
19882TIP3    H159523   0.620   5.650   8.245
19882TIP3    H259524   0.714   5.746   8.170
19883TIP3   OH259525   1.824   7.367   9.165
19883TIP3    H159526   1.791   7.409   9.084
19883TIP3    H259527   1.797   7.430   9.235
19884TIP3   OH259528   1.212   5.946   8.868
19884TIP3    H159529   1.283   5.904   8.816
19884TIP3    H259530   1.222   5.903   8.955
19885TIP3   OH259531   0.769   5.436   8.748
19885TIP3    H159532   0.706   5.362   8.763
19885TIP3    H259533   0.815   5.404   8.669
19886TIP3   OH259534   1.187   5.843   9.155
19886TIP3    H159535   1.095   5.875   9.166
19886TIP3    H259536   1.239   5.908   9.205
19887TIP3   OH259537   0.930   6.229   8.243
19887TIP3    H159538   0.854   6.166   8.239
19887TIP3    H259539   0.919   6.267   8.333
19888TIP3   OH259540   1.825   6.469   8.886
19888TIP3    H159541   1.848   6.518   8.804
19888TIP3    H259542   1.739   6.428   8.863
19889TIP3   OH259543   1.383   5.548   8.113
19889TIP3    H159544   1.287   5.531   8.122
19889TIP3    H259545   1.393   5.642   8.138
19890TIP3   OH259546   1.345   6.555   9.245
19890TIP3    H159547   1.304   6.503   9.317
19890TIP3    H259548   1.299   6.641   9.253
19891TIP3   OH259549   1.453   5.793   8.219
19891TIP3    H159550   1.549   5.799   8.234
19891TIP3    H259551   1.434   5.872   8.165
19892TIP3   OH259552   1.079   6.377   8.071
19892TIP3    H159553   1.034   6.464   8.080
19892TIP3    H259554   1.023   6.322   8.129
19893TIP3   OH259555   1.489   6.817   9.137
19893TIP3    H159556   1.396   6.803   9.157
19893TIP3    H259557   1.519   6.861   9.219
19894TIP3   OH259558   1.897   5.881   8.055
19894TIP3    H159559   1.834   5.835   7.995
19894TIP3    H259560   1.892   5.970   8.013
19895TIP3   OH259561   2.115   6.740   9.134
19895TIP3    H159562   2.017   6.735   9.127
19895TIP3    H259563   2.140   6.711   9.044
19896TIP3   OH259564   1.600   6.704   7.965
19896TIP3    H159565   1.567   6.637   8.026
19896TIP3    H259566   1.605   6.656   7.880
19897TIP3   OH259567   1.593   6.330   8.806
19897TIP3    H159568   1.499   6.304   8.817
19897TIP3    H259569   1.626   6.252   8.758
19898TIP3   OH259570   0.903   6.327   8.491
19898TIP3    H159571   0.887   6.421   8.507
19898TIP3    H259572   0.852   6.287   8.562
19899TIP3   OH259573   1.383   6.537   8.976
19899TIP3    H159574   1.373   6.540   9.074
19899TIP3    H259575   1.460   6.481   8.966
19900TIP3   OH259576   1.348   6.428   7.863
19900TIP3    H159577   1.398   6.403   7.945
19900TIP3    H259578   1.258   6.403   7.890
19901TIP3   OH259579   1.625   7.073   9.033
19901TIP3    H159580   1.548   7.012   9.028
19901TIP3    H259581   1.606   7.135   8.960
19902TIP3   OH259582   1.682   6.914   7.690
19902TIP3    H159583   1.712   6.970   7.615
19902TIP3    H259584   1.594   6.955   7.699
19903TIP3   OH259585   1.507   6.363   8.082
19903TIP3    H159586   1.497   6.297   8.154
19903TIP3    H259587   1.604   6.363   8.070
19904TIP3   OH259588   0.770   6.384   7.889
19904TIP3    H159589   0.783   6.296   7.847
19904TIP3    H259590   0.748   6.358   7.979
19905TIP3   OH259591   1.531   5.764   9.226
19905TIP3    H159592   1.620   5.784   9.261
19905TIP3    H259593   1.505   5.681   9.271
19906TIP3   OH259594   1.421   5.501   8.395
19906TIP3    H159595   1.410   5.523   8.301
19906TIP3    H259596   1.463   5.582   8.431
19907TIP3   OH259597   0.936   6.604   8.094
19907TIP3    H159598   0.845   6.627   8.118
19907TIP3    H259599   0.952   6.661   8.017
19908TIP3   OH259600   1.113   5.678   8.499
19908TIP3    H159601   1.180   5.747   8.479
19908TIP3    H259602   1.124   5.669   8.596
19909TIP3   OH259603   1.379   6.000   9.300
19909TIP3    H159604   1.389   6.015   9.395
19909TIP3    H259605   1.426   5.915   9.289
19910TIP3   OH259606   1.261   5.408   8.604
19910TIP3    H159607   1.254   5.485   8.663
19910TIP3    H259608   1.321   5.444   8.534
19911TIP3   OH259609   0.773   5.412   8.399
19911TIP3    H159610   0.791   5.501   8.436
19911TIP3    H259611   0.864   5.376   8.400
19912TIP3   OH259612   2.014   5.899   9.283
19912TIP3    H159613   1.918   5.883   9.291
19912TIP3    H259614   2.033   5.854   9.199
19913TIP3   OH259615   1.676   6.090   8.675
19913TIP3    H159616   1.599   6.031   8.687
19913TIP3    H259617   1.747   6.042   8.723
19914TIP3   OH259618   1.644   7.047   8.630
19914TIP3    H159619   1.600   7.093   8.554
19914TIP3    H259620   1.738   7.062   8.605
19915TIP3   OH259621   0.916   6.603   7.797
19915TIP3    H159622   0.864   6.527   7.828
19915TIP3    H259623   0.970   6.561   7.727
19916TIP3   OH259624   1.549   6.938   9.374
19916TIP3    H159625   1.512   6.886   9.449
19916TIP3    H259626   1.607   7.001   9.419
19917TIP3   OH259627   1.317   6.659   7.689
19917TIP3    H159628   1.361   6.592   7.745
19917TIP3    H259629   1.372   6.659   7.608
19918TIP3   OH259630   1.191   6.426   9.440
19918TIP3    H159631   1.121   6.490   9.454
19918TIP3    H259632   1.225   6.408   9.529
19919TIP3   OH259633   1.050   6.323   7.799
19919TIP3    H159634   1.042   6.341   7.895
19919TIP3    H259635   1.042   6.225   7.798
19920TIP3   OH259636   1.650   6.568   9.183
19920TIP3    H159637   1.715   6.625   9.138
19920TIP3    H259638   1.570   6.622   9.177
19921TIP3   OH259639   0.741   6.031   8.225
19921TIP3    H159640   0.704   5.974   8.293
19921TIP3    H259641   0.772   5.964   8.161
19922TIP3   OH259642   1.068   6.104   9.419
19922TIP3    H159643   0.979   6.140   9.408
19922TIP3    H259644   1.107   6.125   9.330
19923TIP3   OH259645   0.837   5.826   8.060
19923TIP3    H159646   0.811   5.833   7.966
19923TIP3    H259647   0.934   5.834   8.053
19924TIP3   OH259648   1.575   6.529   9.561
19924TIP3    H159649   1.661   6.525   9.515
19924TIP3    H259650   1.565   6.437   9.586
19925TIP3   OH259651   1.658   6.161   7.721
19925TIP3    H159652   1.633   6.113   7.640
19925TIP3    H259653   1.624   6.251   7.697
19926TIP3   OH259654   1.105   5.647   9.341
19926TIP3    H159655   1.144   5.696   9.267
19926TIP3    H259656   1.015   5.682   9.345
19927TIP3   OH259657   1.153   6.220   9.188
19927TIP3    H159658   1.246   6.214   9.162
19927TIP3    H259659   1.144   6.314   9.207
19928TIP3   OH259660   1.778   6.425   9.368
19928TIP3    H159661   1.720   6.478   9.308
19928TIP3    H259662   1.865   6.448   9.329
19929TIP3   OH259663   1.900   7.130   8.581
19929TIP3    H159664   1.920   7.166   8.669
19929TIP3    H259665   1.947   7.191   8.522
19930TIP3   OH259666   1.929   7.159   8.861
19930TIP3    H159667   1.882   7.073   8.857
19930TIP3    H259668   1.998   7.137   8.926
19931TIP3   OH259669   1.988   6.837   9.414
19931TIP3    H159670   1.911   6.833   9.474
19931TIP3    H259671   2.017   6.929   9.425
19932TIP3   OH259672   1.789   6.347   8.057
19932TIP3    H159673   1.858   6.411   8.033
19932TIP3    H259674   1.829   6.306   8.137
19933TIP3   OH259675   1.916   6.216   8.262
19933TIP3    H159676   1.849   6.171   8.318
19933TIP3    H259677   1.976   6.256   8.328
19934TIP3   OH259678   1.971   6.607   8.696
19934TIP3    H159679   2.022   6.543   8.643
19934TIP3    H259680   1.954   6.679   8.633
19935TIP3   OH259681   1.803   6.908   8.888
19935TIP3    H159682   1.732   6.949   8.941
19935TIP3    H259683   1.752   6.859   8.820
19936TIP3   OH259684   1.855   6.123   7.907
19936TIP3    H159685   1.783   6.125   7.840
19936TIP3    H259686   1.826   6.199   7.963
19937TIP3   OH259687   1.726   5.796   7.862
19937TIP3    H159688   1.682   5.834   7.785
19937TIP3    H259689   1.700   5.702   7.854
19938TIP3   OH259690   1.732   6.070   8.406
19938TIP3    H159691   1.738   5.973   8.402
19938TIP3    H259692   1.718   6.085   8.503
19939TIP3   OH259693   2.020   6.497   9.267
19939TIP3    H159694   2.093   6.432   9.256
19939TIP3    H259695   2.044   6.566   9.203
19940TIP3   OH259696   2.209   6.309   9.282
19940TIP3    H159697   2.135   6.256   9.319
19940TIP3    H259698   2.282   6.245   9.295
19941TIP3   OH259699   1.668   5.531   7.851
19941TIP3    H159700   1.745   5.499   7.903
19941TIP3    H259701   1.597   5.470   7.876
19942TIP3   OH259702   1.726   5.787   8.304
19942TIP3    H159703   1.766   5.698   8.320
19942TIP3    H259704   1.785   5.818   8.233
19943TIP3   OH259705   1.889   5.963   8.797
19943TIP3    H159706   1.975   5.989   8.757
19943TIP3    H259707   1.902   5.999   8.887
19944TIP3   OH259708   1.955   6.105   9.030
19944TIP3    H159709   1.877   6.140   9.079
19944TIP3    H259710   1.988   6.186   8.985
19945TIP3   OH259711   2.398   5.677   9.565
19945TIP3    H159712   2.468   5.625   9.520
19945TIP3    H259713   2.407   5.765   9.525
19946TIP3   OH259714   1.834   5.536   8.341
19946TIP3    H159715   1.883   5.519   8.424
19946TIP3    H259716   1.775   5.459   8.339
19947TIP3   OH259717   2.283   5.853   9.380
19947TIP3    H159718   2.191   5.860   9.412
19947TIP3    H259719   2.276   5.771   9.328
19948TIP3   OH259720   1.917   5.474   7.971
19948TIP3    H159721   1.957   5.399   7.922
19948TIP3    H259722   1.987   5.542   7.963
19949TIP3   OH259723   1.489   6.996   8.246
19949TIP3    H159724   1.530   6.985   8.158
19949TIP3    H259725   1.533   7.076   8.278
19950TIP3   OH259726   1.243   7.072   9.313
19950TIP3    H159727   1.298   7.093   9.389
19950TIP3    H259728   1.283   7.130   9.245
19951TIP3   OH259729   1.394   7.240   9.161
19951TIP3    H159730   1.461   7.181   9.123
19951TIP3    H259731   1.447   7.297   9.217
19952TIP3   OH259732   2.177   5.597   9.252
19952TIP3    H159733   2.086   5.590   9.219
19952TIP3    H259734   2.208   5.504   9.243
19953TIP3   OH259735   1.101   7.116   8.807
19953TIP3    H159736   1.005   7.128   8.795
19953TIP3    H259737   1.122   7.198   8.856
19954TIP3   OH259738   1.365   7.053   8.902
19954TIP3    H159739   1.273   7.055   8.870
19954TIP3    H259740   1.403   7.128   8.854
19955TIP3   OH259741   1.584   7.247   8.816
19955TIP3    H159742   1.556   7.324   8.765
19955TIP3    H259743   1.603   7.181   8.746
19956TIP3   OH259744   1.383   5.514   8.888
19956TIP3    H159745   1.341   5.445   8.943
19956TIP3    H259746   1.453   5.464   8.843
19957TIP3   OH259747   1.908   5.399   8.798
19957TIP3    H159748   1.945   5.446   8.720
19957TIP3    H259749   1.812   5.410   8.786
19958TIP3   OH259750   2.001   5.497   8.559
19958TIP3    H159751   2.073   5.444   8.519
19958TIP3    H259752   2.036   5.588   8.542
19959TIP3   OH259753   1.078   5.260   8.782
19959TIP3    H159754   1.141   5.312   8.729
19959TIP3    H259755   1.096   5.292   8.871
19960TIP3   OH259756   1.627   5.402   8.767
19960TIP3    H159757   1.621   5.366   8.678
19960TIP3    H259758   1.611   5.322   8.822
19961TIP3   OH259759   1.652   5.323   8.331
19961TIP3    H159760   1.564   5.362   8.339
19961TIP3    H259761   1.639   5.238   8.378
19962TIP3   OH259762   0.569   5.172   8.358
19962TIP3    H159763   0.552   5.169   8.262
19962TIP3    H259764   0.606   5.261   8.370
19963TIP3   OH259765   1.049   5.425   8.415
19963TIP3    H159766   1.109   5.377   8.475
19963TIP3    H259767   1.073   5.517   8.440
19964TIP3   OH259768   0.917   6.853   7.943
19964TIP3    H159769   1.004   6.861   7.898
19964TIP3    H259770   0.866   6.813   7.869
19965TIP3   OH259771   1.622   6.975   8.003
19965TIP3    H159772   1.617   6.877   7.988
19965TIP3    H259773   1.562   7.008   7.935
19966TIP3   OH259774   1.855   7.104   9.201
19966TIP3    H159775   1.775   7.075   9.153
19966TIP3    H259776   1.847   7.201   9.189
19967TIP3   OH259777   3.118   6.482   7.960
19967TIP3    H159778   3.091   6.575   7.953
19967TIP3    H259779   3.041   6.438   7.921
19968TIP3   OH259780   3.114   6.484   8.345
19968TIP3    H159781   3.149   6.457   8.431
19968TIP3    H259782   3.072   6.402   8.313
19969TIP3   OH259783   2.418   6.378   8.704
19969TIP3    H159784   2.447   6.311   8.769
19969TIP3    H259785   2.490   6.442   8.710
19970TIP3   OH259786   3.353   6.789   8.033
19970TIP3    H159787   3.356   6.714   8.094
19970TIP3    H259788   3.364   6.861   8.099
19971TIP3   OH259789   2.391   6.792   8.424
19971TIP3    H159790   2.373   6.696   8.433
19971TIP3    H259791   2.486   6.792   8.440
19972TIP3   OH259792   2.096   6.001   8.220
19972TIP3    H159793   2.040   6.080   8.231
19972TIP3    H259794   2.029   5.938   8.186
19973TIP3   OH259795   2.160   6.285   8.388
19973TIP3    H159796   2.205   6.206   8.427
19973TIP3    H259797   2.208   6.294   8.305
19974TIP3   OH259798   3.007   7.250   8.040
19974TIP3    H159799   3.051   7.181   7.987
19974TIP3    H259800   3.017   7.214   8.129
19975TIP3   OH259801   3.930   6.032   8.388
19975TIP3    H159802   3.957   6.115   8.431
19975TIP3    H259803   3.947   6.053   8.294
19976TIP3   OH259804   3.331   6.215   8.425
19976TIP3    H159805   3.371   6.128   8.443
19976TIP3    H259806   3.297   6.201   8.335
19977TIP3   OH259807   2.661   5.874   8.390
19977TIP3    H159808   2.643   5.943   8.324
19977TIP3    H259809   2.620   5.796   8.345
19978TIP3   OH259810   3.359   5.965   8.012
19978TIP3    H159811   3.432   5.947   8.076
19978TIP3    H259812   3.411   6.000   7.937
19979TIP3   OH259813   2.301   6.075   8.494
19979TIP3    H159814   2.383   6.052   8.542
19979TIP3    H259815   2.310   6.017   8.416
19980TIP3   OH259816   2.739   6.274   8.288
19980TIP3    H159817   2.833   6.247   8.301
19980TIP3    H259818   2.699   6.190   8.257
19981TIP3   OH259819   4.002   6.240   8.557
19981TIP3    H159820   3.919   6.288   8.537
19981TIP3    H259821   4.011   6.260   8.651
19982TIP3   OH259822   2.664   5.857   8.823
19982TIP3    H159823   2.601   5.889   8.756
19982TIP3    H259824   2.612   5.872   8.904
19983TIP3   OH259825   2.980   6.695   7.839
19983TIP3    H159826   2.994   6.691   7.743
19983TIP3    H259827   2.967   6.790   7.853
19984TIP3   OH259828   3.573   5.964   8.180
19984TIP3    H159829   3.563   5.912   8.261
19984TIP3    H259830   3.626   6.040   8.210
19985TIP3   OH259831   2.533   5.971   8.608
19985TIP3    H159832   2.598   6.042   8.629
19985TIP3    H259833   2.579   5.928   8.532
19986TIP3   OH259834   1.997   6.515   7.951
19986TIP3    H159835   1.946   6.539   7.872
19986TIP3    H259836   2.020   6.603   7.987
19987TIP3   OH259837   3.722   5.935   8.555
19987TIP3    H159838   3.633   5.961   8.525
19987TIP3    H259839   3.779   5.964   8.481
19988TIP3   OH259840   3.029   5.576   8.543
19988TIP3    H159841   3.010   5.481   8.556
19988TIP3    H259842   2.946   5.615   8.578
19989TIP3   OH259843   3.126   7.077   7.863
19989TIP3    H159844   3.178   6.996   7.846
19989TIP3    H259845   3.187   7.144   7.822
19990TIP3   OH259846   3.260   6.854   7.778
19990TIP3    H159847   3.270   6.777   7.720
19990TIP3    H259848   3.304   6.825   7.861
19991TIP3   OH259849   3.662   6.944   8.530
19991TIP3    H159850   3.644   6.865   8.474
19991TIP3    H259851   3.629   7.014   8.470
19992TIP3   OH259852   2.944   6.343   7.785
19992TIP3    H159853   2.858   6.326   7.744
19992TIP3    H259854   3.005   6.336   7.709
19993TIP3   OH259855   2.910   6.122   7.517
19993TIP3    H159856   2.985   6.171   7.555
19993TIP3    H259857   2.958   6.054   7.466
19994TIP3   OH259858   3.857   6.581   8.379
19994TIP3    H159859   3.771   6.630   8.385
19994TIP3    H259860   3.883   6.604   8.288
19995TIP3   OH259861   3.297   6.418   7.765
19995TIP3    H159862   3.244   6.443   7.844
19995TIP3    H259863   3.381   6.391   7.808
19996TIP3   OH259864   3.531   6.461   8.673
19996TIP3    H159865   3.529   6.546   8.720
19996TIP3    H259866   3.449   6.467   8.621
19997TIP3   OH259867   2.531   6.424   8.169
19997TIP3    H159868   2.485   6.359   8.112
19997TIP3    H259869   2.606   6.372   8.203
19998TIP3   OH259870   2.681   6.818   8.338
19998TIP3    H159871   2.624   6.766   8.279
19998TIP3    H259872   2.767   6.807   8.296
19999TIP3   OH259873   2.675   6.391   8.531
19999TIP3    H159874   2.696   6.356   8.442
19999TIP3    H259875   2.747   6.454   8.546
20000TIP3   OH259876   2.759   6.922   8.843
20000TIP3    H159877   2.749   7.004   8.896
20000TIP3    H259878   2.670   6.886   8.858
20001TIP3   OH259879   3.134   6.282   7.592
20001TIP3    H159880   3.198   6.337   7.643
20001TIP3    H259881   3.161   6.302   7.499
20002TIP3   OH259882   2.555   6.509   8.948
20002TIP3    H159883   2.560   6.591   9.002
20002TIP3    H259884   2.462   6.485   8.963
20003TIP3   OH259885   2.870   6.967   7.874
20003TIP3    H159886   2.956   7.014   7.881
20003TIP3    H259887   2.817   7.031   7.825
20004TIP3   OH259888   2.596   7.120   8.948
20004TIP3    H159889   2.562   7.109   8.857
20004TIP3    H259890   2.518   7.097   9.003
20005TIP3   OH259891   3.654   5.520   7.638
20005TIP3    H159892   3.572   5.537   7.689
20005TIP3    H259893   3.664   5.603   7.589
20006TIP3   OH259894   2.394   6.265   7.984
20006TIP3    H159895   2.322   6.299   7.927
20006TIP3    H259896   2.365   6.175   8.000
20007TIP3   OH259897   3.454   6.886   7.186
20007TIP3    H159898   3.450   6.982   7.166
20007TIP3    H259899   3.548   6.865   7.174
20008TIP3   OH259900   2.183   6.646   8.889
20008TIP3    H159901   2.112   6.624   8.824
20008TIP3    H259902   2.215   6.558   8.916
20009TIP3   OH259903   2.029   6.839   8.524
20009TIP3    H159904   2.125   6.839   8.523
20009TIP3    H259905   2.009   6.918   8.576
20010TIP3   OH259906   3.897   7.289   8.577
20010TIP3    H159907   3.894   7.192   8.589
20010TIP3    H259908   3.813   7.313   8.623
20011TIP3   OH259909   2.960   7.086   8.708
20011TIP3    H159910   2.994   7.176   8.729
20011TIP3    H259911   2.956   7.049   8.798
20012TIP3   OH259912   2.748   7.195   7.674
20012TIP3    H159913   2.716   7.179   7.584
20012TIP3    H259914   2.727   7.290   7.687
20013TIP3   OH259915   2.199   7.055   8.047
20013TIP3    H159916   2.241   7.043   8.134
20013TIP3    H259917   2.132   6.985   8.050
20014TIP3   OH259918   3.008   7.174   7.591
20014TIP3    H159919   2.919   7.164   7.631
20014TIP3    H259920   3.061   7.110   7.640
20015TIP3   OH259921   3.787   6.422   8.853
20015TIP3    H159922   3.706   6.436   8.802
20015TIP3    H259923   3.800   6.326   8.842
20016TIP3   OH259924   2.390   6.834   8.877
20016TIP3    H159925   2.441   6.811   8.957
20016TIP3    H259926   2.319   6.766   8.879
20017TIP3   OH259927   2.781   5.651   8.664
20017TIP3    H159928   2.693   5.618   8.636
20017TIP3    H259929   2.754   5.733   8.709
20018TIP3   OH259930   3.313   5.770   8.859
20018TIP3    H159931   3.379   5.740   8.924
20018TIP3    H259932   3.228   5.747   8.902
20019TIP3   OH259933   3.558   6.197   8.779
20019TIP3    H159934   3.507   6.193   8.863
20019TIP3    H259935   3.530   6.283   8.742
20020TIP3   OH259936   3.216   6.320   7.337
20020TIP3    H159937   3.180   6.297   7.249
20020TIP3    H259938   3.286   6.383   7.312
20021TIP3   OH259939   2.929   5.702   7.635
20021TIP3    H159940   2.896   5.699   7.727
20021TIP3    H259941   2.889   5.619   7.601
20022TIP3   OH259942   2.714   6.169   8.685
20022TIP3    H159943   2.659   6.184   8.765
20022TIP3    H259944   2.693   6.248   8.632
20023TIP3   OH259945   2.593   6.057   8.197
20023TIP3    H159946   2.503   6.024   8.215
20023TIP3    H259947   2.609   6.014   8.109
20024TIP3   OH259948   3.087   6.142   7.923
20024TIP3    H159949   3.036   6.215   7.882
20024TIP3    H259950   3.141   6.111   7.848
20025TIP3   OH259951   3.259   6.419   9.014
20025TIP3    H159952   3.238   6.345   9.076
20025TIP3    H259953   3.353   6.433   9.034
20026TIP3   OH259954   3.244   6.167   8.166
20026TIP3    H159955   3.186   6.199   8.094
20026TIP3    H259956   3.276   6.085   8.123
20027TIP3   OH259957   2.535   6.196   8.895
20027TIP3    H159958   2.549   6.254   8.970
20027TIP3    H259959   2.519   6.110   8.939
20028TIP3   OH259960   2.584   5.675   7.601
20028TIP3    H159961   2.577   5.669   7.698
20028TIP3    H259962   2.500   5.719   7.579
20029TIP3   OH259963   2.124   5.723   8.471
20029TIP3    H159964   2.203   5.747   8.524
20029TIP3    H259965   2.161   5.681   8.392
20030TIP3   OH259966   2.101   5.699   7.992
20030TIP3    H159967   2.147   5.738   7.914
20030TIP3    H259968   2.039   5.772   8.013
20031TIP3   OH259969   3.248   6.412   8.589
20031TIP3    H159970   3.285   6.343   8.528
20031TIP3    H259971   3.228   6.357   8.667
20032TIP3   OH259972   2.926   5.890   8.259
20032TIP3    H159973   2.843   5.864   8.304
20032TIP3    H259974   2.991   5.873   8.329
20033TIP3   OH259975   2.360   5.929   8.266
20033TIP3    H159976   2.265   5.934   8.240
20033TIP3    H259977   2.384   5.837   8.245
20034TIP3   OH259978   2.630   5.935   7.955
20034TIP3    H159979   2.724   5.938   7.932
20034TIP3    H259980   2.584   5.951   7.870
20035TIP3   OH259981   3.415   5.949   8.462
20035TIP3    H159982   3.377   5.961   8.552
20035TIP3    H259983   3.350   5.887   8.423
20036TIP3   OH259984   2.464   5.968   7.735
20036TIP3    H159985   2.393   5.917   7.692
20036TIP3    H259986   2.515   5.997   7.657
20037TIP3   OH259987   3.583   7.639   8.679
20037TIP3    H159988   3.584   7.661   8.584
20037TIP3    H259989   3.660   7.689   8.713
20038TIP3   OH259990   2.546   6.752   9.100
20038TIP3    H159991   2.623   6.779   9.154
20038TIP3    H259992   2.478   6.747   9.170
20039TIP3   OH259993   3.007   6.204   8.357
20039TIP3    H159994   3.073   6.158   8.304
20039TIP3    H259995   3.015   6.159   8.443
20040TIP3   OH259996   2.532   5.691   8.230
20040TIP3    H159997   2.497   5.614   8.279
20040TIP3    H259998   2.600   5.649   8.175
20041TIP3   OH259999   2.984   6.099   8.643
20041TIP3    H160000   2.893   6.132   8.659
20041TIP3    H260001   3.040   6.156   8.699
20042TIP3   OH260002   3.626   6.721   8.374
20042TIP3    H160003   3.640   6.780   8.297
20042TIP3    H260004   3.532   6.696   8.358
20043TIP3   OH260005   3.179   5.806   7.600
20043TIP3    H160006   3.083   5.786   7.610
20043TIP3    H260007   3.186   5.900   7.625
20044TIP3   OH260008   3.055   6.815   8.755
20044TIP3    H160009   3.113   6.769   8.819
20044TIP3    H260010   3.118   6.885   8.726
20045TIP3   OH260011   3.248   6.051   7.706
20045TIP3    H160012   3.345   6.054   7.722
20045TIP3    H260013   3.234   6.129   7.649
20046TIP3   OH260014   2.420   6.518   8.417
20046TIP3    H160015   2.452   6.481   8.333
20046TIP3    H260016   2.443   6.448   8.480
20047TIP3   OH260017   2.878   6.645   7.555
20047TIP3    H160018   2.828   6.729   7.565
20047TIP3    H260019   2.822   6.583   7.602
20048TIP3   OH260020   2.295   6.431   9.027
20048TIP3    H160021   2.314   6.419   9.122
20048TIP3    H260022   2.224   6.367   9.013
20049TIP3   OH260023   3.015   6.547   9.045
20049TIP3    H160024   2.954   6.478   9.014
20049TIP3    H260025   3.103   6.509   9.022
20050TIP3   OH260026   3.254   7.032   8.677
20050TIP3    H160027   3.215   7.080   8.602
20050TIP3    H260028   3.292   7.104   8.730
20051TIP3   OH260029   3.693   6.138   7.541
20051TIP3    H160030   3.630   6.092   7.481
20051TIP3    H260031   3.688   6.227   7.500
20052TIP3   OH260032   3.910   6.999   8.621
20052TIP3    H160033   3.812   6.993   8.612
20052TIP3    H260034   3.936   6.967   8.532
20053TIP3   OH260035   3.405   6.954   7.453
20053TIP3    H160036   3.360   6.885   7.502
20053TIP3    H260037   3.400   6.922   7.361
20054TIP3   OH260038   3.396   6.576   8.291
20054TIP3    H160039   3.300   6.567   8.306
20054TIP3    H260040   3.417   6.495   8.241
20055TIP3   OH260041   2.496   6.795   8.003
20055TIP3    H160042   2.504   6.888   7.971
20055TIP3    H260043   2.414   6.804   8.055
20056TIP3   OH260044   2.076   6.121   7.744
20056TIP3    H160045   2.121   6.205   7.766
20056TIP3    H260046   1.997   6.125   7.804
20057TIP3   OH260047   2.792   7.144   8.503
20057TIP3    H160048   2.821   7.221   8.449
20057TIP3    H260049   2.862   7.146   8.572
20058TIP3   OH260050   2.439   7.052   7.905
20058TIP3    H160051   2.349   7.062   7.942
20058TIP3    H260052   2.467   7.146   7.900
20059TIP3   OH260053   3.137   6.653   7.356
20059TIP3    H160054   3.194   6.650   7.435
20059TIP3    H260055   3.050   6.663   7.395
20060TIP3   OH260056   3.417   7.329   8.524
20060TIP3    H160057   3.341   7.273   8.500
20060TIP3    H260058   3.409   7.398   8.454
20061TIP3   OH260059   3.487   7.162   7.167
20061TIP3    H160060   3.510   7.236   7.109
20061TIP3    H260061   3.399   7.193   7.199
20062TIP3   OH260062   2.505   5.940   9.038
20062TIP3    H160063   2.409   5.943   9.054
20062TIP3    H260064   2.535   5.881   9.109
20063TIP3   OH260065   3.304   6.632   7.585
20063TIP3    H160066   3.297   6.555   7.646
20063TIP3    H260067   3.398   6.625   7.559
20064TIP3   OH260068   2.233   7.024   8.668
20064TIP3    H160069   2.280   6.946   8.703
20064TIP3    H260070   2.242   7.085   8.742
20065TIP3   OH260071   2.512   6.667   7.353
20065TIP3    H160072   2.533   6.589   7.298
20065TIP3    H260073   2.492   6.626   7.437
20066TIP3   OH260074   2.196   6.371   7.827
20066TIP3    H160075   2.127   6.411   7.884
20066TIP3    H260076   2.203   6.441   7.758
20067TIP3   OH260077   3.337   6.008   8.722
20067TIP3    H160078   3.420   6.040   8.759
20067TIP3    H260079   3.322   5.925   8.772
20068TIP3   OH260080   3.221   5.758   7.881
20068TIP3    H160081   3.206   5.781   7.787
20068TIP3    H260082   3.260   5.841   7.917
20069TIP3   OH260083   2.715   6.858   7.581
20069TIP3    H160084   2.625   6.891   7.605
20069TIP3    H260085   2.740   6.925   7.515
20070TIP3   OH260086   2.914   5.933   7.987
20070TIP3    H160087   2.980   6.004   7.970
20070TIP3    H260088   2.916   5.928   8.085
20071TIP3   OH260089   3.175   6.255   8.799
20071TIP3    H160090   3.202   6.304   8.879
20071TIP3    H260091   3.230   6.175   8.805
20072TIP3   OH260092   3.066   5.665   8.092
20072TIP3    H160093   3.049   5.744   8.147
20072TIP3    H260094   3.121   5.703   8.020
20073TIP3   OH260095   2.461   6.942   7.642
20073TIP3    H160096   2.434   7.008   7.574
20073TIP3    H260097   2.446   6.992   7.725
20074TIP3   OH260098   2.565   5.658   7.875
20074TIP3    H160099   2.565   5.744   7.920
20074TIP3    H260100   2.659   5.633   7.886
20075TIP3   OH260101   3.824   6.152   8.772
20075TIP3    H160102   3.726   6.152   8.783
20075TIP3    H260103   3.830   6.111   8.685
20076TIP3   OH260104   3.472   6.338   8.157
20076TIP3    H160105   3.396   6.280   8.174
20076TIP3    H260106   3.543   6.295   8.209
20077TIP3   OH260107   2.193   6.583   7.644
20077TIP3    H160108   2.208   6.675   7.616
20077TIP3    H260109   2.236   6.533   7.571
20078TIP3   OH260110   2.132   5.852   7.765
20078TIP3    H160111   2.124   5.949   7.760
20078TIP3    H260112   2.048   5.823   7.727
20079TIP3   OH260113   3.436   7.330   8.124
20079TIP3    H160114   3.399   7.364   8.040
20079TIP3    H260115   3.529   7.315   8.097
20080TIP3   OH260116   2.516   5.572   8.641
20080TIP3    H160117   2.485   5.540   8.554
20080TIP3    H260118   2.505   5.492   8.697
20081TIP3   OH260119   2.058   6.790   8.021
20081TIP3    H160120   1.987   6.820   8.080
20081TIP3    H260121   2.029   6.831   7.936
20082TIP3   OH260122   2.211   7.323   9.084
20082TIP3    H160123   2.296   7.322   9.134
20082TIP3    H260124   2.188   7.228   9.085
20083TIP3   OH260125   2.695   7.303   9.133
20083TIP3    H160126   2.788   7.280   9.146
20083TIP3    H260127   2.670   7.241   9.062
20084TIP3   OH260128   2.679   6.874   7.269
20084TIP3    H160129   2.627   6.797   7.302
20084TIP3    H260130   2.753   6.829   7.223
20085TIP3   OH260131   3.327   7.212   8.876
20085TIP3    H160132   3.323   7.137   8.940
20085TIP3    H260133   3.408   7.259   8.904
20086TIP3   OH260134   2.343   6.737   9.290
20086TIP3    H160135   2.361   6.642   9.298
20086TIP3    H260136   2.255   6.738   9.246
20087TIP3   OH260137   2.325   6.404   7.486
20087TIP3    H160138   2.367   6.342   7.548
20087TIP3    H260139   2.388   6.397   7.410
20088TIP3   OH260140   2.950   6.821   9.062
20088TIP3    H160141   2.919   6.819   8.970
20088TIP3    H260142   2.987   6.730   9.070
20089TIP3   OH260143   2.811   6.582   7.293
20089TIP3    H160144   2.838   6.599   7.385
20089TIP3    H260145   2.823   6.485   7.287
20090TIP3   OH260146   3.446   6.827   8.676
20090TIP3    H160147   3.514   6.864   8.616
20090TIP3    H260148   3.372   6.887   8.656
20091TIP3   OH260149   2.466   6.470   9.269
20091TIP3    H160150   2.531   6.400   9.261
20091TIP3    H260151   2.488   6.505   9.358
20092TIP3   OH260152   2.540   6.301   7.719
20092TIP3    H160153   2.503   6.249   7.792
20092TIP3    H260154   2.570   6.229   7.659
20093TIP3   OH260155   2.807   6.366   8.935
20093TIP3    H160156   2.723   6.415   8.945
20093TIP3    H260157   2.834   6.389   8.845
20094TIP3   OH260158   2.626   6.094   7.549
20094TIP3    H160159   2.599   6.086   7.455
20094TIP3    H260160   2.724   6.092   7.540
20095TIP3   OH260161   3.311   6.756   9.068
20095TIP3    H160162   3.394   6.738   9.021
20095TIP3    H260163   3.313   6.690   9.139
20096TIP3   OH260164   3.455   6.420   7.208
20096TIP3    H160165   3.428   6.373   7.127
20096TIP3    H260166   3.420   6.510   7.186
20097TIP3   OH260167   2.922   6.142   9.063
20097TIP3    H160168   2.919   6.060   9.009
20097TIP3    H260169   2.878   6.207   9.005
20098TIP3   OH260170   2.923   5.930   8.868
20098TIP3    H160171   2.949   5.967   8.781
20098TIP3    H260172   2.829   5.905   8.852
20099TIP3   OH260173   2.941   6.479   8.706
20099TIP3    H160174   3.025   6.436   8.683
20099TIP3    H260175   2.969   6.572   8.714
20100TIP3   OH260176   3.533   6.434   9.125
20100TIP3    H160177   3.580   6.350   9.132
20100TIP3    H260178   3.602   6.493   9.089
20101TIP3   OH260179   3.574   6.686   8.863
20101TIP3    H160180   3.517   6.740   8.803
20101TIP3    H260181   3.662   6.704   8.821
20102TIP3   OH260182   2.795   6.263   9.284
20102TIP3    H160183   2.726   6.197   9.305
20102TIP3    H260184   2.833   6.226   9.202
20103TIP3   OH260185   3.055   5.696   8.936
20103TIP3    H160186   3.005   5.778   8.913
20103TIP3    H260187   2.985   5.628   8.923
20104TIP3   OH260188   3.179   6.201   9.154
20104TIP3    H160189   3.166   6.189   9.250
20104TIP3    H260190   3.090   6.174   9.123
20105TIP3   OH260191   3.420   6.150   9.008
20105TIP3    H160192   3.343   6.149   9.068
20105TIP3    H260193   3.492   6.117   9.065
20106TIP3   OH260194   3.653   6.089   9.159
20106TIP3    H160195   3.662   5.993   9.179
20106TIP3    H260196   3.646   6.128   9.249
20107TIP3   OH260197   2.636   6.043   9.329
20107TIP3    H160198   2.642   5.950   9.302
20107TIP3    H260199   2.679   6.036   9.418
20108TIP3   OH260200   3.151   5.703   9.193
20108TIP3    H160201   3.218   5.633   9.184
20108TIP3    H260202   3.108   5.698   9.105
20109TIP3   OH260203   3.216   5.924   9.344
20109TIP3    H160204   3.190   5.852   9.283
20109TIP3    H260205   3.136   5.981   9.344
20110TIP3   OH260206   2.437   7.144   7.452
20110TIP3    H160207   2.532   7.144   7.430
20110TIP3    H260208   2.403   7.192   7.374
20111TIP3   OH260209   1.917   6.529   7.667
20111TIP3    H160210   2.013   6.546   7.658
20111TIP3    H260211   1.909   6.441   7.626
20112TIP3   OH260212   1.832   7.141   8.078
20112TIP3    H160213   1.761   7.083   8.043
20112TIP3    H260214   1.872   7.082   8.146
20113TIP3   OH260215   1.969   6.993   8.267
20113TIP3    H160216   1.950   6.920   8.328
20113TIP3    H260217   2.011   7.057   8.328
20114TIP3   OH260218   3.700   7.386   8.064
20114TIP3    H160219   3.716   7.420   8.153
20114TIP3    H260220   3.755   7.444   8.009
20115TIP3   OH260221   3.723   7.415   8.348
20115TIP3    H160222   3.673   7.330   8.339
20115TIP3    H260223   3.792   7.385   8.409
20116TIP3   OH260224   3.769   7.090   8.924
20116TIP3    H160225   3.694   7.098   8.986
20116TIP3    H260226   3.808   7.180   8.927
20117TIP3   OH260227   3.582   6.602   7.545
20117TIP3    H160228   3.650   6.667   7.516
20117TIP3    H260229   3.627   6.563   7.623
20118TIP3   OH260230   3.713   6.472   7.747
20118TIP3    H160231   3.646   6.428   7.805
20118TIP3    H260232   3.774   6.512   7.812
20119TIP3   OH260233   3.776   6.867   8.186
20119TIP3    H160234   3.818   6.799   8.130
20119TIP3    H260235   3.749   6.935   8.121
20120TIP3   OH260236   3.596   7.173   8.371
20120TIP3    H160237   3.527   7.208   8.430
20120TIP3    H260238   3.540   7.108   8.320
20121TIP3   OH260239   3.650   6.378   7.394
20121TIP3    H160240   3.579   6.382   7.326
20121TIP3    H260241   3.623   6.455   7.449
20122TIP3   OH260242   3.523   6.051   7.349
20122TIP3    H160243   3.479   6.094   7.275
20122TIP3    H260244   3.495   5.958   7.337
20123TIP3   OH260245   3.528   6.326   7.891
20123TIP3    H160246   3.535   6.229   7.888
20123TIP3    H260247   3.514   6.341   7.988
20124TIP3   OH260248   2.153   6.401   8.639
20124TIP3    H160249   2.151   6.371   8.546
20124TIP3    H260250   2.250   6.400   8.656
20125TIP3   OH260251   3.815   6.751   8.752
20125TIP3    H160252   3.889   6.687   8.741
20125TIP3    H260253   3.834   6.819   8.685
20126TIP3   OH260254   4.004   6.560   8.770
20126TIP3    H160255   3.928   6.511   8.808
20126TIP3    H260256   4.075   6.493   8.783
20127TIP3   OH260257   3.466   5.785   7.335
20127TIP3    H160258   3.539   5.755   7.392
20127TIP3    H260259   3.391   5.728   7.361
20128TIP3   OH260260   3.521   6.042   7.790
20128TIP3    H160261   3.562   5.953   7.805
20128TIP3    H260262   3.580   6.075   7.720
20129TIP3   OH260263   3.687   6.217   8.286
20129TIP3    H160264   3.772   6.245   8.246
20129TIP3    H260265   3.697   6.256   8.374
20130TIP3   OH260266   3.752   6.363   8.518
20130TIP3    H160267   3.673   6.396   8.564
20130TIP3    H260268   3.783   6.443   8.472
20131TIP3   OH260269   2.373   6.100   9.313
20131TIP3    H160270   2.470   6.089   9.315
20131TIP3    H260271   2.345   6.013   9.350
20132TIP3   OH260272   4.207   5.953   9.073
20132TIP3    H160273   4.262   5.885   9.028
20132TIP3    H260274   4.177   6.008   8.998
20133TIP3   OH260275   3.632   5.792   7.827
20133TIP3    H160276   3.678   5.776   7.912
20133TIP3    H260277   3.570   5.716   7.825
20134TIP3   OH260278   2.331   5.780   8.648
20134TIP3    H160279   2.392   5.703   8.656
20134TIP3    H260280   2.395   5.853   8.642
20135TIP3   OH260281   2.135   6.055   8.720
20135TIP3    H160282   2.183   6.043   8.636
20135TIP3    H260283   2.167   6.142   8.748
20136TIP3   OH260284   4.077   6.093   8.881
20136TIP3    H160285   3.990   6.132   8.901
20136TIP3    H260286   4.049   6.022   8.820
20137TIP3   OH260287   3.715   5.730   7.460
20137TIP3    H160288   3.753   5.656   7.407
20137TIP3    H260289   3.781   5.800   7.449
20138TIP3   OH260290   2.117   5.566   8.226
20138TIP3    H160291   2.022   5.556   8.245
20138TIP3    H260292   2.116   5.617   8.143
20139TIP3   OH260293   3.279   7.259   7.731
20139TIP3    H160294   3.321   7.239   7.645
20139TIP3    H260295   3.340   7.323   7.769
20140TIP3   OH260296   2.343   5.641   9.029
20140TIP3    H160297   2.290   5.632   9.110
20140TIP3    H260298   2.275   5.676   8.968
20141TIP3   OH260299   2.379   7.063   9.114
20141TIP3    H160300   2.288   7.033   9.095
20141TIP3    H260301   2.388   7.040   9.208
20142TIP3   OH260302   2.568   7.091   8.664
20142TIP3    H160303   2.497   7.148   8.629
20142TIP3    H260304   2.643   7.123   8.611
20143TIP3   OH260305   3.004   7.340   8.794
20143TIP3    H160306   3.043   7.341   8.885
20143TIP3    H260307   3.070   7.395   8.746
20144TIP3   OH260308   3.176   7.496   8.654
20144TIP3    H160309   3.242   7.444   8.605
20144TIP3    H260310   3.234   7.547   8.716
20145TIP3   OH260311   3.974   5.856   8.756
20145TIP3    H160312   3.883   5.852   8.723
20145TIP3    H260313   4.003   5.762   8.743
20146TIP3   OH260314   2.238   7.359   8.679
20146TIP3    H160315   2.147   7.388   8.656
20146TIP3    H260316   2.238   7.380   8.773
20147TIP3   OH260317   2.472   7.333   8.538
20147TIP3    H160318   2.387   7.343   8.587
20147TIP3    H260319   2.446   7.363   8.449
20148TIP3   OH260320   2.887   7.357   8.341
20148TIP3    H160321   2.824   7.384   8.272
20148TIP3    H260322   2.909   7.444   8.382
20149TIP3   OH260323   3.161   7.321   8.404
20149TIP3    H160324   3.071   7.318   8.369
20149TIP3    H260325   3.206   7.378   8.341
20150TIP3   OH260326   3.379   7.506   8.314
20150TIP3    H160327   3.359   7.584   8.259
20150TIP3    H260328   3.401   7.439   8.245
20151TIP3   OH260329   2.148   7.153   8.429
20151TIP3    H160330   2.172   7.123   8.519
20151TIP3    H260331   2.215   7.103   8.377
20152TIP3   OH260332   2.334   7.017   8.282
20152TIP3    H160333   2.349   6.935   8.334
20152TIP3    H260334   2.423   7.058   8.282
20153TIP3   OH260335   2.598   7.121   8.285
20153TIP3    H160336   2.641   7.038   8.262
20153TIP3    H260337   2.639   7.140   8.371
20154TIP3   OH260338   3.180   5.772   8.378
20154TIP3    H160339   3.133   5.704   8.430
20154TIP3    H260340   3.243   5.719   8.327
20155TIP3   OH260341   3.706   5.653   8.283
20155TIP3    H160342   3.740   5.704   8.206
20155TIP3    H260343   3.610   5.665   8.274
20156TIP3   OH260344   3.799   5.752   8.045
20156TIP3    H160345   3.872   5.701   8.003
20156TIP3    H260346   3.831   5.844   8.029
20157TIP3   OH260347   2.424   5.488   8.393
20157TIP3    H160348   2.332   5.452   8.391
20157TIP3    H260349   2.474   5.403   8.393
20158TIP3   OH260350   2.207   5.347   8.035
20158TIP3    H160351   2.243   5.405   7.966
20158TIP3    H260352   2.185   5.410   8.106
20159TIP3   OH260353   2.851   5.580   8.265
20159TIP3    H160354   2.935   5.579   8.216
20159TIP3    H260355   2.867   5.518   8.336
20160TIP3   OH260356   3.427   5.656   8.254
20160TIP3    H160357   3.411   5.622   8.166
20160TIP3    H260358   3.409   5.577   8.310
20161TIP3   OH260359   3.449   5.579   7.818
20161TIP3    H160360   3.360   5.619   7.827
20161TIP3    H260361   3.435   5.494   7.865
20162TIP3   OH260362   1.932   6.918   7.818
20162TIP3    H160363   1.843   6.890   7.787
20162TIP3    H260364   1.925   7.013   7.797
20163TIP3   OH260365   2.330   5.511   7.800
20163TIP3    H160366   2.378   5.444   7.748
20163TIP3    H260367   2.404   5.562   7.839
20164TIP3   OH260368   2.844   5.684   7.899
20164TIP3    H160369   2.891   5.628   7.962
20164TIP3    H260370   2.871   5.773   7.930
20165TIP3   OH260371   2.712   7.110   7.402
20165TIP3    H160372   2.795   7.140   7.362
20165TIP3    H260373   2.692   7.033   7.345
20166TIP3   OH260374   3.424   7.224   7.498
20166TIP3    H160375   3.418   7.127   7.481
20166TIP3    H260376   3.381   7.260   7.417
20167TIP3   OH260377   2.633   5.762   9.278
20167TIP3    H160378   2.605   5.686   9.333
20167TIP3    H260379   2.729   5.765   9.302
20168TIP3   OH260380   2.887   5.754   9.379
20168TIP3    H160381   2.975   5.728   9.348
20168TIP3    H260382   2.876   5.699   9.460
20169TIP3   OH260383   2.006   6.946   7.459
20169TIP3    H160384   2.000   6.981   7.549
20169TIP3    H260385   2.097   6.909   7.455
20170TIP3   OH260386   3.708   5.817   9.190
20170TIP3    H160387   3.729   5.786   9.280
20170TIP3    H260388   3.796   5.812   9.146
20171TIP3   OH260389   3.651   7.371   8.679
20171TIP3    H160390   3.571   7.337   8.634
20171TIP3    H260391   3.628   7.466   8.684
20172TIP3   OH260392   4.915   6.742   7.450
20172TIP3    H160393   4.887   6.833   7.428
20172TIP3    H260394   4.839   6.692   7.415
20173TIP3   OH260395   4.914   6.744   7.828
20173TIP3    H160396   4.943   6.708   7.914
20173TIP3    H260397   4.871   6.666   7.788
20174TIP3   OH260398   4.216   6.638   8.190
20174TIP3    H160399   4.246   6.572   8.255
20174TIP3    H260400   4.292   6.697   8.188
20175TIP3   OH260401   5.157   7.042   7.510
20175TIP3    H160402   5.143   6.971   7.575
20175TIP3    H260403   5.185   7.116   7.566
20176TIP3   OH260404   4.186   7.049   7.921
20176TIP3    H160405   4.173   6.952   7.924
20176TIP3    H260406   4.283   7.052   7.916
20177TIP3   OH260407   3.892   6.254   7.707
20177TIP3    H160408   3.841   6.336   7.719
20177TIP3    H260409   3.823   6.196   7.670
20178TIP3   OH260410   3.955   6.541   7.874
20178TIP3    H160411   4.001   6.463   7.912
20178TIP3    H260412   4.007   6.558   7.795
20179TIP3   OH260413   4.712   6.969   7.877
20179TIP3    H160414   4.745   6.892   7.828
20179TIP3    H260415   4.798   7.011   7.899
20180TIP3   OH260416   5.724   6.289   7.874
20180TIP3    H160417   5.753   6.371   7.919
20180TIP3    H260418   5.744   6.310   7.781
20181TIP3   OH260419   5.126   6.472   7.911
20181TIP3    H160420   5.167   6.385   7.930
20181TIP3    H260421   5.094   6.457   7.820
20182TIP3   OH260422   4.462   6.130   7.875
20182TIP3    H160423   4.440   6.202   7.813
20182TIP3    H260424   4.414   6.055   7.832
20183TIP3   OH260425   5.155   6.220   7.500
20183TIP3    H160426   5.229   6.204   7.563
20183TIP3    H260427   5.205   6.256   7.424
20184TIP3   OH260428   4.096   6.332   7.982
20184TIP3    H160429   4.179   6.310   8.029
20184TIP3    H260430   4.106   6.275   7.903
20185TIP3   OH260431   4.537   6.530   7.772
20185TIP3    H160432   4.630   6.503   7.787
20185TIP3    H260433   4.497   6.446   7.741
20186TIP3   OH260434   5.798   6.496   8.044
20186TIP3    H160435   5.715   6.543   8.026
20186TIP3    H260436   5.811   6.517   8.137
20187TIP3   OH260437   4.460   6.113   8.310
20187TIP3    H160438   4.399   6.149   8.242
20187TIP3    H260439   4.408   6.130   8.391
20188TIP3   OH260440   4.807   6.961   7.320
20188TIP3    H160441   4.765   6.939   7.236
20188TIP3    H260442   4.762   7.045   7.344
20189TIP3   OH260443   4.567   6.888   8.107
20189TIP3    H160444   4.501   6.950   8.145
20189TIP3    H260445   4.606   6.940   8.034
20190TIP3   OH260446   5.369   6.220   7.667
20190TIP3    H160447   5.360   6.170   7.749
20190TIP3    H260448   5.423   6.297   7.696
20191TIP3   OH260449   4.330   6.227   8.094
20191TIP3    H160450   4.393   6.300   8.116
20191TIP3    H260451   4.378   6.186   8.019
20192TIP3   OH260452   4.393   7.079   8.204
20192TIP3    H160453   4.364   7.163   8.164
20192TIP3    H260454   4.315   7.061   8.261
20193TIP3   OH260455   3.789   6.769   7.438
20193TIP3    H160456   3.744   6.792   7.354
20193TIP3    H260457   3.815   6.856   7.473
20194TIP3   OH260458   5.228   7.287   7.682
20194TIP3    H160459   5.137   7.278   7.718
20194TIP3    H260460   5.220   7.371   7.633
20195TIP3   OH260461   5.518   6.190   8.041
20195TIP3    H160462   5.429   6.218   8.012
20195TIP3    H260463   5.575   6.220   7.968
20196TIP3   OH260464   4.819   5.834   8.023
20196TIP3    H160465   4.805   5.738   8.039
20196TIP3    H260466   4.740   5.870   8.069
20197TIP3   OH260467   4.918   7.343   7.346
20197TIP3    H160468   4.968   7.260   7.335
20197TIP3    H260469   4.984   7.406   7.310
20198TIP3   OH260470   5.065   7.125   7.263
20198TIP3    H160471   5.035   7.046   7.216
20198TIP3    H260472   5.103   7.086   7.345
20199TIP3   OH260473   5.454   7.202   8.021
20199TIP3    H160474   5.444   7.123   7.963
20199TIP3    H260475   5.440   7.275   7.957
20200TIP3   OH260476   4.746   6.595   7.278
20200TIP3    H160477   4.665   6.644   7.256
20200TIP3    H260478   4.791   6.591   7.192
20201TIP3   OH260479   4.705   6.377   6.998
20201TIP3    H160480   4.774   6.427   7.045
20201TIP3    H260481   4.760   6.313   6.950
20202TIP3   OH260482   5.649   6.837   7.866
20202TIP3    H160483   5.567   6.889   7.872
20202TIP3    H260484   5.678   6.860   7.775
20203TIP3   OH260485   5.092   6.677   7.252
20203TIP3    H160486   5.037   6.702   7.329
20203TIP3    H260487   5.175   6.650   7.296
20204TIP3   OH260488   5.329   6.717   8.160
20204TIP3    H160489   5.325   6.801   8.209
20204TIP3    H260490   5.242   6.719   8.115
20205TIP3   OH260491   4.325   6.676   7.666
20205TIP3    H160492   4.282   6.618   7.599
20205TIP3    H260493   4.401   6.621   7.693
20206TIP3   OH260494   4.457   7.094   7.812
20206TIP3    H160495   4.430   7.045   7.732
20206TIP3    H260496   4.545   7.056   7.830
20207TIP3   OH260497   4.469   6.643   8.023
20207TIP3    H160498   4.496   6.626   7.930
20207TIP3    H260499   4.507   6.732   8.040
20208TIP3   OH260500   4.986   7.283   7.800
20208TIP3    H160501   4.973   7.360   7.857
20208TIP3    H260502   4.973   7.207   7.860
20209TIP3   OH260503   4.597   7.207   8.343
20209TIP3    H160504   4.536   7.266   8.392
20209TIP3    H260505   4.532   7.150   8.296
20210TIP3   OH260506   4.936   6.533   7.077
20210TIP3    H160507   4.993   6.593   7.129
20210TIP3    H260508   4.961   6.558   6.984
20211TIP3   OH260509   4.352   6.761   8.442
20211TIP3    H160510   4.355   6.846   8.491
20211TIP3    H260511   4.257   6.740   8.452
20212TIP3   OH260512   4.671   7.229   7.371
20212TIP3    H160513   4.758   7.274   7.367
20212TIP3    H260514   4.621   7.274   7.302
20213TIP3   OH260515   4.393   7.379   8.436
20213TIP3    H160516   4.358   7.370   8.345
20213TIP3    H260517   4.314   7.352   8.489
20214TIP3   OH260518   5.450   5.776   7.125
20214TIP3    H160519   5.368   5.795   7.176
20214TIP3    H260520   5.461   5.860   7.075
20215TIP3   OH260521   4.190   6.518   7.474
20215TIP3    H160522   4.126   6.564   7.416
20215TIP3    H260523   4.148   6.432   7.485
20216TIP3   OH260524   5.246   7.145   6.673
20216TIP3    H160525   5.254   7.242   6.659
20216TIP3    H260526   5.339   7.117   6.660
20217TIP3   OH260527   3.977   6.902   8.377
20217TIP3    H160528   3.905   6.884   8.312
20217TIP3    H260529   4.007   6.812   8.400
20218TIP3   OH260530   3.826   7.097   8.005
20218TIP3    H160531   3.922   7.093   8.006
20218TIP3    H260532   3.806   7.172   8.062
20219TIP3   OH260533   5.690   7.544   8.066
20219TIP3    H160534   5.690   7.447   8.078
20219TIP3    H260535   5.607   7.567   8.113
20220TIP3   OH260536   4.792   7.335   8.199
20220TIP3    H160537   4.795   7.425   8.238
20220TIP3    H260538   4.722   7.293   8.254
20221TIP3   OH260539   4.557   7.460   7.159
20221TIP3    H160540   4.517   7.435   7.073
20221TIP3    H260541   4.531   7.553   7.168
20222TIP3   OH260542   3.996   7.312   7.535
20222TIP3    H160543   4.038   7.298   7.623
20222TIP3    H260544   3.936   7.235   7.532
20223TIP3   OH260545   4.760   7.364   6.794
20223TIP3    H160546   4.819   7.294   6.760
20223TIP3    H260547   4.792   7.373   6.886
20224TIP3   OH260548   4.805   7.387   7.064
20224TIP3    H160549   4.722   7.414   7.107
20224TIP3    H260550   4.860   7.364   7.141
20225TIP3   OH260551   5.582   6.678   8.340
20225TIP3    H160552   5.501   6.690   8.288
20225TIP3    H260553   5.597   6.582   8.331
20226TIP3   OH260554   4.179   7.086   8.371
20226TIP3    H160555   4.227   7.065   8.453
20226TIP3    H260556   4.105   7.021   8.375
20227TIP3   OH260557   4.578   5.909   8.149
20227TIP3    H160558   4.488   5.876   8.125
20227TIP3    H260559   4.552   5.991   8.195
20228TIP3   OH260560   5.109   6.024   8.345
20228TIP3    H160561   5.177   5.996   8.410
20228TIP3    H260562   5.025   6.003   8.390
20229TIP3   OH260563   5.353   6.453   8.265
20229TIP3    H160564   5.303   6.448   8.350
20229TIP3    H260565   5.325   6.539   8.229
20230TIP3   OH260566   5.011   6.583   6.821
20230TIP3    H160567   4.977   6.556   6.734
20230TIP3    H260568   5.089   6.635   6.795
20231TIP3   OH260569   4.725   5.957   7.122
20231TIP3    H160570   4.691   5.956   7.213
20231TIP3    H260571   4.684   5.874   7.089
20232TIP3   OH260572   4.511   6.422   8.172
20232TIP3    H160573   4.457   6.442   8.251
20232TIP3    H260574   4.494   6.502   8.117
20233TIP3   OH260575   4.393   6.309   7.684
20233TIP3    H160576   4.299   6.283   7.701
20233TIP3    H260577   4.406   6.269   7.595
20234TIP3   OH260578   4.884   6.397   7.411
20234TIP3    H160579   4.829   6.467   7.370
20234TIP3    H260580   4.937   6.366   7.335
20235TIP3   OH260581   5.058   6.677   8.501
20235TIP3    H160582   5.034   6.603   8.561
20235TIP3    H260583   5.152   6.687   8.521
20236TIP3   OH260584   5.042   6.426   7.651
20236TIP3    H160585   4.982   6.455   7.579
20236TIP3    H260586   5.074   6.343   7.609
20237TIP3   OH260587   4.330   6.453   8.379
20237TIP3    H160588   4.347   6.516   8.450
20237TIP3    H260589   4.314   6.370   8.429
20238TIP3   OH260590   4.379   5.930   7.089
20238TIP3    H160591   4.370   5.926   7.186
20238TIP3    H260592   4.299   5.980   7.064
20239TIP3   OH260593   3.920   5.977   7.959
20239TIP3    H160594   3.997   6.006   8.011
20239TIP3    H260595   3.958   5.941   7.877
20240TIP3   OH260596   3.898   5.957   7.479
20240TIP3    H160597   3.942   5.997   7.400
20240TIP3    H260598   3.836   6.029   7.501
20241TIP3   OH260599   5.054   6.672   8.076
20241TIP3    H160600   5.085   6.600   8.017
20241TIP3    H260601   5.024   6.620   8.153
20242TIP3   OH260602   4.719   6.133   7.747
20242TIP3    H160603   4.635   6.130   7.796
20242TIP3    H260604   4.784   6.132   7.818
20243TIP3   OH260605   4.154   6.187   7.754
20243TIP3    H160606   4.060   6.195   7.728
20243TIP3    H260607   4.176   6.095   7.731
20244TIP3   OH260608   4.426   6.185   7.441
20244TIP3    H160609   4.520   6.200   7.418
20244TIP3    H260610   4.378   6.208   7.359
20245TIP3   OH260611   5.211   6.207   7.947
20245TIP3    H160612   5.176   6.218   8.038
20245TIP3    H260613   5.146   6.145   7.910
20246TIP3   OH260614   4.264   6.216   7.223
20246TIP3    H160615   4.190   6.173   7.176
20246TIP3    H260616   4.314   6.251   7.146
20247TIP3   OH260617   5.375   7.899   8.166
20247TIP3    H160618   5.377   7.918   8.070
20247TIP3    H260619   5.457   7.944   8.195
20248TIP3   OH260620   4.340   7.007   8.588
20248TIP3    H160621   4.418   7.038   8.639
20248TIP3    H260622   4.273   7.002   8.660
20249TIP3   OH260623   4.804   6.460   7.845
20249TIP3    H160624   4.874   6.417   7.792
20249TIP3    H260625   4.814   6.417   7.931
20250TIP3   OH260626   4.330   5.947   7.720
20250TIP3    H160627   4.295   5.867   7.765
20250TIP3    H260628   4.378   5.910   7.645
20251TIP3   OH260629   4.780   6.354   8.132
20251TIP3    H160630   4.690   6.389   8.146
20251TIP3    H260631   4.837   6.414   8.184
20252TIP3   OH260632   4.517   6.748   7.229
20252TIP3    H160633   4.445   6.682   7.217
20252TIP3    H260634   4.499   6.781   7.320
20253TIP3   OH260635   5.418   6.984   7.859
20253TIP3    H160636   5.442   7.031   7.776
20253TIP3    H260637   5.332   6.942   7.835
20254TIP3   OH260638   4.976   6.060   7.088
20254TIP3    H160639   4.879   6.044   7.096
20254TIP3    H260640   4.984   6.155   7.111
20255TIP3   OH260641   4.926   7.071   8.224
20255TIP3    H160642   4.933   7.034   8.313
20255TIP3    H260643   4.873   7.151   8.238
20256TIP3   OH260644   5.045   6.306   7.193
20256TIP3    H160645   5.141   6.313   7.207
20256TIP3    H260646   5.025   6.385   7.138
20257TIP3   OH260647   4.214   6.774   7.906
20257TIP3    H160648   4.247   6.741   7.820
20257TIP3    H260649   4.240   6.703   7.967
20258TIP3   OH260650   4.662   6.898   7.050
20258TIP3    H160651   4.616   6.984   7.057
20258TIP3    H260652   4.607   6.842   7.108
20259TIP3   OH260653   4.089   6.687   8.515
20259TIP3    H160654   4.104   6.672   8.611
20259TIP3    H260655   4.017   6.625   8.496
20260TIP3   OH260656   4.813   6.804   8.536
20260TIP3    H160657   4.752   6.744   8.488
20260TIP3    H260658   4.900   6.769   8.509
20261TIP3   OH260659   5.077   7.340   8.114
20261TIP3    H160660   4.983   7.320   8.129
20261TIP3    H260661   5.101   7.383   8.198
20262TIP3   OH260662   5.490   6.394   7.028
20262TIP3    H160663   5.426   6.349   6.967
20262TIP3    H260664   5.484   6.483   6.987
20263TIP3   OH260665   5.704   7.254   8.110
20263TIP3    H160666   5.606   7.248   8.102
20263TIP3    H260667   5.730   7.223   8.020
20264TIP3   OH260668   5.191   7.214   6.938
20264TIP3    H160669   5.160   7.142   6.995
20264TIP3    H260670   5.199   7.170   6.851
20265TIP3   OH260671   5.182   6.844   7.779
20265TIP3    H160672   5.089   6.817   7.791
20265TIP3    H260673   5.218   6.766   7.733
20266TIP3   OH260674   4.307   7.073   7.533
20266TIP3    H160675   4.308   7.152   7.475
20266TIP3    H260676   4.213   7.052   7.535
20267TIP3   OH260677   3.873   6.377   7.231
20267TIP3    H160678   3.918   6.462   7.251
20267TIP3    H260679   3.794   6.383   7.290
20268TIP3   OH260680   4.452   6.842   7.476
20268TIP3    H160681   4.415   6.930   7.494
20268TIP3    H260682   4.413   6.789   7.549
20269TIP3   OH260683   4.578   7.413   8.010
20269TIP3    H160684   4.602   7.507   8.012
20269TIP3    H260685   4.656   7.371   8.052
20270TIP3   OH260686   4.231   7.308   7.383
20270TIP3    H160687   4.144   7.316   7.427
20270TIP3    H260688   4.264   7.399   7.387
20271TIP3   OH260689   4.972   7.052   7.956
20271TIP3    H160690   4.964   7.048   8.054
20271TIP3    H260691   5.047   6.993   7.939
20272TIP3   OH260692   4.940   6.940   6.839
20272TIP3    H160693   4.991   6.917   6.919
20272TIP3    H260694   4.850   6.917   6.866
20273TIP3   OH260695   5.213   7.592   8.014
20273TIP3    H160696   5.143   7.525   8.005
20273TIP3    H260697   5.198   7.649   7.935
20274TIP3   OH260698   5.278   7.421   6.662
20274TIP3    H160699   5.314   7.491   6.605
20274TIP3    H260700   5.198   7.469   6.694
20275TIP3   OH260701   4.301   6.196   8.526
20275TIP3    H160702   4.205   6.201   8.539
20275TIP3    H260703   4.327   6.133   8.596
20276TIP3   OH260704   5.100   6.881   7.060
20276TIP3    H160705   5.090   6.812   7.128
20276TIP3    H260706   5.197   6.877   7.044
20277TIP3   OH260707   4.024   7.283   8.156
20277TIP3    H160708   4.064   7.200   8.185
20277TIP3    H260709   4.043   7.341   8.231
20278TIP3   OH260710   4.310   6.924   6.837
20278TIP3    H160711   4.321   6.832   6.806
20278TIP3    H260712   4.290   6.910   6.932
20279TIP3   OH260713   4.256   6.928   7.110
20279TIP3    H160714   4.324   6.901   7.173
20279TIP3    H260715   4.260   7.026   7.116
20280TIP3   OH260716   3.992   6.624   7.314
20280TIP3    H160717   3.924   6.667   7.370
20280TIP3    H260718   4.004   6.694   7.246
20281TIP3   OH260719   5.136   6.261   8.206
20281TIP3    H160720   5.217   6.296   8.246
20281TIP3    H260721   5.120   6.179   8.259
20282TIP3   OH260722   5.017   6.012   7.368
20282TIP3    H160723   5.001   6.036   7.275
20282TIP3    H260724   5.055   6.095   7.404
20283TIP3   OH260725   4.522   7.130   7.066
20283TIP3    H160726   4.433   7.157   7.094
20283TIP3    H260727   4.538   7.193   6.995
20284TIP3   OH260728   4.711   6.188   7.472
20284TIP3    H160729   4.775   6.260   7.455
20284TIP3    H260730   4.713   6.183   7.570
20285TIP3   OH260731   4.977   6.510   8.281
20285TIP3    H160732   4.994   6.563   8.362
20285TIP3    H260733   5.031   6.431   8.295
20286TIP3   OH260734   4.854   5.921   7.578
20286TIP3    H160735   4.844   5.999   7.635
20286TIP3    H260736   4.913   5.957   7.508
20287TIP3   OH260737   4.262   7.202   7.125
20287TIP3    H160738   4.231   7.270   7.061
20287TIP3    H260739   4.244   7.245   7.211
20288TIP3   OH260740   4.363   5.914   7.366
20288TIP3    H160741   4.360   6.005   7.401
20288TIP3    H260742   4.459   5.896   7.374
20289TIP3   OH260743   5.619   6.410   8.259
20289TIP3    H160744   5.521   6.408   8.269
20289TIP3    H260745   5.627   6.367   8.173
20290TIP3   OH260746   5.268   6.605   7.650
20290TIP3    H160747   5.192   6.545   7.661
20290TIP3    H260748   5.339   6.556   7.698
20291TIP3   OH260749   3.982   6.834   7.121
20291TIP3    H160750   4.043   6.909   7.126
20291TIP3    H260751   4.028   6.781   7.053
20292TIP3   OH260752   3.926   6.108   7.252
20292TIP3    H160753   3.923   6.205   7.247
20292TIP3    H260754   3.841   6.084   7.214
20293TIP3   OH260755   5.235   7.559   7.601
20293TIP3    H160756   5.193   7.607   7.527
20293TIP3    H260757   5.330   7.577   7.580
20294TIP3   OH260758   4.314   5.828   8.127
20294TIP3    H160759   4.281   5.796   8.041
20294TIP3    H260760   4.302   5.749   8.185
20295TIP3   OH260761   3.857   7.055   7.510
20295TIP3    H160762   3.779   7.078   7.563
20295TIP3    H260763   3.829   7.089   7.422
20296TIP3   OH260764   4.005   7.584   8.574
20296TIP3    H160765   4.089   7.579   8.624
20296TIP3    H260766   3.977   7.491   8.575
20297TIP3   OH260767   4.514   7.556   8.619
20297TIP3    H160768   4.597   7.507   8.622
20297TIP3    H260769   4.467   7.506   8.550
20298TIP3   OH260770   4.473   7.130   6.756
20298TIP3    H160771   4.416   7.057   6.790
20298TIP3    H260772   4.546   7.078   6.718
20299TIP3   OH260773   5.121   7.466   8.362
20299TIP3    H160774   5.114   7.390   8.424
20299TIP3    H260775   5.206   7.505   8.386
20300TIP3   OH260776   4.907   7.170   6.662
20300TIP3    H160777   4.955   7.107   6.718
20300TIP3    H260778   4.962   7.173   6.581
20301TIP3   OH260779   4.139   6.994   8.778
20301TIP3    H160780   4.155   6.897   8.783
20301TIP3    H260781   4.050   6.996   8.736
20302TIP3   OH260782   4.115   6.647   6.970
20302TIP3    H160783   4.169   6.611   7.042
20302TIP3    H260784   4.183   6.651   6.898
20303TIP3   OH260785   4.749   7.078   8.550
20303TIP3    H160786   4.702   7.087   8.465
20303TIP3    H260787   4.779   6.985   8.547
20304TIP3   OH260788   4.624   6.843   6.779
20304TIP3    H160789   4.625   6.856   6.876
20304TIP3    H260790   4.622   6.745   6.774
20305TIP3   OH260791   5.241   7.083   8.160
20305TIP3    H160792   5.312   7.132   8.113
20305TIP3    H260793   5.165   7.142   8.145
20306TIP3   OH260794   4.259   6.729   8.760
20306TIP3    H160795   4.327   6.663   8.744
20306TIP3    H260796   4.282   6.760   8.850
20307TIP3   OH260797   4.329   6.547   7.198
20307TIP3    H160798   4.297   6.504   7.278
20307TIP3    H260799   4.361   6.471   7.145
20308TIP3   OH260800   4.595   6.616   8.426
20308TIP3    H160801   4.514   6.672   8.428
20308TIP3    H260802   4.639   6.647   8.344
20309TIP3   OH260803   4.423   6.340   7.036
20309TIP3    H160804   4.395   6.341   6.942
20309TIP3    H260805   4.520   6.348   7.027
20310TIP3   OH260806   5.111   7.016   8.558
20310TIP3    H160807   5.190   6.991   8.508
20310TIP3    H260808   5.107   6.947   8.626
20311TIP3   OH260809   5.250   6.674   6.696
20311TIP3    H160810   5.226   6.626   6.613
20311TIP3    H260811   5.218   6.764   6.671
20312TIP3   OH260812   4.717   6.400   8.550
20312TIP3    H160813   4.715   6.319   8.494
20312TIP3    H260814   4.672   6.465   8.492
20313TIP3   OH260815   4.718   6.186   8.355
20313TIP3    H160816   4.744   6.226   8.270
20313TIP3    H260817   4.624   6.163   8.338
20314TIP3   OH260818   4.751   6.727   8.230
20314TIP3    H160819   4.828   6.727   8.173
20314TIP3    H260820   4.692   6.791   8.185
20315TIP3   OH260821   5.330   6.691   8.612
20315TIP3    H160822   5.375   6.606   8.623
20315TIP3    H260823   5.400   6.747   8.576
20316TIP3   OH260824   5.371   6.943   8.349
20316TIP3    H160825   5.313   6.995   8.288
20316TIP3    H260826   5.458   6.960   8.307
20317TIP3   OH260827   4.594   6.515   8.778
20317TIP3    H160828   4.524   6.448   8.792
20317TIP3    H260829   4.628   6.489   8.690
20318TIP3   OH260830   4.850   5.951   8.421
20318TIP3    H160831   4.802   6.034   8.399
20318TIP3    H260832   4.780   5.884   8.410
20319TIP3   OH260833   4.976   6.458   8.639
20319TIP3    H160834   4.965   6.445   8.734
20319TIP3    H260835   4.886   6.432   8.609
20320TIP3   OH260836   5.217   6.406   8.494
20320TIP3    H160837   5.140   6.405   8.554
20320TIP3    H260838   5.289   6.373   8.551
20321TIP3   OH260839   5.446   6.344   8.645
20321TIP3    H160840   5.458   6.249   8.665
20321TIP3    H260841   5.441   6.384   8.735
20322TIP3   OH260842   4.434   6.295   8.830
20322TIP3    H160843   4.439   6.204   8.794
20322TIP3    H260844   4.468   6.281   8.920
20323TIP3   OH260845   4.946   5.961   8.679
20323TIP3    H160846   5.014   5.890   8.672
20323TIP3    H260847   4.905   5.954   8.590
20324TIP3   OH260848   5.011   6.175   8.839
20324TIP3    H160849   4.988   6.105   8.774
20324TIP3    H260850   4.933   6.235   8.832
20325TIP3   OH260851   4.232   7.408   6.942
20325TIP3    H160852   4.327   7.404   6.919
20325TIP3    H260853   4.198   7.450   6.861
20326TIP3   OH260854   3.715   6.785   7.157
20326TIP3    H160855   3.810   6.805   7.142
20326TIP3    H260856   3.707   6.697   7.114
20327TIP3   OH260857   3.623   7.400   7.569
20327TIP3    H160858   3.556   7.337   7.533
20327TIP3    H260859   3.668   7.342   7.634
20328TIP3   OH260860   3.762   7.255   7.756
20328TIP3    H160861   3.748   7.177   7.812
20328TIP3    H260862   3.806   7.314   7.819
20329TIP3   OH260863   5.487   7.652   7.555
20329TIP3    H160864   5.519   7.688   7.639
20329TIP3    H260865   5.546   7.692   7.490
20330TIP3   OH260866   5.517   7.673   7.841
20330TIP3    H160867   5.476   7.585   7.831
20330TIP3    H260868   5.596   7.649   7.892
20331TIP3   OH260869   5.563   7.349   8.409
20331TIP3    H160870   5.491   7.356   8.474
20331TIP3    H260871   5.605   7.437   8.415
20332TIP3   OH260872   5.381   6.860   7.030
20332TIP3    H160873   5.449   6.924   7.004
20332TIP3    H260874   5.423   6.820   7.110
20333TIP3   OH260875   5.509   6.727   7.234
20333TIP3    H160876   5.442   6.685   7.292
20333TIP3    H260877   5.571   6.767   7.298
20334TIP3   OH260878   5.560   7.118   7.667
20334TIP3    H160879   5.614   7.055   7.615
20334TIP3    H260880   5.553   7.194   7.605
20335TIP3   OH260881   5.396   7.420   7.861
20335TIP3    H160882   5.323   7.458   7.913
20335TIP3    H260883   5.347   7.371   7.791
20336TIP3   OH260884   5.447   6.635   6.881
20336TIP3    H160885   5.376   6.638   6.813
20336TIP3    H260886   5.419   6.712   6.936
20337TIP3   OH260887   5.319   6.308   6.835
20337TIP3    H160888   5.275   6.349   6.760
20337TIP3    H260889   5.292   6.215   6.825
20338TIP3   OH260890   5.324   6.583   7.381
20338TIP3    H160891   5.330   6.486   7.376
20338TIP3    H260892   5.310   6.598   7.477
20339TIP3   OH260893   3.950   6.653   8.127
20339TIP3    H160894   3.948   6.626   8.032
20339TIP3    H260895   4.047   6.657   8.142
20340TIP3   OH260896   5.611   7.008   8.237
20340TIP3    H160897   5.684   6.942   8.229
20340TIP3    H260898   5.640   7.077   8.175
20341TIP3   OH260899   5.798   6.817   8.259
20341TIP3    H160900   5.723   6.765   8.296
20341TIP3    H260901   5.871   6.752   8.271
20342TIP3   OH260902   5.261   6.043   6.824
20342TIP3    H160903   5.335   6.011   6.880
20342TIP3    H260904   5.187   5.985   6.848
20343TIP3   OH260905   5.319   6.300   7.278
20343TIP3    H160906   5.359   6.211   7.293
20343TIP3    H260907   5.377   6.332   7.207
20344TIP3   OH260908   5.482   6.476   7.771
20344TIP3    H160909   5.568   6.502   7.731
20344TIP3    H260910   5.494   6.511   7.861
20345TIP3   OH260911   5.548   6.618   8.004
20345TIP3    H160912   5.470   6.651   8.052
20345TIP3    H260913   5.580   6.699   7.959
20346TIP3   OH260914   4.167   6.346   8.804
20346TIP3    H160915   4.264   6.337   8.804
20346TIP3    H260916   4.141   6.261   8.845
20347TIP3   OH260917   6.000   6.207   8.560
20347TIP3    H160918   6.058   6.141   8.516
20347TIP3    H260919   5.974   6.264   8.485
20348TIP3   OH260920   5.428   6.049   7.313
20348TIP3    H160921   5.475   6.033   7.398
20348TIP3    H260922   5.367   5.973   7.311
20349TIP3   OH260923   4.129   6.035   8.132
20349TIP3    H160924   4.191   5.961   8.143
20349TIP3    H260925   4.190   6.111   8.128
20350TIP3   OH260926   3.933   6.310   8.209
20350TIP3    H160927   3.980   6.303   8.123
20350TIP3    H260928   3.957   6.400   8.236
20351TIP3   OH260929   5.874   6.351   8.366
20351TIP3    H160930   5.786   6.388   8.388
20351TIP3    H260931   5.847   6.278   8.307
20352TIP3   OH260932   5.511   5.985   6.947
20352TIP3    H160933   5.549   5.912   6.893
20352TIP3    H260934   5.577   6.056   6.935
20353TIP3   OH260935   3.913   5.818   7.710
20353TIP3    H160936   3.819   5.812   7.733
20353TIP3    H260937   3.912   5.873   7.629
20354TIP3   OH260938   5.076   7.521   7.221
20354TIP3    H160939   5.112   7.494   7.134
20354TIP3    H260940   5.137   7.593   7.242
20355TIP3   OH260941   4.134   5.894   8.522
20355TIP3    H160942   4.083   5.888   8.605
20355TIP3    H260943   4.067   5.933   8.462
20356TIP3   OH260944   4.175   7.322   8.605
20356TIP3    H160945   4.085   7.293   8.580
20356TIP3    H260946   4.178   7.296   8.698
20357TIP3   OH260947   4.350   7.350   8.152
20357TIP3    H160948   4.297   7.421   8.112
20357TIP3    H260949   4.434   7.363   8.103
20358TIP3   OH260950   4.802   7.599   8.290
20358TIP3    H160951   4.845   7.599   8.378
20358TIP3    H260952   4.869   7.644   8.235
20359TIP3   OH260953   4.981   7.743   8.143
20359TIP3    H160954   5.053   7.694   8.100
20359TIP3    H260955   5.032   7.805   8.198
20360TIP3   OH260956   5.771   6.112   8.243
20360TIP3    H160957   5.679   6.107   8.210
20360TIP3    H260958   5.800   6.019   8.230
20361TIP3   OH260959   4.034   7.618   8.167
20361TIP3    H160960   3.945   7.649   8.141
20361TIP3    H260961   4.030   7.631   8.262
20362TIP3   OH260962   4.269   7.589   8.024
20362TIP3    H160963   4.183   7.602   8.071
20362TIP3    H260964   4.245   7.623   7.935
20363TIP3   OH260965   4.955   7.569   7.874
20363TIP3    H160966   4.874   7.619   7.890
20363TIP3    H260967   5.012   7.635   7.831
20364TIP3   OH260968   5.162   7.749   7.791
20364TIP3    H160969   5.151   7.834   7.744
20364TIP3    H260970   5.192   7.690   7.718
20365TIP3   OH260971   3.946   7.411   7.916
20365TIP3    H160972   3.969   7.379   8.006
20365TIP3    H260973   4.012   7.361   7.864
20366TIP3   OH260974   4.133   7.274   7.771
20366TIP3    H160975   4.145   7.189   7.819
20366TIP3    H260976   4.224   7.304   7.760
20367TIP3   OH260977   4.444   7.382   7.754
20367TIP3    H160978   4.446   7.285   7.746
20367TIP3    H260979   4.446   7.389   7.851
20368TIP3   OH260980   4.977   6.028   7.863
20368TIP3    H160981   4.931   5.959   7.915
20368TIP3    H260982   5.044   5.977   7.815
20369TIP3   OH260983   5.501   5.908   7.769
20369TIP3    H160984   5.537   5.960   7.693
20369TIP3    H260985   5.405   5.923   7.761
20370TIP3   OH260986   5.595   6.009   7.531
20370TIP3    H160987   5.668   5.957   7.490
20370TIP3    H260988   5.627   6.101   7.516
20371TIP3   OH260989   4.225   5.736   7.879
20371TIP3    H160990   4.132   5.703   7.879
20371TIP3    H260991   4.274   5.651   7.876
20372TIP3   OH260992   4.013   5.604   7.525
20372TIP3    H160993   4.040   5.663   7.453
20372TIP3    H260994   3.980   5.668   7.592
20373TIP3   OH260995   4.667   5.768   7.757
20373TIP3    H160996   4.727   5.820   7.701
20373TIP3    H260997   4.684   5.805   7.844
20374TIP3   OH260998   5.220   5.914   7.742
20374TIP3    H160999   5.210   5.879   7.653
20374TIP3    H261000   5.204   5.833   7.797
20375TIP3   OH261001   5.245   5.836   7.304
20375TIP3    H161002   5.157   5.878   7.313
20375TIP3    H261003   5.229   5.751   7.352
20376TIP3   OH261004   3.728   7.174   7.306
20376TIP3    H161005   3.644   7.140   7.271
20376TIP3    H261006   3.717   7.268   7.282
20377TIP3   OH261007   4.126   5.765   7.290
20377TIP3    H161008   4.175   5.703   7.233
20377TIP3    H261009   4.198   5.819   7.327
20378TIP3   OH261010   4.640   5.939   7.388
20378TIP3    H161011   4.699   5.891   7.449
20378TIP3    H261012   4.662   6.031   7.413
20379TIP3   OH261013   4.501   7.368   6.891
20379TIP3    H161014   4.589   7.390   6.855
20379TIP3    H261015   4.479   7.293   6.831
20380TIP3   OH261016   5.213   7.482   6.983
20380TIP3    H161017   5.207   7.385   6.965
20380TIP3    H261018   5.169   7.518   6.904
20381TIP3   OH261019   4.432   6.018   8.770
20381TIP3    H161020   4.398   5.947   8.827
20381TIP3    H261021   4.527   6.019   8.796
20382TIP3   OH261022   4.681   6.014   8.889
20382TIP3    H161023   4.765   5.987   8.849
20382TIP3    H261024   4.667   5.943   8.955
20383TIP3   OH261025   3.805   7.205   6.945
20383TIP3    H161026   3.797   7.230   7.038
20383TIP3    H261027   3.894   7.163   6.941
20384TIP3   OH261028   5.505   6.074   8.677
20384TIP3    H161029   5.525   6.043   8.768
20384TIP3    H261030   5.593   6.069   8.634
20385TIP3   OH261031   5.444   7.629   8.173
20385TIP3    H161032   5.367   7.596   8.122
20385TIP3    H261033   5.426   7.725   8.170
20386TIP3   OH261034   6.696   6.985   6.930
20386TIP3    H161035   6.706   7.082   6.918
20386TIP3    H261036   6.600   6.984   6.937
20387TIP3   OH261037   6.710   6.992   7.311
20387TIP3    H161038   6.741   6.974   7.402
20387TIP3    H261039   6.664   6.910   7.290
20388TIP3   OH261040   6.011   6.895   7.680
20388TIP3    H161041   6.042   6.829   7.744
20388TIP3    H261042   6.087   6.955   7.676
20389TIP3   OH261043   6.947   7.295   7.000
20389TIP3    H161044   6.947   7.233   7.074
20389TIP3    H261045   6.980   7.376   7.042
20390TIP3   OH261046   5.980   7.304   7.410
20390TIP3    H161047   5.972   7.206   7.412
20390TIP3    H261048   6.077   7.312   7.401
20391TIP3   OH261049   5.689   6.511   7.192
20391TIP3    H161050   5.637   6.593   7.206
20391TIP3    H261051   5.619   6.453   7.157
20392TIP3   OH261052   5.747   6.796   7.362
20392TIP3    H161053   5.796   6.719   7.400
20392TIP3    H261054   5.805   6.822   7.290
20393TIP3   OH261055   6.597   7.761   7.012
20393TIP3    H161056   6.646   7.691   6.963
20393TIP3    H261057   6.600   7.727   7.102
20394TIP3   OH261058   6.510   7.223   7.363
20394TIP3    H161059   6.549   7.149   7.315
20394TIP3    H261060   6.592   7.269   7.389
20395TIP3   OH261061   7.504   6.582   7.361
20395TIP3    H161062   7.574   6.641   7.397
20395TIP3    H261063   7.539   6.571   7.270
20396TIP3   OH261064   6.933   6.729   7.397
20396TIP3    H161065   6.966   6.640   7.420
20396TIP3    H261066   6.894   6.711   7.309
20397TIP3   OH261067   6.257   6.386   7.362
20397TIP3    H161068   6.235   6.458   7.300
20397TIP3    H261069   6.210   6.311   7.319
20398TIP3   OH261070   6.950   6.484   6.983
20398TIP3    H161071   7.020   6.467   7.050
20398TIP3    H261072   7.005   6.511   6.907
20399TIP3   OH261073   5.892   6.589   7.468
20399TIP3    H161074   5.975   6.567   7.516
20399TIP3    H261075   5.902   6.531   7.390
20400TIP3   OH261076   6.336   6.786   7.254
20400TIP3    H161077   6.427   6.759   7.275
20400TIP3    H261078   6.294   6.701   7.229
20401TIP3   OH261079   6.256   6.369   7.796
20401TIP3    H161080   6.194   6.406   7.729
20401TIP3    H261081   6.205   6.386   7.878
20402TIP3   OH261082   6.594   7.214   6.810
20402TIP3    H161083   6.568   7.205   6.717
20402TIP3    H261084   6.560   7.303   6.830
20403TIP3   OH261085   6.360   7.143   7.593
20403TIP3    H161086   6.297   7.208   7.631
20403TIP3    H261087   6.404   7.196   7.524
20404TIP3   OH261088   7.161   6.485   7.157
20404TIP3    H161089   7.156   6.420   7.228
20404TIP3    H261090   7.255   6.502   7.150
20405TIP3   OH261091   6.125   6.484   7.581
20405TIP3    H161092   6.187   6.557   7.604
20405TIP3    H261093   6.175   6.442   7.507
20406TIP3   OH261094   6.188   7.336   7.690
20406TIP3    H161095   6.163   7.421   7.648
20406TIP3    H261096   6.109   7.323   7.747
20407TIP3   OH261097   5.588   7.026   6.925
20407TIP3    H161098   5.543   7.051   6.842
20407TIP3    H261099   5.614   7.113   6.961
20408TIP3   OH261100   7.022   7.540   7.164
20408TIP3    H161101   6.931   7.536   7.202
20408TIP3    H261102   7.019   7.627   7.119
20409TIP3   OH261103   7.313   6.446   7.528
20409TIP3    H161104   7.223   6.469   7.499
20409TIP3    H261105   7.370   6.484   7.458
20410TIP3   OH261106   6.613   6.090   7.508
20410TIP3    H161107   6.603   5.995   7.527
20410TIP3    H261108   6.535   6.127   7.555
20411TIP3   OH261109   6.726   7.591   6.841
20411TIP3    H161110   6.776   7.509   6.816
20411TIP3    H261111   6.786   7.658   6.799
20412TIP3   OH261112   6.861   7.373   6.746
20412TIP3    H161113   6.849   7.294   6.692
20412TIP3    H261114   6.899   7.336   6.829
20413TIP3   OH261115   7.249   7.458   7.511
20413TIP3    H161116   7.243   7.381   7.450
20413TIP3    H261117   7.234   7.533   7.450
20414TIP3   OH261118   7.431   7.074   7.343
20414TIP3    H161119   7.359   7.138   7.357
20414TIP3    H261120   7.469   7.109   7.259
20415TIP3   OH261121   6.884   6.924   6.737
20415TIP3    H161122   6.835   6.957   6.815
20415TIP3    H261123   6.972   6.904   6.776
20416TIP3   OH261124   7.123   6.969   7.653
20416TIP3    H161125   7.129   7.057   7.693
20416TIP3    H261126   7.042   6.979   7.599
20417TIP3   OH261127   6.120   6.929   7.153
20417TIP3    H161128   6.082   6.872   7.083
20417TIP3    H261129   6.198   6.878   7.182
20418TIP3   OH261130   6.249   7.339   7.305
20418TIP3    H161131   6.231   7.298   7.219
20418TIP3    H261132   6.340   7.309   7.322
20419TIP3   OH261133   6.261   6.902   7.507
20419TIP3    H161134   6.294   6.887   7.416
20419TIP3    H261135   6.301   6.988   7.530
20420TIP3   OH261136   6.779   7.540   7.285
20420TIP3    H161137   6.768   7.621   7.337
20420TIP3    H261138   6.768   7.468   7.350
20421TIP3   OH261139   6.394   7.460   7.833
20421TIP3    H161140   6.334   7.523   7.878
20421TIP3    H261141   6.328   7.406   7.784
20422TIP3   OH261142   6.707   6.790   6.569
20422TIP3    H161143   6.770   6.847   6.619
20422TIP3    H261144   6.736   6.809   6.477
20423TIP3   OH261145   6.148   7.017   7.930
20423TIP3    H161146   6.153   7.103   7.977
20423TIP3    H261147   6.053   6.998   7.940
20424TIP3   OH261148   6.471   7.473   6.842
20424TIP3    H161149   6.550   7.527   6.859
20424TIP3    H261150   6.411   7.537   6.800
20425TIP3   OH261151   6.189   7.631   7.919
20425TIP3    H161152   6.156   7.627   7.827
20425TIP3    H261153   6.109   7.608   7.971
20426TIP3   OH261154   7.246   6.034   6.610
20426TIP3    H161155   7.165   6.055   6.661
20426TIP3    H261156   7.259   6.117   6.559
20427TIP3   OH261157   5.996   6.772   6.942
20427TIP3    H161158   5.924   6.820   6.896
20427TIP3    H261159   5.948   6.695   6.975
20428TIP3   OH261160   7.042   7.403   6.163
20428TIP3    H161161   7.052   7.498   6.143
20428TIP3    H261162   7.133   7.370   6.146
20429TIP3   OH261163   5.769   7.158   7.866
20429TIP3    H161164   5.705   7.135   7.795
20429TIP3    H261165   5.805   7.070   7.891
20430TIP3   OH261166   5.623   7.348   7.504
20430TIP3    H161167   5.718   7.343   7.487
20430TIP3    H261168   5.615   7.431   7.553
20431TIP3   OH261169   7.478   7.789   7.557
20431TIP3    H161170   7.477   7.692   7.566
20431TIP3    H261171   7.392   7.814   7.595
20432TIP3   OH261172   6.594   7.589   7.689
20432TIP3    H161173   6.594   7.682   7.721
20432TIP3    H261174   6.523   7.549   7.743
20433TIP3   OH261175   6.350   7.715   6.642
20433TIP3    H161176   6.310   7.698   6.555
20433TIP3    H261177   6.322   7.806   6.661
20434TIP3   OH261178   5.791   7.567   7.022
20434TIP3    H161179   5.839   7.557   7.107
20434TIP3    H261180   5.728   7.494   7.028
20435TIP3   OH261181   6.555   7.615   6.283
20435TIP3    H161182   6.614   7.547   6.243
20435TIP3    H261183   6.593   7.625   6.372
20436TIP3   OH261184   6.604   7.666   6.553
20436TIP3    H161185   6.517   7.674   6.597
20436TIP3    H261186   6.658   7.629   6.624
20437TIP3   OH261187   7.379   6.938   7.823
20437TIP3    H161188   7.297   6.946   7.772
20437TIP3    H261189   7.400   6.843   7.812
20438TIP3   OH261190   5.973   7.342   7.858
20438TIP3    H161191   6.025   7.322   7.939
20438TIP3    H261192   5.900   7.277   7.864
20439TIP3   OH261193   6.373   6.165   7.636
20439TIP3    H161194   6.283   6.134   7.612
20439TIP3    H261195   6.349   6.247   7.683
20440TIP3   OH261196   6.906   6.279   7.832
20440TIP3    H161197   6.975   6.253   7.897
20440TIP3    H261198   6.823   6.259   7.879
20441TIP3   OH261199   7.145   6.706   7.744
20441TIP3    H161200   7.101   6.704   7.832
20441TIP3    H261201   7.126   6.797   7.714
20442TIP3   OH261202   6.800   6.835   6.310
20442TIP3    H161203   6.777   6.808   6.220
20442TIP3    H261204   6.880   6.889   6.293
20443TIP3   OH261205   6.516   6.222   6.611
20443TIP3    H161206   6.487   6.211   6.704
20443TIP3    H261207   6.482   6.139   6.573
20444TIP3   OH261208   6.305   6.679   7.656
20444TIP3    H161209   6.255   6.700   7.738
20444TIP3    H261210   6.289   6.760   7.603
20445TIP3   OH261211   6.186   6.566   7.171
20445TIP3    H161212   6.094   6.539   7.191
20445TIP3    H261213   6.198   6.523   7.083
20446TIP3   OH261214   6.652   6.665   6.857
20446TIP3    H161215   6.678   6.759   6.861
20446TIP3    H261216   6.726   6.626   6.806
20447TIP3   OH261217   6.853   6.933   7.986
20447TIP3    H161218   6.832   6.859   8.047
20447TIP3    H261219   6.948   6.946   8.005
20448TIP3   OH261220   6.838   6.682   7.142
20448TIP3    H161221   6.785   6.723   7.072
20448TIP3    H261222   6.871   6.601   7.096
20449TIP3   OH261223   6.123   6.709   7.866
20449TIP3    H161224   6.151   6.772   7.935
20449TIP3    H261225   6.112   6.627   7.917
20450TIP3   OH261226   6.180   6.192   6.576
20450TIP3    H161227   6.168   6.183   6.672
20450TIP3    H261228   6.093   6.229   6.548
20451TIP3   OH261229   5.716   6.235   7.445
20451TIP3    H161230   5.794   6.262   7.498
20451TIP3    H261231   5.755   6.196   7.365
20452TIP3   OH261232   5.695   6.214   6.965
20452TIP3    H161233   5.738   6.255   6.888
20452TIP3    H261234   5.631   6.285   6.988
20453TIP3   OH261235   6.838   6.927   7.556
20453TIP3    H161236   6.880   6.855   7.503
20453TIP3    H261237   6.817   6.877   7.638
20454TIP3   OH261238   6.513   6.395   7.231
20454TIP3    H161239   6.431   6.387   7.284
20454TIP3    H261240   6.581   6.387   7.299
20455TIP3   OH261241   5.951   6.443   7.240
20455TIP3    H161242   5.855   6.451   7.215
20455TIP3    H261243   5.972   6.350   7.218
20456TIP3   OH261244   6.214   6.439   6.927
20456TIP3    H161245   6.310   6.447   6.916
20456TIP3    H261246   6.177   6.467   6.841
20457TIP3   OH261247   7.009   6.464   7.435
20457TIP3    H161248   6.975   6.474   7.527
20457TIP3    H261249   6.945   6.401   7.398
20458TIP3   OH261250   6.065   6.485   6.687
20458TIP3    H161251   5.978   6.443   6.704
20458TIP3    H261252   6.075   6.457   6.594
20459TIP3   OH261253   7.182   8.153   7.657
20459TIP3    H161254   7.177   8.172   7.562
20459TIP3    H261255   7.257   8.211   7.683
20460TIP3   OH261256   6.134   7.263   8.075
20460TIP3    H161257   6.215   7.293   8.122
20460TIP3    H261258   6.071   7.261   8.149
20461TIP3   OH261259   6.600   6.716   7.330
20461TIP3    H161260   6.672   6.670   7.284
20461TIP3    H261261   6.606   6.677   7.420
20462TIP3   OH261262   6.125   6.203   7.206
20462TIP3    H161263   6.089   6.125   7.253
20462TIP3    H261264   6.179   6.162   7.137
20463TIP3   OH261265   6.577   6.613   7.617
20463TIP3    H161266   6.487   6.649   7.634
20463TIP3    H261267   6.635   6.671   7.671
20464TIP3   OH261268   6.330   6.989   6.719
20464TIP3    H161269   6.249   6.935   6.713
20464TIP3    H261270   6.313   7.036   6.805
20465TIP3   OH261271   7.215   7.242   7.345
20465TIP3    H161272   7.243   7.290   7.264
20465TIP3    H261273   7.128   7.205   7.318
20466TIP3   OH261274   6.774   6.314   6.580
20466TIP3    H161275   6.676   6.302   6.581
20466TIP3    H261276   6.785   6.410   6.594
20467TIP3   OH261277   6.707   7.318   7.713
20467TIP3    H161278   6.735   7.300   7.803
20467TIP3    H261279   6.676   7.410   7.718
20468TIP3   OH261280   6.843   6.566   6.681
20468TIP3    H161281   6.940   6.568   6.692
20468TIP3    H261282   6.828   6.640   6.619
20469TIP3   OH261283   6.004   7.025   7.392
20469TIP3    H161284   6.042   6.996   7.307
20469TIP3    H261285   6.042   6.960   7.454
20470TIP3   OH261286   6.459   7.153   6.534
20470TIP3    H161287   6.411   7.240   6.541
20470TIP3    H261288   6.410   7.099   6.599
20471TIP3   OH261289   5.883   6.947   8.004
20471TIP3    H161290   5.906   6.932   8.098
20471TIP3    H261291   5.816   6.879   7.989
20472TIP3   OH261292   6.609   7.059   8.024
20472TIP3    H161293   6.552   7.000   7.972
20472TIP3    H261294   6.698   7.027   7.997
20473TIP3   OH261295   6.872   7.574   7.610
20473TIP3    H161296   6.775   7.579   7.618
20473TIP3    H261297   6.899   7.632   7.684
20474TIP3   OH261298   7.281   6.653   6.519
20474TIP3    H161299   7.219   6.607   6.457
20474TIP3    H261300   7.280   6.741   6.475
20475TIP3   OH261301   7.500   7.506   7.602
20475TIP3    H161302   7.402   7.501   7.592
20475TIP3    H261303   7.527   7.480   7.511
20476TIP3   OH261304   6.974   7.472   6.422
20476TIP3    H161305   6.966   7.395   6.480
20476TIP3    H261306   6.997   7.431   6.336
20477TIP3   OH261307   6.976   7.103   7.263
20477TIP3    H161308   6.884   7.075   7.277
20477TIP3    H261309   7.013   7.024   7.219
20478TIP3   OH261310   6.105   7.326   7.013
20478TIP3    H161311   6.110   7.409   6.962
20478TIP3    H261312   6.010   7.316   7.022
20479TIP3   OH261313   5.671   6.634   6.721
20479TIP3    H161314   5.711   6.722   6.738
20479TIP3    H261315   5.590   6.640   6.777
20480TIP3   OH261316   6.248   7.093   6.959
20480TIP3    H161317   6.215   7.184   6.974
20480TIP3    H261318   6.208   7.047   7.036
20481TIP3   OH261319   6.374   7.673   7.485
20481TIP3    H161320   6.413   7.746   7.433
20481TIP3    H261321   6.452   7.641   7.532
20482TIP3   OH261322   6.028   7.566   6.871
20482TIP3    H161323   5.941   7.576   6.913
20482TIP3    H261324   6.060   7.659   6.871
20483TIP3   OH261325   6.764   7.305   7.443
20483TIP3    H161326   6.756   7.304   7.541
20483TIP3    H261327   6.849   7.261   7.430
20484TIP3   OH261328   6.731   7.190   6.329
20484TIP3    H161329   6.787   7.173   6.408
20484TIP3    H261330   6.643   7.177   6.366
20485TIP3   OH261331   7.011   7.845   7.494
20485TIP3    H161332   6.933   7.789   7.481
20485TIP3    H261333   7.000   7.910   7.422
20486TIP3   OH261334   7.077   7.677   6.146
20486TIP3    H161335   7.117   7.747   6.092
20486TIP3    H261336   6.997   7.725   6.177
20487TIP3   OH261337   6.098   6.452   8.013
20487TIP3    H161338   6.002   6.457   8.027
20487TIP3    H261339   6.126   6.391   8.083
20488TIP3   OH261340   6.896   7.138   6.551
20488TIP3    H161341   6.890   7.063   6.613
20488TIP3    H261342   6.992   7.136   6.530
20489TIP3   OH261343   5.812   7.538   7.647
20489TIP3    H161344   5.863   7.460   7.672
20489TIP3    H261345   5.849   7.604   7.707
20490TIP3   OH261346   6.105   7.182   6.325
20490TIP3    H161347   6.119   7.092   6.292
20490TIP3    H261348   6.088   7.167   6.420
20491TIP3   OH261349   6.057   7.183   6.601
20491TIP3    H161350   6.125   7.172   6.669
20491TIP3    H261351   6.051   7.281   6.597
20492TIP3   OH261352   5.790   6.885   6.799
20492TIP3    H161353   5.722   6.925   6.857
20492TIP3    H261354   5.797   6.956   6.732
20493TIP3   OH261355   6.932   6.514   7.691
20493TIP3    H161356   7.009   6.556   7.732
20493TIP3    H261357   6.918   6.435   7.747
20494TIP3   OH261358   6.804   6.276   6.858
20494TIP3    H161359   6.798   6.293   6.762
20494TIP3    H261360   6.852   6.355   6.889
20495TIP3   OH261361   6.314   7.381   6.548
20495TIP3    H161362   6.228   7.414   6.581
20495TIP3    H261363   6.334   7.449   6.482
20496TIP3   OH261364   6.494   6.450   6.957
20496TIP3    H161365   6.562   6.516   6.936
20496TIP3    H261366   6.504   6.439   7.055
20497TIP3   OH261367   6.773   6.766   7.770
20497TIP3    H161368   6.790   6.822   7.848
20497TIP3    H261369   6.831   6.690   7.787
20498TIP3   OH261370   6.649   6.177   7.064
20498TIP3    H161371   6.651   6.249   7.129
20498TIP3    H261372   6.707   6.214   6.994
20499TIP3   OH261373   6.053   7.455   6.612
20499TIP3    H161374   6.027   7.525   6.547
20499TIP3    H261375   6.040   7.502   6.697
20500TIP3   OH261376   6.158   6.169   6.851
20500TIP3    H161377   6.158   6.257   6.893
20500TIP3    H261378   6.254   6.147   6.859
20501TIP3   OH261379   7.415   6.674   7.735
20501TIP3    H161380   7.317   6.667   7.743
20501TIP3    H261381   7.433   6.607   7.668
20502TIP3   OH261382   7.065   6.855   7.139
20502TIP3    H161383   6.984   6.802   7.150
20502TIP3    H261384   7.129   6.804   7.190
20503TIP3   OH261385   5.775   7.091   6.610
20503TIP3    H161386   5.831   7.170   6.615
20503TIP3    H261387   5.819   7.044   6.536
20504TIP3   OH261388   5.730   6.368   6.739
20504TIP3    H161389   5.716   6.465   6.736
20504TIP3    H261390   5.649   6.335   6.700
20505TIP3   OH261391   7.032   7.813   7.087
20505TIP3    H161392   6.991   7.860   7.012
20505TIP3    H261393   7.126   7.833   7.068
20506TIP3   OH261394   6.109   6.085   7.614
20506TIP3    H161395   6.077   6.051   7.528
20506TIP3    H261396   6.098   6.006   7.672
20507TIP3   OH261397   5.649   7.302   6.998
20507TIP3    H161398   5.572   7.335   7.047
20507TIP3    H261399   5.630   7.341   6.909
20508TIP3   OH261400   5.802   7.841   8.068
20508TIP3    H161401   5.889   7.839   8.112
20508TIP3    H261402   5.781   7.747   8.063
20509TIP3   OH261403   6.290   7.810   8.111
20509TIP3    H161404   6.384   7.785   8.115
20509TIP3    H261405   6.261   7.755   8.035
20510TIP3   OH261406   6.270   7.387   6.240
20510TIP3    H161407   6.215   7.313   6.275
20510TIP3    H261408   6.343   7.339   6.197
20511TIP3   OH261409   6.920   7.717   7.842
20511TIP3    H161410   6.912   7.641   7.905
20511TIP3    H261411   7.003   7.759   7.869
20512TIP3   OH261412   6.702   7.426   6.143
20512TIP3    H161413   6.762   7.374   6.198
20512TIP3    H261414   6.756   7.445   6.065
20513TIP3   OH261415   5.934   7.250   8.266
20513TIP3    H161416   5.952   7.155   8.270
20513TIP3    H261417   5.846   7.252   8.222
20514TIP3   OH261418   5.904   6.910   6.448
20514TIP3    H161419   5.956   6.872   6.519
20514TIP3    H261420   5.971   6.914   6.377
20515TIP3   OH261421   6.542   7.333   8.039
20515TIP3    H161422   6.502   7.348   7.951
20515TIP3    H261423   6.575   7.241   8.033
20516TIP3   OH261424   6.416   7.093   6.267
20516TIP3    H161425   6.422   7.116   6.362
20516TIP3    H261426   6.413   6.996   6.270
20517TIP3   OH261427   7.034   7.340   7.644
20517TIP3    H161428   7.111   7.383   7.600
20517TIP3    H261429   6.966   7.409   7.632
20518TIP3   OH261430   6.053   6.983   8.246
20518TIP3    H161431   6.126   6.923   8.228
20518TIP3    H261432   6.077   7.016   8.336
20519TIP3   OH261433   6.173   6.758   6.697
20519TIP3    H161434   6.122   6.761   6.779
20519TIP3    H261435   6.116   6.700   6.643
20520TIP3   OH261436   6.388   6.868   7.908
20520TIP3    H161437   6.312   6.930   7.913
20520TIP3    H261438   6.436   6.902   7.829
20521TIP3   OH261439   6.905   7.269   8.043
20521TIP3    H161440   6.985   7.247   7.992
20521TIP3    H261441   6.906   7.201   8.113
20522TIP3   OH261442   7.044   6.919   6.184
20522TIP3    H161443   7.024   6.880   6.097
20522TIP3    H261444   7.015   7.012   6.168
20523TIP3   OH261445   6.510   6.656   8.038
20523TIP3    H161446   6.512   6.576   7.982
20523TIP3    H261447   6.468   6.722   7.979
20524TIP3   OH261448   6.514   6.443   7.841
20524TIP3    H161449   6.541   6.483   7.756
20524TIP3    H261450   6.420   6.420   7.824
20525TIP3   OH261451   6.544   6.978   7.714
20525TIP3    H161452   6.627   6.987   7.665
20525TIP3    H261453   6.489   7.048   7.672
20526TIP3   OH261454   7.129   6.949   8.099
20526TIP3    H161455   7.175   6.864   8.114
20526TIP3    H261456   7.200   7.001   8.059
20527TIP3   OH261457   7.166   7.202   7.836
20527TIP3    H161458   7.109   7.253   7.774
20527TIP3    H261459   7.253   7.217   7.795
20528TIP3   OH261460   6.387   6.773   8.264
20528TIP3    H161461   6.319   6.704   8.278
20528TIP3    H261462   6.424   6.745   8.178
20529TIP3   OH261463   6.646   6.208   7.907
20529TIP3    H161464   6.598   6.290   7.886
20529TIP3    H261465   6.576   6.140   7.897
20530TIP3   OH261466   6.773   6.714   8.125
20530TIP3    H161467   6.766   6.702   8.222
20530TIP3    H261468   6.682   6.688   8.099
20531TIP3   OH261469   7.012   6.659   7.976
20531TIP3    H161470   6.937   6.661   8.040
20531TIP3    H261471   7.086   6.629   8.034
20532TIP3   OH261472   7.233   6.597   8.131
20532TIP3    H161473   7.250   6.503   8.153
20532TIP3    H261474   7.233   6.640   8.219
20533TIP3   OH261475   6.229   6.551   8.317
20533TIP3    H161476   6.237   6.461   8.281
20533TIP3    H261477   6.265   6.538   8.407
20534TIP3   OH261478   6.742   6.217   8.165
20534TIP3    H161479   6.810   6.148   8.161
20534TIP3    H261480   6.702   6.209   8.076
20535TIP3   OH261481   6.806   6.432   8.325
20535TIP3    H161482   6.783   6.361   8.261
20535TIP3    H261483   6.729   6.492   8.318
20536TIP3   OH261484   6.027   7.657   6.425
20536TIP3    H161485   6.122   7.658   6.406
20536TIP3    H261486   5.995   7.707   6.347
20537TIP3   OH261487   5.507   7.040   6.646
20537TIP3    H161488   5.601   7.063   6.630
20537TIP3    H261489   5.501   6.953   6.601
20538TIP3   OH261490   5.421   7.653   7.050
20538TIP3    H161491   5.351   7.593   7.017
20538TIP3    H261492   5.463   7.597   7.119
20539TIP3   OH261493   5.557   7.509   7.241
20539TIP3    H161494   5.545   7.434   7.300
20539TIP3    H261495   5.608   7.570   7.298
20540TIP3   OH261496   7.281   7.909   7.043
20540TIP3    H161497   7.313   7.953   7.123
20540TIP3    H261498   7.341   7.945   6.975
20541TIP3   OH261499   7.312   7.926   7.331
20541TIP3    H161500   7.279   7.835   7.318
20541TIP3    H261501   7.396   7.907   7.376
20542TIP3   OH261502   7.345   7.596   7.868
20542TIP3    H161503   7.288   7.603   7.946
20542TIP3    H261504   7.412   7.665   7.877
20543TIP3   OH261505   7.173   7.119   6.517
20543TIP3    H161506   7.241   7.182   6.486
20543TIP3    H261507   7.220   7.079   6.594
20544TIP3   OH261508   7.303   6.987   6.719
20544TIP3    H161509   7.242   6.945   6.783
20544TIP3    H261510   7.374   7.023   6.776
20545TIP3   OH261511   7.352   7.372   7.149
20545TIP3    H161512   7.411   7.312   7.100
20545TIP3    H261513   7.352   7.452   7.092
20546TIP3   OH261514   7.190   7.672   7.350
20546TIP3    H161515   7.119   7.720   7.396
20546TIP3    H261516   7.142   7.626   7.279
20547TIP3   OH261517   7.242   6.889   6.373
20547TIP3    H161518   7.172   6.893   6.303
20547TIP3    H261519   7.218   6.969   6.424
20548TIP3   OH261520   7.106   6.567   6.330
20548TIP3    H161521   7.081   6.609   6.247
20548TIP3    H261522   7.083   6.473   6.313
20549TIP3   OH261523   7.113   6.840   6.867
20549TIP3    H161524   7.132   6.745   6.861
20549TIP3    H261525   7.109   6.854   6.964
20550TIP3   OH261526   5.746   6.915   7.614
20550TIP3    H161527   5.744   6.885   7.521
20550TIP3    H261528   5.843   6.916   7.630
20551TIP3   OH261529   7.405   7.259   7.716
20551TIP3    H161530   7.481   7.198   7.711
20551TIP3    H261531   7.433   7.331   7.657
20552TIP3   OH261532   7.600   7.080   7.760
20552TIP3    H161533   7.521   7.027   7.785
20552TIP3    H261534   7.669   7.010   7.769
20553TIP3   OH261535   7.057   6.301   6.312
20553TIP3    H161536   7.137   6.271   6.360
20553TIP3    H261537   6.990   6.236   6.337
20554TIP3   OH261538   7.115   6.556   6.764
20554TIP3    H161539   7.157   6.467   6.777
20554TIP3    H261540   7.173   6.591   6.693
20555TIP3   OH261541   5.962   6.603   8.290
20555TIP3    H161542   6.060   6.595   8.290
20555TIP3    H261543   5.938   6.518   8.331
20556TIP3   OH261544   7.797   6.459   8.045
20556TIP3    H161545   7.855   6.394   8.000
20556TIP3    H261546   7.770   6.517   7.970
20557TIP3   OH261547   7.219   6.307   6.805
20557TIP3    H161548   7.275   6.287   6.883
20557TIP3    H261549   7.163   6.227   6.801
20558TIP3   OH261550   5.924   6.292   7.618
20558TIP3    H161551   5.987   6.218   7.630
20558TIP3    H261552   5.986   6.367   7.615
20559TIP3   OH261553   5.728   6.568   7.694
20559TIP3    H161554   5.776   6.559   7.609
20559TIP3    H261555   5.758   6.655   7.723
20560TIP3   OH261556   7.670   6.612   7.860
20560TIP3    H161557   7.581   6.651   7.871
20560TIP3    H261558   7.654   6.551   7.786
20561TIP3   OH261559   7.305   6.243   6.431
20561TIP3    H161560   7.349   6.171   6.382
20561TIP3    H261561   7.373   6.314   6.426
20562TIP3   OH261562   5.709   6.075   7.197
20562TIP3    H161563   5.615   6.069   7.220
20562TIP3    H261564   5.708   6.130   7.116
20563TIP3   OH261565   6.868   7.772   6.701
20563TIP3    H161566   6.917   7.756   6.618
20563TIP3    H261567   6.923   7.840   6.743
20564TIP3   OH261568   5.930   6.151   8.009
20564TIP3    H161569   5.880   6.144   8.092
20564TIP3    H261570   5.862   6.189   7.949
20565TIP3   OH261571   5.969   7.580   8.088
20565TIP3    H161572   5.879   7.548   8.068
20565TIP3    H261573   5.979   7.555   8.181
20566TIP3   OH261574   6.147   7.608   7.634
20566TIP3    H161575   6.100   7.684   7.594
20566TIP3    H261576   6.233   7.621   7.590
20567TIP3   OH261577   6.595   7.853   7.774
20567TIP3    H161578   6.641   7.855   7.860
20567TIP3    H261579   6.659   7.903   7.718
20568TIP3   OH261580   6.769   8.001   7.625
20568TIP3    H161581   6.841   7.954   7.580
20568TIP3    H261582   6.821   8.058   7.686
20569TIP3   OH261583   7.563   6.368   7.728
20569TIP3    H161584   7.472   6.354   7.698
20569TIP3    H261585   7.600   6.277   7.717
20570TIP3   OH261586   5.825   7.866   7.656
20570TIP3    H161587   5.738   7.903   7.629
20570TIP3    H261588   5.829   7.897   7.747
20571TIP3   OH261589   6.061   7.843   7.513
20571TIP3    H161590   5.975   7.858   7.558
20571TIP3    H261591   6.042   7.877   7.423
20572TIP3   OH261592   6.486   7.874   7.313
20572TIP3    H161593   6.420   7.896   7.244
20572TIP3    H261594   6.501   7.962   7.354
20573TIP3   OH261595   6.756   7.813   7.363
20573TIP3    H161596   6.662   7.832   7.343
20573TIP3    H261597   6.800   7.888   7.320
20574TIP3   OH261598   6.959   8.006   7.277
20574TIP3    H161599   6.945   8.090   7.230
20574TIP3    H261600   6.988   7.947   7.204
20575TIP3   OH261601   5.734   7.660   7.403
20575TIP3    H161602   5.763   7.636   7.493
20575TIP3    H261603   5.807   7.618   7.351
20576TIP3   OH261604   5.927   7.532   7.258
20576TIP3    H161605   5.945   7.448   7.306
20576TIP3    H261606   6.017   7.571   7.252
20577TIP3   OH261607   6.192   7.628   7.260
20577TIP3    H161608   6.227   7.539   7.245
20577TIP3    H261609   6.237   7.650   7.344
20578TIP3   OH261610   6.766   6.281   7.340
20578TIP3    H161611   6.727   6.215   7.399
20578TIP3    H261612   6.842   6.233   7.302
20579TIP3   OH261613   7.296   6.170   7.261
20579TIP3    H161614   7.334   6.213   7.181
20579TIP3    H261615   7.200   6.179   7.246
20580TIP3   OH261616   7.388   6.266   7.022
20580TIP3    H161617   7.458   6.208   6.982
20580TIP3    H261618   7.428   6.354   7.001
20581TIP3   OH261619   6.021   5.993   7.365
20581TIP3    H161620   5.929   5.959   7.365
20581TIP3    H261621   6.071   5.908   7.362
20582TIP3   OH261622   5.809   5.860   7.013
20582TIP3    H161623   5.835   5.919   6.940
20582TIP3    H261624   5.776   5.924   7.079
20583TIP3   OH261625   6.460   6.028   7.244
20583TIP3    H161626   6.523   6.076   7.188
20583TIP3    H261627   6.483   6.060   7.332
20584TIP3   OH261628   7.014   6.171   7.227
20584TIP3    H161629   7.011   6.131   7.139
20584TIP3    H261630   6.999   6.091   7.284
20585TIP3   OH261631   7.041   6.091   6.792
20585TIP3    H161632   6.951   6.128   6.795
20585TIP3    H261633   7.028   6.006   6.839
20586TIP3   OH261634   5.524   7.430   6.795
20586TIP3    H161635   5.438   7.399   6.760
20586TIP3    H261636   5.513   7.525   6.777
20587TIP3   OH261637   5.922   6.023   6.775
20587TIP3    H161638   5.970   5.957   6.720
20587TIP3    H261639   5.996   6.073   6.814
20588TIP3   OH261640   6.436   6.194   6.877
20588TIP3    H161641   6.495   6.145   6.936
20588TIP3    H261642   6.459   6.286   6.903
20589TIP3   OH261643   6.297   7.624   6.376
20589TIP3    H161644   6.385   7.646   6.339
20589TIP3    H261645   6.274   7.549   6.316
20590TIP3   OH261646   7.010   7.738   6.468
20590TIP3    H161647   7.002   7.641   6.452
20590TIP3    H261648   6.971   7.773   6.386
20591TIP3   OH261649   6.228   6.274   8.256
20591TIP3    H161650   6.195   6.203   8.314
20591TIP3    H261651   6.323   6.274   8.282
20592TIP3   OH261652   6.476   6.270   8.375
20592TIP3    H161653   6.562   6.245   8.336
20592TIP3    H261654   6.465   6.200   8.442
20593TIP3   OH261655   5.599   7.456   6.433
20593TIP3    H161656   5.599   7.490   6.523
20593TIP3    H261657   5.689   7.418   6.424
20594TIP3   OH261658   7.301   6.330   8.163
20594TIP3    H161659   7.322   6.299   8.254
20594TIP3    H261660   7.390   6.326   8.120
20595TIP3   OH261661   7.236   7.880   7.661
20595TIP3    H161662   7.159   7.856   7.604
20595TIP3    H261663   7.233   7.978   7.653
20596TIP3   OH261664   8.503   7.251   6.420
20596TIP3    H161665   8.481   7.346   6.407
20596TIP3    H261666   8.422   7.210   6.384
20597TIP3   OH261667   8.481   7.255   6.803
20597TIP3    H161668   8.526   7.226   6.884
20597TIP3    H261669   8.455   7.171   6.762
20598TIP3   OH261670   7.804   7.156   7.173
20598TIP3    H161671   7.842   7.106   7.246
20598TIP3    H261672   7.881   7.209   7.145
20599TIP3   OH261673   8.733   7.561   6.485
20599TIP3    H161674   8.757   7.477   6.525
20599TIP3    H261675   8.797   7.618   6.532
20600TIP3   OH261676   7.769   7.557   6.894
20600TIP3    H161677   7.766   7.459   6.894
20600TIP3    H261678   7.866   7.571   6.894
20601TIP3   OH261679   7.478   6.758   6.685
20601TIP3    H161680   7.440   6.847   6.691
20601TIP3    H261681   7.408   6.711   6.637
20602TIP3   OH261682   7.542   7.049   6.845
20602TIP3    H161683   7.593   6.975   6.885
20602TIP3    H261684   7.604   7.083   6.780
20603TIP3   OH261685   8.419   8.011   6.523
20603TIP3    H161686   8.458   7.952   6.456
20603TIP3    H261687   8.400   7.945   6.593
20604TIP3   OH261688   8.295   7.476   6.850
20604TIP3    H161689   8.331   7.398   6.804
20604TIP3    H261690   8.378   7.525   6.863
20605TIP3   OH261691   9.288   6.796   6.849
20605TIP3    H161692   9.359   6.849   6.890
20605TIP3    H261693   9.311   6.802   6.754
20606TIP3   OH261694   8.713   6.983   6.887
20606TIP3    H161695   8.762   6.900   6.905
20606TIP3    H261696   8.689   6.970   6.794
20607TIP3   OH261697   8.050   6.641   6.851
20607TIP3    H161698   8.036   6.714   6.788
20607TIP3    H261699   8.005   6.568   6.803
20608TIP3   OH261700   8.739   6.732   6.468
20608TIP3    H161701   8.809   6.726   6.537
20608TIP3    H261702   8.792   6.771   6.395
20609TIP3   OH261703   7.681   6.840   6.962
20609TIP3    H161704   7.766   6.825   7.007
20609TIP3    H261705   7.698   6.789   6.879
20610TIP3   OH261706   8.129   7.041   6.755
20610TIP3    H161707   8.224   7.018   6.761
20610TIP3    H261708   8.091   6.959   6.716
20611TIP3   OH261709   8.044   6.628   7.287
20611TIP3    H161710   7.988   6.667   7.218
20611TIP3    H261711   7.989   6.641   7.365
20612TIP3   OH261712   8.410   7.482   6.286
20612TIP3    H161713   8.356   7.443   6.216
20612TIP3    H261714   8.356   7.559   6.312
20613TIP3   OH261715   8.159   7.397   7.080
20613TIP3    H161716   8.092   7.462   7.111
20613TIP3    H261717   8.199   7.445   7.005
20614TIP3   OH261718   8.939   6.755   6.641
20614TIP3    H161719   8.980   6.677   6.682
20614TIP3    H261720   9.000   6.828   6.674
20615TIP3   OH261721   7.918   6.738   7.068
20615TIP3    H161722   7.980   6.812   7.089
20615TIP3    H261723   7.966   6.698   6.992
20616TIP3   OH261724   7.967   7.580   7.156
20616TIP3    H161725   7.953   7.670   7.120
20616TIP3    H261726   7.892   7.577   7.219
20617TIP3   OH261727   7.376   7.284   6.415
20617TIP3    H161728   7.344   7.310   6.326
20617TIP3    H261729   7.411   7.369   6.450
20618TIP3   OH261730   9.099   6.713   7.030
20618TIP3    H161731   9.011   6.717   6.985
20618TIP3    H261732   9.158   6.734   6.955
20619TIP3   OH261733   8.409   6.345   6.993
20619TIP3    H161734   8.398   6.250   7.011
20619TIP3    H261735   8.332   6.382   7.042
20620TIP3   OH261736   8.519   7.853   6.322
20620TIP3    H161737   8.570   7.770   6.307
20620TIP3    H261738   8.576   7.917   6.276
20621TIP3   OH261739   8.664   7.635   6.230
20621TIP3    H161740   8.615   7.559   6.197
20621TIP3    H261741   8.692   7.602   6.319
20622TIP3   OH261742   8.325   7.106   6.244
20622TIP3    H161743   8.232   7.117   6.214
20622TIP3    H261744   8.370   7.104   6.158
20623TIP3   OH261745   8.322   6.865   5.986
20623TIP3    H161746   8.385   6.928   6.024
20623TIP3    H261747   8.378   6.817   5.923
20624TIP3   OH261748   8.684   7.192   6.225
20624TIP3    H161749   8.628   7.215   6.303
20624TIP3    H261750   8.767   7.164   6.269
20625TIP3   OH261751   7.913   7.190   6.647
20625TIP3    H161752   7.868   7.132   6.581
20625TIP3    H261753   7.995   7.140   6.666
20626TIP3   OH261754   8.044   7.597   6.787
20626TIP3    H161755   8.027   7.553   6.702
20626TIP3    H261756   8.134   7.564   6.807
20627TIP3   OH261757   8.050   7.160   6.996
20627TIP3    H161758   8.084   7.137   6.906
20627TIP3    H261759   8.097   7.244   7.014
20628TIP3   OH261760   8.532   7.827   6.772
20628TIP3    H161761   8.618   7.862   6.802
20628TIP3    H261762   8.544   7.731   6.784
20629TIP3   OH261763   8.081   7.754   7.350
20629TIP3    H161764   8.172   7.782   7.330
20629TIP3    H261765   8.075   7.679   7.288
20630TIP3   OH261766   8.534   7.043   6.051
20630TIP3    H161767   8.586   7.107   6.106
20630TIP3    H261768   8.556   7.074   5.960
20631TIP3   OH261769   7.943   7.263   7.412
20631TIP3    H161770   7.944   7.352   7.452
20631TIP3    H261771   7.847   7.245   7.416
20632TIP3   OH261772   8.266   7.731   6.327
20632TIP3    H161773   8.347   7.783   6.341
20632TIP3    H261774   8.206   7.796   6.288
20633TIP3   OH261775   9.041   6.289   6.097
20633TIP3    H161776   8.961   6.307   6.150
20633TIP3    H261777   9.052   6.375   6.051
20634TIP3   OH261778   7.762   7.031   6.474
20634TIP3    H161779   7.727   7.078   6.396
20634TIP3    H261780   7.752   6.940   6.447
20635TIP3   OH261781   8.839   7.656   5.642
20635TIP3    H161782   8.848   7.754   5.634
20635TIP3    H261783   8.932   7.628   5.631
20636TIP3   OH261784   7.561   7.412   7.357
20636TIP3    H161785   7.505   7.390   7.280
20636TIP3    H261786   7.598   7.325   7.382
20637TIP3   OH261787   7.420   7.602   6.996
20637TIP3    H161788   7.514   7.597   6.972
20637TIP3    H261789   7.417   7.688   7.042
20638TIP3   OH261790   8.149   7.975   6.128
20638TIP3    H161791   8.101   7.957   6.044
20638TIP3    H261792   8.118   8.064   6.151
20639TIP3   OH261793   7.586   7.824   6.510
20639TIP3    H161794   7.638   7.815   6.593
20639TIP3    H261795   7.528   7.746   6.518
20640TIP3   OH261796   8.352   7.875   5.767
20640TIP3    H161797   8.411   7.804   5.733
20640TIP3    H261798   8.383   7.884   5.859
20641TIP3   OH261799   8.399   7.922   6.036
20641TIP3    H161800   8.311   7.932   6.079
20641TIP3    H261801   8.449   7.879   6.107
20642TIP3   OH261802   7.763   7.596   7.339
20642TIP3    H161803   7.819   7.569   7.415
20642TIP3    H261804   7.689   7.533   7.345
20643TIP3   OH261805   8.168   6.419   7.127
20643TIP3    H161806   8.078   6.392   7.101
20643TIP3    H261807   8.149   6.507   7.164
20644TIP3   OH261808   8.696   6.535   7.314
20644TIP3    H161809   8.764   6.506   7.378
20644TIP3    H261810   8.612   6.517   7.361
20645TIP3   OH261811   8.599   7.095   5.791
20645TIP3    H161812   8.570   7.068   5.702
20645TIP3    H261813   8.678   7.148   5.770
20646TIP3   OH261814   8.315   6.469   6.094
20646TIP3    H161815   8.284   6.471   6.186
20646TIP3    H261816   8.279   6.382   6.066
20647TIP3   OH261817   8.092   6.935   7.143
20647TIP3    H161818   8.091   6.977   7.231
20647TIP3    H261819   8.081   7.013   7.085
20648TIP3   OH261820   7.988   6.820   6.658
20648TIP3    H161821   7.893   6.800   6.671
20648TIP3    H261822   8.002   6.783   6.568
20649TIP3   OH261823   8.470   6.912   6.381
20649TIP3    H161824   8.415   6.984   6.342
20649TIP3    H261825   8.523   6.884   6.305
20650TIP3   OH261826   8.625   6.938   6.627
20650TIP3    H161827   8.572   6.969   6.551
20650TIP3    H261828   8.661   6.856   6.586
20651TIP3   OH261829   7.962   6.437   6.062
20651TIP3    H161830   7.964   6.439   6.160
20651TIP3    H261831   7.890   6.499   6.044
20652TIP3   OH261832   7.512   6.488   6.939
20652TIP3    H161833   7.589   6.523   6.988
20652TIP3    H261834   7.550   6.463   6.853
20653TIP3   OH261835   7.486   6.467   6.453
20653TIP3    H161836   7.533   6.505   6.375
20653TIP3    H261837   7.429   6.543   6.475
20654TIP3   OH261838   8.619   7.178   7.052
20654TIP3    H161839   8.667   7.119   6.990
20654TIP3    H261840   8.600   7.115   7.125
20655TIP3   OH261841   8.310   6.645   6.720
20655TIP3    H161842   8.230   6.643   6.776
20655TIP3    H261843   8.381   6.646   6.786
20656TIP3   OH261844   7.744   6.698   6.735
20656TIP3    H161845   7.651   6.703   6.702
20656TIP3    H261846   7.775   6.611   6.703
20657TIP3   OH261847   8.018   6.698   6.414
20657TIP3    H161848   8.113   6.714   6.397
20657TIP3    H261849   7.976   6.726   6.330
20658TIP3   OH261850   8.807   6.724   6.929
20658TIP3    H161851   8.768   6.732   7.018
20658TIP3    H261852   8.747   6.661   6.885
20659TIP3   OH261853   7.856   6.724   6.186
20659TIP3    H161854   7.788   6.684   6.129
20659TIP3    H261855   7.893   6.791   6.128
20660TIP3   OH261856   7.921   7.498   7.543
20660TIP3    H161857   7.974   7.578   7.558
20660TIP3    H261858   7.855   7.504   7.616
20661TIP3   OH261859   8.397   6.966   6.813
20661TIP3    H161860   8.470   6.936   6.757
20661TIP3    H261861   8.420   6.927   6.899
20662TIP3   OH261862   7.918   6.463   6.689
20662TIP3    H161863   7.894   6.379   6.733
20662TIP3    H261864   7.977   6.434   6.618
20663TIP3   OH261865   8.372   6.859   7.117
20663TIP3    H161866   8.287   6.906   7.117
20663TIP3    H261867   8.434   6.922   7.159
20664TIP3   OH261868   8.564   6.578   6.052
20664TIP3    H161869   8.468   6.563   6.066
20664TIP3    H261870   8.578   6.670   6.085
20665TIP3   OH261871   8.639   6.816   6.164
20665TIP3    H161872   8.734   6.825   6.183
20665TIP3    H261873   8.619   6.899   6.115
20666TIP3   OH261874   7.795   7.274   6.880
20666TIP3    H161875   7.833   7.256   6.792
20666TIP3    H261876   7.850   7.215   6.935
20667TIP3   OH261877   8.253   7.403   6.022
20667TIP3    H161878   8.201   7.486   6.036
20667TIP3    H261879   8.190   7.334   6.054
20668TIP3   OH261880   7.673   7.198   7.490
20668TIP3    H161881   7.706   7.185   7.581
20668TIP3    H261882   7.633   7.112   7.472
20669TIP3   OH261883   8.411   7.264   7.496
20669TIP3    H161884   8.365   7.252   7.412
20669TIP3    H261885   8.464   7.343   7.477
20670TIP3   OH261886   9.081   6.907   6.001
20670TIP3    H161887   9.017   6.862   5.940
20670TIP3    H261888   9.076   6.997   5.962
20671TIP3   OH261889   8.772   7.724   5.907
20671TIP3    H161890   8.755   7.657   5.975
20671TIP3    H261891   8.789   7.673   5.827
20672TIP3   OH261892   8.750   7.341   6.800
20672TIP3    H161893   8.665   7.310   6.764
20672TIP3    H261894   8.812   7.313   6.731
20673TIP3   OH261895   7.894   7.587   6.504
20673TIP3    H161896   7.905   7.666   6.449
20673TIP3    H261897   7.799   7.575   6.504
20674TIP3   OH261898   7.462   6.890   6.200
20674TIP3    H161899   7.513   6.972   6.219
20674TIP3    H261900   7.389   6.899   6.265
20675TIP3   OH261901   8.064   7.369   6.485
20675TIP3    H161902   8.009   7.449   6.479
20675TIP3    H261903   8.006   7.308   6.533
20676TIP3   OH261904   8.163   7.926   6.975
20676TIP3    H161905   8.184   8.010   6.932
20676TIP3    H261906   8.238   7.922   7.035
20677TIP3   OH261907   7.821   7.826   6.354
20677TIP3    H161908   7.736   7.835   6.400
20677TIP3    H261909   7.855   7.918   6.359
20678TIP3   OH261910   8.548   7.575   6.899
20678TIP3    H161911   8.567   7.568   6.994
20678TIP3    H261912   8.618   7.518   6.864
20679TIP3   OH261913   8.531   7.455   5.811
20679TIP3    H161914   8.585   7.431   5.890
20679TIP3    H261915   8.443   7.429   5.843
20680TIP3   OH261916   8.872   7.932   5.633
20680TIP3    H161917   8.917   8.004   5.586
20680TIP3    H261918   8.791   7.980   5.662
20681TIP3   OH261919   8.693   7.388   6.025
20681TIP3    H161920   8.681   7.326   6.099
20681TIP3    H261921   8.791   7.388   6.018
20682TIP3   OH261922   7.606   7.796   7.140
20682TIP3    H161923   7.663   7.718   7.149
20682TIP3    H261924   7.658   7.860   7.191
20683TIP3   OH261925   7.900   7.434   5.813
20683TIP3    H161926   7.916   7.342   5.783
20683TIP3    H261927   7.885   7.419   5.908
20684TIP3   OH261928   7.832   7.443   6.089
20684TIP3    H161929   7.908   7.396   6.129
20684TIP3    H261930   7.856   7.538   6.100
20685TIP3   OH261931   7.579   7.132   6.280
20685TIP3    H161932   7.521   7.180   6.342
20685TIP3    H261933   7.602   7.202   6.217
20686TIP3   OH261934   8.732   6.778   7.189
20686TIP3    H161935   8.799   6.812   7.250
20686TIP3    H261936   8.710   6.692   7.232
20687TIP3   OH261937   8.607   6.525   6.339
20687TIP3    H161938   8.594   6.553   6.248
20687TIP3    H261939   8.647   6.605   6.380
20688TIP3   OH261940   8.108   7.637   6.033
20688TIP3    H161941   8.023   7.667   6.069
20688TIP3    H261942   8.129   7.710   5.973
20689TIP3   OH261943   8.300   6.702   6.446
20689TIP3    H161944   8.363   6.774   6.425
20689TIP3    H261945   8.308   6.697   6.544
20690TIP3   OH261946   8.567   7.012   7.262
20690TIP3    H161947   8.570   7.042   7.354
20690TIP3    H261948   8.627   6.935   7.267
20691TIP3   OH261949   8.444   6.433   6.549
20691TIP3    H161950   8.439   6.509   6.610
20691TIP3    H261951   8.505   6.469   6.480
20692TIP3   OH261952   7.854   7.719   6.100
20692TIP3    H161953   7.823   7.788   6.037
20692TIP3    H261954   7.838   7.761   6.187
20693TIP3   OH261955   7.954   6.429   6.340
20693TIP3    H161956   7.955   6.522   6.370
20693TIP3    H261957   8.050   6.408   6.348
20694TIP3   OH261958   8.851   7.116   6.612
20694TIP3    H161959   8.775   7.058   6.630
20694TIP3    H261960   8.920   7.075   6.668
20695TIP3   OH261961   7.572   7.348   6.089
20695TIP3    H161962   7.642   7.416   6.102
20695TIP3    H261963   7.620   7.292   6.025
20696TIP3   OH261964   7.514   6.620   6.230
20696TIP3    H161965   7.521   6.717   6.222
20696TIP3    H261966   7.435   6.602   6.179
20697TIP3   OH261967   7.899   6.343   7.104
20697TIP3    H161968   7.874   6.311   7.015
20697TIP3    H261969   7.893   6.262   7.158
20698TIP3   OH261970   7.445   7.559   6.487
20698TIP3    H161971   7.366   7.594   6.528
20698TIP3    H261972   7.435   7.596   6.397
20699TIP3   OH261973   8.062   7.640   5.725
20699TIP3    H161974   8.005   7.570   5.767
20699TIP3    H261975   8.138   7.585   5.701
20700TIP3   OH261976   8.501   7.683   5.636
20700TIP3    H161977   8.542   7.619   5.697
20700TIP3    H261978   8.562   7.683   5.560
20701TIP3   OH261979   7.741   7.494   7.744
20701TIP3    H161980   7.753   7.397   7.739
20701TIP3    H261981   7.649   7.505   7.711
20702TIP3   OH261982   7.715   7.156   5.944
20702TIP3    H161983   7.782   7.132   6.011
20702TIP3    H261984   7.778   7.170   5.869
20703TIP3   OH261985   8.215   7.355   5.750
20703TIP3    H161986   8.214   7.365   5.847
20703TIP3    H261987   8.206   7.258   5.743
20704TIP3   OH261988   7.853   7.242   7.733
20704TIP3    H161989   7.915   7.172   7.707
20704TIP3    H261990   7.835   7.223   7.825
20705TIP3   OH261991   8.164   7.102   7.364
20705TIP3    H161992   8.094   7.168   7.385
20705TIP3    H261993   8.225   7.155   7.308
20706TIP3   OH261994   8.841   7.188   5.667
20706TIP3    H161995   8.815   7.140   5.586
20706TIP3    H261996   8.808   7.278   5.644
20707TIP3   OH261997   8.277   6.897   7.512
20707TIP3    H161998   8.292   6.821   7.452
20707TIP3    H261999   8.250   6.968   7.449
20708TIP3   OH262000   8.307   6.693   7.327
20708TIP3    H162001   8.337   6.738   7.245
20708TIP3    H262002   8.213   6.675   7.307
20709TIP3   OH262003   8.343   7.243   7.212
20709TIP3    H162004   8.420   7.237   7.153
20709TIP3    H262005   8.287   7.307   7.163
20710TIP3   OH262006   8.156   7.018   7.723
20710TIP3    H162007   8.101   6.941   7.748
20710TIP3    H262008   8.193   6.986   7.637
20711TIP3   OH262009   8.441   6.465   7.399
20711TIP3    H162010   8.394   6.547   7.373
20711TIP3    H262011   8.373   6.397   7.383
20712TIP3   OH262012   8.539   6.940   7.569
20712TIP3    H162013   8.562   6.901   7.655
20712TIP3    H262014   8.448   6.910   7.556
20713TIP3   OH262015   8.028   6.791   7.800
20713TIP3    H162016   8.023   6.705   7.755
20713TIP3    H262017   8.048   6.762   7.891
20714TIP3   OH262018   8.526   6.468   7.659
20714TIP3    H162019   8.592   6.397   7.650
20714TIP3    H262020   8.491   6.470   7.567
20715TIP3   OH262021   8.593   6.688   7.805
20715TIP3    H162022   8.581   6.608   7.750
20715TIP3    H262023   8.503   6.728   7.800
20716TIP3   OH262024   7.822   7.920   5.911
20716TIP3    H162025   7.918   7.914   5.894
20716TIP3    H262026   7.793   7.967   5.831
20717TIP3   OH262027   7.306   7.298   6.135
20717TIP3    H162028   7.399   7.324   6.117
20717TIP3    H262029   7.303   7.211   6.090
20718TIP3   OH262030   7.213   7.911   6.543
20718TIP3    H162031   7.148   7.847   6.507
20718TIP3    H262032   7.260   7.856   6.609
20719TIP3   OH262033   7.350   7.768   6.730
20719TIP3    H162034   7.347   7.690   6.786
20719TIP3    H262035   7.407   7.826   6.783
20720TIP3   OH262036   8.973   7.376   6.001
20720TIP3    H162037   9.045   7.439   5.979
20720TIP3    H262038   9.012   7.334   6.082
20721TIP3   OH262039   9.094   7.241   6.202
20721TIP3    H162040   9.033   7.199   6.267
20721TIP3    H262041   9.165   7.279   6.259
20722TIP3   OH262042   9.039   7.148   5.855
20722TIP3    H162043   8.966   7.154   5.789
20722TIP3    H262044   9.015   7.223   5.912
20723TIP3   OH262045   8.913   6.819   5.806
20723TIP3    H162046   8.865   6.862   5.735
20723TIP3    H262047   8.885   6.726   5.795
20724TIP3   OH262048   8.915   7.095   6.351
20724TIP3    H162049   8.923   6.998   6.352
20724TIP3    H262050   8.899   7.114   6.446
20725TIP3   OH262051   7.541   7.171   7.102
20725TIP3    H162052   7.540   7.143   7.008
20725TIP3    H262053   7.638   7.174   7.118
20726TIP3   OH262054   8.855   6.552   5.791
20726TIP3    H162055   8.930   6.527   5.849
20726TIP3    H262056   8.781   6.498   5.824
20727TIP3   OH262057   8.909   6.812   6.250
20727TIP3    H162058   8.949   6.723   6.266
20727TIP3    H262059   8.970   6.847   6.184
20728TIP3   OH262060   9.045   6.993   6.756
20728TIP3    H162061   9.134   7.005   6.714
20728TIP3    H262062   9.068   7.003   6.848
20729TIP3   OH262063   7.768   6.880   7.822
20729TIP3    H162064   7.848   6.856   7.771
20729TIP3    H262065   7.730   6.791   7.833
20730TIP3   OH262066   9.018   6.562   6.281
20730TIP3    H162067   9.071   6.546   6.364
20730TIP3    H262068   8.957   6.486   6.284
20731TIP3   OH262069   7.715   6.550   7.121
20731TIP3    H162070   7.779   6.476   7.121
20731TIP3    H262071   7.776   6.626   7.107
20732TIP3   OH262072   7.503   6.833   7.180
20732TIP3    H162073   7.541   6.810   7.093
20732TIP3    H262074   7.573   6.894   7.210
20733TIP3   OH262075   9.101   6.502   5.916
20733TIP3    H162076   9.145   6.427   5.871
20733TIP3    H262077   9.169   6.572   5.913
20734TIP3   OH262078   7.504   6.329   6.683
20734TIP3    H162079   7.409   6.329   6.701
20734TIP3    H262080   7.509   6.385   6.603
20735TIP3   OH262081   8.650   8.044   6.177
20735TIP3    H162082   8.695   8.012   6.096
20735TIP3    H262083   8.728   8.047   6.237
20736TIP3   OH262084   7.722   6.392   7.492
20736TIP3    H162085   7.679   6.400   7.578
20736TIP3    H262086   7.669   6.451   7.437
20737TIP3   OH262087   7.743   7.849   7.601
20737TIP3    H162088   7.659   7.817   7.563
20737TIP3    H262089   7.744   7.806   7.688
20738TIP3   OH262090   7.929   7.842   7.091
20738TIP3    H162091   7.886   7.924   7.059
20738TIP3    H262092   8.020   7.863   7.064
20739TIP3   OH262093   3.645   1.094   1.585
20739TIP3    H162094   3.592   1.066   1.512
20739TIP3    H262095   3.704   1.012   1.595
20740TIP3   OH262096   7.618   8.133   7.135
20740TIP3    H162097   7.525   8.156   7.117
20740TIP3    H262098   7.621   8.135   7.231
20741TIP3   OH262099   7.839   8.068   6.980
20741TIP3    H162100   7.769   8.109   7.036
20741TIP3    H262101   7.842   8.130   6.904
20742TIP3   OH262102   7.529   7.912   6.889
20742TIP3    H162103   7.561   7.895   6.980
20742TIP3    H262104   7.606   7.876   6.838
20743TIP3   OH262105   7.724   7.789   6.743
20743TIP3    H162106   7.743   7.704   6.788
20743TIP3    H262107   7.814   7.828   6.738
20744TIP3   OH262108   7.989   7.881   6.742
20744TIP3    H162109   8.023   7.790   6.732
20744TIP3    H262110   8.021   7.901   6.832
20745TIP3   OH262111   8.563   6.541   6.832
20745TIP3    H162112   8.525   6.468   6.884
20745TIP3    H262113   8.639   6.498   6.787
20746TIP3   OH262114   9.058   6.535   6.724
20746TIP3    H162115   9.123   6.464   6.719
20746TIP3    H262116   8.973   6.484   6.735
20747TIP3   OH262117   9.192   6.513   6.482
20747TIP3    H162118   9.273   6.467   6.448
20747TIP3    H262119   9.219   6.604   6.482
20748TIP3   OH262120   7.816   6.250   6.856
20748TIP3    H162121   7.724   6.216   6.851
20748TIP3    H262122   7.867   6.165   6.851
20749TIP3   OH262123   7.597   6.117   6.496
20749TIP3    H162124   7.635   6.172   6.426
20749TIP3    H262125   7.574   6.183   6.564
20750TIP3   OH262126   8.255   6.286   6.733
20750TIP3    H162127   8.314   6.332   6.670
20750TIP3    H262128   8.288   6.320   6.817
20751TIP3   OH262129   8.794   6.423   6.714
20751TIP3    H162130   8.798   6.386   6.625
20751TIP3    H262131   8.786   6.343   6.770
20752TIP3   OH262132   8.837   6.348   6.277
20752TIP3    H162133   8.750   6.391   6.287
20752TIP3    H262134   8.820   6.264   6.324
20753TIP3   OH262135   7.317   7.687   6.284
20753TIP3    H162136   7.234   7.656   6.245
20753TIP3    H262137   7.309   7.782   6.265
20754TIP3   OH262138   7.720   6.277   6.266
20754TIP3    H162139   7.770   6.217   6.208
20754TIP3    H262140   7.791   6.334   6.301
20755TIP3   OH262141   8.230   6.452   6.362
20755TIP3    H162142   8.294   6.405   6.419
20755TIP3    H262143   8.253   6.544   6.386
20756TIP3   OH262144   8.090   7.880   5.860
20756TIP3    H162145   8.180   7.901   5.825
20756TIP3    H262146   8.069   7.802   5.803
20757TIP3   OH262147   8.797   7.990   5.948
20757TIP3    H162148   8.794   7.892   5.936
20757TIP3    H262149   8.758   8.020   5.864
20758TIP3   OH262150   8.028   6.515   7.750
20758TIP3    H162151   8.001   6.445   7.812
20758TIP3    H262152   8.123   6.525   7.773
20759TIP3   OH262153   8.280   6.526   7.862
20759TIP3    H162154   8.361   6.502   7.813
20759TIP3    H262155   8.269   6.451   7.923
20760TIP3   OH262156   7.397   7.716   5.920
20760TIP3    H162157   7.399   7.743   6.013
20760TIP3    H262158   7.486   7.675   5.909
20761TIP3   OH262159   9.280   7.019   6.165
20761TIP3    H162160   9.238   7.105   6.183
20761TIP3    H262161   9.204   6.969   6.132
20762TIP3   OH262162   9.340   7.300   6.301
20762TIP3    H162163   9.392   7.240   6.356
20762TIP3    H262164   9.406   7.344   6.247
20763TIP3   OH262165   9.873   6.870   6.310
20763TIP3    H162166   9.865   6.954   6.261
20763TIP3    H262167   9.795   6.822   6.278
20764TIP3   OH262168   9.456   7.073   6.441
20764TIP3    H162169   9.550   7.058   6.465
20764TIP3    H262170   9.458   7.031   6.351
20765TIP3   OH262171   9.180   7.542   5.899
20765TIP3    H162172   9.133   7.573   5.820
20765TIP3    H262173   9.209   7.626   5.940
20766TIP3   OH262174  10.120   7.346   5.675
20766TIP3    H162175  10.042   7.406   5.678
20766TIP3    H262176  10.182   7.402   5.626
20767TIP3   OH262177  10.087   7.149   5.449
20767TIP3    H162178  10.129   7.184   5.530
20767TIP3    H262179  10.156   7.091   5.411
20768TIP3   OH262180   9.576   7.267   5.902
20768TIP3    H162181   9.504   7.319   5.863
20768TIP3    H262182   9.529   7.204   5.957
20769TIP3   OH262183  10.127   6.729   5.582
20769TIP3    H162184  10.094   6.726   5.674
20769TIP3    H262185  10.080   6.650   5.547
20770TIP3   OH262186   9.777   7.062   6.120
20770TIP3    H162187   9.686   7.045   6.152
20770TIP3    H262188   9.774   7.017   6.033
20771TIP3   OH262189   9.770   6.701   5.547
20771TIP3    H162190   9.761   6.695   5.645
20771TIP3    H262191   9.688   6.751   5.526
20772TIP3   OH262192   9.301   6.750   6.406
20772TIP3    H162193   9.373   6.770   6.469
20772TIP3    H262194   9.347   6.710   6.331
20773TIP3   OH262195   9.285   6.725   5.936
20773TIP3    H162196   9.333   6.767   5.861
20773TIP3    H262197   9.225   6.799   5.961
20774TIP3   OH262198   9.540   6.948   6.205
20774TIP3    H162199   9.446   6.954   6.176
20774TIP3    H262200   9.567   6.858   6.181
20775TIP3   OH262201   9.802   6.933   5.884
20775TIP3    H162202   9.889   6.965   5.859
20775TIP3    H262203   9.744   6.967   5.811
20776TIP3   OH262204   9.643   6.987   5.675
20776TIP3    H162205   9.570   6.945   5.628
20776TIP3    H262206   9.696   7.021   5.600
20777TIP3   OH262207   9.695   6.711   6.168
20777TIP3    H162208   9.672   6.633   6.223
20777TIP3    H262209   9.768   6.677   6.114
20778TIP3   OH262210   9.899   7.519   5.670
20778TIP3    H162211   9.832   7.448   5.669
20778TIP3    H262212   9.890   7.554   5.760
20779TIP3   OH262213  10.365   6.860   5.542
20779TIP3    H162214  10.274   6.827   5.561
20779TIP3    H262215  10.356   6.955   5.558
20780TIP3   OH262216   9.258   7.147   5.689
20780TIP3    H162217   9.307   7.229   5.712
20780TIP3    H262218   9.183   7.153   5.752
20781TIP3   OH262219   9.706   7.688   5.299
20781TIP3    H162220   9.707   7.596   5.267
20781TIP3    H262221   9.677   7.677   5.391
20782TIP3   OH262222   9.645   7.702   5.569
20782TIP3    H162223   9.708   7.653   5.624
20782TIP3    H262224   9.662   7.794   5.593
20783TIP3   OH262225   9.371   7.393   5.771
20783TIP3    H162226   9.308   7.438   5.832
20783TIP3    H262227   9.387   7.466   5.708
20784TIP3   OH262228  10.380   6.774   5.815
20784TIP3    H162229  10.397   6.794   5.721
20784TIP3    H262230  10.441   6.834   5.859
20785TIP3   OH262231  10.085   6.970   5.931
20785TIP3    H162232  10.146   7.035   5.895
20785TIP3    H262233  10.037   7.023   5.998
20786TIP3   OH262234  10.239   6.664   6.037
20786TIP3    H162235  10.269   6.733   6.099
20786TIP3    H262236  10.291   6.691   5.960
20787TIP3   OH262237   9.751   6.673   5.820
20787TIP3    H162238   9.747   6.764   5.857
20787TIP3    H262239   9.847   6.656   5.834
20788TIP3   OH262240   9.366   7.604   5.579
20788TIP3    H162241   9.425   7.680   5.586
20788TIP3    H262242   9.415   7.550   5.513
20789TIP3   OH262243   9.316   6.878   5.705
20789TIP3    H162244   9.314   6.976   5.706
20789TIP3    H262245   9.224   6.856   5.686
20790TIP3   OH262246   9.701   6.603   6.599
20790TIP3    H162247   9.682   6.571   6.508
20790TIP3    H262248   9.707   6.520   6.648
20791TIP3   OH262249   9.240   7.801   5.973
20791TIP3    H162250   9.178   7.842   6.035
20791TIP3    H262251   9.231   7.860   5.896
20792TIP3   OH262252   9.860   7.898   5.215
20792TIP3    H162253   9.803   7.828   5.251
20792TIP3    H262254   9.934   7.847   5.180
20793TIP3   OH262255   9.506   7.417   5.431
20793TIP3    H162256   9.555   7.379   5.505
20793TIP3    H262257   9.575   7.418   5.362
20794TIP3   OH262258  10.012   7.612   5.241
20794TIP3    H162259   9.976   7.625   5.330
20794TIP3    H262260  10.010   7.514   5.235
20795TIP3   OH262261   9.710   7.319   5.655
20795TIP3    H162262   9.683   7.293   5.746
20795TIP3    H262263   9.738   7.234   5.617
20796TIP3   OH262264   9.811   7.105   5.494
20796TIP3    H162265   9.780   7.109   5.401
20796TIP3    H262266   9.906   7.123   5.482
20797TIP3   OH262267   3.970   2.529  -0.254
20797TIP3    H162268   4.058   2.505  -0.283
20797TIP3    H262269   3.933   2.565  -0.337
20798TIP3   OH262270   9.097   7.558   5.609
20798TIP3    H162271   9.193   7.579   5.604
20798TIP3    H262272   9.095   7.467   5.573
20799TIP3   OH262273   8.990   8.152   6.043
20799TIP3    H162274   8.921   8.094   6.004
20799TIP3    H262275   8.985   8.121   6.136
20800TIP3   OH262276   9.494   6.782   6.600
20800TIP3    H162277   9.557   6.707   6.608
20800TIP3    H262278   9.556   6.849   6.563
20801TIP3   OH262279   9.293   7.042   6.663
20801TIP3    H162280   9.324   7.031   6.572
20801TIP3    H262281   9.317   7.135   6.676
20802TIP3   OH262282   9.301   6.579   6.163
20802TIP3    H162283   9.208   6.582   6.193
20802TIP3    H262284   9.300   6.641   6.087
20803TIP3   OH262285   9.373   6.543   7.068
20803TIP3    H162286   9.473   6.520   7.057
20803TIP3    H262287   9.356   6.585   6.973
20804TIP3   OH262288   9.617   6.506   6.342
20804TIP3    H162289   9.525   6.471   6.343
20804TIP3    H262290   9.666   6.420   6.339
20805TIP3   OH262291   9.392   6.375   5.982
20805TIP3    H162292   9.425   6.436   5.914
20805TIP3    H262293   9.366   6.437   6.053
20806TIP3   OH262294  10.049   6.528   6.213
20806TIP3    H162295  10.111   6.581   6.160
20806TIP3    H262296  10.044   6.577   6.296
20807TIP3   OH262297   9.124   7.934   5.757
20807TIP3    H162298   9.034   7.908   5.729
20807TIP3    H262299   9.116   8.031   5.754
20808TIP3   OH262300   9.513   6.537   5.747
20808TIP3    H162301   9.565   6.474   5.695
20808TIP3    H262302   9.585   6.591   5.788
20809TIP3   OH262303  10.032   6.708   5.844
20809TIP3    H162304  10.088   6.663   5.910
20809TIP3    H262305  10.041   6.800   5.875
20810TIP3   OH262306   9.193   7.976   5.407
20810TIP3    H162307   9.185   7.995   5.502
20810TIP3    H262308   9.281   7.933   5.401
20811TIP3   OH262309   1.765   7.567   8.526
20811TIP3    H162310   1.798   7.647   8.573
20811TIP3    H262311   1.774   7.595   8.433
20812TIP3   OH262312   1.265   7.760   8.541
20812TIP3    H162313   1.273   7.667   8.569
20812TIP3    H262314   1.204   7.751   8.466
20813TIP3   OH262315   1.198   7.514   8.164
20813TIP3    H162316   1.275   7.498   8.223
20813TIP3    H262317   1.243   7.546   8.085
20814TIP3   OH262318   1.862   7.771   8.675
20814TIP3    H162319   1.811   7.850   8.651
20814TIP3    H262320   1.894   7.798   8.764
20815TIP3   OH262321   1.417   7.519   8.330
20815TIP3    H162322   1.396   7.477   8.414
20815TIP3    H262323   1.468   7.598   8.358
20816TIP3   OH262324   1.555   7.514   8.707
20816TIP3    H162325   1.466   7.509   8.665
20816TIP3    H262326   1.613   7.523   8.629
20817TIP3   OH262327  10.574   6.515   5.997
20817TIP3    H162328  10.492   6.464   5.983
20817TIP3    H262329  10.573   6.528   6.092
20818TIP3   OH262330   1.669   8.103   8.491
20818TIP3    H162331   1.606   8.169   8.523
20818TIP3    H262332   1.704   8.146   8.410
20819TIP3   OH262333   1.153   7.987   7.906
20819TIP3    H162334   1.086   8.005   7.975
20819TIP3    H262335   1.224   7.945   7.957
20820TIP3   OH262336   1.052   7.805   7.720
20820TIP3    H162337   1.052   7.868   7.795
20820TIP3    H262338   0.993   7.852   7.660
20821TIP3   OH262339   1.290   8.453   7.328
20821TIP3    H162340   1.286   8.551   7.334
20821TIP3    H262341   1.380   8.443   7.295
20822TIP3   OH262342   1.157   7.305   8.995
20822TIP3    H162343   1.215   7.252   9.053
20822TIP3    H262344   1.068   7.291   9.031
20823TIP3   OH262345   1.041   7.920   7.452
20823TIP3    H162346   1.035   7.855   7.380
20823TIP3    H262347   1.135   7.922   7.473
20824TIP3   OH262348   1.103   7.730   8.308
20824TIP3    H162349   1.015   7.749   8.270
20824TIP3    H262350   1.124   7.646   8.261
20825TIP3   OH262351   1.286   7.486   8.596
20825TIP3    H162352   1.248   7.502   8.685
20825TIP3    H262353   1.217   7.426   8.561
20826TIP3   OH262354   0.976   7.382   7.732
20826TIP3    H162355   0.900   7.422   7.775
20826TIP3    H262356   1.047   7.445   7.761
20827TIP3   OH262357   1.123   7.573   7.841
20827TIP3    H162358   1.210   7.602   7.874
20827TIP3    H262359   1.086   7.657   7.806
20828TIP3   OH262360   1.537   7.677   7.697
20828TIP3    H162361   1.485   7.613   7.644
20828TIP3    H262362   1.501   7.759   7.660
20829TIP3   OH262363   1.242   8.511   7.605
20829TIP3    H162364   1.201   8.458   7.676
20829TIP3    H262365   1.239   8.453   7.528
20830TIP3   OH262366   1.318   8.729   7.325
20830TIP3    H162367   1.360   8.776   7.250
20830TIP3    H262368   1.235   8.777   7.328
20831TIP3   OH262369   1.139   8.166   7.688
20831TIP3    H162370   1.118   8.107   7.763
20831TIP3    H262371   1.233   8.179   7.704
20832TIP3   OH262372   1.189   7.534   8.840
20832TIP3    H162373   1.181   7.596   8.916
20832TIP3    H262374   1.156   7.452   8.882
20833TIP3   OH262375   1.060   7.307   8.017
20833TIP3    H162376   1.050   7.355   7.933
20833TIP3    H262377   1.090   7.378   8.076
20834TIP3   OH262378   1.668   7.711   8.899
20834TIP3    H162379   1.588   7.695   8.950
20834TIP3    H262380   1.664   7.639   8.835
20835TIP3   OH262381   1.320   7.909   8.301
20835TIP3    H162382   1.238   7.855   8.306
20835TIP3    H262383   1.382   7.855   8.354
20836TIP3   OH262384   1.346   8.009   7.341
20836TIP3    H162385   1.316   7.936   7.283
20836TIP3    H262386   1.278   8.076   7.315
20837TIP3   OH262387   1.439   8.151   7.677
20837TIP3    H162388   1.488   8.234   7.693
20837TIP3    H262389   1.461   8.102   7.760
20838TIP3   OH262390   1.550   8.031   7.894
20838TIP3    H162391   1.485   7.983   7.951
20838TIP3    H262392   1.610   8.070   7.960
20839TIP3   OH262393   1.368   7.610   7.486
20839TIP3    H162394   1.305   7.618   7.413
20839TIP3    H262395   1.357   7.516   7.511
20840TIP3   OH262396   1.378   7.879   8.039
20840TIP3    H162397   1.379   7.781   8.032
20840TIP3    H262398   1.363   7.892   8.136
20841TIP3   OH262399   1.376   7.609   7.950
20841TIP3    H162400   1.409   7.517   7.970
20841TIP3    H262401   1.429   7.625   7.870
20842TIP3   OH262402   1.535   7.772   8.426
20842TIP3    H162403   1.624   7.805   8.405
20842TIP3    H262404   1.512   7.821   8.506
20843TIP3   OH262405   2.079   7.511   9.240
20843TIP3    H162406   2.101   7.439   9.179
20843TIP3    H262407   2.029   7.569   9.180
20844TIP3   OH262408   1.475   7.360   7.985
20844TIP3    H162409   1.508   7.326   8.070
20844TIP3    H262410   1.421   7.284   7.953
20845TIP3   OH262411   1.933   7.636   9.037
20845TIP3    H162412   1.850   7.653   9.086
20845TIP3    H262413   1.902   7.570   8.972
20846TIP3   OH262414   1.811   7.417   8.889
20846TIP3    H162415   1.720   7.395   8.863
20846TIP3    H262416   1.849   7.326   8.890
20847TIP3   OH262417   1.070   7.308   8.542
20847TIP3    H162418   1.042   7.236   8.600
20847TIP3    H262419   1.134   7.264   8.483
20848TIP3   OH262420   1.550   7.216   8.439
20848TIP3    H162421   1.587   7.264   8.362
20848TIP3    H262422   1.454   7.226   8.424
20849TIP3   OH262423   1.648   7.310   8.202
20849TIP3    H162424   1.717   7.264   8.150
20849TIP3    H262425   1.667   7.404   8.179
20850TIP3   OH262426   1.278   7.208   8.394
20850TIP3    H162427   1.266   7.178   8.303
20850TIP3    H262428   1.259   7.126   8.445
20851TIP3   OH262429   1.306   7.138   7.997
20851TIP3    H162430   1.221   7.178   7.970
20851TIP3    H262431   1.279   7.048   8.022
20852TIP3   OH262432   1.246   8.777   7.651
20852TIP3    H162433   1.256   8.680   7.637
20852TIP3    H262434   1.237   8.808   7.561
20853TIP3   OH262435   2.755   8.302   7.602
20853TIP3    H162436   2.726   8.392   7.578
20853TIP3    H262437   2.681   8.250   7.564
20854TIP3   OH262438   2.754   8.303   7.978
20854TIP3    H162439   2.787   8.266   8.062
20854TIP3    H262440   2.716   8.224   7.935
20855TIP3   OH262441   2.066   8.208   8.347
20855TIP3    H162442   2.092   8.141   8.414
20855TIP3    H262443   2.151   8.246   8.322
20856TIP3   OH262444   2.998   8.601   7.659
20856TIP3    H162445   2.984   8.529   7.722
20856TIP3    H262446   3.027   8.674   7.716
20857TIP3   OH262447   2.054   8.604   8.099
20857TIP3    H162448   2.028   8.510   8.094
20857TIP3    H262449   2.144   8.599   8.062
20858TIP3   OH262450   1.737   7.822   7.854
20858TIP3    H162451   1.673   7.893   7.871
20858TIP3    H262452   1.677   7.748   7.834
20859TIP3   OH262453   1.797   8.101   8.018
20859TIP3    H162454   1.838   8.023   8.062
20859TIP3    H262455   1.849   8.107   7.937
20860TIP3   OH262456   2.658   9.064   7.687
20860TIP3    H162457   2.701   8.999   7.627
20860TIP3    H262458   2.620   9.004   7.753
20861TIP3   OH262459   2.557   8.520   8.035
20861TIP3    H162460   2.587   8.445   7.981
20861TIP3    H262461   2.642   8.566   8.046
20862TIP3   OH262462   3.566   7.848   8.023
20862TIP3    H162463   3.595   7.931   8.065
20862TIP3    H262464   3.588   7.864   7.930
20863TIP3   OH262465   2.963   8.027   8.063
20863TIP3    H162466   3.009   7.942   8.080
20863TIP3    H262467   2.935   8.014   7.970
20864TIP3   OH262468   2.302   7.690   8.028
20864TIP3    H162469   2.279   7.758   7.962
20864TIP3    H262470   2.259   7.612   7.985
20865TIP3   OH262471   2.995   7.780   7.650
20865TIP3    H162472   3.068   7.763   7.713
20865TIP3    H262473   3.046   7.812   7.573
20866TIP3   OH262474   1.938   7.894   8.129
20866TIP3    H162475   2.015   7.862   8.180
20866TIP3    H262476   1.941   7.834   8.052
20867TIP3   OH262477   2.376   8.085   7.927
20867TIP3    H162478   2.470   8.059   7.934
20867TIP3    H262479   2.336   8.002   7.891
20868TIP3   OH262480   3.642   8.057   8.192
20868TIP3    H162481   3.557   8.101   8.173
20868TIP3    H262482   3.642   8.061   8.289
20869TIP3   OH262483   2.305   7.671   8.454
20869TIP3    H162484   2.238   7.702   8.389
20869TIP3    H262485   2.253   7.682   8.537
20870TIP3   OH262486   2.649   8.522   7.470
20870TIP3    H162487   2.607   8.497   7.386
20870TIP3    H262488   2.604   8.606   7.489
20871TIP3   OH262489   2.406   8.442   8.270
20871TIP3    H162490   2.343   8.508   8.302
20871TIP3    H262491   2.451   8.489   8.197
20872TIP3   OH262492   3.206   7.781   7.820
20872TIP3    H162493   3.216   7.717   7.892
20872TIP3    H262494   3.266   7.852   7.846
20873TIP3   OH262495   2.172   7.789   8.245
20873TIP3    H162496   2.234   7.863   8.251
20873TIP3    H262497   2.211   7.740   8.169
20874TIP3   OH262498   1.620   8.334   7.566
20874TIP3    H162499   1.613   8.405   7.501
20874TIP3    H262500   1.672   8.382   7.634
20875TIP3   OH262501   3.071   8.836   7.832
20875TIP3    H162502   2.979   8.836   7.868
20875TIP3    H262503   3.068   8.918   7.778
20876TIP3   OH262504   3.358   7.758   8.193
20876TIP3    H162505   3.269   7.778   8.158
20876TIP3    H262506   3.416   7.780   8.118
20877TIP3   OH262507   2.657   7.396   8.172
20877TIP3    H162508   2.647   7.300   8.184
20877TIP3    H262509   2.577   7.428   8.218
20878TIP3   OH262510   2.773   8.895   7.507
20878TIP3    H162511   2.820   8.811   7.484
20878TIP3    H262512   2.833   8.959   7.461
20879TIP3   OH262513   2.912   8.679   7.407
20879TIP3    H162514   2.878   8.600   7.363
20879TIP3    H262515   2.947   8.641   7.491
20880TIP3   OH262516   3.300   8.758   8.173
20880TIP3    H162517   3.287   8.679   8.115
20880TIP3    H262518   3.282   8.831   8.109
20881TIP3   OH262519   2.589   8.155   7.429
20881TIP3    H162520   2.507   8.203   7.405
20881TIP3    H262521   2.633   8.147   7.343
20882TIP3   OH262522   2.546   7.935   7.150
20882TIP3    H162523   2.617   7.985   7.194
20882TIP3    H262524   2.599   7.870   7.100
20883TIP3   OH262525   3.492   8.398   8.018
20883TIP3    H162526   3.408   8.448   8.022
20883TIP3    H262527   3.519   8.417   7.926
20884TIP3   OH262528   2.933   8.236   7.402
20884TIP3    H162529   2.878   8.260   7.481
20884TIP3    H262530   3.016   8.207   7.446
20885TIP3   OH262531   3.169   8.275   8.310
20885TIP3    H162532   3.165   8.358   8.361
20885TIP3    H262533   3.086   8.281   8.260
20886TIP3   OH262534   2.167   8.232   7.819
20886TIP3    H162535   2.123   8.175   7.752
20886TIP3    H262536   2.244   8.178   7.845
20887TIP3   OH262537   2.291   8.612   7.965
20887TIP3    H162538   2.281   8.585   7.872
20887TIP3    H262539   2.386   8.599   7.980
20888TIP3   OH262540   2.329   8.195   8.178
20888TIP3    H162541   2.337   8.177   8.082
20888TIP3    H262542   2.341   8.292   8.181
20889TIP3   OH262543   2.827   8.850   7.949
20889TIP3    H162544   2.808   8.913   8.019
20889TIP3    H262545   2.817   8.764   7.994
20890TIP3   OH262546   2.775   8.092   7.227
20890TIP3    H162547   2.834   8.151   7.279
20890TIP3    H262548   2.800   8.117   7.135
20891TIP3   OH262549   2.517   8.772   7.504
20891TIP3    H162550   2.591   8.832   7.520
20891TIP3    H262551   2.451   8.829   7.463
20892TIP3   OH262552   3.305   7.345   7.284
20892TIP3    H162553   3.213   7.342   7.317
20892TIP3    H262554   3.300   7.418   7.220
20893TIP3   OH262555   2.030   8.079   7.633
20893TIP3    H162556   1.977   8.127   7.569
20893TIP3    H262557   1.991   7.991   7.634
20894TIP3   OH262558   3.088   8.702   6.823
20894TIP3    H162559   3.097   8.799   6.808
20894TIP3    H262560   3.180   8.672   6.810
20895TIP3   OH262561   3.538   9.097   8.208
20895TIP3    H162562   3.540   9.000   8.220
20895TIP3    H262563   3.453   9.119   8.248
20896TIP3   OH262564   2.405   9.022   7.299
20896TIP3    H162565   2.351   8.998   7.223
20896TIP3    H262566   2.361   9.103   7.331
20897TIP3   OH262567   1.841   8.882   7.691
20897TIP3    H162568   1.891   8.830   7.758
20897TIP3    H262569   1.769   8.822   7.668
20898TIP3   OH262570   2.604   8.922   6.943
20898TIP3    H162571   2.661   8.850   6.908
20898TIP3    H262572   2.635   8.928   7.036
20899TIP3   OH262573   2.654   8.967   7.213
20899TIP3    H162574   2.564   8.982   7.250
20899TIP3    H262575   2.695   8.917   7.286
20900TIP3   OH262576   3.423   8.237   8.490
20900TIP3    H162577   3.342   8.246   8.437
20900TIP3    H262578   3.440   8.141   8.481
20901TIP3   OH262579   2.419   7.469   8.299
20901TIP3    H162580   2.332   7.431   8.272
20901TIP3    H262581   2.385   7.547   8.348
20902TIP3   OH262582   2.951   7.583   8.493
20902TIP3    H162583   3.023   7.555   8.553
20902TIP3    H262584   2.870   7.557   8.542
20903TIP3   OH262585   3.190   8.009   8.414
20903TIP3    H162586   3.144   8.004   8.501
20903TIP3    H262587   3.167   8.098   8.382
20904TIP3   OH262588   2.852   8.146   6.973
20904TIP3    H162589   2.817   8.115   6.887
20904TIP3    H262590   2.934   8.190   6.944
20905TIP3   OH262591   2.565   7.516   7.273
20905TIP3    H162592   2.532   7.513   7.364
20905TIP3    H262593   2.526   7.434   7.238
20906TIP3   OH262594   2.383   8.006   8.358
20906TIP3    H162595   2.305   8.005   8.418
20906TIP3    H262596   2.349   8.064   8.285
20907TIP3   OH262597   2.232   7.868   7.835
20907TIP3    H162598   2.139   7.838   7.851
20907TIP3    H262599   2.247   7.828   7.745
20908TIP3   OH262600   2.726   7.955   7.563
20908TIP3    H162601   2.671   8.025   7.519
20908TIP3    H262602   2.779   7.923   7.487
20909TIP3   OH262603   2.914   8.231   8.641
20909TIP3    H162604   2.885   8.160   8.704
20909TIP3    H262605   3.008   8.237   8.665
20910TIP3   OH262606   2.882   7.984   7.801
20910TIP3    H162607   2.823   8.011   7.727
20910TIP3    H262608   2.916   7.901   7.761
20911TIP3   OH262609   2.184   8.022   8.541
20911TIP3    H162610   2.193   8.077   8.622
20911TIP3    H262611   2.154   7.937   8.579
20912TIP3   OH262612   2.222   7.489   7.240
20912TIP3    H162613   2.211   7.481   7.337
20912TIP3    H262614   2.137   7.530   7.215
20913TIP3   OH262615   1.758   7.545   8.106
20913TIP3    H162616   1.841   7.558   8.154
20913TIP3    H262617   1.783   7.496   8.026
20914TIP3   OH262618   1.779   7.538   7.652
20914TIP3    H162619   1.799   7.558   7.559
20914TIP3    H262620   1.692   7.580   7.661
20915TIP3   OH262621   2.893   8.230   8.223
20915TIP3    H162622   2.925   8.155   8.166
20915TIP3    H262623   2.874   8.182   8.305
20916TIP3   OH262624   2.561   7.697   7.897
20916TIP3    H162625   2.477   7.688   7.947
20916TIP3    H262626   2.628   7.684   7.966
20917TIP3   OH262627   1.996   7.742   7.903
20917TIP3    H162628   1.902   7.752   7.875
20917TIP3    H262629   2.014   7.649   7.880
20918TIP3   OH262630   2.266   7.749   7.591
20918TIP3    H162631   2.361   7.756   7.569
20918TIP3    H262632   2.221   7.767   7.506
20919TIP3   OH262633   3.052   7.768   8.106
20919TIP3    H162634   3.007   7.773   8.192
20919TIP3    H262635   2.997   7.703   8.059
20920TIP3   OH262636   2.098   7.782   7.370
20920TIP3    H162637   2.033   7.728   7.322
20920TIP3    H262638   2.152   7.813   7.296
20921TIP3   OH262639   2.647   8.021   7.992
20921TIP3    H162640   2.714   7.978   7.937
20921TIP3    H262641   2.656   7.975   8.077
20922TIP3   OH262642   2.179   7.503   7.873
20922TIP3    H162643   2.136   7.426   7.916
20922TIP3    H262644   2.214   7.464   7.792
20923TIP3   OH262645   2.626   7.932   8.262
20923TIP3    H162646   2.537   7.930   8.302
20923TIP3    H262647   2.686   7.930   8.338
20924TIP3   OH262648   2.358   8.304   7.379
20924TIP3    H162649   2.283   8.241   7.367
20924TIP3    H262650   2.341   8.338   7.470
20925TIP3   OH262651   3.259   8.542   8.009
20925TIP3    H162652   3.283   8.590   7.927
20925TIP3    H262653   3.173   8.500   7.985
20926TIP3   OH262654   2.817   7.618   7.237
20926TIP3    H162655   2.720   7.601   7.245
20926TIP3    H262656   2.825   7.712   7.260
20927TIP3   OH262657   2.790   8.583   8.351
20927TIP3    H162658   2.783   8.563   8.445
20927TIP3    H262659   2.720   8.648   8.341
20928TIP3   OH262660   2.885   7.864   7.345
20928TIP3    H162661   2.982   7.868   7.357
20928TIP3    H262662   2.868   7.941   7.287
20929TIP3   OH262663   2.070   8.330   8.060
20929TIP3    H162664   2.094   8.301   7.970
20929TIP3    H262665   2.060   8.247   8.107
20930TIP3   OH262666   2.503   8.456   7.200
20930TIP3    H162667   2.456   8.543   7.207
20930TIP3    H262668   2.448   8.400   7.258
20931TIP3   OH262669   2.661   8.319   8.572
20931TIP3    H162670   2.621   8.329   8.663
20931TIP3    H262671   2.755   8.319   8.595
20932TIP3   OH262672   2.952   8.870   8.279
20932TIP3    H162673   2.857   8.883   8.298
20932TIP3    H262674   2.993   8.930   8.342
20933TIP3   OH262675   3.331   7.952   7.179
20933TIP3    H162676   3.267   7.906   7.119
20933TIP3    H262677   3.326   8.040   7.136
20934TIP3   OH262678   3.546   8.815   8.259
20934TIP3    H162679   3.449   8.803   8.247
20934TIP3    H262680   3.576   8.783   8.170
20935TIP3   OH262681   3.031   8.773   7.089
20935TIP3    H162682   3.002   8.702   7.148
20935TIP3    H262683   3.039   8.727   7.003
20936TIP3   OH262684   3.021   8.403   7.931
20936TIP3    H162685   2.928   8.373   7.940
20936TIP3    H262686   3.059   8.326   7.885
20937TIP3   OH262687   2.153   8.627   7.675
20937TIP3    H162688   2.151   8.709   7.621
20937TIP3    H262689   2.060   8.622   7.701
20938TIP3   OH262690   2.294   8.396   7.627
20938TIP3    H162691   2.256   8.486   7.638
20938TIP3    H262692   2.252   8.348   7.701
20939TIP3   OH262693   2.073   8.857   7.537
20939TIP3    H162694   1.984   8.881   7.571
20939TIP3    H262695   2.112   8.947   7.526
20940TIP3   OH262696   2.825   8.608   8.084
20940TIP3    H162697   2.828   8.590   8.180
20940TIP3    H262698   2.897   8.552   8.052
20941TIP3   OH262699   2.781   8.503   6.989
20941TIP3    H162700   2.832   8.477   7.068
20941TIP3    H262701   2.692   8.473   7.015
20942TIP3   OH262702   3.074   9.127   8.119
20942TIP3    H162703   2.983   9.100   8.142
20942TIP3    H262704   3.059   9.195   8.052
20943TIP3   OH262705   3.122   8.977   6.809
20943TIP3    H162706   3.160   9.050   6.756
20943TIP3    H262707   3.042   9.022   6.842
20944TIP3   OH262708   2.156   7.742   8.668
20944TIP3    H162709   2.063   7.761   8.689
20944TIP3    H262710   2.176   7.675   8.735
20945TIP3   OH262711   2.941   8.440   7.209
20945TIP3    H162712   2.930   8.370   7.277
20945TIP3    H262713   3.037   8.435   7.194
20946TIP3   OH262714   2.152   8.481   6.987
20946TIP3    H162715   2.163   8.389   6.958
20946TIP3    H262716   2.131   8.470   7.082
20947TIP3   OH262717   2.097   8.485   7.258
20947TIP3    H162718   2.163   8.462   7.325
20947TIP3    H262719   2.095   8.583   7.265
20948TIP3   OH262720   2.958   7.831   8.368
20948TIP3    H162721   3.047   7.861   8.390
20948TIP3    H262722   2.955   7.744   8.414
20949TIP3   OH262723   2.848   7.575   7.520
20949TIP3    H162724   2.841   7.594   7.424
20949TIP3    H262725   2.894   7.654   7.553
20950TIP3   OH262726   2.361   8.688   7.212
20950TIP3    H162727   2.272   8.712   7.247
20950TIP3    H262728   2.373   8.757   7.145
20951TIP3   OH262729   2.549   7.748   7.623
20951TIP3    H162730   2.616   7.817   7.604
20951TIP3    H262731   2.554   7.742   7.720
20952TIP3   OH262732   2.794   8.081   8.438
20952TIP3    H162733   2.831   8.127   8.517
20952TIP3    H262734   2.852   8.001   8.437
20953TIP3   OH262735   2.695   7.478   7.729
20953TIP3    H162736   2.689   7.557   7.785
20953TIP3    H262737   2.753   7.512   7.656
20954TIP3   OH262738   2.101   8.758   7.276
20954TIP3    H162739   2.070   8.826   7.212
20954TIP3    H262740   2.077   8.800   7.361
20955TIP3   OH262741   2.206   7.471   7.517
20955TIP3    H162742   2.200   7.561   7.554
20955TIP3    H262743   2.302   7.455   7.524
20956TIP3   OH262744   3.459   7.970   8.404
20956TIP3    H162745   3.362   7.968   8.417
20956TIP3    H262746   3.464   7.914   8.324
20957TIP3   OH262747   3.108   8.164   7.803
20957TIP3    H162748   3.033   8.101   7.809
20957TIP3    H262749   3.180   8.115   7.847
20958TIP3   OH262750   1.801   8.398   7.265
20958TIP3    H162751   1.861   8.472   7.280
20958TIP3    H262752   1.858   8.341   7.210
20959TIP3   OH262753   1.766   7.655   7.404
20959TIP3    H162754   1.759   7.748   7.382
20959TIP3    H262755   1.685   7.616   7.369
20960TIP3   OH262756   3.082   9.092   7.726
20960TIP3    H162757   3.039   9.144   7.656
20960TIP3    H262758   3.176   9.119   7.711
20961TIP3   OH262759   2.158   7.386   8.277
20961TIP3    H162760   2.122   7.354   8.192
20961TIP3    H262761   2.144   7.308   8.335
20962TIP3   OH262762   1.702   8.599   7.668
20962TIP3    H162763   1.619   8.628   7.707
20962TIP3    H262764   1.691   8.635   7.578
20963TIP3   OH262765   2.314   8.686   6.903
20963TIP3    H162766   2.255   8.617   6.941
20963TIP3    H262767   2.386   8.631   6.870
20964TIP3   OH262768   2.751   8.729   6.813
20964TIP3    H162769   2.792   8.661   6.870
20964TIP3    H262770   2.807   8.726   6.733
20965TIP3   OH262771   1.954   8.200   7.121
20965TIP3    H162772   2.012   8.173   7.194
20965TIP3    H262773   2.019   8.206   7.048
20966TIP3   OH262774   2.467   8.402   6.929
20966TIP3    H162775   2.465   8.415   7.026
20966TIP3    H262776   2.465   8.304   6.924
20967TIP3   OH262777   3.091   8.632   8.304
20967TIP3    H162778   3.159   8.685   8.258
20967TIP3    H262779   3.014   8.691   8.295
20968TIP3   OH262780   2.164   8.103   7.348
20968TIP3    H162781   2.149   8.052   7.429
20968TIP3    H262782   2.199   8.034   7.289
20969TIP3   OH262783   2.264   7.901   7.187
20969TIP3    H162784   2.237   7.898   7.093
20969TIP3    H262785   2.362   7.905   7.178
20970TIP3   OH262786   2.972   8.586   8.703
20970TIP3    H162787   3.033   8.547   8.639
20970TIP3    H262788   2.962   8.512   8.766
20971TIP3   OH262789   3.089   8.233   6.846
20971TIP3    H162790   3.067   8.183   6.765
20971TIP3    H262791   3.056   8.322   6.819
20972TIP3   OH262792   2.553   7.954   8.656
20972TIP3    H162793   2.581   7.867   8.622
20972TIP3    H262794   2.469   7.964   8.610
20973TIP3   OH262795   2.562   7.738   8.491
20973TIP3    H162796   2.586   7.739   8.397
20973TIP3    H262797   2.467   7.712   8.487
20974TIP3   OH262798   3.173   8.246   8.760
20974TIP3    H162799   3.217   8.161   8.779
20974TIP3    H262800   3.247   8.299   8.730
20975TIP3   OH262801   3.211   8.496   8.497
20975TIP3    H162802   3.154   8.547   8.434
20975TIP3    H262803   3.298   8.512   8.454
20976TIP3   OH262804   2.460   8.035   8.897
20976TIP3    H162805   2.389   7.970   8.915
20976TIP3    H262806   2.490   8.006   8.807
20977TIP3   OH262807   2.691   7.505   8.570
20977TIP3    H162808   2.642   7.588   8.550
20977TIP3    H262809   2.620   7.439   8.560
20978TIP3   OH262810   2.813   8.025   8.782
20978TIP3    H162811   2.822   8.005   8.878
20978TIP3    H262812   2.723   7.992   8.765
20979TIP3   OH262813   3.060   7.965   8.646
20979TIP3    H162814   2.987   7.961   8.710
20979TIP3    H262815   3.135   7.929   8.700
20980TIP3   OH262816   3.290   7.895   8.785
20980TIP3    H162817   3.302   7.799   8.806
20980TIP3    H262818   3.285   7.933   8.875
20981TIP3   OH262819   2.275   7.839   8.939
20981TIP3    H162820   2.280   7.744   8.913
20981TIP3    H262821   2.264   7.831   9.035
20982TIP3   OH262822   2.785   7.517   8.826
20982TIP3    H162823   2.856   7.449   8.825
20982TIP3    H262824   2.747   7.505   8.737
20983TIP3   OH262825   2.859   7.728   8.981
20983TIP3    H162826   2.829   7.656   8.922
20983TIP3    H262827   2.782   7.788   8.984
20984TIP3   OH262828   2.072   8.953   7.083
20984TIP3    H162829   2.167   8.962   7.063
20984TIP3    H262830   2.034   9.009   7.013
20985TIP3   OH262831   3.324   9.210   7.700
20985TIP3    H162832   3.349   9.235   7.792
20985TIP3    H262833   3.391   9.255   7.648
20986TIP3   OH262834   3.370   9.221   7.971
20986TIP3    H162835   3.327   9.134   7.979
20986TIP3    H262836   3.441   9.214   8.036
20987TIP3   OH262837   3.387   8.901   8.543
20987TIP3    H162838   3.294   8.883   8.566
20987TIP3    H262839   3.378   8.979   8.486
20988TIP3   OH262840   3.221   8.420   7.182
20988TIP3    H162841   3.291   8.481   7.154
20988TIP3    H262842   3.262   8.378   7.260
20989TIP3   OH262843   3.348   8.288   7.385
20989TIP3    H162844   3.283   8.242   7.442
20989TIP3    H262845   3.411   8.325   7.449
20990TIP3   OH262846   3.403   8.677   7.818
20990TIP3    H162847   3.455   8.613   7.766
20990TIP3    H262848   3.393   8.751   7.755
20991TIP3   OH262849   3.252   8.966   8.005
20991TIP3    H162850   3.183   9.016   8.055
20991TIP3    H262851   3.196   8.919   7.939
20992TIP3   OH262852   3.288   8.195   7.032
20992TIP3    H162853   3.216   8.195   6.964
20992TIP3    H262854   3.259   8.271   7.086
20993TIP3   OH262855   3.157   7.870   6.987
20993TIP3    H162856   3.118   7.902   6.906
20993TIP3    H262857   3.132   7.775   6.983
20994TIP3   OH262858   3.165   8.141   7.531
20994TIP3    H162859   3.171   8.044   7.523
20994TIP3    H262860   3.151   8.153   7.628
20995TIP3   OH262861   1.796   8.201   8.278
20995TIP3    H162862   1.784   8.194   8.182
20995TIP3    H262863   1.893   8.209   8.286
20996TIP3   OH262864   3.451   8.564   8.383
20996TIP3    H162865   3.523   8.497   8.376
20996TIP3    H262866   3.476   8.628   8.315
20997TIP3   OH262867   3.640   8.376   8.413
20997TIP3    H162868   3.564   8.323   8.446
20997TIP3    H262869   3.712   8.311   8.425
20998TIP3   OH262870   3.100   7.605   6.984
20998TIP3    H162871   3.181   7.571   7.027
20998TIP3    H262872   3.035   7.535   7.000
20999TIP3   OH262873   3.160   7.859   7.428
20999TIP3    H162874   3.198   7.770   7.445
20999TIP3    H262875   3.218   7.888   7.356
21000TIP3   OH262876   3.323   8.037   7.921
21000TIP3    H162877   3.409   8.062   7.881
21000TIP3    H262878   3.337   8.069   8.012
21001TIP3   OH262879   3.391   8.177   8.155
21001TIP3    H162880   3.311   8.209   8.202
21001TIP3    H262881   3.422   8.257   8.109
21002TIP3   OH262882   2.006   7.850   8.888
21002TIP3    H162883   2.102   7.865   8.903
21002TIP3    H262884   1.986   7.780   8.954
21003TIP3   OH262885   3.845   7.770   8.708
21003TIP3    H162886   3.899   7.700   8.665
21003TIP3    H262887   3.817   7.825   8.632
21004TIP3   OH262888   3.264   7.610   7.467
21004TIP3    H162889   3.314   7.588   7.549
21004TIP3    H262890   3.209   7.529   7.457
21005TIP3   OH262891   1.972   7.591   8.277
21005TIP3    H162892   2.034   7.517   8.291
21005TIP3    H262893   2.030   7.668   8.285
21006TIP3   OH262894   1.789   7.864   8.371
21006TIP3    H162895   1.825   7.863   8.280
21006TIP3    H262896   1.774   7.958   8.387
21007TIP3   OH262897   3.715   7.910   8.512
21007TIP3    H162898   3.627   7.944   8.538
21007TIP3    H262899   3.688   7.834   8.456
21008TIP3   OH262900   3.354   7.549   7.093
21008TIP3    H162901   3.390   7.474   7.040
21008TIP3    H262902   3.422   7.617   7.080
21009TIP3   OH262903   1.748   7.383   7.873
21009TIP3    H162904   1.652   7.369   7.878
21009TIP3    H262905   1.758   7.431   7.788
21010TIP3   OH262906   2.920   9.073   7.366
21010TIP3    H162907   2.961   9.051   7.281
21010TIP3    H262908   2.977   9.143   7.398
21011TIP3   OH262909   1.978   7.449   8.667
21011TIP3    H162910   1.925   7.446   8.749
21011TIP3    H262911   1.911   7.484   8.605
21012TIP3   OH262912   3.612   7.668   8.393
21012TIP3    H162913   3.519   7.657   8.364
21012TIP3    H262914   3.644   7.576   8.381
21013TIP3   OH262915   2.778   9.150   8.036
21013TIP3    H162916   2.697   9.120   7.993
21013TIP3    H262917   2.827   9.187   7.961
21014TIP3   OH262918   3.019   9.300   7.892
21014TIP3    H162919   3.006   9.361   7.817
21014TIP3    H262920   3.049   9.220   7.839
21015TIP3   OH262921   1.992   8.770   7.888
21015TIP3    H162922   2.020   8.704   7.954
21015TIP3    H262923   2.021   8.855   7.928
21016TIP3   OH262924   2.272   8.898   7.895
21016TIP3    H162925   2.250   8.805   7.880
21016TIP3    H262926   2.196   8.943   7.852
21017TIP3   OH262927   2.815   7.586   8.013
21017TIP3    H162928   2.772   7.513   8.062
21017TIP3    H262929   2.884   7.539   7.963
21018TIP3   OH262930   3.338   7.480   7.918
21018TIP3    H162931   3.374   7.521   7.836
21018TIP3    H262932   3.242   7.483   7.903
21019TIP3   OH262933   3.436   7.569   7.681
21019TIP3    H162934   3.507   7.515   7.639
21019TIP3    H262935   3.469   7.659   7.663
21020TIP3   OH262936   2.066   7.296   8.031
21020TIP3    H162937   1.973   7.265   8.027
21020TIP3    H262938   2.113   7.210   8.024
21021TIP3   OH262939   1.870   7.162   7.679
21021TIP3    H162940   1.872   7.219   7.600
21021TIP3    H262941   1.808   7.211   7.735
21022TIP3   OH262942   2.509   7.324   7.907
21022TIP3    H162943   2.569   7.373   7.848
21022TIP3    H262944   2.528   7.365   7.993
21023TIP3   OH262945   3.055   7.471   7.891
21023TIP3    H162946   3.055   7.433   7.802
21023TIP3    H262947   3.041   7.390   7.946
21024TIP3   OH262948   3.084   7.397   7.454
21024TIP3    H162949   2.994   7.431   7.460
21024TIP3    H262950   3.072   7.309   7.498
21025TIP3   OH262951   1.560   8.708   7.469
21025TIP3    H162952   1.474   8.718   7.426
21025TIP3    H262953   1.602   8.794   7.442
21026TIP3   OH262954   1.968   7.330   7.429
21026TIP3    H162955   2.018   7.262   7.380
21026TIP3    H262956   2.039   7.376   7.477
21027TIP3   OH262957   2.481   7.497   7.539
21027TIP3    H162958   2.541   7.448   7.598
21027TIP3    H262959   2.506   7.589   7.564
21028TIP3   OH262960   2.343   8.924   7.036
21028TIP3    H162961   2.431   8.945   6.999
21028TIP3    H262962   2.319   8.848   6.978
21029TIP3   OH262963   3.059   9.040   7.130
21029TIP3    H162964   3.052   8.942   7.117
21029TIP3    H262965   3.013   9.072   7.050
21030TIP3   OH262966   2.275   7.566   8.916
21030TIP3    H162967   2.236   7.499   8.974
21030TIP3    H262968   2.368   7.564   8.946
21031TIP3   OH262969   2.522   7.564   9.034
21031TIP3    H162970   2.609   7.539   8.998
21031TIP3    H262971   2.509   7.493   9.100
21032TIP3   OH262972   1.645   8.763   7.110
21032TIP3    H162973   1.659   8.821   7.189
21032TIP3    H262974   1.735   8.725   7.098
21033TIP3   OH262975   3.346   7.627   8.829
21033TIP3    H162976   3.364   7.599   8.921
21033TIP3    H262977   3.435   7.622   8.789
21034TIP3   OH262978   4.550   8.557   7.091
21034TIP3    H162979   4.522   8.647   7.066
21034TIP3    H262980   4.478   8.505   7.050
21035TIP3   OH262981   4.548   8.561   7.466
21035TIP3    H162982   4.578   8.520   7.548
21035TIP3    H262983   4.512   8.486   7.416
21036TIP3   OH262984   3.851   8.455   7.833
21036TIP3    H162985   3.884   8.387   7.894
21036TIP3    H262986   3.931   8.507   7.818
21037TIP3   OH262987   4.792   8.860   7.146
21037TIP3    H162988   4.781   8.786   7.207
21037TIP3    H262989   4.822   8.931   7.204
21038TIP3   OH262990   3.823   8.863   7.559
21038TIP3    H162991   3.813   8.765   7.561
21038TIP3    H262992   3.919   8.869   7.550
21039TIP3   OH262993   3.529   8.071   7.345
21039TIP3    H162994   3.474   8.151   7.353
21039TIP3    H262995   3.463   8.009   7.309
21040TIP3   OH262996   3.591   8.355   7.513
21040TIP3    H162997   3.637   8.277   7.549
21040TIP3    H262998   3.642   8.372   7.433
21041TIP3   OH262999   4.444   9.324   7.163
21041TIP3    H163000   4.490   9.253   7.113
21041TIP3    H263001   4.435   9.283   7.250
21042TIP3   OH263002   4.349   8.782   7.515
21042TIP3    H163003   4.384   8.706   7.466
21042TIP3    H263004   4.434   8.826   7.536
21043TIP3   OH263005   5.360   8.102   7.511
21043TIP3    H163006   5.390   8.186   7.550
21043TIP3    H263007   5.385   8.114   7.418
21044TIP3   OH263008   4.756   8.282   7.551
21044TIP3    H163009   4.807   8.201   7.566
21044TIP3    H263010   4.733   8.273   7.456
21045TIP3   OH263011   4.102   7.944   7.510
21045TIP3    H163012   4.075   8.017   7.450
21045TIP3    H263013   4.053   7.869   7.469
21046TIP3   OH263014   4.790   8.044   7.164
21046TIP3    H163015   4.872   8.029   7.215
21046TIP3    H263016   4.826   8.023   7.074
21047TIP3   OH263017   3.734   8.147   7.619
21047TIP3    H163018   3.816   8.123   7.665
21047TIP3    H263019   3.741   8.089   7.540
21048TIP3   OH263020   4.173   8.344   7.413
21048TIP3    H163021   4.267   8.316   7.424
21048TIP3    H263022   4.132   8.262   7.379
21049TIP3   OH263023   5.436   8.308   7.683
21049TIP3    H163024   5.354   8.357   7.661
21049TIP3    H263025   5.449   8.335   7.775
21050TIP3   OH263026   4.097   7.930   7.948
21050TIP3    H163027   4.035   7.963   7.880
21050TIP3    H263028   4.044   7.945   8.029
21051TIP3   OH263029   4.444   8.777   6.959
21051TIP3    H163030   4.405   8.751   6.874
21051TIP3    H263031   4.399   8.862   6.976
21052TIP3   OH263032   4.204   8.702   7.745
21052TIP3    H163033   4.139   8.766   7.781
21052TIP3    H263034   4.244   8.753   7.671
21053TIP3   OH263035   5.007   8.034   7.323
21053TIP3    H163036   5.039   7.977   7.393
21053TIP3    H263037   5.068   8.109   7.326
21054TIP3   OH263038   3.968   8.042   7.730
21054TIP3    H163039   4.031   8.114   7.752
21054TIP3    H263040   4.016   7.999   7.655
21055TIP3   OH263041   4.031   8.894   7.841
21055TIP3    H163042   4.004   8.978   7.799
21055TIP3    H263043   3.951   8.879   7.897
21056TIP3   OH263044   3.428   8.584   7.075
21056TIP3    H163045   3.384   8.608   6.991
21056TIP3    H263046   3.455   8.671   7.111
21057TIP3   OH263047   4.867   9.101   7.320
21057TIP3    H163048   4.775   9.092   7.356
21057TIP3    H263049   4.858   9.185   7.270
21058TIP3   OH263050   5.155   8.004   7.679
21058TIP3    H163051   5.068   8.032   7.647
21058TIP3    H263052   5.215   8.034   7.607
21059TIP3   OH263053   4.568   9.151   6.992
21059TIP3    H163054   4.616   9.067   6.971
21059TIP3    H263055   4.628   9.215   6.948
21060TIP3   OH263056   4.707   8.936   6.894
21060TIP3    H163057   4.679   8.855   6.847
21060TIP3    H263058   4.742   8.898   6.978
21061TIP3   OH263059   5.092   9.016   7.659
21061TIP3    H163060   5.082   8.938   7.600
21061TIP3    H263061   5.077   9.090   7.596
21062TIP3   OH263062   4.384   8.413   6.916
21062TIP3    H163063   4.303   8.459   6.888
21062TIP3    H263064   4.433   8.403   6.831
21063TIP3   OH263065   4.341   8.192   6.636
21063TIP3    H163066   4.412   8.242   6.681
21063TIP3    H263067   4.395   8.127   6.587
21064TIP3   OH263068   5.286   8.651   7.504
21064TIP3    H163069   5.204   8.704   7.508
21064TIP3    H263070   5.316   8.671   7.413
21065TIP3   OH263071   4.729   8.493   6.888
21065TIP3    H163072   4.676   8.516   6.968
21065TIP3    H263073   4.811   8.460   6.929
21066TIP3   OH263074   4.965   8.531   7.798
21066TIP3    H163075   4.961   8.617   7.844
21066TIP3    H263076   4.879   8.533   7.751
21067TIP3   OH263077   3.961   8.491   7.304
21067TIP3    H163078   3.917   8.433   7.238
21067TIP3    H263079   4.038   8.436   7.331
21068TIP3   OH263080   4.092   8.901   7.453
21068TIP3    H163081   4.069   8.857   7.370
21068TIP3    H263082   4.182   8.867   7.470
21069TIP3   OH263083   4.101   8.459   7.661
21069TIP3    H163084   4.130   8.439   7.569
21069TIP3    H263085   4.142   8.546   7.678
21070TIP3   OH263086   4.623   9.099   7.435
21070TIP3    H163087   4.609   9.177   7.492
21070TIP3    H263088   4.610   9.024   7.496
21071TIP3   OH263089   4.235   9.018   7.984
21071TIP3    H163090   4.173   9.080   8.028
21071TIP3    H263091   4.171   8.963   7.934
21072TIP3   OH263092   4.562   8.360   6.711
21072TIP3    H163093   4.628   8.408   6.765
21072TIP3    H263094   4.593   8.381   6.619
21073TIP3   OH263095   3.991   8.574   8.083
21073TIP3    H163096   3.993   8.660   8.129
21073TIP3    H263097   3.895   8.555   8.086
21074TIP3   OH263098   4.312   9.031   6.991
21074TIP3    H163099   4.390   9.086   7.009
21074TIP3    H263100   4.251   9.093   6.949
21075TIP3   OH263101   4.031   9.189   8.072
21075TIP3    H163102   3.996   9.186   7.981
21075TIP3    H263103   3.953   9.161   8.125
21076TIP3   OH263104   5.082   7.601   6.768
21076TIP3    H163105   5.003   7.631   6.815
21076TIP3    H263106   5.100   7.681   6.714
21077TIP3   OH263107   3.825   8.332   7.115
21077TIP3    H163108   3.763   8.377   7.054
21077TIP3    H263109   3.787   8.244   7.120
21078TIP3   OH263110   4.885   8.959   6.311
21078TIP3    H163111   4.895   9.055   6.295
21078TIP3    H263112   4.977   8.928   6.297
21079TIP3   OH263113   3.610   8.716   8.016
21079TIP3    H163114   3.545   8.695   7.946
21079TIP3    H263115   3.645   8.627   8.040
21080TIP3   OH263116   3.463   8.908   7.651
21080TIP3    H163117   3.559   8.901   7.640
21080TIP3    H263118   3.456   8.988   7.705
21081TIP3   OH263119   5.327   9.359   7.702
21081TIP3    H163120   5.329   9.262   7.713
21081TIP3    H263121   5.243   9.381   7.748
21082TIP3   OH263122   4.436   9.145   7.841
21082TIP3    H163123   4.434   9.238   7.872
21082TIP3    H263124   4.362   9.107   7.893
21083TIP3   OH263125   4.193   9.275   6.791
21083TIP3    H163126   4.148   9.253   6.707
21083TIP3    H263127   4.160   9.365   6.810
21084TIP3   OH263128   3.632   9.126   7.174
21084TIP3    H163129   3.679   9.115   7.259
21084TIP3    H263130   3.575   9.047   7.174
21085TIP3   OH263131   4.397   9.176   6.432
21085TIP3    H163132   4.455   9.106   6.395
21085TIP3    H263133   4.431   9.183   6.524
21086TIP3   OH263134   4.446   9.225   6.703
21086TIP3    H163135   4.357   9.233   6.745
21086TIP3    H263136   4.495   9.176   6.771
21087TIP3   OH263137   5.217   8.491   7.979
21087TIP3    H163138   5.140   8.505   7.922
21087TIP3    H263139   5.233   8.395   7.966
21088TIP3   OH263140   3.814   8.900   8.008
21088TIP3    H163141   3.865   8.880   8.090
21088TIP3    H263142   3.742   8.835   8.012
21089TIP3   OH263143   4.209   7.723   7.789
21089TIP3    H163144   4.120   7.691   7.764
21089TIP3    H263145   4.185   7.807   7.833
21090TIP3   OH263146   4.753   7.828   7.975
21090TIP3    H163147   4.814   7.807   8.048
21090TIP3    H263148   4.664   7.809   8.013
21091TIP3   OH263149   4.988   8.266   7.900
21091TIP3    H163150   4.938   8.264   7.985
21091TIP3    H263151   4.964   8.353   7.864
21092TIP3   OH263152   4.647   8.404   6.457
21092TIP3    H163153   4.614   8.372   6.371
21092TIP3    H263154   4.731   8.445   6.430
21093TIP3   OH263155   4.358   7.774   6.760
21093TIP3    H163156   4.325   7.770   6.851
21093TIP3    H263157   4.322   7.690   6.726
21094TIP3   OH263158   4.149   8.236   7.808
21094TIP3    H163159   4.095   8.255   7.888
21094TIP3    H263160   4.131   8.317   7.754
21095TIP3   OH263161   4.030   8.124   7.321
21095TIP3    H163162   3.936   8.098   7.337
21095TIP3    H263163   4.043   8.086   7.231
21096TIP3   OH263164   4.519   8.211   7.050
21096TIP3    H163165   4.468   8.280   7.003
21096TIP3    H263166   4.577   8.178   6.978
21097TIP3   OH263167   4.695   8.491   8.140
21097TIP3    H163168   4.672   8.417   8.199
21097TIP3    H263169   4.790   8.500   8.156
21098TIP3   OH263170   4.670   8.247   7.292
21098TIP3    H163171   4.614   8.272   7.215
21098TIP3    H263172   4.712   8.167   7.251
21099TIP3   OH263173   3.967   8.267   8.016
21099TIP3    H163174   3.988   8.328   8.087
21099TIP3    H263175   3.951   8.184   8.065
21100TIP3   OH263176   4.016   7.745   6.727
21100TIP3    H163177   4.005   7.738   6.824
21100TIP3    H263178   3.934   7.790   6.701
21101TIP3   OH263179   3.555   7.797   7.599
21101TIP3    H163180   3.638   7.818   7.646
21101TIP3    H263181   3.584   7.756   7.515
21102TIP3   OH263182   3.540   7.772   7.118
21102TIP3    H163183   3.581   7.811   7.038
21102TIP3    H263184   3.474   7.842   7.138
21103TIP3   OH263185   4.691   8.486   7.714
21103TIP3    H163186   4.721   8.413   7.655
21103TIP3    H263187   4.660   8.434   7.791
21104TIP3   OH263188   4.366   7.931   7.409
21104TIP3    H163189   4.272   7.927   7.433
21104TIP3    H263190   4.394   8.003   7.467
21105TIP3   OH263191   3.791   8.000   7.392
21105TIP3    H163192   3.696   8.010   7.366
21105TIP3    H263193   3.810   7.908   7.368
21106TIP3   OH263194   4.063   8.003   7.078
21106TIP3    H163195   4.156   8.013   7.053
21106TIP3    H263196   4.015   8.023   6.995
21107TIP3   OH263197   4.855   8.025   7.596
21107TIP3    H163198   4.809   8.035   7.682
21107TIP3    H263199   4.802   7.957   7.552
21108TIP3   OH263200   3.900   8.033   6.860
21108TIP3    H163201   3.827   7.987   6.813
21108TIP3    H263202   3.951   8.066   6.783
21109TIP3   OH263203   5.015   9.711   7.801
21109TIP3    H163204   5.014   9.732   7.706
21109TIP3    H263205   5.100   9.751   7.828
21110TIP3   OH263206   3.975   8.821   8.225
21110TIP3    H163207   4.053   8.855   8.273
21110TIP3    H263208   3.911   8.816   8.298
21111TIP3   OH263209   4.438   8.258   7.475
21111TIP3    H163210   4.520   8.244   7.424
21111TIP3    H263211   4.463   8.233   7.565
21112TIP3   OH263212   3.977   7.757   7.359
21112TIP3    H163213   3.932   7.680   7.400
21112TIP3    H263214   4.001   7.722   7.271
21113TIP3   OH263215   4.418   8.166   7.771
21113TIP3    H163216   4.328   8.201   7.783
21113TIP3    H263217   4.474   8.227   7.822
21114TIP3   OH263218   4.151   8.565   6.863
21114TIP3    H163219   4.081   8.497   6.854
21114TIP3    H263220   4.136   8.595   6.956
21115TIP3   OH263221   5.054   8.799   7.496
21115TIP3    H163222   5.080   8.846   7.414
21115TIP3    H263223   4.970   8.756   7.471
21116TIP3   OH263224   4.604   7.883   6.710
21116TIP3    H163225   4.509   7.866   6.731
21116TIP3    H263226   4.622   7.968   6.756
21117TIP3   OH263227   4.559   8.882   7.861
21117TIP3    H163228   4.567   8.853   7.953
21117TIP3    H263229   4.514   8.968   7.869
21118TIP3   OH263230   4.674   8.122   6.833
21118TIP3    H163231   4.764   8.081   6.841
21118TIP3    H263232   4.688   8.191   6.767
21119TIP3   OH263233   3.849   8.587   7.543
21119TIP3    H163234   3.883   8.557   7.456
21119TIP3    H263235   3.879   8.515   7.601
21120TIP3   OH263236   4.299   8.712   6.685
21120TIP3    H163237   4.252   8.798   6.695
21120TIP3    H263238   4.245   8.655   6.744
21121TIP3   OH263239   3.723   8.505   8.156
21121TIP3    H163240   3.744   8.484   8.249
21121TIP3    H263241   3.656   8.437   8.135
21122TIP3   OH263242   4.449   8.617   8.174
21122TIP3    H163243   4.389   8.559   8.124
21122TIP3    H263244   4.536   8.583   8.145
21123TIP3   OH263245   4.716   9.144   7.757
21123TIP3    H163246   4.620   9.135   7.767
21123TIP3    H263247   4.738   9.196   7.837
21124TIP3   OH263248   5.145   8.213   6.651
21124TIP3    H163249   5.068   8.161   6.618
21124TIP3    H263250   5.125   8.298   6.606
21125TIP3   OH263251   5.343   9.069   7.747
21125TIP3    H163252   5.245   9.063   7.739
21125TIP3    H263253   5.369   9.038   7.658
21126TIP3   OH263254   4.822   9.029   6.574
21126TIP3    H163255   4.801   8.956   6.634
21126TIP3    H263256   4.836   8.985   6.489
21127TIP3   OH263257   4.820   8.658   7.419
21127TIP3    H163258   4.726   8.633   7.427
21127TIP3    H263259   4.855   8.580   7.371
21128TIP3   OH263260   3.945   8.887   7.169
21128TIP3    H163261   3.948   8.967   7.113
21128TIP3    H263262   3.851   8.869   7.171
21129TIP3   OH263263   3.509   8.192   6.867
21129TIP3    H163264   3.555   8.275   6.889
21129TIP3    H263265   3.431   8.197   6.928
21130TIP3   OH263266   4.089   8.655   7.114
21130TIP3    H163267   4.053   8.744   7.131
21130TIP3    H263268   4.050   8.603   7.186
21131TIP3   OH263269   4.215   9.232   7.637
21131TIP3    H163270   4.254   9.303   7.583
21131TIP3    H263271   4.293   9.196   7.681
21132TIP3   OH263272   3.866   9.126   7.019
21132TIP3    H163273   3.780   9.132   7.064
21132TIP3    H263274   3.896   9.219   7.021
21133TIP3   OH263275   4.608   8.867   7.592
21133TIP3    H163276   4.601   8.862   7.690
21133TIP3    H263277   4.683   8.809   7.575
21134TIP3   OH263278   4.577   8.760   6.477
21134TIP3    H163279   4.630   8.734   6.555
21134TIP3    H263280   4.489   8.728   6.505
21135TIP3   OH263281   4.852   9.404   7.648
21135TIP3    H163282   4.776   9.343   7.638
21135TIP3    H263283   4.838   9.465   7.573
21136TIP3   OH263284   4.919   9.234   6.296
21136TIP3    H163285   4.959   9.305   6.244
21136TIP3    H263286   4.838   9.281   6.327
21137TIP3   OH263287   3.938   8.011   8.164
21137TIP3    H163288   3.841   8.015   8.175
21137TIP3    H263289   3.963   7.946   8.232
21138TIP3   OH263290   4.737   8.698   6.697
21138TIP3    H163291   4.726   8.627   6.763
21138TIP3    H263292   4.834   8.692   6.681
21139TIP3   OH263293   3.653   9.093   7.793
21139TIP3    H163294   3.707   9.021   7.829
21139TIP3    H263295   3.679   9.167   7.850
21140TIP3   OH263296   3.944   8.739   6.475
21140TIP3    H163297   3.959   8.649   6.443
21140TIP3    H263298   3.925   8.723   6.570
21141TIP3   OH263299   3.890   8.743   6.749
21141TIP3    H163300   3.963   8.713   6.805
21141TIP3    H263301   3.897   8.841   6.757
21142TIP3   OH263302   3.629   8.438   6.951
21142TIP3    H163303   3.562   8.481   7.007
21142TIP3    H263304   3.643   8.507   6.883
21143TIP3   OH263305   4.767   8.077   7.850
21143TIP3    H163306   4.853   8.110   7.880
21143TIP3    H263307   4.759   7.991   7.897
21144TIP3   OH263308   4.623   7.839   7.004
21144TIP3    H163309   4.626   7.830   6.908
21144TIP3    H263310   4.708   7.885   7.016
21145TIP3   OH263311   4.156   8.943   6.700
21145TIP3    H163312   4.069   8.972   6.733
21145TIP3    H263313   4.171   9.006   6.628
21146TIP3   OH263314   4.347   8.002   7.113
21146TIP3    H163315   4.415   8.066   7.081
21146TIP3    H263316   4.354   8.013   7.209
21147TIP3   OH263317   4.612   8.324   7.919
21147TIP3    H163318   4.632   8.376   7.998
21147TIP3    H263319   4.668   8.245   7.929
21148TIP3   OH263320   4.498   7.746   7.226
21148TIP3    H163321   4.464   7.830   7.262
21148TIP3    H263322   4.551   7.779   7.150
21149TIP3   OH263323   3.899   9.018   6.763
21149TIP3    H163324   3.867   9.087   6.700
21149TIP3    H263325   3.882   9.061   6.849
21150TIP3   OH263326   3.999   7.728   7.007
21150TIP3    H163327   3.997   7.821   7.036
21150TIP3    H263328   4.096   7.711   7.011
21151TIP3   OH263329   5.255   8.224   7.899
21151TIP3    H163330   5.157   8.222   7.903
21151TIP3    H263331   5.268   8.186   7.810
21152TIP3   OH263332   4.903   8.421   7.291
21152TIP3    H163333   4.830   8.357   7.293
21152TIP3    H263334   4.977   8.371   7.334
21153TIP3   OH263335   3.617   8.650   6.757
21153TIP3    H163336   3.685   8.719   6.765
21153TIP3    H263337   3.662   8.593   6.690
21154TIP3   OH263338   3.564   7.923   6.891
21154TIP3    H163339   3.556   8.020   6.884
21154TIP3    H263340   3.484   7.892   6.846
21155TIP3   OH263341   4.872   9.374   7.238
21155TIP3    H163342   4.830   9.422   7.164
21155TIP3    H263343   4.966   9.393   7.217
21156TIP3   OH263344   3.948   7.644   7.763
21156TIP3    H163345   3.915   7.609   7.678
21156TIP3    H263346   3.939   7.565   7.822
21157TIP3   OH263347   3.494   8.869   7.149
21157TIP3    H163348   3.414   8.893   7.198
21157TIP3    H263349   3.471   8.902   7.059
21158TIP3   OH263350   3.677   9.363   8.200
21158TIP3    H163351   3.764   9.341   8.238
21158TIP3    H263352   3.646   9.273   8.180
21159TIP3   OH263353   4.161   9.375   8.239
21159TIP3    H163354   4.241   9.321   8.244
21159TIP3    H263355   4.106   9.320   8.180
21160TIP3   OH263356   4.110   8.943   6.393
21160TIP3    H163357   4.053   8.871   6.428
21160TIP3    H263358   4.184   8.890   6.357
21161TIP3   OH263359   4.758   9.279   7.999
21161TIP3    H163360   4.755   9.203   8.062
21161TIP3    H263361   4.844   9.321   8.021
21162TIP3   OH263362   4.546   8.986   6.300
21162TIP3    H163363   4.588   8.920   6.357
21162TIP3    H263364   4.602   8.985   6.220
21163TIP3   OH263365   3.776   8.788   8.412
21163TIP3    H163366   3.795   8.692   8.405
21163TIP3    H263367   3.689   8.795   8.368
21164TIP3   OH263368   3.752   8.462   6.608
21164TIP3    H163369   3.805   8.423   6.679
21164TIP3    H263370   3.819   8.465   6.537
21165TIP3   OH263371   4.385   8.892   8.188
21165TIP3    H163372   4.340   8.906   8.102
21165TIP3    H263373   4.414   8.798   8.182
21166TIP3   OH263374   4.258   8.657   6.415
21166TIP3    H163375   4.263   8.669   6.512
21166TIP3    H263376   4.260   8.559   6.410
21167TIP3   OH263377   4.878   8.899   7.798
21167TIP3    H163378   4.950   8.945   7.750
21167TIP3    H263379   4.804   8.960   7.782
21168TIP3   OH263380   3.895   8.538   8.397
21168TIP3    H163381   3.965   8.474   8.378
21168TIP3    H263382   3.922   8.571   8.485
21169TIP3   OH263383   3.964   8.361   6.834
21169TIP3    H163384   3.936   8.315   6.914
21169TIP3    H263385   3.999   8.288   6.779
21170TIP3   OH263386   4.232   8.430   8.063
21170TIP3    H163387   4.152   8.486   8.065
21170TIP3    H263388   4.276   8.461   7.981
21171TIP3   OH263389   4.060   8.156   6.673
21171TIP3    H163390   4.034   8.154   6.579
21171TIP3    H263391   4.158   8.162   6.665
21172TIP3   OH263392   4.750   8.831   8.197
21172TIP3    H163393   4.824   8.805   8.141
21172TIP3    H263394   4.746   8.758   8.261
21173TIP3   OH263395   4.882   8.490   6.333
21173TIP3    H163396   4.863   8.440   6.251
21173TIP3    H263397   4.851   8.579   6.305
21174TIP3   OH263398   4.356   8.215   8.186
21174TIP3    H163399   4.351   8.133   8.132
21174TIP3    H263400   4.310   8.280   8.129
21175TIP3   OH263401   4.357   7.998   7.994
21175TIP3    H163402   4.382   8.040   7.909
21175TIP3    H263403   4.263   7.975   7.978
21176TIP3   OH263404   4.388   8.541   7.867
21176TIP3    H163405   4.466   8.544   7.811
21176TIP3    H263406   4.329   8.606   7.823
21177TIP3   OH263407   4.968   8.506   8.249
21177TIP3    H163408   5.014   8.421   8.255
21177TIP3    H263409   5.037   8.563   8.212
21178TIP3   OH263410   5.007   8.759   7.988
21178TIP3    H163411   4.950   8.811   7.926
21178TIP3    H263412   5.094   8.776   7.947
21179TIP3   OH263413   4.234   8.329   8.416
21179TIP3    H163414   4.164   8.262   8.431
21179TIP3    H263415   4.265   8.304   8.327
21180TIP3   OH263416   4.489   7.760   8.056
21180TIP3    H163417   4.444   7.845   8.035
21180TIP3    H263418   4.413   7.698   8.047
21181TIP3   OH263419   4.612   8.272   8.278
21181TIP3    H163420   4.590   8.259   8.372
21181TIP3    H263421   4.525   8.247   8.239
21182TIP3   OH263422   4.852   8.224   8.131
21182TIP3    H163423   4.776   8.221   8.192
21182TIP3    H263424   4.926   8.191   8.188
21183TIP3   OH263425   5.079   8.159   8.280
21183TIP3    H163426   5.098   8.065   8.300
21183TIP3    H263427   5.080   8.202   8.368
21184TIP3   OH263428   4.073   8.111   8.465
21184TIP3    H163429   4.074   8.019   8.430
21184TIP3    H263430   4.106   8.095   8.556
21185TIP3   OH263431   4.589   7.779   8.314
21185TIP3    H163432   4.651   7.704   8.309
21185TIP3    H263433   4.544   7.772   8.228
21186TIP3   OH263434   4.664   7.990   8.472
21186TIP3    H163435   4.634   7.916   8.414
21186TIP3    H263436   4.582   8.043   8.477
21187TIP3   OH263437   3.868   9.223   6.577
21187TIP3    H163438   3.963   9.217   6.556
21187TIP3    H263439   3.836   9.266   6.496
21188TIP3   OH263440   3.349   8.600   6.794
21188TIP3    H163441   3.443   8.621   6.779
21188TIP3    H263442   3.342   8.511   6.752
21189TIP3   OH263443   3.259   9.215   7.206
21189TIP3    H163444   3.193   9.151   7.171
21189TIP3    H263445   3.305   9.158   7.272
21190TIP3   OH263446   3.396   9.070   7.393
21190TIP3    H163447   3.386   8.992   7.449
21190TIP3    H263448   3.447   9.128   7.452
21191TIP3   OH263449   5.121   9.474   7.190
21191TIP3    H163450   5.156   9.501   7.277
21191TIP3    H263451   5.190   9.503   7.129
21192TIP3   OH263452   5.156   9.486   7.475
21192TIP3    H163453   5.113   9.398   7.469
21192TIP3    H263454   5.233   9.463   7.528
21193TIP3   OH263455   5.197   9.158   8.045
21193TIP3    H163456   5.124   9.166   8.109
21193TIP3    H263457   5.243   9.243   8.055
21194TIP3   OH263458   5.015   8.678   6.669
21194TIP3    H163459   5.087   8.738   6.640
21194TIP3    H263460   5.057   8.636   6.747
21195TIP3   OH263461   5.143   8.547   6.871
21195TIP3    H163462   5.079   8.498   6.928
21195TIP3    H263463   5.209   8.579   6.935
21196TIP3   OH263464   5.198   8.932   7.304
21196TIP3    H163465   5.251   8.868   7.253
21196TIP3    H263466   5.190   9.006   7.240
21197TIP3   OH263467   5.033   9.235   7.499
21197TIP3    H163468   4.959   9.274   7.550
21197TIP3    H263469   4.985   9.185   7.430
21198TIP3   OH263470   5.084   8.454   6.516
21198TIP3    H163471   5.010   8.455   6.450
21198TIP3    H263472   5.055   8.528   6.573
21199TIP3   OH263473   4.948   8.126   6.473
21199TIP3    H163474   4.912   8.158   6.390
21199TIP3    H263475   4.927   8.030   6.468
21200TIP3   OH263476   4.960   8.396   7.018
21200TIP3    H163477   4.977   8.301   7.014
21200TIP3    H263478   4.946   8.411   7.114
21201TIP3   OH263479   3.586   8.472   7.764
21201TIP3    H163480   3.585   8.442   7.671
21201TIP3    H263481   3.684   8.474   7.781
21202TIP3   OH263482   5.248   8.822   7.876
21202TIP3    H163483   5.321   8.757   7.867
21202TIP3    H263484   5.273   8.890   7.810
21203TIP3   OH263485   5.434   8.632   7.903
21203TIP3    H163486   5.359   8.578   7.935
21203TIP3    H263487   5.507   8.567   7.912
21204TIP3   OH263488   4.904   7.856   6.458
21204TIP3    H163489   4.976   7.833   6.521
21204TIP3    H263490   4.828   7.806   6.494
21205TIP3   OH263491   5.119   8.295   7.408
21205TIP3    H163492   5.206   8.320   7.367
21205TIP3    H263493   5.135   8.329   7.499
21206TIP3   OH263494   5.188   8.434   7.645
21206TIP3    H163495   5.107   8.468   7.688
21206TIP3    H263496   5.219   8.512   7.595
21207TIP3   OH263497   3.806   8.166   8.448
21207TIP3    H163498   3.903   8.152   8.442
21207TIP3    H263499   3.778   8.078   8.482
21208TIP3   OH263500   5.634   8.021   8.197
21208TIP3    H163501   5.694   7.955   8.156
21208TIP3    H263502   5.610   8.077   8.120
21209TIP3   OH263503   3.766   7.851   7.773
21209TIP3    H163504   3.826   7.775   7.781
21209TIP3    H263505   3.829   7.925   7.766
21210TIP3   OH263506   3.569   8.127   7.845
21210TIP3    H163507   3.615   8.112   7.760
21210TIP3    H263508   3.603   8.214   7.868
21211TIP3   OH263509   5.510   8.166   8.003
21211TIP3    H163510   5.420   8.202   8.018
21211TIP3    H263511   5.488   8.093   7.943
21212TIP3   OH263512   5.152   7.799   6.583
21212TIP3    H163513   5.190   7.728   6.528
21212TIP3    H263514   5.217   7.871   6.573
21213TIP3   OH263515   3.549   7.647   7.358
21213TIP3    H163516   3.455   7.625   7.368
21213TIP3    H263517   3.550   7.691   7.270
21214TIP3   OH263518   4.710   9.334   6.851
21214TIP3    H163519   4.756   9.311   6.767
21214TIP3    H263520   4.774   9.394   6.891
21215TIP3   OH263521   3.773   7.713   8.161
21215TIP3    H163522   3.720   7.700   8.242
21215TIP3    H263523   3.704   7.747   8.100
21216TIP3   OH263524   3.818   9.126   8.249
21216TIP3    H163525   3.730   9.093   8.223
21216TIP3    H263526   3.815   9.107   8.345
21217TIP3   OH263527   3.990   9.166   7.787
21217TIP3    H163528   3.938   9.239   7.748
21217TIP3    H263529   4.074   9.182   7.739
21218TIP3   OH263530   4.437   9.411   7.925
21218TIP3    H163531   4.482   9.416   8.012
21218TIP3    H263532   4.501   9.460   7.868
21219TIP3   OH263533   4.612   9.560   7.780
21219TIP3    H163534   4.683   9.512   7.735
21219TIP3    H263535   4.664   9.621   7.836
21220TIP3   OH263536   5.406   7.926   7.883
21220TIP3    H163537   5.317   7.922   7.844
21220TIP3    H263538   5.437   7.833   7.868
21221TIP3   OH263539   3.672   9.406   7.790
21221TIP3    H163540   3.579   9.431   7.772
21221TIP3    H263541   3.679   9.456   7.874
21222TIP3   OH263542   3.909   9.404   7.661
21222TIP3    H163543   3.821   9.409   7.706
21222TIP3    H263544   3.886   9.436   7.572
21223TIP3   OH263545   4.328   9.433   7.462
21223TIP3    H163546   4.259   9.453   7.395
21223TIP3    H263547   4.340   9.521   7.503
21224TIP3   OH263548   4.596   9.375   7.516
21224TIP3    H163549   4.501   9.388   7.493
21224TIP3    H263550   4.638   9.448   7.469
21225TIP3   OH263551   4.807   9.566   7.430
21225TIP3    H163552   4.791   9.649   7.381
21225TIP3    H263553   4.831   9.504   7.358
21226TIP3   OH263554   3.576   9.220   7.552
21226TIP3    H163555   3.603   9.196   7.643
21226TIP3    H263556   3.647   9.174   7.502
21227TIP3   OH263557   3.769   9.090   7.408
21227TIP3    H163558   3.785   9.005   7.456
21227TIP3    H263559   3.860   9.126   7.402
21228TIP3   OH263560   4.037   9.187   7.408
21228TIP3    H163561   4.067   9.096   7.393
21228TIP3    H263562   4.077   9.205   7.494
21229TIP3   OH263563   4.611   7.771   7.527
21229TIP3    H163564   4.532   7.814   7.484
21229TIP3    H263565   4.677   7.778   7.457
21230TIP3   OH263566   5.134   7.737   7.419
21230TIP3    H163567   5.184   7.773   7.342
21230TIP3    H263568   5.043   7.749   7.390
21231TIP3   OH263569   5.249   7.821   7.192
21231TIP3    H163570   5.306   7.773   7.129
21231TIP3    H263571   5.257   7.912   7.156
21232TIP3   OH263572   3.861   7.551   7.516
21232TIP3    H163573   3.768   7.519   7.514
21232TIP3    H263574   3.909   7.465   7.512
21233TIP3   OH263575   3.667   7.418   7.169
21233TIP3    H163576   3.677   7.472   7.088
21233TIP3    H263577   3.614   7.476   7.226
21234TIP3   OH263578   4.323   7.578   7.410
21234TIP3    H163579   4.360   7.637   7.342
21234TIP3    H263580   4.275   7.639   7.468
21235TIP3   OH263581   4.846   7.696   7.378
21235TIP3    H163582   4.846   7.713   7.282
21235TIP3    H263583   4.887   7.607   7.380
21236TIP3   OH263584   3.365   8.987   6.943
21236TIP3    H163585   3.281   8.952   6.909
21236TIP3    H263586   3.351   9.082   6.927
21237TIP3   OH263587   3.763   7.583   6.924
21237TIP3    H163588   3.809   7.516   6.870
21237TIP3    H263589   3.838   7.632   6.964
21238TIP3   OH263590   4.275   7.753   7.027
21238TIP3    H163591   4.341   7.701   7.075
21238TIP3    H263592   4.303   7.844   7.051
21239TIP3   OH263593   4.136   9.183   6.523
21239TIP3    H163594   4.226   9.202   6.488
21239TIP3    H263595   4.114   9.106   6.466
21240TIP3   OH263596   4.852   9.295   6.618
21240TIP3    H163597   4.846   9.197   6.604
21240TIP3    H263598   4.811   9.328   6.535
21241TIP3   OH263599   4.069   7.836   8.410
21241TIP3    H163600   4.034   7.762   8.463
21241TIP3    H263601   4.163   7.834   8.436
21242TIP3   OH263602   4.320   7.831   8.528
21242TIP3    H163603   4.401   7.796   8.487
21242TIP3    H263604   4.301   7.763   8.596
21243TIP3   OH263605   3.444   9.022   6.584
21243TIP3    H163606   3.440   9.039   6.679
21243TIP3    H263607   3.530   8.977   6.573
21244TIP3   OH263608   5.142   7.891   8.319
21244TIP3    H163609   5.172   7.850   8.402
21244TIP3    H263610   5.225   7.889   8.266
21245TIP3   OH263611   5.081   9.442   7.808
21245TIP3    H163612   5.004   9.410   7.757
21245TIP3    H263613   5.064   9.538   7.807
21246TIP3   OH263614   6.347   8.811   6.575
21246TIP3    H163615   6.321   8.904   6.556
21246TIP3    H263616   6.271   8.764   6.538
21247TIP3   OH263617   6.332   8.818   6.945
21247TIP3    H163618   6.360   8.790   7.035
21247TIP3    H263619   6.302   8.734   6.908
21248TIP3   OH263620   5.646   8.715   7.323
21248TIP3    H163621   5.680   8.645   7.383
21248TIP3    H263622   5.729   8.758   7.298
21249TIP3   OH263623   6.584   9.113   6.630
21249TIP3    H163624   6.584   9.044   6.698
21249TIP3    H263625   6.617   9.190   6.681
21250TIP3   OH263626   5.618   9.118   7.048
21250TIP3    H163627   5.609   9.020   7.049
21250TIP3    H263628   5.715   9.126   7.037
21251TIP3   OH263629   5.322   8.325   6.835
21251TIP3    H163630   5.268   8.406   6.838
21251TIP3    H263631   5.258   8.265   6.793
21252TIP3   OH263632   5.385   8.611   7.000
21252TIP3    H163633   5.432   8.532   7.036
21252TIP3    H263634   5.439   8.631   6.922
21253TIP3   OH263635   6.245   9.566   6.663
21253TIP3    H163636   6.287   9.504   6.599
21253TIP3    H263637   6.248   9.511   6.743
21254TIP3   OH263638   6.145   9.039   7.001
21254TIP3    H163639   6.182   8.960   6.956
21254TIP3    H263640   6.230   9.083   7.023
21255TIP3   OH263641   7.157   8.354   6.993
21255TIP3    H163642   7.187   8.437   7.035
21255TIP3    H263643   7.182   8.372   6.900
21256TIP3   OH263644   6.551   8.542   7.035
21256TIP3    H163645   6.603   8.463   7.057
21256TIP3    H263646   6.528   8.525   6.942
21257TIP3   OH263647   5.892   8.200   7.001
21257TIP3    H163648   5.874   8.273   6.937
21257TIP3    H263649   5.847   8.126   6.955
21258TIP3   OH263650   6.588   8.291   6.623
21258TIP3    H163651   6.662   8.276   6.687
21258TIP3    H263652   6.639   8.326   6.548
21259TIP3   OH263653   5.529   8.402   7.107
21259TIP3    H163654   5.613   8.380   7.151
21259TIP3    H263655   5.537   8.347   7.027
21260TIP3   OH263656   5.969   8.600   6.901
21260TIP3    H163657   6.064   8.575   6.912
21260TIP3    H263658   5.931   8.517   6.867
21261TIP3   OH263659   7.216   8.558   7.171
21261TIP3    H163660   7.132   8.598   7.140
21261TIP3    H263661   7.199   8.554   7.267
21262TIP3   OH263662   5.892   8.184   7.434
21262TIP3    H163663   5.833   8.220   7.364
21262TIP3    H263664   5.840   8.205   7.514
21263TIP3   OH263665   6.238   9.032   6.445
21263TIP3    H163666   6.200   9.011   6.359
21263TIP3    H263667   6.196   9.118   6.465
21264TIP3   OH263668   5.999   8.957   7.230
21264TIP3    H163669   5.936   9.023   7.266
21264TIP3    H263670   6.044   9.008   7.160
21265TIP3   OH263671   6.800   8.292   6.793
21265TIP3    H163672   6.799   8.244   6.876
21265TIP3    H263673   6.855   8.370   6.815
21266TIP3   OH263674   5.762   8.298   7.219
21266TIP3    H163675   5.825   8.371   7.239
21266TIP3    H263676   5.809   8.257   7.142
21267TIP3   OH263677   5.824   9.151   7.328
21267TIP3    H163678   5.799   9.235   7.285
21267TIP3    H263679   5.746   9.137   7.385
21268TIP3   OH263680   5.223   8.841   6.562
21268TIP3    H163681   5.182   8.865   6.477
21268TIP3    H263682   5.252   8.927   6.598
21269TIP3   OH263683   6.642   9.332   6.787
21269TIP3    H163684   6.556   9.337   6.832
21269TIP3    H263685   6.659   9.426   6.770
21270TIP3   OH263686   6.954   8.262   7.166
21270TIP3    H163687   6.866   8.292   7.136
21270TIP3    H263688   7.012   8.289   7.092
21271TIP3   OH263689   6.252   7.904   7.146
21271TIP3    H163690   6.239   7.809   7.161
21271TIP3    H263691   6.173   7.941   7.192
21272TIP3   OH263692   6.361   9.409   6.471
21272TIP3    H163693   6.412   9.326   6.454
21272TIP3    H263694   6.426   9.474   6.434
21273TIP3   OH263695   6.502   9.191   6.381
21273TIP3    H163696   6.475   9.109   6.338
21273TIP3    H263697   6.538   9.157   6.466
21274TIP3   OH263698   6.178   8.666   6.401
21274TIP3    H163699   6.098   8.716   6.375
21274TIP3    H263700   6.227   8.661   6.317
21275TIP3   OH263701   6.138   8.449   6.122
21275TIP3    H163702   6.207   8.498   6.169
21275TIP3    H263703   6.193   8.384   6.073
21276TIP3   OH263704   7.079   8.891   6.983
21276TIP3    H163705   7.002   8.952   6.989
21276TIP3    H263706   7.120   8.923   6.901
21277TIP3   OH263707   6.524   8.747   6.376
21277TIP3    H163708   6.472   8.772   6.455
21277TIP3    H263709   6.609   8.720   6.418
21278TIP3   OH263710   6.693   8.787   7.256
21278TIP3    H163711   6.740   8.860   7.296
21278TIP3    H263712   6.630   8.832   7.196
21279TIP3   OH263713   5.758   8.747   6.792
21279TIP3    H163714   5.715   8.689   6.725
21279TIP3    H263715   5.835   8.693   6.820
21280TIP3   OH263716   5.887   9.156   6.941
21280TIP3    H163717   5.867   9.113   6.857
21280TIP3    H263718   5.978   9.123   6.959
21281TIP3   OH263719   5.890   8.718   7.147
21281TIP3    H163720   5.925   8.694   7.058
21281TIP3    H263721   5.938   8.801   7.166
21282TIP3   OH263722   6.404   9.360   6.924
21282TIP3    H163723   6.414   9.430   6.989
21282TIP3    H263724   6.402   9.278   6.979
21283TIP3   OH263725   6.031   9.279   7.462
21283TIP3    H163726   5.966   9.336   7.509
21283TIP3    H263727   5.970   9.217   7.417
21284TIP3   OH263728   6.366   8.607   6.201
21284TIP3    H163729   6.426   8.664   6.254
21284TIP3    H263730   6.393   8.631   6.109
21285TIP3   OH263731   5.788   8.830   7.573
21285TIP3    H163732   5.788   8.918   7.616
21285TIP3    H263733   5.692   8.813   7.569
21286TIP3   OH263734   6.105   9.291   6.480
21286TIP3    H163735   6.188   9.340   6.492
21286TIP3    H263736   6.049   9.355   6.435
21287TIP3   OH263737   5.828   9.438   7.562
21287TIP3    H163738   5.795   9.440   7.470
21287TIP3    H263739   5.747   9.421   7.614
21288TIP3   OH263740   6.884   7.849   6.248
21288TIP3    H163741   6.802   7.869   6.299
21288TIP3    H263742   6.895   7.931   6.196
21289TIP3   OH263743   5.622   8.589   6.601
21289TIP3    H163744   5.559   8.632   6.540
21289TIP3    H263745   5.584   8.501   6.608
21290TIP3   OH263746   6.681   9.215   5.796
21290TIP3    H163747   6.690   9.312   5.782
21290TIP3    H263748   6.773   9.185   5.783
21291TIP3   OH263749   5.405   8.974   7.502
21291TIP3    H163750   5.343   8.950   7.431
21291TIP3    H263751   5.442   8.887   7.529
21292TIP3   OH263752   5.260   9.164   7.138
21292TIP3    H163753   5.355   9.152   7.123
21292TIP3    H263754   5.259   9.244   7.192
21293TIP3   OH263755   6.213   9.419   7.318
21293TIP3    H163756   6.231   9.483   7.388
21293TIP3    H263757   6.151   9.359   7.366
21294TIP3   OH263758   5.986   9.529   6.279
21294TIP3    H163759   5.945   9.512   6.192
21294TIP3    H263760   5.960   9.621   6.298
21295TIP3   OH263761   5.427   9.382   6.661
21295TIP3    H163762   5.476   9.371   6.745
21295TIP3    H263763   5.373   9.301   6.662
21296TIP3   OH263764   6.192   9.431   5.919
21296TIP3    H163765   6.251   9.362   5.882
21296TIP3    H263766   6.228   9.440   6.010
21297TIP3   OH263767   6.241   9.480   6.191
21297TIP3    H163768   6.154   9.489   6.235
21297TIP3    H263769   6.294   9.438   6.261
21298TIP3   OH263770   6.938   8.752   7.387
21298TIP3    H163771   7.006   8.819   7.369
21298TIP3    H263772   6.997   8.674   7.398
21299TIP3   OH263773   5.608   9.160   7.496
21299TIP3    H163774   5.661   9.136   7.575
21299TIP3    H263775   5.536   9.093   7.499
21300TIP3   OH263776   6.011   7.977   7.275
21300TIP3    H163777   5.920   7.947   7.250
21300TIP3    H263778   5.988   8.062   7.315
21301TIP3   OH263779   6.545   8.094   7.469
21301TIP3    H163780   6.613   8.068   7.534
21301TIP3    H263781   6.461   8.074   7.515
21302TIP3   OH263782   6.773   8.510   7.379
21302TIP3    H163783   6.728   8.521   7.465
21302TIP3    H263784   6.773   8.602   7.346
21303TIP3   OH263785   6.442   8.657   5.945
21303TIP3    H163786   6.410   8.628   5.857
21303TIP3    H263787   6.524   8.703   5.920
21304TIP3   OH263788   6.155   8.030   6.245
21304TIP3    H163789   6.123   8.028   6.338
21304TIP3    H263790   6.119   7.946   6.213
21305TIP3   OH263791   5.940   8.494   7.293
21305TIP3    H163792   5.891   8.517   7.375
21305TIP3    H263793   5.926   8.575   7.239
21306TIP3   OH263794   5.825   8.380   6.808
21306TIP3    H163795   5.732   8.353   6.824
21306TIP3    H263796   5.840   8.340   6.720
21307TIP3   OH263797   6.315   8.466   6.533
21307TIP3    H163798   6.263   8.538   6.493
21307TIP3    H263799   6.371   8.437   6.459
21308TIP3   OH263800   6.489   8.752   7.623
21308TIP3    H163801   6.461   8.671   7.671
21308TIP3    H263802   6.580   8.728   7.597
21309TIP3   OH263803   6.472   8.495   6.775
21309TIP3    H163804   6.416   8.526   6.702
21309TIP3    H263805   6.506   8.413   6.733
21310TIP3   OH263806   5.758   8.526   7.504
21310TIP3    H163807   5.795   8.586   7.570
21310TIP3    H263808   5.750   8.442   7.554
21311TIP3   OH263809   5.811   8.000   6.213
21311TIP3    H163810   5.803   7.997   6.310
21311TIP3    H263811   5.731   8.050   6.189
21312TIP3   OH263812   5.351   8.052   7.086
21312TIP3    H163813   5.433   8.075   7.134
21312TIP3    H263814   5.382   8.014   7.002
21313TIP3   OH263815   5.338   8.025   6.601
21313TIP3    H163816   5.380   8.066   6.523
21313TIP3    H263817   5.273   8.096   6.623
21314TIP3   OH263818   6.425   8.732   7.184
21314TIP3    H163819   6.482   8.669   7.133
21314TIP3    H263820   6.448   8.702   7.274
21315TIP3   OH263821   6.150   8.202   6.870
21315TIP3    H163822   6.069   8.201   6.925
21315TIP3    H263823   6.220   8.206   6.937
21316TIP3   OH263824   5.586   8.257   6.880
21316TIP3    H163825   5.491   8.264   6.853
21316TIP3    H263826   5.609   8.166   6.854
21317TIP3   OH263827   5.859   8.256   6.566
21317TIP3    H163828   5.953   8.270   6.545
21317TIP3    H263829   5.814   8.279   6.481
21318TIP3   OH263830   6.646   8.277   7.073
21318TIP3    H163831   6.606   8.291   7.162
21318TIP3    H263832   6.581   8.218   7.032
21319TIP3   OH263833   5.695   8.289   6.345
21319TIP3    H163834   5.623   8.244   6.298
21319TIP3    H263835   5.747   8.323   6.270
21320TIP3   OH263836   5.764   9.077   7.710
21320TIP3    H163837   5.846   9.107   7.754
21320TIP3    H263838   5.703   9.076   7.786
21321TIP3   OH263839   6.236   8.526   6.962
21321TIP3    H163840   6.311   8.494   6.910
21321TIP3    H263841   6.256   8.493   7.051
21322TIP3   OH263842   5.763   8.019   6.843
21322TIP3    H163843   5.730   7.938   6.886
21322TIP3    H263844   5.813   7.984   6.768
21323TIP3   OH263845   6.212   8.418   7.265
21323TIP3    H163846   6.126   8.463   7.271
21323TIP3    H263847   6.273   8.479   7.310
21324TIP3   OH263848   5.947   8.821   6.349
21324TIP3    H163849   5.876   8.753   6.340
21324TIP3    H263850   5.932   8.852   6.442
21325TIP3   OH263851   6.850   9.042   6.987
21325TIP3    H163852   6.878   9.094   6.908
21325TIP3    H263853   6.764   9.005   6.956
21326TIP3   OH263854   6.409   8.130   6.215
21326TIP3    H163855   6.312   8.117   6.219
21326TIP3    H263856   6.420   8.226   6.235
21327TIP3   OH263857   6.327   9.123   7.355
21327TIP3    H163858   6.379   9.100   7.435
21327TIP3    H263859   6.323   9.218   7.361
21328TIP3   OH263860   6.478   8.378   6.316
21328TIP3    H163861   6.575   8.382   6.332
21328TIP3    H263862   6.462   8.457   6.261
21329TIP3   OH263863   5.642   8.841   7.028
21329TIP3    H163864   5.677   8.814   6.941
21329TIP3    H263865   5.684   8.775   7.086
21330TIP3   OH263866   6.095   8.968   6.170
21330TIP3    H163867   6.048   9.054   6.179
21330TIP3    H263868   6.042   8.912   6.231
21331TIP3   OH263869   5.515   8.765   7.643
21331TIP3    H163870   5.543   8.745   7.735
21331TIP3    H263871   5.453   8.694   7.624
21332TIP3   OH263872   6.238   8.858   7.670
21332TIP3    H163873   6.180   8.814   7.605
21332TIP3    H263874   6.326   8.838   7.633
21333TIP3   OH263875   6.480   9.377   7.265
21333TIP3    H163876   6.383   9.384   7.250
21333TIP3    H263877   6.487   9.415   7.354
21334TIP3   OH263878   6.920   8.466   6.154
21334TIP3    H163879   6.857   8.420   6.092
21334TIP3    H263880   6.917   8.554   6.112
21335TIP3   OH263881   6.614   9.286   6.059
21335TIP3    H163882   6.599   9.214   6.121
21335TIP3    H263883   6.632   9.240   5.975
21336TIP3   OH263884   6.606   8.913   6.908
21336TIP3    H163885   6.513   8.885   6.908
21336TIP3    H263886   6.648   8.838   6.861
21337TIP3   OH263887   5.742   9.145   6.659
21337TIP3    H163888   5.748   9.223   6.601
21337TIP3    H263889   5.647   9.125   6.654
21338TIP3   OH263890   5.305   8.448   6.354
21338TIP3    H163891   5.352   8.531   6.375
21338TIP3    H263892   5.228   8.454   6.415
21339TIP3   OH263893   5.882   8.911   6.598
21339TIP3    H163894   5.849   9.000   6.618
21339TIP3    H263895   5.846   8.860   6.673
21340TIP3   OH263896   6.008   9.479   7.128
21340TIP3    H163897   6.052   9.548   7.076
21340TIP3    H263898   6.083   9.446   7.180
21341TIP3   OH263899   5.663   9.382   6.506
21341TIP3    H163900   5.576   9.392   6.550
21341TIP3    H263901   5.695   9.475   6.507
21342TIP3   OH263902   6.401   9.125   7.078
21342TIP3    H163903   6.395   9.107   7.175
21342TIP3    H263904   6.479   9.072   7.054
21343TIP3   OH263905   6.373   9.013   5.964
21343TIP3    H163906   6.428   8.989   6.042
21343TIP3    H263907   6.285   8.986   5.995
21344TIP3   OH263908   6.716   9.491   5.784
21344TIP3    H163909   6.759   9.566   5.739
21344TIP3    H263910   6.635   9.537   5.814
21345TIP3   OH263911   5.735   8.269   7.652
21345TIP3    H163912   5.637   8.270   7.661
21345TIP3    H263913   5.760   8.202   7.718
21346TIP3   OH263914   6.533   8.950   6.183
21346TIP3    H163915   6.524   8.882   6.252
21346TIP3    H263916   6.630   8.947   6.168
21347TIP3   OH263917   5.447   9.353   7.284
21347TIP3    H163918   5.499   9.274   7.305
21347TIP3    H263919   5.487   9.417   7.345
21348TIP3   OH263920   5.739   8.996   5.963
21348TIP3    H163921   5.757   8.905   5.931
21348TIP3    H263922   5.722   8.980   6.057
21349TIP3   OH263923   5.685   8.999   6.238
21349TIP3    H163924   5.761   8.971   6.291
21349TIP3    H263925   5.693   9.097   6.243
21350TIP3   OH263926   5.424   8.694   6.437
21350TIP3    H163927   5.358   8.738   6.494
21350TIP3    H263928   5.440   8.763   6.371
21351TIP3   OH263929   6.561   8.333   7.329
21351TIP3    H163930   6.646   8.376   7.353
21351TIP3    H263931   6.559   8.252   7.384
21352TIP3   OH263932   6.446   8.085   6.494
21352TIP3    H163933   6.436   8.107   6.399
21352TIP3    H263934   6.489   8.166   6.529
21353TIP3   OH263935   5.951   9.197   6.185
21353TIP3    H163936   5.865   9.229   6.219
21353TIP3    H263937   5.971   9.265   6.119
21354TIP3   OH263938   6.140   8.260   6.596
21354TIP3    H163939   6.206   8.330   6.577
21354TIP3    H263940   6.147   8.254   6.694
21355TIP3   OH263941   6.398   8.569   7.413
21355TIP3    H163942   6.427   8.627   7.485
21355TIP3    H263943   6.466   8.500   7.412
21356TIP3   OH263944   6.287   7.990   6.700
21356TIP3    H163945   6.282   8.066   6.761
21356TIP3    H263946   6.346   8.027   6.631
21357TIP3   OH263947   5.692   9.274   6.249
21357TIP3    H163948   5.664   9.343   6.186
21357TIP3    H263949   5.679   9.318   6.335
21358TIP3   OH263950   5.796   7.985   6.490
21358TIP3    H163951   5.794   8.076   6.524
21358TIP3    H263952   5.893   7.967   6.498
21359TIP3   OH263953   7.040   8.471   7.373
21359TIP3    H163954   6.944   8.478   7.392
21359TIP3    H263955   7.035   8.419   7.291
21360TIP3   OH263956   6.699   8.678   6.775
21360TIP3    H163957   6.626   8.614   6.786
21360TIP3    H263958   6.774   8.631   6.818
21361TIP3   OH263959   5.413   8.907   6.243
21361TIP3    H163960   5.481   8.976   6.252
21361TIP3    H263961   5.457   8.850   6.177
21362TIP3   OH263962   5.362   8.178   6.374
21362TIP3    H163963   5.357   8.276   6.371
21362TIP3    H263964   5.274   8.153   6.343
21363TIP3   OH263965   6.637   9.613   6.753
21363TIP3    H163966   6.639   9.635   6.658
21363TIP3    H263967   6.729   9.638   6.771
21364TIP3   OH263968   5.744   7.899   7.252
21364TIP3    H163969   5.714   7.868   7.165
21364TIP3    H263970   5.733   7.819   7.308
21365TIP3   OH263971   5.291   9.126   6.638
21365TIP3    H163972   5.208   9.151   6.681
21365TIP3    H263973   5.273   9.158   6.546
21366TIP3   OH263974   5.434   9.647   7.694
21366TIP3    H163975   5.520   9.650   7.739
21366TIP3    H263976   5.414   9.552   7.697
21367TIP3   OH263977   5.905   9.200   5.878
21367TIP3    H163978   5.849   9.128   5.915
21367TIP3    H263979   5.980   9.148   5.844
21368TIP3   OH263980   6.341   9.241   5.786
21368TIP3    H163981   6.387   9.179   5.844
21368TIP3    H263982   6.398   9.243   5.707
21369TIP3   OH263983   5.571   9.056   7.906
21369TIP3    H163984   5.589   8.960   7.899
21369TIP3    H263985   5.484   9.062   7.859
21370TIP3   OH263986   5.547   8.718   6.096
21370TIP3    H163987   5.602   8.681   6.167
21370TIP3    H263988   5.614   8.722   6.024
21371TIP3   OH263989   6.168   9.139   7.669
21371TIP3    H163990   6.152   9.164   7.576
21371TIP3    H263991   6.224   9.060   7.659
21372TIP3   OH263992   6.052   8.913   5.902
21372TIP3    H163993   6.059   8.927   5.999
21372TIP3    H263994   6.055   8.815   5.897
21373TIP3   OH263995   6.632   9.131   7.282
21373TIP3    H163996   6.714   9.166   7.243
21373TIP3    H263997   6.574   9.208   7.276
21374TIP3   OH263998   5.688   8.794   7.882
21374TIP3    H163999   5.764   8.742   7.856
21374TIP3    H264000   5.714   8.825   7.971
21375TIP3   OH264001   5.758   8.618   6.319
21375TIP3    H164002   5.733   8.573   6.401
21375TIP3    H264003   5.794   8.544   6.266
21376TIP3   OH264004   6.023   8.681   7.545
21376TIP3    H164005   5.949   8.745   7.548
21376TIP3    H264006   6.074   8.714   7.467
21377TIP3   OH264007   5.857   8.412   6.160
21377TIP3    H164008   5.830   8.412   6.066
21377TIP3    H264009   5.954   8.419   6.152
21378TIP3   OH264010   6.679   8.746   5.820
21378TIP3    H164011   6.658   8.697   5.738
21378TIP3    H264012   6.648   8.835   5.794
21379TIP3   OH264013   6.141   8.467   7.677
21379TIP3    H164014   6.149   8.389   7.619
21379TIP3    H264015   6.106   8.534   7.614
21380TIP3   OH264016   6.151   8.256   7.483
21380TIP3    H164017   6.181   8.299   7.400
21380TIP3    H264018   6.058   8.234   7.461
21381TIP3   OH264019   6.183   8.794   7.356
21381TIP3    H164020   6.261   8.784   7.299
21381TIP3    H264021   6.133   8.864   7.310
21382TIP3   OH264022   6.016   8.590   7.896
21382TIP3    H164023   5.953   8.516   7.909
21382TIP3    H264024   6.055   8.564   7.809
21383TIP3   OH264025   6.284   8.023   7.546
21383TIP3    H164026   6.237   8.106   7.522
21383TIP3    H264027   6.214   7.956   7.531
21384TIP3   OH264028   6.398   8.537   7.757
21384TIP3    H164029   6.412   8.515   7.851
21384TIP3    H264030   6.307   8.504   7.742
21385TIP3   OH264031   6.628   8.500   7.607
21385TIP3    H164032   6.550   8.484   7.664
21385TIP3    H264033   6.694   8.442   7.651
21386TIP3   OH264034   6.794   8.352   7.752
21386TIP3    H164035   6.859   8.282   7.776
21386TIP3    H264036   6.831   8.429   7.797
21387TIP3   OH264037   5.865   8.366   7.954
21387TIP3    H164038   5.873   8.277   7.914
21387TIP3    H264039   5.902   8.349   8.043
21388TIP3   OH264040   6.376   8.027   7.802
21388TIP3    H164041   6.447   7.960   7.795
21388TIP3    H264042   6.339   8.023   7.712
21389TIP3   OH264043   6.429   8.236   7.969
21389TIP3    H164044   6.415   8.167   7.901
21389TIP3    H264045   6.356   8.299   7.950
21390TIP3   OH264046   5.663   9.477   6.063
21390TIP3    H164047   5.759   9.473   6.045
21390TIP3    H264048   5.634   9.523   5.982
21391TIP3   OH264049   5.145   8.856   6.281
21391TIP3    H164050   5.239   8.879   6.266
21391TIP3    H264051   5.139   8.768   6.239
21392TIP3   OH264052   5.052   9.470   6.695
21392TIP3    H164053   4.988   9.405   6.658
21392TIP3    H264054   5.100   9.415   6.759
21393TIP3   OH264055   5.190   9.327   6.881
21393TIP3    H164056   5.185   9.247   6.935
21393TIP3    H264057   5.245   9.384   6.938
21394TIP3   OH264058   6.812   8.934   6.154
21394TIP3    H164059   6.884   8.995   6.127
21394TIP3    H264060   6.854   8.892   6.233
21395TIP3   OH264061   6.937   8.801   6.356
21395TIP3    H164062   6.876   8.758   6.419
21395TIP3    H264063   7.007   8.836   6.414
21396TIP3   OH264064   6.964   9.174   6.782
21396TIP3    H164065   7.045   9.132   6.748
21396TIP3    H264066   6.968   9.263   6.746
21397TIP3   OH264067   6.879   8.706   6.006
21397TIP3    H164068   6.807   8.710   5.939
21397TIP3    H264069   6.854   8.783   6.062
21398TIP3   OH264070   6.748   8.382   5.961
21398TIP3    H164071   6.710   8.418   5.880
21398TIP3    H264072   6.723   8.287   5.953
21399TIP3   OH264073   6.753   8.654   6.505
21399TIP3    H164074   6.766   8.558   6.502
21399TIP3    H264075   6.743   8.671   6.601
21400TIP3   OH264076   5.382   8.729   7.252
21400TIP3    H164077   5.381   8.699   7.158
21400TIP3    H264078   5.479   8.732   7.268
21401TIP3   OH264079   6.694   8.116   5.951
21401TIP3    H164080   6.772   8.083   5.999
21401TIP3    H264081   6.625   8.050   5.971
21402TIP3   OH264082   6.750   8.370   6.400
21402TIP3    H164083   6.792   8.282   6.416
21402TIP3    H264084   6.810   8.404   6.331
21403TIP3   OH264085   6.912   8.542   6.884
21403TIP3    H164086   7.000   8.568   6.847
21403TIP3    H264087   6.922   8.581   6.973
21404TIP3   OH264088   6.975   8.676   7.115
21404TIP3    H164089   6.918   8.712   7.185
21404TIP3    H264090   7.007   8.758   7.071
21405TIP3   OH264091   5.599   8.419   7.932
21405TIP3    H164092   5.696   8.409   7.926
21405TIP3    H264093   5.575   8.332   7.969
21406TIP3   OH264094   6.860   8.121   6.439
21406TIP3    H164095   6.911   8.105   6.521
21406TIP3    H264096   6.802   8.042   6.437
21407TIP3   OH264097   5.561   8.108   7.266
21407TIP3    H164098   5.623   8.032   7.269
21407TIP3    H264099   5.623   8.182   7.253
21408TIP3   OH264100   5.366   8.384   7.333
21408TIP3    H164101   5.411   8.366   7.248
21408TIP3    H264102   5.401   8.471   7.353
21409TIP3   OH264103   7.291   8.410   7.452
21409TIP3    H164104   7.197   8.436   7.441
21409TIP3    H264105   7.283   8.316   7.426
21410TIP3   OH264106   6.943   8.057   6.068
21410TIP3    H164107   6.983   7.984   6.018
21410TIP3    H264108   7.011   8.127   6.062
21411TIP3   OH264109   5.341   7.893   6.837
21411TIP3    H164110   5.246   7.895   6.854
21411TIP3    H264111   5.347   7.946   6.754
21412TIP3   OH264112   6.514   9.598   6.344
21412TIP3    H164113   6.551   9.565   6.259
21412TIP3    H264114   6.578   9.667   6.363
21413TIP3   OH264115   5.567   7.969   7.649
21413TIP3    H164116   5.514   7.961   7.729
21413TIP3    H264117   5.502   8.004   7.586
21414TIP3   OH264118   5.606   9.396   7.736
21414TIP3    H164119   5.520   9.361   7.706
21414TIP3    H264120   5.605   9.370   7.829
21415TIP3   OH264121   5.781   9.425   7.277
21415TIP3    H164122   5.735   9.499   7.233
21415TIP3    H264123   5.867   9.433   7.231
21416TIP3   OH264124   7.194   8.169   7.367
21416TIP3    H164125   7.105   8.162   7.328
21416TIP3    H264126   7.229   8.078   7.353
21417TIP3   OH264127   5.461   9.683   7.294
21417TIP3    H164128   5.374   9.720   7.267
21417TIP3    H264129   5.462   9.708   7.387
21418TIP3   OH264130   5.694   9.653   7.148
21418TIP3    H164131   5.609   9.670   7.195
21418TIP3    H264132   5.675   9.689   7.060
21419TIP3   OH264133   6.125   9.741   6.954
21419TIP3    H164134   6.063   9.723   6.880
21419TIP3    H264135   6.058   9.757   7.026
21420TIP3   OH264136   6.399   9.639   6.996
21420TIP3    H164137   6.308   9.651   6.964
21420TIP3    H264138   6.452   9.641   6.914
21421TIP3   OH264139   5.371   9.474   7.042
21421TIP3    H164140   5.402   9.449   7.131
21421TIP3    H264141   5.443   9.433   6.988
21422TIP3   OH264142   5.564   9.347   6.896
21422TIP3    H164143   5.582   9.261   6.941
21422TIP3    H264144   5.655   9.383   6.888
21423TIP3   OH264145   5.831   9.442   6.895
21423TIP3    H164146   5.864   9.352   6.876
21423TIP3    H264147   5.870   9.455   6.983
21424TIP3   OH264148   6.407   8.098   6.982
21424TIP3    H164149   6.366   8.028   7.035
21424TIP3    H264150   6.481   8.052   6.939
21425TIP3   OH264151   6.932   7.978   6.893
21425TIP3    H164152   6.972   8.028   6.819
21425TIP3    H264153   6.838   7.999   6.884
21426TIP3   OH264154   7.027   8.079   6.657
21426TIP3    H164155   7.100   8.027   6.615
21426TIP3    H264156   7.061   8.170   6.641
21427TIP3   OH264157   5.658   7.807   7.005
21427TIP3    H164158   5.565   7.775   7.002
21427TIP3    H264159   5.707   7.723   6.999
21428TIP3   OH264160   5.447   7.675   6.650
21428TIP3    H164161   5.474   7.734   6.577
21428TIP3    H264162   5.411   7.738   6.715
21429TIP3   OH264163   6.100   7.839   6.882
21429TIP3    H164164   6.157   7.889   6.822
21429TIP3    H264165   6.123   7.878   6.968
21430TIP3   OH264166   6.647   7.985   6.868
21430TIP3    H164167   6.648   7.953   6.777
21430TIP3    H264168   6.632   7.902   6.919
21431TIP3   OH264169   6.678   7.906   6.428
21431TIP3    H164170   6.590   7.948   6.435
21431TIP3    H264171   6.663   7.821   6.475
21432TIP3   OH264172   5.159   9.245   6.433
21432TIP3    H164173   5.076   9.210   6.396
21432TIP3    H264174   5.148   9.339   6.413
21433TIP3   OH264175   5.560   7.835   6.414
21433TIP3    H164176   5.609   7.774   6.356
21433TIP3    H264177   5.632   7.890   6.451
21434TIP3   OH264178   6.073   8.009   6.513
21434TIP3    H164179   6.136   7.964   6.572
21434TIP3    H264180   6.095   8.102   6.537
21435TIP3   OH264181   5.932   9.439   6.011
21435TIP3    H164182   6.022   9.459   5.976
21435TIP3    H264183   5.911   9.362   5.953
21436TIP3   OH264184   6.646   9.551   6.105
21436TIP3    H164185   6.639   9.454   6.089
21436TIP3    H264186   6.608   9.587   6.023
21437TIP3   OH264187   5.863   8.088   7.896
21437TIP3    H164188   5.834   8.014   7.953
21437TIP3    H264189   5.959   8.090   7.918
21438TIP3   OH264190   6.113   8.088   8.015
21438TIP3    H164191   6.197   8.065   7.971
21438TIP3    H264192   6.104   8.015   8.079
21439TIP3   OH264193   5.239   9.275   6.070
21439TIP3    H164194   5.242   9.298   6.164
21439TIP3    H264195   5.326   9.232   6.057
21440TIP3   OH264196   6.944   8.121   7.797
21440TIP3    H164197   6.964   8.089   7.887
21440TIP3    H264198   7.032   8.130   7.754
21441TIP3   OH264199   7.118   8.578   6.317
21441TIP3    H164200   7.073   8.663   6.330
21441TIP3    H264201   7.047   8.525   6.279
21442TIP3   OH264202   7.176   8.862   6.477
21442TIP3    H164203   7.224   8.788   6.520
21442TIP3    H264204   7.245   8.899   6.420
21443TIP3   OH264205   7.681   8.457   6.489
21443TIP3    H164206   7.673   8.530   6.424
21443TIP3    H264207   7.637   8.385   6.441
21444TIP3   OH264208   8.363   8.519   6.092
21444TIP3    H164209   8.378   8.535   6.188
21444TIP3    H264210   8.393   8.602   6.053
21445TIP3   OH264211   7.322   8.662   6.591
21445TIP3    H164212   7.405   8.643   6.638
21445TIP3    H264213   7.335   8.605   6.511
21446TIP3   OH264214   7.762   8.858   6.377
21446TIP3    H164215   7.847   8.832   6.420
21446TIP3    H264216   7.730   8.770   6.350
21447TIP3   OH264217   7.667   8.428   6.902
21447TIP3    H164218   7.630   8.476   6.825
21447TIP3    H264219   7.608   8.462   6.972
21448TIP3   OH264220   7.558   8.575   6.699
21448TIP3    H164221   7.615   8.652   6.718
21448TIP3    H264222   7.609   8.531   6.626
21449TIP3   OH264223   7.019   9.098   6.049
21449TIP3    H164224   6.978   9.125   5.965
21449TIP3    H264225   7.049   9.184   6.086
21450TIP3   OH264226   8.042   8.160   6.618
21450TIP3    H164227   8.040   8.068   6.650
21450TIP3    H264228   7.972   8.200   6.674
21451TIP3   OH264229   7.952   8.896   5.861
21451TIP3    H164230   7.889   8.970   5.854
21451TIP3    H264231   8.025   8.924   5.804
21452TIP3   OH264232   7.929   8.707   5.601
21452TIP3    H164233   7.984   8.748   5.670
21452TIP3    H264234   7.993   8.645   5.560
21453TIP3   OH264235   7.569   9.014   6.268
21453TIP3    H164236   7.519   8.951   6.211
21453TIP3    H264237   7.640   8.954   6.304
21454TIP3   OH264238   8.180   8.870   5.689
21454TIP3    H164239   8.235   8.935   5.736
21454TIP3    H264240   8.197   8.892   5.595
21455TIP3   OH264241   8.675   8.107   5.729
21455TIP3    H164242   8.595   8.122   5.784
21455TIP3    H264243   8.683   8.192   5.682
21456TIP3   OH264244   7.420   8.851   6.087
21456TIP3    H164245   7.353   8.889   6.026
21456TIP3    H264246   7.386   8.762   6.100
21457TIP3   OH264247   7.222   9.636   6.165
21457TIP3    H164248   7.236   9.644   6.260
21457TIP3    H264249   7.147   9.573   6.165
21458TIP3   OH264250   7.993   9.689   5.411
21458TIP3    H164251   8.046   9.621   5.364
21458TIP3    H264252   8.030   9.682   5.500
21459TIP3   OH264253   7.810   8.234   6.759
21459TIP3    H164254   7.719   8.205   6.738
21459TIP3    H264255   7.789   8.319   6.802
21460TIP3   OH264256   8.238   8.920   5.429
21460TIP3    H164257   8.205   8.886   5.344
21460TIP3    H264258   8.325   8.956   5.401
21461TIP3   OH264259   7.952   8.287   5.732
21461TIP3    H164260   7.924   8.285   5.826
21461TIP3    H264261   7.915   8.202   5.702
21462TIP3   OH264262   7.618   8.634   6.293
21462TIP3    H164263   7.527   8.604   6.312
21462TIP3    H264264   7.634   8.592   6.206
21463TIP3   OH264265   8.100   8.705   6.003
21463TIP3    H164266   8.047   8.782   5.974
21463TIP3    H264267   8.150   8.681   5.923
21464TIP3   OH264268   7.606   8.256   5.698
21464TIP3    H164269   7.603   8.253   5.796
21464TIP3    H264270   7.525   8.307   5.679
21465TIP3   OH264271   7.151   8.302   6.571
21465TIP3    H164272   7.227   8.335   6.623
21465TIP3    H264273   7.192   8.270   6.490
21466TIP3   OH264274   7.125   8.283   6.089
21466TIP3    H164275   7.173   8.322   6.012
21466TIP3    H264276   7.066   8.357   6.111
21467TIP3   OH264277   7.949   8.449   6.364
21467TIP3    H164278   7.868   8.449   6.417
21467TIP3    H264279   7.996   8.522   6.412
21468TIP3   OH264280   7.382   8.513   6.365
21468TIP3    H164281   7.287   8.517   6.338
21468TIP3    H264282   7.408   8.422   6.342
21469TIP3   OH264283   7.652   8.508   6.052
21469TIP3    H164284   7.748   8.522   6.041
21469TIP3    H264285   7.613   8.537   5.967
21470TIP3   OH264286   7.488   8.549   5.830
21470TIP3    H164287   7.417   8.502   5.781
21470TIP3    H264288   7.542   8.582   5.755
21471TIP3   OH264289   7.553   8.276   6.326
21471TIP3    H164290   7.526   8.195   6.374
21471TIP3    H264291   7.617   8.242   6.263
21472TIP3   OH264292   7.740   9.084   5.835
21472TIP3    H164293   7.674   9.011   5.828
21472TIP3    H264294   7.732   9.109   5.929
21473TIP3   OH264295   8.199   8.394   5.683
21473TIP3    H164296   8.105   8.375   5.703
21473TIP3    H264297   8.213   8.484   5.720
21474TIP3   OH264298   8.271   8.631   5.793
21474TIP3    H164299   8.368   8.631   5.808
21474TIP3    H264300   8.257   8.716   5.745
21475TIP3   OH264301   7.428   9.040   6.505
21475TIP3    H164302   7.471   9.053   6.419
21475TIP3    H264303   7.494   8.986   6.551
21476TIP3   OH264304   7.880   9.223   5.638
21476TIP3    H164305   7.854   9.311   5.670
21476TIP3    H264306   7.842   9.167   5.709
21477TIP3   OH264307   8.720   8.713   5.624
21477TIP3    H164308   8.651   8.664   5.573
21477TIP3    H264309   8.713   8.797   5.574
21478TIP3   OH264310   7.537   9.392   6.158
21478TIP3    H164311   7.573   9.470   6.111
21478TIP3    H264312   7.444   9.394   6.133
21479TIP3   OH264313   7.099   8.705   5.839
21479TIP3    H164314   7.148   8.787   5.862
21479TIP3    H264315   7.024   8.711   5.902
21480TIP3   OH264316   7.701   9.175   6.092
21480TIP3    H164317   7.648   9.255   6.108
21480TIP3    H264318   7.656   9.110   6.150
21481TIP3   OH264319   7.394   9.671   5.956
21481TIP3    H164320   7.326   9.660   6.025
21481TIP3    H264321   7.477   9.672   6.008
21482TIP3   OH264322   8.163   9.272   5.448
21482TIP3    H164323   8.209   9.247   5.529
21482TIP3    H264324   8.072   9.244   5.470
21483TIP3   OH264325   7.474   8.496   7.096
21483TIP3    H164326   7.384   8.523   7.129
21483TIP3    H264327   7.506   8.437   7.164
21484TIP3   OH264328   7.537   9.251   5.449
21484TIP3    H164329   7.552   9.160   5.418
21484TIP3    H264330   7.518   9.237   5.544
21485TIP3   OH264331   7.483   9.257   5.722
21485TIP3    H164332   7.560   9.224   5.771
21485TIP3    H264333   7.490   9.354   5.732
21486TIP3   OH264334   7.218   8.949   5.923
21486TIP3    H164335   7.153   8.994   5.982
21486TIP3    H264336   7.234   9.020   5.858
21487TIP3   OH264337   8.239   8.320   5.963
21487TIP3    H164338   8.226   8.354   5.873
21487TIP3    H264339   8.280   8.398   6.007
21488TIP3   OH264340   7.747   9.467   5.685
21488TIP3    H164341   7.653   9.491   5.700
21488TIP3    H264342   7.769   9.529   5.614
21489TIP3   OH264343   7.928   8.509   6.089
21489TIP3    H164344   7.993   8.580   6.065
21489TIP3    H264345   7.939   8.506   6.187
21490TIP3   OH264346   8.078   8.247   6.191
21490TIP3    H164347   8.064   8.324   6.250
21490TIP3    H264348   8.139   8.285   6.124
21491TIP3   OH264349   7.486   9.534   5.737
21491TIP3    H164350   7.462   9.599   5.666
21491TIP3    H264351   7.446   9.580   5.814
21492TIP3   OH264352   7.593   8.242   5.974
21492TIP3    H164353   7.591   8.332   6.012
21492TIP3    H264354   7.688   8.221   5.984
21493TIP3   OH264355   7.208   9.163   5.730
21493TIP3    H164356   7.274   9.234   5.739
21493TIP3    H264357   7.255   9.107   5.664
21494TIP3   OH264358   7.156   8.435   5.862
21494TIP3    H164359   7.154   8.533   5.857
21494TIP3    H264360   7.070   8.411   5.825
21495TIP3   OH264361   7.538   8.155   6.740
21495TIP3    H164362   7.511   8.122   6.652
21495TIP3    H264363   7.533   8.075   6.795
21496TIP3   OH264364   7.081   9.365   6.118
21496TIP3    H164365   7.012   9.402   6.175
21496TIP3    H264366   7.060   9.409   6.033
21497TIP3   OH264367   7.703   9.452   5.364
21497TIP3    H164368   7.644   9.383   5.402
21497TIP3    H264369   7.775   9.396   5.329
21498TIP3   OH264370   8.136   9.501   5.276
21498TIP3    H164371   8.175   9.429   5.328
21498TIP3    H264372   8.182   9.497   5.190
21499TIP3   OH264373   7.345   8.974   5.582
21499TIP3    H164374   7.398   8.937   5.655
21499TIP3    H264375   7.413   8.978   5.512
21500TIP3   OH264376   7.849   9.166   5.377
21500TIP3    H164377   7.848   9.183   5.474
21500TIP3    H264378   7.849   9.068   5.377
21501TIP3   OH264379   7.554   8.876   5.806
21501TIP3    H164380   7.530   8.833   5.890
21501TIP3    H264381   7.590   8.800   5.755
21502TIP3   OH264382   7.652   8.669   5.646
21502TIP3    H164383   7.626   8.669   5.552
21502TIP3    H264384   7.749   8.677   5.639
21503TIP3   OH264385   8.471   9.002   5.303
21503TIP3    H164386   8.451   8.954   5.220
21503TIP3    H264387   8.445   9.093   5.276
21504TIP3   OH264388   7.462   9.737   5.552
21504TIP3    H164389   7.558   9.731   5.534
21504TIP3    H264390   7.433   9.778   5.468
21505TIP3   OH264391   6.940   9.114   5.766
21505TIP3    H164392   7.035   9.136   5.753
21505TIP3    H264393   6.936   9.024   5.725
21506TIP3   OH264394   6.858   9.716   6.166
21506TIP3    H164395   6.784   9.656   6.144
21506TIP3    H264396   6.899   9.670   6.242
21507TIP3   OH264397   7.012   9.587   6.358
21507TIP3    H164398   6.977   9.517   6.415
21507TIP3    H264399   6.976   9.665   6.406
21508TIP3   OH264400   8.670   8.938   5.479
21508TIP3    H164401   8.600   8.959   5.414
21508TIP3    H264402   8.673   9.019   5.530
21509TIP3   OH264403   8.538   8.634   5.441
21509TIP3    H164404   8.498   8.673   5.362
21509TIP3    H264405   8.511   8.540   5.431
21510TIP3   OH264406   7.177   8.977   6.739
21510TIP3    H164407   7.180   8.950   6.645
21510TIP3    H264408   7.259   9.030   6.748
21511TIP3   OH264409   8.481   8.370   5.424
21511TIP3    H164410   8.561   8.343   5.474
21511TIP3    H264411   8.412   8.311   5.458
21512TIP3   OH264412   8.541   8.621   5.842
21512TIP3    H164413   8.576   8.536   5.876
21512TIP3    H264414   8.621   8.657   5.799
21513TIP3   OH264415   8.647   8.383   5.947
21513TIP3    H164416   8.724   8.345   5.991
21513TIP3    H264417   8.588   8.305   5.937
21514TIP3   OH264418   7.358   8.366   6.744
21514TIP3    H164419   7.423   8.293   6.753
21514TIP3    H264420   7.418   8.443   6.742
21515TIP3   OH264421   7.160   8.636   6.817
21515TIP3    H164422   7.211   8.632   6.734
21515TIP3    H264423   7.180   8.726   6.847
21516TIP3   OH264424   8.725   8.315   5.533
21516TIP3    H164425   8.766   8.234   5.496
21516TIP3    H264426   8.803   8.368   5.556
21517TIP3   OH264427   7.142   8.141   6.318
21517TIP3    H164428   7.048   8.141   6.341
21517TIP3    H264429   7.143   8.199   6.239
21518TIP3   OH264430   7.355   8.201   7.134
21518TIP3    H164431   7.298   8.207   7.213
21518TIP3    H264432   7.302   8.250   7.068
21519TIP3   OH264433   8.219   8.354   6.490
21519TIP3    H164434   8.141   8.298   6.511
21519TIP3    H264435   8.265   8.303   6.421
21520TIP3   OH264436   7.454   8.063   6.490
21520TIP3    H164437   7.363   8.029   6.488
21520TIP3    H264438   7.505   7.979   6.486
21521TIP3   OH264439   7.238   7.931   6.136
21521TIP3    H164440   7.270   7.989   6.065
21521TIP3    H264441   7.210   7.996   6.203
21522TIP3   OH264442   7.892   8.099   6.369
21522TIP3    H164443   7.952   8.151   6.313
21522TIP3    H264444   7.916   8.132   6.457
21523TIP3   OH264445   8.399   8.226   6.335
21523TIP3    H164446   8.435   8.192   6.252
21523TIP3    H264447   8.421   8.154   6.397
21524TIP3   OH264448   8.474   8.165   5.914
21524TIP3    H164449   8.385   8.205   5.924
21524TIP3    H264450   8.461   8.081   5.962
21525TIP3   OH264451   6.959   9.502   5.919
21525TIP3    H164452   6.875   9.471   5.882
21525TIP3    H264453   6.948   9.597   5.908
21526TIP3   OH264454   7.356   8.095   5.899
21526TIP3    H164455   7.406   8.031   5.845
21526TIP3    H264456   7.429   8.148   5.937
21527TIP3   OH264457   7.870   8.261   5.997
21527TIP3    H164458   7.930   8.214   6.058
21527TIP3    H264459   7.888   8.353   6.027
21528TIP3   OH264460   7.725   9.694   5.488
21528TIP3    H164461   7.815   9.718   5.460
21528TIP3    H264462   7.709   9.615   5.432
21529TIP3   OH264463   7.034   9.531   5.557
21529TIP3    H164464   7.031   9.557   5.650
21529TIP3    H264465   7.123   9.489   5.549
21530TIP3   OH264466   9.412   8.540   5.190
21530TIP3    H164467   9.390   8.488   5.268
21530TIP3    H264468   9.325   8.575   5.162
21531TIP3   OH264469   8.952   8.564   5.583
21531TIP3    H164470   8.972   8.597   5.493
21531TIP3    H264471   8.873   8.618   5.603
21532TIP3   OH264472   8.946   8.691   5.345
21532TIP3    H164473   8.946   8.787   5.355
21532TIP3    H264474   8.858   8.671   5.310
21533TIP3   OH264475   8.906   8.359   5.748
21533TIP3    H164476   8.843   8.396   5.811
21533TIP3    H264477   8.938   8.440   5.703
21534TIP3   OH264478   9.038   8.171   5.604
21534TIP3    H164479   9.063   8.234   5.535
21534TIP3    H264480   8.993   8.230   5.669
21535TIP3   OH264481   9.144   8.349   5.377
21535TIP3    H164482   9.193   8.281   5.326
21535TIP3    H264483   9.210   8.384   5.437
21536TIP3   OH264484   1.187   9.094   7.244
21536TIP3    H164485   1.238   9.026   7.196
21536TIP3    H264486   1.248   9.168   7.247
21537TIP3   OH264487   3.270   9.667   7.662
21537TIP3    H164488   3.185   9.715   7.664
21537TIP3    H264489   3.295   9.678   7.568
21538TIP3   OH264490   2.635   9.563   7.276
21538TIP3    H164491   2.696   9.569   7.352
21538TIP3    H264492   2.650   9.649   7.234
21539TIP3   OH264493   2.842   9.597   7.453
21539TIP3    H164494   2.844   9.527   7.519
21539TIP3    H264495   2.930   9.636   7.459
21540TIP3   OH264496   2.200   9.724   6.834
21540TIP3    H164497   2.264   9.795   6.846
21540TIP3    H264498   2.230   9.686   6.750
21541TIP3   OH264499   2.928   9.150   6.912
21541TIP3    H164500   2.846   9.165   6.964
21541TIP3    H264501   2.935   9.234   6.863
21542TIP3   OH264502   2.203   9.330   6.905
21542TIP3    H164503   2.176   9.324   6.999
21542TIP3    H264504   2.162   9.246   6.873
21543TIP3   OH264505   2.389   9.784   7.140
21543TIP3    H164506   2.305   9.792   7.102
21543TIP3    H264507   2.442   9.742   7.062
21544TIP3   OH264508   1.860   9.303   6.877
21544TIP3    H164509   1.855   9.286   6.974
21544TIP3    H264510   1.771   9.340   6.862
21545TIP3   OH264511   1.937   9.505   7.147
21545TIP3    H164512   2.017   9.558   7.134
21545TIP3    H264513   1.867   9.551   7.094
21546TIP3   OH264514   1.722   9.586   7.004
21546TIP3    H164515   1.665   9.545   6.937
21546TIP3    H264516   1.769   9.654   6.951
21547TIP3   OH264517   1.777   9.290   7.427
21547TIP3    H164518   1.747   9.204   7.467
21547TIP3    H264519   1.777   9.265   7.334
21548TIP3   OH264520   2.450   9.435   6.870
21548TIP3    H164521   2.355   9.415   6.884
21548TIP3    H264522   2.458   9.531   6.887
21549TIP3   OH264523   2.543   9.695   6.932
21549TIP3    H164524   2.629   9.681   6.976
21549TIP3    H264525   2.555   9.782   6.892
21550TIP3   OH264526   2.960   9.746   6.823
21550TIP3    H164527   2.899   9.697   6.763
21550TIP3    H264528   2.960   9.830   6.775
21551TIP3   OH264529   2.493   9.372   7.148
21551TIP3    H164530   2.478   9.403   7.058
21551TIP3    H264531   2.539   9.449   7.190
21552TIP3   OH264532   2.201   9.559   7.245
21552TIP3    H164533   2.271   9.621   7.220
21552TIP3    H264534   2.194   9.585   7.341
21553TIP3   OH264535   2.333   9.294   7.367
21553TIP3    H164536   2.356   9.355   7.441
21553TIP3    H264537   2.385   9.332   7.293
21554TIP3   OH264538   1.846   9.255   7.155
21554TIP3    H164539   1.851   9.353   7.161
21554TIP3    H264540   1.941   9.234   7.162
21555TIP3   OH264541   1.904   9.713   6.843
21555TIP3    H164542   1.878   9.656   6.770
21555TIP3    H264543   2.002   9.707   6.844
21556TIP3   OH264544   2.789   9.687   6.616
21556TIP3    H164545   2.761   9.704   6.525
21556TIP3    H264546   2.768   9.591   6.621
21557TIP3   OH264547   2.826   9.938   7.175
21557TIP3    H164548   2.821   9.841   7.169
21557TIP3    H264549   2.819   9.951   7.271
21558TIP3   OH264550   2.738   9.423   6.616
21558TIP3    H164551   2.812   9.384   6.666
21558TIP3    H264552   2.663   9.362   6.635
21559TIP3   OH264553   2.798   9.676   7.056
21559TIP3    H164554   2.824   9.585   7.084
21559TIP3    H264555   2.864   9.691   6.986
21560TIP3   OH264556   2.908   9.421   7.099
21560TIP3    H164557   2.950   9.404   7.185
21560TIP3    H264558   2.842   9.348   7.097
21561TIP3   OH264559   2.989   9.360   6.730
21561TIP3    H164560   3.025   9.283   6.681
21561TIP3    H264561   3.061   9.425   6.722
21562TIP3   OH264562   2.441   9.375   7.619
21562TIP3    H164563   2.436   9.333   7.705
21562TIP3    H264564   2.535   9.365   7.596
21563TIP3   OH264565   2.981   9.293   7.566
21563TIP3    H164566   3.016   9.334   7.484
21563TIP3    H264567   2.885   9.292   7.548
21564TIP3   OH264568   3.074   9.385   7.322
21564TIP3    H164569   3.143   9.330   7.281
21564TIP3    H264570   3.108   9.475   7.301
21565TIP3   OH264571   2.175   9.108   7.513
21565TIP3    H164572   2.219   9.185   7.475
21565TIP3    H264573   2.131   9.148   7.592
21566TIP3   OH264574   2.707   9.285   7.529
21566TIP3    H164575   2.677   9.258   7.441
21566TIP3    H264576   2.685   9.205   7.583
21567TIP3   OH264577   2.722   9.209   7.092
21567TIP3    H164578   2.634   9.250   7.102
21567TIP3    H264579   2.708   9.124   7.138
21568TIP3   OH264580   1.601   9.154   7.052
21568TIP3    H164581   1.641   9.069   7.028
21568TIP3    H264582   1.660   9.179   7.125
21569TIP3   OH264583   2.133   9.292   7.170
21569TIP3    H164584   2.185   9.261   7.245
21569TIP3    H264585   2.126   9.386   7.193
21570TIP3   OH264586   3.146   9.919   6.975
21570TIP3    H164587   3.111   9.946   7.061
21570TIP3    H264588   3.096   9.838   6.957
21571TIP3   OH264589   4.982   9.928   7.136
21571TIP3    H164590   5.019  10.002   7.188
21571TIP3    H264591   5.034   9.934   7.054
21572TIP3   OH264592   4.418  10.100   7.168
21572TIP3    H164593   4.446  10.009   7.190
21572TIP3    H264594   4.381  10.088   7.078
21573TIP3   OH264595   3.733   9.758   7.151
21573TIP3    H164596   3.716   9.830   7.087
21573TIP3    H264597   3.688   9.684   7.106
21574TIP3   OH264598   4.430   9.847   6.773
21574TIP3    H164599   4.502   9.834   6.839
21574TIP3    H264600   4.481   9.880   6.698
21575TIP3   OH264601   3.373   9.961   7.248
21575TIP3    H164602   3.449   9.934   7.303
21575TIP3    H264603   3.387   9.906   7.169
21576TIP3   OH264604   3.821  10.161   7.038
21576TIP3    H164605   3.908  10.126   7.066
21576TIP3    H264606   3.774  10.081   7.008
21577TIP3   OH264607   5.060  10.128   7.320
21577TIP3    H164608   5.024  10.216   7.302
21577TIP3    H264609   5.107  10.145   7.404
21578TIP3   OH264610   3.732   9.742   7.586
21578TIP3    H164611   3.666   9.776   7.523
21578TIP3    H264612   3.682   9.736   7.669
21579TIP3   OH264613   4.642   9.854   6.945
21579TIP3    H164614   4.628   9.788   7.015
21579TIP3    H264615   4.737   9.868   6.948
21580TIP3   OH264616   3.604   9.857   7.370
21580TIP3    H164617   3.668   9.929   7.388
21580TIP3    H264618   3.651   9.813   7.295
21581TIP3   OH264619   4.792   9.819   7.317
21581TIP3    H164620   4.702   9.842   7.287
21581TIP3    H264621   4.847   9.849   7.241
21582TIP3   OH264622   4.093   9.462   7.297
21582TIP3    H164623   4.080   9.366   7.313
21582TIP3    H264624   4.014   9.498   7.342
21583TIP3   OH264625   3.986   9.973   6.311
21583TIP3    H164626   4.040  10.047   6.343
21583TIP3    H264627   4.038   9.943   6.234
21584TIP3   OH264628   4.639  10.315   7.398
21584TIP3    H164629   4.663  10.409   7.402
21584TIP3    H264630   4.541  10.324   7.391
21585TIP3   OH264631   4.725   9.407   6.398
21585TIP3    H164632   4.643   9.424   6.449
21585TIP3    H264633   4.733   9.490   6.347
21586TIP3   OH264634   4.848  10.302   7.603
21586TIP3    H164635   4.772  10.292   7.544
21586TIP3    H264636   4.872  10.209   7.619
21587TIP3   OH264637   3.852   9.537   7.422
21587TIP3    H164638   3.762   9.505   7.400
21587TIP3    H264639   3.829   9.621   7.466
21588TIP3   OH264640   4.383   9.653   7.621
21588TIP3    H164641   4.450   9.623   7.686
21588TIP3    H264642   4.298   9.631   7.666
21589TIP3   OH264643   4.628  10.068   7.537
21589TIP3    H164644   4.578  10.075   7.621
21589TIP3    H264645   4.610  10.154   7.494
21590TIP3   OH264646   3.999   9.586   6.394
21590TIP3    H164647   3.967   9.586   6.487
21590TIP3    H264648   3.961   9.501   6.364
21591TIP3   OH264649   3.781  10.062   7.437
21591TIP3    H164650   3.748  10.093   7.523
21591TIP3    H264651   3.777  10.143   7.384
21592TIP3   OH264652   3.666   9.936   6.958
21592TIP3    H164653   3.574   9.905   6.971
21592TIP3    H264654   3.683   9.900   6.868
21593TIP3   OH264655   4.168  10.030   6.685
21593TIP3    H164656   4.086  10.076   6.659
21593TIP3    H264657   4.210  10.008   6.599
21594TIP3   OH264658   4.306  10.049   6.922
21594TIP3    H164659   4.248  10.061   6.844
21594TIP3    H264660   4.353   9.970   6.889
21595TIP3   OH264661   3.654   9.559   6.365
21595TIP3    H164662   3.650   9.555   6.463
21595TIP3    H264663   3.569   9.600   6.345
21596TIP3   OH264664   3.191   9.613   7.225
21596TIP3    H164665   3.270   9.634   7.279
21596TIP3    H264666   3.227   9.562   7.150
21597TIP3   OH264667   3.177   9.581   6.757
21597TIP3    H164668   3.218   9.624   6.680
21597TIP3    H264669   3.110   9.649   6.779
21598TIP3   OH264670   4.344  10.282   7.349
21598TIP3    H164671   4.367  10.211   7.285
21598TIP3    H264672   4.290  10.231   7.413
21599TIP3   OH264673   3.992   9.756   7.020
21599TIP3    H164674   3.910   9.758   7.072
21599TIP3    H264675   4.058   9.769   7.090
21600TIP3   OH264676   3.427   9.813   7.021
21600TIP3    H164677   3.335   9.806   6.991
21600TIP3    H264678   3.462   9.722   7.005
21601TIP3   OH264679   3.702   9.814   6.714
21601TIP3    H164680   3.795   9.832   6.692
21601TIP3    H264681   3.653   9.842   6.634
21602TIP3   OH264682   4.485   9.834   7.221
21602TIP3    H164683   4.450   9.846   7.312
21602TIP3    H264684   4.419   9.772   7.185
21603TIP3   OH264685   3.524   9.838   6.494
21603TIP3    H164686   3.471   9.797   6.424
21603TIP3    H264687   3.578   9.901   6.442
21604TIP3   OH264688   4.071  10.065   7.106
21604TIP3    H164689   4.157  10.046   7.064
21604TIP3    H264690   4.090  10.054   7.201
21605TIP3   OH264691   3.599   9.578   6.994
21605TIP3    H164692   3.568   9.497   7.040
21605TIP3    H264693   3.653   9.542   6.922
21606TIP3   OH264694   4.048   9.966   7.401
21606TIP3    H164695   3.964  10.015   7.409
21606TIP3    H264696   4.112  10.023   7.449
21607TIP3   OH264697   4.247   9.698   6.365
21607TIP3    H164698   4.151   9.676   6.372
21607TIP3    H264699   4.251   9.794   6.384
21608TIP3   OH264700   4.318   9.956   6.453
21608TIP3    H164701   4.411   9.942   6.482
21608TIP3    H264702   4.327  10.036   6.400
21609TIP3   OH264703   4.755  10.017   6.312
21609TIP3    H164704   4.694   9.975   6.248
21609TIP3    H264705   4.770  10.101   6.267
21610TIP3   OH264706   4.414   9.887   7.481
21610TIP3    H164707   4.497   9.921   7.518
21610TIP3    H264708   4.399   9.805   7.534
21611TIP3   OH264709   4.287   9.642   6.643
21611TIP3    H164710   4.275   9.665   6.548
21611TIP3    H264711   4.329   9.723   6.679
21612TIP3   OH264712   3.987   9.818   6.748
21612TIP3    H164713   4.056   9.886   6.733
21612TIP3    H264714   3.987   9.811   6.846
21613TIP3   OH264715   4.238  10.108   7.537
21613TIP3    H164716   4.264  10.170   7.608
21613TIP3    H264717   4.304  10.036   7.546
21614TIP3   OH264718   4.128   9.549   6.853
21614TIP3    H164719   4.116   9.627   6.911
21614TIP3    H264720   4.186   9.586   6.783
21615TIP3   OH264721   3.637   9.543   6.640
21615TIP3    H164722   3.636   9.635   6.673
21615TIP3    H264723   3.733   9.524   6.649
21616TIP3   OH264724   4.894  10.027   7.545
21616TIP3    H164725   4.795  10.027   7.546
21616TIP3    H264726   4.909   9.996   7.455
21617TIP3   OH264727   3.176   9.749   6.538
21617TIP3    H164728   3.228   9.809   6.482
21617TIP3    H264729   3.129   9.695   6.474
21618TIP3   OH264730   3.588   9.457   7.403
21618TIP3    H164731   3.556   9.422   7.316
21618TIP3    H264732   3.577   9.379   7.461
21619TIP3   OH264733   3.701   9.968   6.331
21619TIP3    H164734   3.675   9.919   6.252
21619TIP3    H264735   3.799   9.962   6.330
21620TIP3   OH264736   4.003   9.971   7.841
21620TIP3    H164737   3.991   9.907   7.769
21620TIP3    H264738   3.978  10.055   7.799
21621TIP3   OH264739   3.994   9.804   7.620
21621TIP3    H164740   4.018   9.849   7.537
21621TIP3    H264741   3.898   9.787   7.606
21622TIP3   OH264742   4.126   9.579   7.703
21622TIP3    H164743   4.078   9.660   7.674
21622TIP3    H264744   4.058   9.511   7.688
21623TIP3   OH264745   4.495  10.032   7.769
21623TIP3    H164746   4.420  10.012   7.827
21623TIP3    H264747   4.570  10.011   7.828
21624TIP3   OH264748   4.720   9.980   7.937
21624TIP3    H164749   4.728   9.883   7.944
21624TIP3    H264750   4.718  10.009   8.029
21625TIP3   OH264751   4.224   9.587   7.957
21625TIP3    H164752   4.284   9.510   7.949
21625TIP3    H264753   4.178   9.584   7.871
21626TIP3   OH264754   4.396   9.797   8.015
21626TIP3    H164755   4.353   9.715   7.983
21626TIP3    H264756   4.317   9.847   8.041
21627TIP3   OH264757   4.583   9.945   6.110
21627TIP3    H164758   4.571   9.965   6.016
21627TIP3    H264759   4.563   9.849   6.111
21628TIP3   OH264760   4.622  10.188   6.662
21628TIP3    H164761   4.620  10.091   6.660
21628TIP3    H264762   4.586  10.209   6.749
21629TIP3   OH264763   5.037  10.472   7.505
21629TIP3    H164764   4.981  10.417   7.564
21629TIP3    H264765   5.127  10.447   7.532
21630TIP3   OH264766   4.533   9.680   6.105
21630TIP3    H164767   4.612   9.643   6.149
21630TIP3    H264768   4.464   9.614   6.123
21631TIP3   OH264769   4.588   9.923   6.551
21631TIP3    H164770   4.628   9.834   6.565
21631TIP3    H264771   4.647   9.957   6.481
21632TIP3   OH264772   5.269   9.813   7.833
21632TIP3    H164773   5.330   9.763   7.775
21632TIP3    H264774   5.249   9.892   7.780
21633TIP3   OH264775   4.698   9.678   6.591
21633TIP3    H164776   4.751   9.658   6.671
21633TIP3    H264777   4.640   9.599   6.587
21634TIP3   OH264778   3.401   9.661   7.398
21634TIP3    H164779   3.466   9.589   7.409
21634TIP3    H264780   3.460   9.739   7.401
21635TIP3   OH264781   3.271   9.941   7.510
21635TIP3    H164782   3.277   9.926   7.414
21635TIP3    H264783   3.238  10.032   7.513
21636TIP3   OH264784   5.129   9.976   7.660
21636TIP3    H164785   5.037  10.007   7.644
21636TIP3    H264786   5.130   9.901   7.597
21637TIP3   OH264787   4.784   9.616   6.217
21637TIP3    H164788   4.823   9.541   6.168
21637TIP3    H264789   4.854   9.684   6.210
21638TIP3   OH264790   3.186   9.449   6.992
21638TIP3    H164791   3.091   9.438   7.010
21638TIP3    H264792   3.186   9.499   6.908
21639TIP3   OH264793   3.418   9.491   7.800
21639TIP3    H164794   3.361   9.465   7.874
21639TIP3    H264795   3.363   9.554   7.749
21640TIP3   OH264796   5.044   9.738   7.517
21640TIP3    H164797   4.952   9.731   7.485
21640TIP3    H264798   5.075   9.646   7.504
21641TIP3   OH264799   4.255   9.657   7.139
21641TIP3    H164800   4.206   9.589   7.189
21641TIP3    H264801   4.319   9.603   7.088
21642TIP3   OH264802   4.775   9.546   7.048
21642TIP3    H164803   4.811   9.587   6.967
21642TIP3    H264804   4.679   9.549   7.033
21643TIP3   OH264805   4.867   9.639   6.808
21643TIP3    H164806   4.937   9.582   6.768
21643TIP3    H264807   4.906   9.728   6.788
21644TIP3   OH264808   3.498   9.365   7.154
21644TIP3    H164809   3.407   9.331   7.154
21644TIP3    H264810   3.549   9.281   7.151
21645TIP3   OH264811   3.284   9.232   6.800
21645TIP3    H164812   3.315   9.291   6.728
21645TIP3    H264813   3.255   9.296   6.867
21646TIP3   OH264814   3.939   9.400   7.031
21646TIP3    H164815   4.001   9.449   6.975
21646TIP3    H264816   3.961   9.434   7.119
21647TIP3   OH264817   4.497   9.542   7.012
21647TIP3    H164818   4.487   9.502   6.925
21647TIP3    H264819   4.480   9.464   7.071
21648TIP3   OH264820   4.519   9.464   6.579
21648TIP3    H164821   4.429   9.502   6.586
21648TIP3    H264822   4.506   9.379   6.626
21649TIP3   OH264823   3.401   9.399   6.560
21649TIP3    H164824   3.449   9.331   6.509
21649TIP3    H264825   3.475   9.449   6.600
21650TIP3   OH264826   3.914   9.569   6.661
21650TIP3    H164827   3.972   9.520   6.721
21650TIP3    H264828   3.937   9.661   6.688
21651TIP3   OH264829   3.660   9.557   8.008
21651TIP3    H164830   3.663   9.500   8.088
21651TIP3    H264831   3.739   9.611   8.017
21652TIP3   OH264832   3.960   9.574   8.112
21652TIP3    H164833   4.049   9.550   8.079
21652TIP3    H264834   3.970   9.552   8.206
21653TIP3   OH264835   4.778   9.709   7.944
21653TIP3    H164836   4.802   9.674   8.032
21653TIP3    H264837   4.865   9.705   7.897
21654TIP3   OH264838   4.960  10.146   6.469
21654TIP3    H164839   4.916  10.227   6.499
21654TIP3    H264840   4.885  10.090   6.444
21655TIP3   OH264841   6.152  10.313   6.676
21655TIP3    H164842   6.246  10.337   6.694
21655TIP3    H264843   6.143  10.334   6.582
21656TIP3   OH264844   5.530  10.014   6.638
21656TIP3    H164845   5.514  10.088   6.575
21656TIP3    H264846   5.484   9.942   6.591
21657TIP3   OH264847   6.228  10.105   6.263
21657TIP3    H164848   6.297  10.090   6.330
21657TIP3    H264849   6.281  10.138   6.188
21658TIP3   OH264850   5.149  10.190   6.764
21658TIP3    H164851   5.241  10.191   6.796
21658TIP3    H264852   5.164  10.166   6.671
21659TIP3   OH264853   5.615  10.415   6.531
21659TIP3    H164854   5.702  10.378   6.553
21659TIP3    H264855   5.567  10.338   6.495
21660TIP3   OH264856   5.526   9.997   7.073
21660TIP3    H164857   5.470  10.033   7.003
21660TIP3    H264858   5.474  10.021   7.153
21661TIP3   OH264859   6.442  10.127   6.456
21661TIP3    H164860   6.447  10.030   6.474
21661TIP3    H264861   6.536  10.146   6.457
21662TIP3   OH264862   5.401  10.110   6.858
21662TIP3    H164863   5.460  10.187   6.875
21662TIP3    H264864   5.448  10.071   6.781
21663TIP3   OH264865   5.892   9.713   6.792
21663TIP3    H164866   5.873   9.618   6.802
21663TIP3    H264867   5.812   9.751   6.835
21664TIP3   OH264868   5.777  10.232   5.789
21664TIP3    H164869   5.830  10.303   5.826
21664TIP3    H264870   5.835  10.199   5.718
21665TIP3   OH264871   6.520   9.663   5.884
21665TIP3    H164872   6.439   9.680   5.936
21665TIP3    H264873   6.531   9.747   5.835
21666TIP3   OH264874   5.647   9.790   6.912
21666TIP3    H164875   5.556   9.764   6.887
21666TIP3    H264876   5.628   9.876   6.955
21667TIP3   OH264877   5.794   9.843   5.882
21667TIP3    H164878   5.763   9.843   5.975
21667TIP3    H264879   5.758   9.758   5.852
21668TIP3   OH264880   5.575  10.314   6.923
21668TIP3    H164881   5.525  10.331   7.006
21668TIP3    H264882   5.576  10.403   6.883
21669TIP3   OH264883   5.464  10.193   6.445
21669TIP3    H164884   5.371  10.166   6.460
21669TIP3    H264885   5.479  10.157   6.355
21670TIP3   OH264886   5.962  10.283   6.170
21670TIP3    H164887   5.882  10.332   6.142
21670TIP3    H264888   6.007  10.265   6.085
21671TIP3   OH264889   6.098  10.312   6.405
21671TIP3    H164890   6.045  10.322   6.324
21671TIP3    H264891   6.149  10.234   6.376
21672TIP3   OH264892   5.416  10.337   7.150
21672TIP3    H164893   5.431  10.400   7.221
21672TIP3    H264894   5.396  10.254   7.197
21673TIP3   OH264895   5.448   9.814   5.853
21673TIP3    H164896   5.446   9.812   5.950
21673TIP3    H264897   5.367   9.863   5.833
21674TIP3   OH264898   4.989   9.864   6.725
21674TIP3    H164899   5.068   9.897   6.772
21674TIP3    H264900   5.026   9.829   6.641
21675TIP3   OH264901   4.968   9.837   6.242
21675TIP3    H164902   5.012   9.876   6.164
21675TIP3    H264903   4.910   9.911   6.266
21676TIP3   OH264904   5.785  10.013   6.504
21676TIP3    H164905   5.705  10.015   6.560
21676TIP3    H264906   5.855  10.027   6.570
21677TIP3   OH264907   5.224  10.075   6.515
21677TIP3    H164908   5.129  10.078   6.488
21677TIP3    H264909   5.252   9.985   6.491
21678TIP3   OH264910   5.497  10.069   6.202
21678TIP3    H164911   5.591  10.089   6.182
21678TIP3    H264912   5.450  10.097   6.121
21679TIP3   OH264913   6.239  10.056   6.773
21679TIP3    H164914   6.200  10.144   6.751
21679TIP3    H264915   6.221  10.009   6.690
21680TIP3   OH264916   5.328  10.089   5.980
21680TIP3    H164917   5.264  10.056   5.915
21680TIP3    H264918   5.378  10.154   5.925
21681TIP3   OH264919   5.866  10.319   6.592
21681TIP3    H164920   5.945  10.307   6.537
21681TIP3    H264921   5.906  10.325   6.680
21682TIP3   OH264922   5.396   9.835   6.480
21682TIP3    H164923   5.369   9.752   6.522
21682TIP3    H264924   5.451   9.804   6.406
21683TIP3   OH264925   5.847  10.239   6.922
21683TIP3    H164926   5.755  10.260   6.899
21683TIP3    H264927   5.888  10.326   6.918
21684TIP3   OH264928   6.044   9.955   5.850
21684TIP3    H164929   5.948   9.935   5.859
21684TIP3    H264930   6.051  10.050   5.871
21685TIP3   OH264931   6.117  10.212   5.939
21685TIP3    H164932   6.209  10.199   5.969
21685TIP3    H264933   6.126  10.293   5.886
21686TIP3   OH264934   6.532  10.257   5.804
21686TIP3    H164935   6.475  10.232   5.728
21686TIP3    H264936   6.566  10.343   5.774
21687TIP3   OH264937   5.379  10.085   7.295
21687TIP3    H164938   5.283  10.083   7.309
21687TIP3    H264939   5.409  10.020   7.360
21688TIP3   OH264940   6.083   9.899   6.129
21688TIP3    H164941   6.074   9.922   6.035
21688TIP3    H264942   6.126   9.978   6.167
21689TIP3   OH264943   5.781  10.076   6.233
21689TIP3    H164944   5.851  10.141   6.218
21689TIP3    H264945   5.783  10.066   6.331
21690TIP3   OH264946   5.918   9.803   6.336
21690TIP3    H164947   5.913   9.878   6.398
21690TIP3    H264948   5.983   9.838   6.271
21691TIP3   OH264949   5.433   9.800   6.128
21691TIP3    H164950   5.432   9.893   6.159
21691TIP3    H264951   5.529   9.781   6.137
21692TIP3   OH264952   4.985   9.998   6.023
21692TIP3    H164953   5.010  10.089   6.000
21692TIP3    H264954   4.916   9.976   5.960
21693TIP3   OH264955   5.379   9.715   6.890
21693TIP3    H164956   5.351   9.682   6.802
21693TIP3    H264957   5.371   9.634   6.945
21694TIP3   OH264958   5.496  10.223   5.809
21694TIP3    H164959   5.477  10.170   5.731
21694TIP3    H264960   5.595  10.220   5.814
21695TIP3   OH264961   5.794  10.042   7.107
21695TIP3    H164962   5.816  10.113   7.044
21695TIP3    H264963   5.697  10.040   7.101
21696TIP3   OH264964   5.927   9.808   7.126
21696TIP3    H164965   5.878   9.894   7.117
21696TIP3    H264966   5.853   9.747   7.145
21697TIP3   OH264967   6.372  10.202   5.588
21697TIP3    H164968   6.361  10.219   5.494
21697TIP3    H264969   6.354  10.105   5.591
21698TIP3   OH264970   6.371  10.457   6.147
21698TIP3    H164971   6.394  10.364   6.129
21698TIP3    H264972   6.410  10.469   6.235
21699TIP3   OH264973   6.329   9.935   5.587
21699TIP3    H164974   6.410   9.902   5.632
21699TIP3    H264975   6.262   9.869   5.612
21700TIP3   OH264976   6.388  10.186   6.040
21700TIP3    H164977   6.426  10.095   6.052
21700TIP3    H264978   6.442  10.213   5.962
21701TIP3   OH264979   5.235  10.196   7.538
21701TIP3    H164980   5.320  10.202   7.583
21701TIP3    H264981   5.189  10.134   7.598
21702TIP3   OH264982   6.483   9.934   6.073
21702TIP3    H164983   6.544   9.913   6.147
21702TIP3    H264984   6.428   9.853   6.072
21703TIP3   OH264985   5.194   9.922   6.914
21703TIP3    H164986   5.259   9.848   6.912
21703TIP3    H264987   5.252   9.997   6.891
21704TIP3   OH264988   4.983  10.226   6.977
21704TIP3    H164989   5.024  10.189   6.895
21704TIP3    H264990   5.045  10.299   6.989
21705TIP3   OH264991   6.577   9.874   5.699
21705TIP3    H164992   6.623   9.798   5.657
21705TIP3    H264993   6.647   9.943   5.699
21706TIP3   OH264994   4.982   9.707   6.477
21706TIP3    H164995   4.887   9.698   6.492
21706TIP3    H264996   4.985   9.758   6.393
21707TIP3   OH264997   5.203   9.788   7.287
21707TIP3    H164998   5.151   9.774   7.368
21707TIP3    H264999   5.135   9.812   7.222
21708TIP3   OH265000   6.028   9.914   6.630
21708TIP3    H165001   5.989   9.839   6.678
21708TIP3    H265002   6.096   9.870   6.575
21709TIP3   OH265003   6.513   9.876   6.517
21709TIP3    H165004   6.599   9.869   6.470
21709TIP3    H265005   6.514   9.791   6.562
21710TIP3   OH265006   6.656   9.883   6.271
21710TIP3    H165007   6.735   9.826   6.269
21710TIP3    H265008   6.696   9.968   6.245
21711TIP3   OH265009   5.294   9.621   6.643
21711TIP3    H165010   5.202   9.587   6.640
21711TIP3    H265011   5.344   9.537   6.638
21712TIP3   OH265012   5.078   9.490   6.285
21712TIP3    H165013   5.113   9.545   6.213
21712TIP3    H265014   5.053   9.555   6.352
21713TIP3   OH265015   5.734   9.655   6.518
21713TIP3    H165016   5.793   9.703   6.457
21713TIP3    H265017   5.758   9.695   6.603
21714TIP3   OH265018   6.225   9.788   6.497
21714TIP3    H165019   6.301   9.781   6.437
21714TIP3    H265020   6.233   9.705   6.549
21715TIP3   OH265021   6.312   9.717   6.062
21715TIP3    H165022   6.225   9.759   6.076
21715TIP3    H265023   6.301   9.634   6.113
21716TIP3   OH265024   5.197   9.652   6.051
21716TIP3    H165025   5.246   9.588   5.995
21716TIP3    H265026   5.271   9.705   6.087
21717TIP3   OH265027   5.710   9.825   6.149
21717TIP3    H165028   5.772   9.780   6.208
21717TIP3    H265029   5.730   9.918   6.173
21718TIP3   OH265030   5.499   9.900   7.537
21718TIP3    H165031   5.487   9.824   7.597
21718TIP3    H265032   5.595   9.903   7.528
21719TIP3   OH265033   6.750  10.408   5.905
21719TIP3    H165034   6.748  10.474   5.977
21719TIP3    H265035   6.698  10.336   5.941
21720TIP3   OH265036   7.599  10.092   5.351
21720TIP3    H165037   7.583  10.113   5.444
21720TIP3    H265038   7.551  10.007   5.340
21721TIP3   OH265039   7.245  10.071   5.335
21721TIP3    H165040   7.238  10.066   5.432
21721TIP3    H265041   7.167  10.125   5.315
21722TIP3   OH265042   6.753  10.099   6.148
21722TIP3    H165043   6.835  10.138   6.184
21722TIP3    H265044   6.792  10.048   6.074
21723TIP3   OH265045   6.763  10.099   5.722
21723TIP3    H165046   6.810  10.140   5.647
21723TIP3    H265047   6.712  10.175   5.755
21724TIP3   OH265048   7.134  10.320   5.476
21724TIP3    H165049   7.059  10.303   5.417
21724TIP3    H265050   7.178  10.394   5.429
21725TIP3   OH265051   7.222  10.044   5.607
21725TIP3    H165052   7.193  10.120   5.660
21725TIP3    H265053   7.303  10.017   5.653
21726TIP3   OH265054   6.794  10.252   5.495
21726TIP3    H165055   6.802  10.349   5.497
21726TIP3    H265056   6.705  10.237   5.462
21727TIP3   OH265057   7.284  10.470   5.298
21727TIP3    H165058   7.256  10.424   5.218
21727TIP3    H265059   7.379  10.479   5.286
21728TIP3   OH265060   6.771   9.933   5.932
21728TIP3    H165061   6.680   9.945   5.963
21728TIP3    H265062   6.778   9.999   5.860
21729TIP3   OH265063   7.072   9.857   6.059
21729TIP3    H165064   6.983   9.823   6.081
21729TIP3    H265065   7.128   9.781   6.086
21730TIP3   OH265066   6.869   9.739   5.762
21730TIP3    H165067   6.907   9.800   5.697
21730TIP3    H265068   6.844   9.800   5.835
21731TIP3   OH265069   6.989   9.905   5.533
21731TIP3    H165070   7.037   9.840   5.477
21731TIP3    H265071   7.063   9.958   5.568
21732TIP3   OH265072   6.777   2.148   9.531
21732TIP3    H165073   6.790   2.244   9.511
21732TIP3    H265074   6.869   2.114   9.516
21733TIP3   OH265075   6.255   2.363   9.632
21733TIP3    H165076   6.326   2.298   9.619
21733TIP3    H265077   6.270   2.389   9.724
21734TIP3   OH265078   6.552   1.615   9.676
21734TIP3    H165079   6.516   1.564   9.601
21734TIP3    H265080   6.642   1.634   9.643
21735TIP3   OH265081   6.756   2.210   9.793
21735TIP3    H165082   6.705   2.140   9.836
21735TIP3    H265083   6.757   2.179   9.700
21736TIP3   OH265084   6.812   2.419   9.516
21736TIP3    H165085   6.863   2.492   9.475
21736TIP3    H265086   6.732   2.469   9.541
21737TIP3   OH265087   5.983   2.105   9.593
21737TIP3    H165088   5.943   2.057   9.667
21737TIP3    H265089   6.072   2.064   9.591
21738TIP3   OH265090   6.434   2.163   9.505
21738TIP3    H165091   6.482   2.179   9.589
21738TIP3    H265092   6.504   2.173   9.437
21739TIP3   OH265093   6.786   1.683   9.553
21739TIP3    H165094   6.768   1.628   9.475
21739TIP3    H265095   6.756   1.771   9.522
21740TIP3   OH265096   6.816   2.499   9.796
21740TIP3    H165097   6.821   2.405   9.772
21740TIP3    H265098   6.746   2.532   9.736
21741TIP3   OH265099   7.593   2.161   9.205
21741TIP3    H165100   7.654   2.098   9.166
21741TIP3    H265101   7.638   2.184   9.288
21742TIP3   OH265102   7.520   2.452   9.449
21742TIP3    H165103   7.534   2.522   9.382
21742TIP3    H265104   7.588   2.475   9.514
21743TIP3   OH265105   7.297   2.109   9.446
21743TIP3    H165106   7.328   2.180   9.505
21743TIP3    H265107   7.369   2.101   9.383
21744TIP3   OH265108   7.766   2.379   9.081
21744TIP3    H165109   7.733   2.364   9.172
21744TIP3    H265110   7.862   2.365   9.094
21745TIP3   OH265111   7.581   2.660   9.284
21745TIP3    H165112   7.662   2.713   9.292
21745TIP3    H265113   7.539   2.701   9.206
21746TIP3   OH265114   7.028   2.050   9.491
21746TIP3    H165115   7.123   2.074   9.499
21746TIP3    H265116   7.035   1.958   9.458
21747TIP3   OH265117   7.002   2.656   9.913
21747TIP3    H165118   6.927   2.609   9.871
21747TIP3    H265119   7.015   2.601   9.993
21748TIP3   OH265120   7.066   2.422   9.644
21748TIP3    H165121   6.979   2.396   9.611
21748TIP3    H265122   7.047   2.509   9.681
21749TIP3   OH265123   7.913   2.595   9.171
21749TIP3    H165124   7.866   2.679   9.182
21749TIP3    H265125   7.836   2.536   9.153
21750TIP3   OH265126   7.132   2.462   9.304
21750TIP3    H165127   7.129   2.478   9.400
21750TIP3    H265128   7.221   2.422   9.293
21751TIP3   OH265129   4.613   3.706   9.621
21751TIP3    H165130   4.604   3.803   9.614
21751TIP3    H265131   4.709   3.693   9.604
21752TIP3   OH265132   4.619   3.990   9.651
21752TIP3    H165133   4.678   4.050   9.601
21752TIP3    H265134   4.546   4.052   9.667
21753TIP3   OH265135   7.828   5.421   0.541
21753TIP3    H165136   7.835   5.506   0.492
21753TIP3    H265137   7.831   5.360   0.462
21754TIP3   OH265138   6.308   3.836  10.019
21754TIP3    H165139   6.315   3.795  10.107
21754TIP3    H265140   6.333   3.927  10.040
21755TIP3   OH265141   5.966   4.307  10.035
21755TIP3    H165142   6.025   4.247   9.985
21755TIP3    H265143   6.009   4.311  10.121
21756TIP3   OH265144   5.952   3.762   9.832
21756TIP3    H165145   5.944   3.759   9.735
21756TIP3    H265146   5.933   3.858   9.846
21757TIP3   OH265147   6.112   4.149   9.869
21757TIP3    H165148   6.153   4.068   9.833
21757TIP3    H265149   6.165   4.217   9.820
21758TIP3   OH265150   6.231   3.927   9.760
21758TIP3    H165151   6.227   3.851   9.700
21758TIP3    H265152   6.271   3.887   9.840
21759TIP3   OH265153   5.905   3.390   9.742
21759TIP3    H165154   5.826   3.444   9.722
21759TIP3    H265155   5.961   3.404   9.664
21760TIP3   OH265156   5.869   3.144   9.502
21760TIP3    H165157   5.912   3.209   9.561
21760TIP3    H265158   5.947   3.121   9.445
21761TIP3   OH265159   6.260   3.484   9.756
21761TIP3    H165160   6.229   3.510   9.846
21761TIP3    H265161   6.350   3.456   9.782
21762TIP3   OH265162   6.108   3.351   9.570
21762TIP3    H165163   6.168   3.406   9.625
21762TIP3    H265164   6.137   3.376   9.479
21763TIP3   OH265165   5.858   4.018   9.849
21763TIP3    H165166   5.921   4.086   9.878
21763TIP3    H265167   5.780   4.072   9.828
21764TIP3   OH265168   6.618   2.591   9.623
21764TIP3    H165169   6.531   2.605   9.667
21764TIP3    H265170   6.629   2.673   9.572
21765TIP3   OH265171   6.417   3.960   9.178
21765TIP3    H165172   6.425   4.056   9.161
21765TIP3    H265173   6.510   3.931   9.163
21766TIP3   OH265174   5.731   4.280   9.654
21766TIP3    H165175   5.678   4.261   9.574
21766TIP3    H265176   5.690   4.361   9.689
21767TIP3   OH265177   5.930   4.177   9.297
21767TIP3    H165178   5.989   4.107   9.262
21767TIP3    H265179   5.963   4.187   9.389
21768TIP3   OH265180   5.979   4.222   9.566
21768TIP3    H165181   5.891   4.236   9.608
21768TIP3    H265182   6.031   4.189   9.640
21769TIP3   OH265183   6.179   3.403   9.317
21769TIP3    H165184   6.148   3.373   9.230
21769TIP3    H265185   6.261   3.450   9.293
21770TIP3   OH265186   5.870   2.812   9.596
21770TIP3    H165187   5.892   2.815   9.691
21770TIP3    H265188   5.880   2.716   9.584
21771TIP3   OH265189   6.069   3.212   9.876
21771TIP3    H165190   6.019   3.272   9.817
21771TIP3    H265191   6.127   3.167   9.811
21772TIP3   OH265192   5.559   2.774   9.572
21772TIP3    H165193   5.552   2.779   9.668
21772TIP3    H265194   5.469   2.802   9.544
21773TIP3   OH265195   5.460   3.027   9.682
21773TIP3    H165196   5.379   2.973   9.671
21773TIP3    H265197   5.429   3.106   9.634
21774TIP3   OH265198   5.684   3.558   9.725
21774TIP3    H165199   5.609   3.497   9.710
21774TIP3    H265200   5.676   3.572   9.821
21775TIP3   OH265201   6.146   2.880   9.573
21775TIP3    H165202   6.050   2.886   9.579
21775TIP3    H265203   6.175   2.969   9.603
21776TIP3   OH265204   6.232   3.118   9.675
21776TIP3    H165205   6.325   3.125   9.705
21776TIP3    H265206   6.220   3.198   9.621
21777TIP3   OH265207   5.835   3.712   9.553
21777TIP3    H165208   5.791   3.801   9.556
21777TIP3    H265209   5.776   3.661   9.611
21778TIP3   OH265210   6.657   3.208   9.532
21778TIP3    H165211   6.594   3.166   9.468
21778TIP3    H265212   6.657   3.298   9.492
21779TIP3   OH265213   6.353   4.031   9.439
21779TIP3    H165214   6.336   3.957   9.497
21779TIP3    H265215   6.370   3.989   9.352
21780TIP3   OH265216   5.424   4.090   9.859
21780TIP3    H165217   5.343   4.112   9.906
21780TIP3    H265218   5.477   4.169   9.879
21781TIP3   OH265219   6.111   3.752   9.344
21781TIP3    H165220   6.161   3.732   9.425
21781TIP3    H265221   6.020   3.735   9.373
21782TIP3   OH265222   6.451   4.234   9.163
21782TIP3    H165223   6.489   4.306   9.109
21782TIP3    H265224   6.371   4.281   9.196
21783TIP3   OH265225   6.270   3.699   9.572
21783TIP3    H165226   6.264   3.624   9.634
21783TIP3    H265227   6.366   3.694   9.549
21784TIP3   OH265228   5.483   3.738   9.339
21784TIP3    H165229   5.492   3.645   9.311
21784TIP3    H265230   5.463   3.728   9.434
21785TIP3   OH265231   5.435   3.736   9.611
21785TIP3    H165232   5.505   3.731   9.678
21785TIP3    H265233   5.421   3.834   9.607
21786TIP3   OH265234   6.108   2.847   9.839
21786TIP3    H165235   6.138   2.838   9.747
21786TIP3    H265236   6.191   2.876   9.882
21787TIP3   OH265237   5.691   3.941   9.561
21787TIP3    H165238   5.602   3.966   9.591
21787TIP3    H265239   5.711   4.017   9.504
21788TIP3   OH265240   5.428   4.005   9.605
21788TIP3    H165241   5.398   4.083   9.552
21788TIP3    H265242   5.419   4.041   9.696
21789TIP3   OH265243   5.141   3.654   9.588
21789TIP3    H165244   5.195   3.723   9.628
21789TIP3    H265245   5.208   3.600   9.541
21790TIP3   OH265246   6.409   4.369  10.081
21790TIP3    H165247   6.358   4.426  10.020
21790TIP3    H265248   6.498   4.409  10.073
21791TIP3   OH265249   5.642   3.946   9.253
21791TIP3    H165250   5.587   3.874   9.293
21791TIP3    H265251   5.716   3.894   9.218
21792TIP3   OH265252   6.077   3.984   9.164
21792TIP3    H165253   6.132   3.928   9.221
21792TIP3    H265254   6.129   3.990   9.082
21793TIP3   OH265255   5.290   3.453   9.464
21793TIP3    H165256   5.334   3.428   9.548
21793TIP3    H265257   5.366   3.464   9.404
21794TIP3   OH265258   5.797   3.652   9.282
21794TIP3    H165259   5.796   3.671   9.377
21794TIP3    H265260   5.783   3.556   9.281
21795TIP3   OH265261   5.474   3.362   9.675
21795TIP3    H165262   5.485   3.337   9.769
21795TIP3    H265263   5.529   3.296   9.632
21796TIP3   OH265264   6.417   3.488   9.200
21796TIP3    H165265   6.397   3.442   9.116
21796TIP3    H265266   6.387   3.579   9.176
21797TIP3   OH265267   5.399   4.222   9.437
21797TIP3    H165268   5.496   4.221   9.421
21797TIP3    H265269   5.370   4.271   9.359
21798TIP3   OH265270   4.868   3.623   9.588
21798TIP3    H165271   4.956   3.644   9.628
21798TIP3    H265272   4.876   3.526   9.584
21799TIP3   OH265273   6.663   4.473  10.066
21799TIP3    H165274   6.696   4.543  10.123
21799TIP3    H265275   6.702   4.501   9.982
21800TIP3   OH265276   6.548   3.678   9.534
21800TIP3    H165277   6.617   3.741   9.505
21800TIP3    H265278   6.592   3.638   9.612
21801TIP3   OH265279   6.676   3.544   9.734
21801TIP3    H165280   6.614   3.503   9.798
21801TIP3    H265281   6.746   3.582   9.792
21802TIP3   OH265282   6.711   3.928  10.083
21802TIP3    H165283   6.795   3.874  10.081
21802TIP3    H265284   6.744   4.014  10.050
21803TIP3   OH265285   6.616   3.450   9.386
21803TIP3    H165286   6.545   3.455   9.318
21803TIP3    H265287   6.592   3.528   9.440
21804TIP3   OH265288   6.484   3.125   9.341
21804TIP3    H165289   6.449   3.166   9.261
21804TIP3    H265290   6.459   3.031   9.328
21805TIP3   OH265291   6.490   3.398   9.881
21805TIP3    H165292   6.498   3.303   9.863
21805TIP3    H265293   6.477   3.401   9.977
21806TIP3   OH265294   6.432   2.858   9.327
21806TIP3    H165295   6.511   2.830   9.377
21806TIP3    H265296   6.364   2.797   9.357
21807TIP3   OH265297   6.505   3.137   9.758
21807TIP3    H165298   6.537   3.047   9.778
21807TIP3    H265299   6.564   3.161   9.684
21808TIP3   OH265300   6.596   2.867   9.817
21808TIP3    H165301   6.649   2.862   9.900
21808TIP3    H265302   6.559   2.777   9.811
21809TIP3   OH265303   6.679   2.802   9.448
21809TIP3    H165304   6.723   2.728   9.401
21809TIP3    H265305   6.747   2.872   9.443
21810TIP3   OH265306   6.238   4.325   9.712
21810TIP3    H165307   6.297   4.320   9.634
21810TIP3    H265308   6.278   4.397   9.765
21811TIP3   OH265309   6.402   2.644   9.787
21811TIP3    H165310   6.318   2.692   9.794
21811TIP3    H265311   6.414   2.614   9.879
21812TIP3   OH265312   4.889   4.004   9.738
21812TIP3    H165313   4.809   3.951   9.762
21812TIP3    H265314   4.848   4.085   9.702
21813TIP3   OH265315   5.669   4.182   9.390
21813TIP3    H165316   5.758   4.204   9.355
21813TIP3    H265317   5.648   4.106   9.332
21814TIP3   OH265318   6.390   4.298   9.482
21814TIP3    H165319   6.378   4.201   9.469
21814TIP3    H265320   6.344   4.333   9.403
21815TIP3   OH265321   4.974   4.020   9.453
21815TIP3    H165322   4.965   4.024   9.550
21815TIP3    H265323   5.062   3.979   9.442
21816TIP3   OH265324   7.870   3.819   9.456
21816TIP3    H165325   7.849   3.908   9.422
21816TIP3    H265326   7.805   3.766   9.406
21817TIP3   OH265327   7.795   3.806   9.801
21817TIP3    H165328   7.874   3.800   9.858
21817TIP3    H265329   7.833   3.790   9.713
21818TIP3   OH265330   7.186   3.730  10.189
21818TIP3    H165331   7.196   3.674  10.267
21818TIP3    H265332   7.278   3.736  10.155
21819TIP3   OH265333   8.114   4.120   9.495
21819TIP3    H165334   8.134   4.045   9.552
21819TIP3    H265335   8.145   4.196   9.549
21820TIP3   OH265336   7.150   4.121   9.918
21820TIP3    H165337   7.142   4.023   9.916
21820TIP3    H265338   7.245   4.130   9.899
21821TIP3   OH265339   6.863   3.329   9.691
21821TIP3    H165340   6.814   3.412   9.706
21821TIP3    H265341   6.790   3.270   9.666
21822TIP3   OH265342   6.914   3.606   9.854
21822TIP3    H165343   6.961   3.533   9.902
21822TIP3    H265344   6.982   3.636   9.793
21823TIP3   OH265345   7.767   4.578   9.513
21823TIP3    H165346   7.817   4.507   9.467
21823TIP3    H265347   7.768   4.548   9.605
21824TIP3   OH265348   7.659   4.038   9.872
21824TIP3    H165349   7.690   3.952   9.835
21824TIP3    H265350   7.740   4.090   9.867
21825TIP3   OH265351   7.421   3.193   9.884
21825TIP3    H165352   7.401   3.270   9.825
21825TIP3    H265353   7.378   3.123   9.828
21826TIP3   OH265354   7.058   3.411   9.972
21826TIP3    H165355   7.131   3.385  10.031
21826TIP3    H265356   7.069   3.347   9.900
21827TIP3   OH265357   7.493   3.603   9.759
21827TIP3    H165358   7.588   3.589   9.759
21827TIP3    H265359   7.457   3.517   9.727
21828TIP3   OH265360   7.773   4.034   9.311
21828TIP3    H165361   7.734   4.012   9.226
21828TIP3    H265362   7.731   4.121   9.329
21829TIP3   OH265363   7.512   3.960  10.101
21829TIP3    H165364   7.460   4.034  10.132
21829TIP3    H265365   7.571   4.001  10.035
21830TIP3   OH265366   7.286   3.322  10.090
21830TIP3    H165367   7.353   3.389  10.109
21830TIP3    H265368   7.330   3.263  10.026
21831TIP3   OH265369   6.754   3.842   9.429
21831TIP3    H165370   6.715   3.870   9.344
21831TIP3    H265371   6.785   3.928   9.467
21832TIP3   OH265372   8.176   4.346   9.652
21832TIP3    H165373   8.091   4.345   9.702
21832TIP3    H265374   8.180   4.439   9.622
21833TIP3   OH265375   7.897   4.405   9.345
21833TIP3    H165376   7.947   4.324   9.322
21833TIP3    H265377   7.956   4.472   9.302
21834TIP3   OH265378   8.037   4.192   9.243
21834TIP3    H165379   8.008   4.109   9.203
21834TIP3    H265380   8.072   4.159   9.329
21835TIP3   OH265381   7.715   3.675   9.270
21835TIP3    H165382   7.635   3.722   9.241
21835TIP3    H265383   7.764   3.665   9.186
21836TIP3   OH265384   7.671   3.450   8.987
21836TIP3    H165385   7.739   3.498   9.038
21836TIP3    H265386   7.728   3.387   8.939
21837TIP3   OH265387   8.050   3.743   9.251
21837TIP3    H165388   8.005   3.774   9.332
21837TIP3    H265389   8.122   3.688   9.291
21838TIP3   OH265390   7.288   3.750   9.652
21838TIP3    H165391   7.248   3.690   9.585
21838TIP3    H265392   7.365   3.698   9.683
21839TIP3   OH265393   7.410   4.154   9.806
21839TIP3    H165394   7.396   4.110   9.721
21839TIP3    H265395   7.500   4.123   9.829
21840TIP3   OH265396   7.422   3.716  10.016
21840TIP3    H165397   7.459   3.701   9.927
21840TIP3    H265398   7.469   3.797  10.044
21841TIP3   OH265399   7.955   4.351   9.817
21841TIP3    H165400   7.930   4.446   9.826
21841TIP3    H265401   7.908   4.311   9.891
21842TIP3   OH265402   7.896   3.609   9.068
21842TIP3    H165403   7.959   3.662   9.123
21842TIP3    H265404   7.926   3.634   8.977
21843TIP3   OH265405   7.641   4.289   9.339
21843TIP3    H165406   7.721   4.341   9.361
21843TIP3    H265407   7.579   4.357   9.309
21844TIP3   OH265408   7.159   3.586   9.461
21844TIP3    H165409   7.095   3.635   9.404
21844TIP3    H265410   7.110   3.504   9.477
21845TIP3   OH265411   8.214   4.216   8.660
21845TIP3    H165412   8.224   4.313   8.649
21845TIP3    H265413   8.307   4.186   8.650
21846TIP3   OH265414   6.798   4.178   9.998
21846TIP3    H165415   6.894   4.173   9.986
21846TIP3    H265416   6.789   4.258  10.052
21847TIP3   OH265417   7.521   4.533   9.143
21847TIP3    H165418   7.474   4.517   9.060
21847TIP3    H265419   7.492   4.623   9.168
21848TIP3   OH265420   6.961   4.383   9.526
21848TIP3    H165421   7.012   4.373   9.610
21848TIP3    H265422   6.898   4.310   9.536
21849TIP3   OH265423   7.725   4.434   8.784
21849TIP3    H165424   7.786   4.366   8.748
21849TIP3    H265425   7.759   4.444   8.876
21850TIP3   OH265426   7.774   4.481   9.055
21850TIP3    H165427   7.687   4.490   9.100
21850TIP3    H265428   7.828   4.442   9.125
21851TIP3   OH265429   7.969   3.663   8.810
21851TIP3    H165430   7.946   3.626   8.723
21851TIP3    H265431   8.056   3.702   8.791
21852TIP3   OH265432   7.687   3.032   9.109
21852TIP3    H165433   7.660   3.035   9.202
21852TIP3    H265434   7.645   2.948   9.081
21853TIP3   OH265435   7.368   3.369   9.681
21853TIP3    H165436   7.273   3.353   9.696
21853TIP3    H265437   7.375   3.337   9.588
21854TIP3   OH265438   7.830   3.452   9.390
21854TIP3    H165439   7.795   3.536   9.353
21854TIP3    H265440   7.917   3.446   9.347
21855TIP3   OH265441   7.344   2.999   9.081
21855TIP3    H165442   7.334   2.998   9.178
21855TIP3    H265443   7.266   3.051   9.056
21856TIP3   OH265444   6.911   3.079   9.915
21856TIP3    H165445   6.990   3.083   9.969
21856TIP3    H265446   6.931   3.010   9.849
21857TIP3   OH265447   6.864   3.028   9.470
21857TIP3    H165448   6.908   3.067   9.391
21857TIP3    H265449   6.804   3.102   9.492
21858TIP3   OH265450   7.689   3.196   9.789
21858TIP3    H165451   7.609   3.227   9.744
21858TIP3    H265452   7.745   3.276   9.783
21859TIP3   OH265453   7.122   3.258   9.744
21859TIP3    H165454   7.027   3.275   9.722
21859TIP3    H265455   7.132   3.166   9.719
21860TIP3   OH265456   7.387   3.256   9.432
21860TIP3    H165457   7.482   3.271   9.414
21860TIP3    H265458   7.343   3.282   9.347
21861TIP3   OH265459   7.229   3.286   9.210
21861TIP3    H165460   7.157   3.244   9.160
21861TIP3    H265461   7.282   3.324   9.136
21862TIP3   OH265462   7.323   3.015   9.706
21862TIP3    H165463   7.274   2.940   9.748
21862TIP3    H265464   7.323   2.987   9.613
21863TIP3   OH265465   7.481   3.822   9.215
21863TIP3    H165466   7.409   3.755   9.207
21863TIP3    H265467   7.467   3.854   9.308
21864TIP3   OH265468   7.942   3.133   9.066
21864TIP3    H165469   7.845   3.131   9.080
21864TIP3    H265470   7.969   3.222   9.100
21865TIP3   OH265471   8.026   3.371   9.168
21865TIP3    H165472   8.103   3.394   9.225
21865TIP3    H265473   8.009   3.457   9.125
21866TIP3   OH265474   7.179   3.846   9.889
21866TIP3    H165475   7.219   3.815   9.805
21866TIP3    H265476   7.213   3.782   9.953
21867TIP3   OH265477   7.626   3.969   9.033
21867TIP3    H165478   7.580   4.055   9.043
21867TIP3    H265479   7.575   3.913   9.096
21868TIP3   OH265480   8.457   3.419   8.947
21868TIP3    H165481   8.365   3.398   8.924
21868TIP3    H265482   8.457   3.514   8.926
21869TIP3   OH265483   8.151   4.288   8.926
21869TIP3    H165484   8.130   4.218   8.989
21869TIP3    H265485   8.165   4.238   8.843
21870TIP3   OH265486   7.274   4.142   9.515
21870TIP3    H165487   7.278   4.226   9.466
21870TIP3    H265488   7.180   4.132   9.530
21871TIP3   OH265489   6.839   3.450   9.220
21871TIP3    H165490   6.886   3.533   9.241
21871TIP3    H265491   6.762   3.457   9.281
21872TIP3   OH265492   7.417   3.911   9.463
21872TIP3    H165493   7.381   4.001   9.480
21872TIP3    H265494   7.378   3.862   9.538
21873TIP3   OH265495   7.549   4.481   9.967
21873TIP3    H165496   7.592   4.561   9.932
21873TIP3    H265497   7.611   4.451  10.035
21874TIP3   OH265498   7.196   4.383   9.371
21874TIP3    H165499   7.110   4.390   9.417
21874TIP3    H265500   7.227   4.476   9.375
21875TIP3   OH265501   7.907   4.018   8.830
21875TIP3    H165502   7.961   3.992   8.908
21875TIP3    H265503   7.820   3.989   8.859
21876TIP3   OH265504   8.249   4.491   8.651
21876TIP3    H165505   8.289   4.563   8.600
21876TIP3    H265506   8.168   4.538   8.682
21877TIP3   OH265507   8.062   3.948   9.051
21877TIP3    H165508   8.059   3.881   9.123
21877TIP3    H265509   8.157   3.946   9.029
21878TIP3   OH265510   6.985   4.372  10.131
21878TIP3    H165511   7.030   4.287  10.143
21878TIP3    H265512   7.016   4.417  10.211
21879TIP3   OH265513   7.264   4.000   8.824
21879TIP3    H165514   7.293   3.911   8.799
21879TIP3    H265515   7.254   3.989   8.921
21880TIP3   OH265516   7.222   4.001   9.099
21880TIP3    H165517   7.291   3.972   9.160
21880TIP3    H265518   7.225   4.099   9.109
21881TIP3   OH265519   6.956   3.695   9.305
21881TIP3    H165520   6.891   3.740   9.362
21881TIP3    H265521   6.971   3.765   9.238
21882TIP3   OH265522   7.920   3.122   9.356
21882TIP3    H165523   7.918   3.112   9.260
21882TIP3    H265524   8.017   3.132   9.367
21883TIP3   OH265525   7.482   4.199   9.042
21883TIP3    H165526   7.397   4.226   9.083
21883TIP3    H265527   7.506   4.281   8.997
21884TIP3   OH265528   7.662   3.257   9.463
21884TIP3    H165529   7.721   3.322   9.416
21884TIP3    H265530   7.720   3.240   9.539
21885TIP3   OH265531   7.225   4.274   9.117
21885TIP3    H165532   7.196   4.344   9.054
21885TIP3    H265533   7.210   4.317   9.203
21886TIP3   OH265534   7.330   2.988   9.362
21886TIP3    H165535   7.327   3.082   9.388
21886TIP3    H265536   7.426   2.971   9.369
21887TIP3   OH265537   6.945   3.907   9.111
21887TIP3    H165538   7.009   3.980   9.122
21887TIP3    H265539   6.993   3.854   9.044
21888TIP3   OH265540   6.892   3.180   9.244
21888TIP3    H165541   6.892   3.278   9.238
21888TIP3    H265542   6.809   3.157   9.201
21889TIP3   OH265543   8.208   4.621   9.588
21889TIP3    H165544   8.168   4.674   9.516
21889TIP3    H265545   8.303   4.631   9.570
21890TIP3   OH265546   6.818   4.114   9.500
21890TIP3    H165547   6.745   4.150   9.553
21890TIP3    H265548   6.799   4.156   9.413
21891TIP3   OH265549   7.444   4.187   8.722
21891TIP3    H165550   7.372   4.136   8.766
21891TIP3    H265551   7.518   4.126   8.742
21892TIP3   OH265552   7.877   4.249   8.650
21892TIP3    H165553   7.902   4.175   8.708
21892TIP3    H265554   7.949   4.249   8.585
21893TIP3   OH265555   7.083   3.719   8.962
21893TIP3    H165556   7.137   3.685   9.035
21893TIP3    H265557   7.150   3.724   8.891
21894TIP3   OH265558   7.567   3.918   8.768
21894TIP3    H165559   7.588   3.930   8.863
21894TIP3    H265560   7.579   3.821   8.760
21895TIP3   OH265561   7.289   3.620   9.184
21895TIP3    H165562   7.265   3.578   9.269
21895TIP3    H265563   7.326   3.544   9.134
21896TIP3   OH265564   7.390   3.411   9.027
21896TIP3    H165565   7.364   3.414   8.932
21896TIP3    H265566   7.488   3.420   9.019
21897TIP3   OH265567   8.207   3.748   8.684
21897TIP3    H165568   8.189   3.699   8.603
21897TIP3    H265569   8.177   3.838   8.657
21898TIP3   OH265570   7.196   4.475   8.928
21898TIP3    H165571   7.292   4.473   8.909
21898TIP3    H265572   7.165   4.527   8.851
21899TIP3   OH265573   6.677   3.857   9.148
21899TIP3    H165574   6.772   3.880   9.134
21899TIP3    H265575   6.672   3.769   9.104
21900TIP3   OH265576   6.593   4.470   9.557
21900TIP3    H165577   6.524   4.409   9.524
21900TIP3    H265578   6.635   4.414   9.625
21901TIP3   OH265579   6.727   4.323   9.744
21901TIP3    H165580   6.718   4.251   9.808
21901TIP3    H265581   6.783   4.384   9.796
21902TIP3   OH265582   8.472   4.725   9.546
21902TIP3    H165583   8.457   4.760   9.636
21902TIP3    H265584   8.467   4.803   9.489
21903TIP3   OH265585   8.337   3.940   9.001
21903TIP3    H165586   8.418   3.993   8.990
21903TIP3    H265587   8.343   3.913   9.096
21904TIP3   OH265588   8.347   3.840   9.251
21904TIP3    H165589   8.335   3.746   9.272
21904TIP3    H265590   8.443   3.851   9.266
21905TIP3   OH265591   8.411   3.704   8.865
21905TIP3    H165592   8.338   3.710   8.801
21905TIP3    H265593   8.388   3.780   8.923
21906TIP3   OH265594   8.219   3.390   8.821
21906TIP3    H165595   8.236   3.423   8.732
21906TIP3    H265596   8.217   3.293   8.808
21907TIP3   OH265597   6.935   3.774  10.079
21907TIP3    H165598   6.928   3.718  10.000
21907TIP3    H265599   7.023   3.750  10.113
21908TIP3   OH265600   8.225   3.117   8.821
21908TIP3    H165601   8.302   3.061   8.836
21908TIP3    H265602   8.149   3.056   8.829
21909TIP3   OH265603   6.877   2.892   9.701
21909TIP3    H165604   6.782   2.885   9.718
21909TIP3    H265605   6.880   2.945   9.619
21910TIP3   OH265606   8.035   4.588   9.202
21910TIP3    H165607   8.090   4.573   9.121
21910TIP3    H265608   8.088   4.654   9.250
21911TIP3   OH265609   7.215   4.635   9.998
21911TIP3    H165610   7.161   4.682  10.063
21911TIP3    H265611   7.214   4.695   9.922
21912TIP3   OH265612   7.657   4.705   9.816
21912TIP3    H165613   7.586   4.708   9.749
21912TIP3    H265614   7.654   4.794   9.851
21913TIP3   OH265615   7.919   4.617   9.851
21913TIP3    H165616   7.832   4.658   9.835
21913TIP3    H265617   7.980   4.691   9.830
21914TIP3   OH265618   8.095   4.816   9.778
21914TIP3    H165619   8.112   4.908   9.749
21914TIP3    H265620   8.151   4.764   9.717
21915TIP3   OH265621   6.903   4.477   9.893
21915TIP3    H165622   6.929   4.457   9.987
21915TIP3    H265623   6.981   4.438   9.848
21916TIP3   OH265624   7.101   4.346   9.757
21916TIP3    H165625   7.118   4.265   9.810
21916TIP3    H265626   7.189   4.388   9.758
21917TIP3   OH265627   7.363   4.445   9.760
21917TIP3    H165628   7.398   4.354   9.754
21917TIP3    H265629   7.398   4.469   9.848
21918TIP3   OH265630   7.204   2.811   9.829
21918TIP3    H165631   7.119   2.764   9.847
21918TIP3    H265632   7.253   2.789   9.910
21919TIP3   OH265633   6.956   2.679   9.502
21919TIP3    H165634   7.002   2.736   9.438
21919TIP3    H265635   6.948   2.737   9.580
21920TIP3   OH265636   6.695   4.245   9.297
21920TIP3    H165637   6.609   4.214   9.262
21920TIP3    H265638   6.683   4.341   9.284
21921TIP3   OH265639   7.093   2.839   9.279
21921TIP3    H165640   7.141   2.774   9.224
21921TIP3    H265641   7.166   2.892   9.316
21922TIP3   OH265642   7.610   3.002   9.382
21922TIP3    H165643   7.696   2.959   9.398
21922TIP3    H265644   7.631   3.095   9.408
21923TIP3   OH265645   7.465   4.433   8.873
21923TIP3    H165646   7.555   4.456   8.843
21923TIP3    H265647   7.446   4.359   8.812
21924TIP3   OH265648   8.184   4.554   8.970
21924TIP3    H165649   8.175   4.456   8.956
21924TIP3    H265650   8.141   4.588   8.889
21925TIP3   OH265651   6.771   4.275   8.937
21925TIP3    H165652   6.766   4.304   9.029
21925TIP3    H265653   6.861   4.236   8.931
21926TIP3   OH265654   8.555   4.099   8.920
21926TIP3    H165655   8.515   4.118   8.833
21926TIP3    H265656   8.581   4.187   8.952
21927TIP3   OH265657   9.304   4.777   8.628
21927TIP3    H165658   9.261   4.763   8.542
21927TIP3    H265659   9.270   4.865   8.656
21928TIP3   OH265660   8.759   4.640   9.015
21928TIP3    H165661   8.817   4.605   9.084
21928TIP3    H265662   8.693   4.569   9.011
21929TIP3   OH265663   9.518   4.683   8.257
21929TIP3    H165664   9.580   4.612   8.229
21929TIP3    H265665   9.547   4.700   8.349
21930TIP3   OH265666   9.547   4.743   8.521
21930TIP3    H165667   9.461   4.759   8.567
21930TIP3    H265668   9.581   4.671   8.576
21931TIP3   OH265669   9.329   4.211   8.529
21931TIP3    H165670   9.309   4.306   8.549
21931TIP3    H265671   9.396   4.188   8.593
21932TIP3   OH265672   9.010   4.461   9.043
21932TIP3    H165673   9.055   4.488   8.961
21932TIP3    H265674   8.980   4.372   9.020
21933TIP3   OH265675   8.632   3.713   8.701
21933TIP3    H165676   8.680   3.794   8.729
21933TIP3    H265677   8.561   3.708   8.768
21934TIP3   OH265678   8.986   4.650   8.837
21934TIP3    H165679   8.908   4.650   8.894
21934TIP3    H265680   9.019   4.742   8.849
21935TIP3   OH265681   9.965   4.721   8.081
21935TIP3    H165682  10.023   4.785   8.037
21935TIP3    H265683   9.922   4.779   8.146
21936TIP3   OH265684   9.070   4.254   8.316
21936TIP3    H165685   9.083   4.163   8.283
21936TIP3    H265686   9.057   4.238   8.411
21937TIP3   OH265687   9.014   4.259   8.592
21937TIP3    H165688   9.071   4.243   8.668
21937TIP3    H265689   9.014   4.358   8.589
21938TIP3   OH265690   8.754   3.949   8.774
21938TIP3    H165691   8.706   3.981   8.852
21938TIP3    H265692   8.762   4.031   8.722
21939TIP3   OH265693   9.277   4.473   8.558
21939TIP3    H165694   9.186   4.501   8.581
21939TIP3    H265695   9.297   4.535   8.487
21940TIP3   OH265696   9.013   4.530   8.597
21940TIP3    H165697   8.985   4.600   8.533
21940TIP3    H265698   8.999   4.577   8.683
21941TIP3   OH265699   8.740   4.170   8.596
21941TIP3    H165700   8.806   4.241   8.600
21941TIP3    H265701   8.784   4.113   8.529
21942TIP3   OH265702   8.661   3.426   8.671
21942TIP3    H165703   8.694   3.512   8.703
21942TIP3    H265704   8.617   3.397   8.753
21943TIP3   OH265705   8.619   4.383   9.000
21943TIP3    H165706   8.534   4.411   9.036
21943TIP3    H265707   8.607   4.411   8.907
21944TIP3   OH265708   9.236   4.457   8.235
21944TIP3    H165709   9.178   4.384   8.268
21944TIP3    H265710   9.308   4.405   8.193
21945TIP3   OH265711   9.678   4.486   8.145
21945TIP3    H165712   9.755   4.438   8.176
21945TIP3    H265713   9.708   4.508   8.054
21946TIP3   OH265714   8.869   3.983   8.440
21946TIP3    H165715   8.910   3.926   8.506
21946TIP3    H265716   8.941   3.987   8.373
21947TIP3   OH265717   9.376   4.170   8.254
21947TIP3    H165718   9.354   4.179   8.349
21947TIP3    H265719   9.381   4.073   8.248
21948TIP3   OH265720   8.992   4.734   8.415
21948TIP3    H165721   9.088   4.732   8.394
21948TIP3    H265722   8.960   4.781   8.336
21949TIP3   OH265723   8.473   4.115   8.634
21949TIP3    H165724   8.568   4.137   8.621
21949TIP3    H265725   8.470   4.025   8.593
21950TIP3   OH265726   8.387   4.727   9.044
21950TIP3    H165727   8.319   4.664   9.010
21950TIP3    H265728   8.432   4.670   9.111
21951TIP3   OH265729   8.523   4.582   9.232
21951TIP3    H165730   8.499   4.511   9.293
21951TIP3    H265731   8.580   4.638   9.288
21952TIP3   OH265732   8.731   4.726   9.363
21952TIP3    H165733   8.746   4.712   9.458
21952TIP3    H265734   8.820   4.713   9.328
21953TIP3   OH265735   8.490   4.502   8.790
21953TIP3    H165736   8.407   4.468   8.752
21953TIP3    H265737   8.478   4.596   8.772
21954TIP3   OH265738   9.260   4.697   8.361
21954TIP3    H165739   9.347   4.720   8.322
21954TIP3    H265740   9.240   4.619   8.305
21955TIP3   OH265741   8.566   4.531   8.422
21955TIP3    H165742   8.567   4.560   8.515
21955TIP3    H265743   8.654   4.489   8.412
21956TIP3   OH265744   4.155   5.462   9.879
21956TIP3    H165745   4.073   5.425   9.844
21956TIP3    H265746   4.128   5.486   9.968
21957TIP3   OH265747   3.729   4.755   9.632
21957TIP3    H165748   3.797   4.813   9.675
21957TIP3    H265749   3.790   4.691   9.588
21958TIP3   OH265750   3.931   4.904   9.731
21958TIP3    H165751   4.002   4.911   9.797
21958TIP3    H265752   3.975   4.934   9.649
21959TIP3   OH265753   4.258   5.517   9.326
21959TIP3    H165754   4.266   5.615   9.313
21959TIP3    H265755   4.351   5.489   9.313
21960TIP3   OH265756   3.596   5.855   9.795
21960TIP3    H165757   3.539   5.824   9.723
21960TIP3    H265758   3.561   5.945   9.813
21961TIP3   OH265759   3.772   5.734   9.448
21961TIP3    H165760   3.830   5.665   9.409
21961TIP3    H265761   3.810   5.743   9.537
21962TIP3   OH265762   3.837   5.779   9.712
21962TIP3    H165763   3.749   5.797   9.752
21962TIP3    H265764   3.880   5.729   9.782
21963TIP3   OH265765   4.023   4.953   9.475
21963TIP3    H165766   3.989   4.928   9.387
21963TIP3    H265767   4.100   5.008   9.452
21964TIP3   OH265768   3.673   5.264   9.691
21964TIP3    H165769   3.631   5.352   9.704
21964TIP3    H265770   3.618   5.208   9.747
21965TIP3   OH265771   4.516   4.775   9.666
21965TIP3    H165772   4.450   4.726   9.613
21965TIP3    H265773   4.495   4.865   9.632
21966TIP3   OH265774   4.195   5.589   9.592
21966TIP3    H165775   4.185   5.518   9.658
21966TIP3    H265776   4.207   5.540   9.508
21967TIP3   OH265777   3.946   5.316   9.487
21967TIP3    H165778   4.004   5.287   9.562
21967TIP3    H265779   3.860   5.288   9.521
21968TIP3   OH265780   4.293   5.793   9.313
21968TIP3    H165781   4.330   5.865   9.259
21968TIP3    H265782   4.212   5.838   9.346
21969TIP3   OH265783   4.107   5.240   9.693
21969TIP3    H165784   4.087   5.208   9.783
21969TIP3    H265785   4.205   5.243   9.694
21970TIP3   OH265786   3.326   5.299   9.495
21970TIP3    H165787   3.343   5.221   9.440
21970TIP3    H265788   3.296   5.256   9.576
21971TIP3   OH265789   3.526   5.497   9.697
21971TIP3    H165790   3.430   5.517   9.690
21971TIP3    H265791   3.560   5.552   9.625
21972TIP3   OH265792   3.262   5.561   9.731
21972TIP3    H165793   3.230   5.624   9.663
21972TIP3    H265794   3.267   5.623   9.806
21973TIP3   OH265795   3.486   5.504   9.405
21973TIP3    H165796   3.431   5.432   9.442
21973TIP3    H265797   3.558   5.453   9.363
21974TIP3   OH265798   3.920   5.545   9.315
21974TIP3    H165799   3.963   5.479   9.373
21974TIP3    H265800   3.976   5.545   9.236
21975TIP3   OH265801   3.163   5.074   9.609
21975TIP3    H165802   3.165   4.986   9.652
21975TIP3    H265803   3.215   5.054   9.528
21976TIP3   OH265804   3.630   5.214   9.426
21976TIP3    H165805   3.637   5.227   9.523
21976TIP3    H265806   3.631   5.116   9.422
21977TIP3   OH265807   3.436   4.768   9.676
21977TIP3    H165808   3.376   4.761   9.599
21977TIP3    H265809   3.523   4.769   9.632
21978TIP3   OH265810   4.262   5.048   9.348
21978TIP3    H165811   4.236   5.000   9.267
21978TIP3    H265812   4.228   5.137   9.324
21979TIP3   OH265813   3.237   5.775   9.573
21979TIP3    H165814   3.333   5.784   9.563
21979TIP3    H265815   3.206   5.830   9.499
21980TIP3   OH265816   4.390   5.239   9.680
21980TIP3    H165817   4.460   5.302   9.653
21980TIP3    H265818   4.434   5.194   9.755
21981TIP3   OH265819   4.524   5.101   9.868
21981TIP3    H165820   4.464   5.069   9.938
21981TIP3    H265821   4.596   5.144   9.919
21982TIP3   OH265822   4.458   5.012   9.534
21982TIP3    H165823   4.386   5.014   9.467
21982TIP3    H265824   4.429   5.087   9.589
21983TIP3   OH265825   4.338   4.678   9.488
21983TIP3    H165826   4.287   4.724   9.421
21983TIP3    H265827   4.309   4.585   9.474
21984TIP3   OH265828   4.274   4.413   9.471
21984TIP3    H165829   4.351   4.387   9.526
21984TIP3    H265830   4.199   4.366   9.511
21985TIP3   OH265831   4.518   4.369   9.596
21985TIP3    H165832   4.560   4.292   9.555
21985TIP3    H265833   4.590   4.435   9.592
21986TIP3   OH265834   4.089   5.898   9.866
21986TIP3    H165835   4.135   5.882   9.781
21986TIP3    H265836   4.144   5.968   9.905
21987TIP3   OH265837   3.511   5.746   9.538
21987TIP3    H165838   3.601   5.765   9.503
21987TIP3    H265839   3.486   5.673   9.478
21988TIP3   OH265840   4.230   5.856   9.632
21988TIP3    H165841   4.221   5.758   9.619
21988TIP3    H265842   4.186   5.889   9.552
21989TIP3   OH265843   2.840   5.609   9.606
21989TIP3    H165844   2.859   5.661   9.687
21989TIP3    H265845   2.923   5.559   9.592
21990TIP3   OH265846   5.727   5.376   9.593
21990TIP3    H165847   5.721   5.473   9.596
21990TIP3    H265848   5.649   5.358   9.541
21991TIP3   OH265849   5.706   5.370   9.959
21991TIP3    H165850   5.738   5.353  10.050
21991TIP3    H265851   5.672   5.281   9.935
21992TIP3   OH265852   5.956   5.672   9.651
21992TIP3    H165853   5.961   5.606   9.722
21992TIP3    H265854   5.991   5.751   9.697
21993TIP3   OH265855   5.005   5.675  10.081
21993TIP3    H165856   4.991   5.581  10.054
21993TIP3    H265857   5.098   5.689  10.055
21994TIP3   OH265858   4.703   4.879   9.840
21994TIP3    H165859   4.659   4.965   9.855
21994TIP3    H265860   4.639   4.840   9.776
21995TIP3   OH265861   4.787   5.173   9.941
21995TIP3    H165862   4.807   5.111  10.012
21995TIP3    H265863   4.860   5.163   9.880
21996TIP3   OH265864   5.609   6.134   9.666
21996TIP3    H165865   5.659   6.065   9.618
21996TIP3    H265866   5.612   6.102   9.757
21997TIP3   OH265867   5.519   5.587   9.993
21997TIP3    H165868   5.572   5.511   9.964
21997TIP3    H265869   5.591   5.643  10.028
21998TIP3   OH265870   6.544   4.932  10.020
21998TIP3    H165871   6.533   5.018  10.063
21998TIP3    H265872   6.557   4.958   9.927
21999TIP3   OH265873   5.942   5.104  10.058
21999TIP3    H165874   5.974   5.012  10.068
21999TIP3    H265875   5.909   5.098   9.966
22000TIP3   OH265876   5.290   4.755   9.983
22000TIP3    H165877   5.242   4.833   9.952
22000TIP3    H265878   5.226   4.683   9.961
22001TIP3   OH265879   5.965   4.851   9.640
22001TIP3    H165880   6.034   4.832   9.708
22001TIP3    H265881   6.022   4.884   9.567
22002TIP3   OH265882   5.361   5.155   9.823
22002TIP3    H165883   5.428   5.152   9.895
22002TIP3    H265884   5.312   5.072   9.842
22003TIP3   OH265885   5.597   5.581   9.457
22003TIP3    H165886   5.578   5.581   9.362
22003TIP3    H265887   5.568   5.672   9.482
22004TIP3   OH265888   6.175   4.848   9.817
22004TIP3    H165889   6.185   4.811   9.907
22004TIP3    H265890   6.229   4.928   9.829
22005TIP3   OH265891   4.600   5.401   9.578
22005TIP3    H165892   4.554   5.427   9.496
22005TIP3    H265893   4.626   5.487   9.615
22006TIP3   OH265894   6.027   5.907   9.806
22006TIP3    H165895   5.938   5.908   9.848
22006TIP3    H265896   6.032   6.000   9.774
22007TIP3   OH265897   6.297   4.798  10.064
22007TIP3    H165898   6.271   4.818  10.156
22007TIP3    H265899   6.386   4.838  10.060
22008TIP3   OH265900   5.736   5.964   9.492
22008TIP3    H165901   5.788   5.883   9.471
22008TIP3    H265902   5.796   6.031   9.452
22009TIP3   OH265903   5.874   5.746   9.398
22009TIP3    H165904   5.860   5.663   9.350
22009TIP3    H265905   5.911   5.714   9.483
22010TIP3   OH265906   5.514   5.009   9.145
22010TIP3    H165907   5.586   5.063   9.183
22010TIP3    H265908   5.567   4.943   9.096
22011TIP3   OH265909   6.456   5.454   9.994
22011TIP3    H165910   6.378   5.511  10.012
22011TIP3    H265911   6.488   5.496   9.912
22012TIP3   OH265912   5.901   5.306   9.394
22012TIP3    H165913   5.854   5.333   9.476
22012TIP3    H265914   5.986   5.276   9.432
22013TIP3   OH265915   5.125   5.296   9.809
22013TIP3    H165916   5.075   5.242   9.744
22013TIP3    H265917   5.197   5.235   9.835
22014TIP3   OH265918   5.254   5.705   9.956
22014TIP3    H165919   5.253   5.668   9.867
22014TIP3    H265920   5.345   5.684   9.985
22015TIP3   OH265921   5.362   5.257  10.100
22015TIP3    H165922   5.345   5.335  10.046
22015TIP3    H265923   5.393   5.294  10.186
22016TIP3   OH265924   5.788   5.919   9.931
22016TIP3    H165925   5.778   6.001   9.983
22016TIP3    H265926   5.773   5.848   9.995
22017TIP3   OH265927   5.743   5.158   9.222
22017TIP3    H165928   5.796   5.222   9.274
22017TIP3    H265929   5.765   5.186   9.130
22018TIP3   OH265930   5.482   5.844   9.493
22018TIP3    H165931   5.561   5.898   9.513
22018TIP3    H265932   5.422   5.910   9.457
22019TIP3   OH265933   6.257   4.406   9.265
22019TIP3    H165934   6.176   4.426   9.316
22019TIP3    H265935   6.269   4.490   9.216
22020TIP3   OH265936   4.997   5.151   9.617
22020TIP3    H165937   4.931   5.194   9.559
22020TIP3    H265938   4.962   5.061   9.624
22021TIP3   OH265939   6.055   5.774   8.813
22021TIP3    H165940   6.063   5.871   8.799
22021TIP3    H265941   6.147   5.745   8.800
22022TIP3   OH265942   5.363   6.090   9.294
22022TIP3    H165943   5.318   6.073   9.210
22022TIP3    H265944   5.332   6.180   9.316
22023TIP3   OH265945   4.803   5.941   9.677
22023TIP3    H165946   4.852   5.931   9.762
22023TIP3    H265947   4.737   5.871   9.687
22024TIP3   OH265948   5.567   5.991   8.935
22024TIP3    H165949   5.626   5.922   8.899
22024TIP3    H265950   5.601   6.000   9.027
22025TIP3   OH265951   5.615   6.039   9.206
22025TIP3    H165952   5.528   6.048   9.249
22025TIP3    H265953   5.669   6.003   9.278
22026TIP3   OH265954   5.815   5.214   8.964
22026TIP3    H165955   5.783   5.186   8.876
22026TIP3    H265956   5.896   5.262   8.939
22027TIP3   OH265957   5.531   4.589   9.263
22027TIP3    H165958   5.500   4.585   9.356
22027TIP3    H265959   5.492   4.505   9.230
22028TIP3   OH265960   5.182   4.954   9.814
22028TIP3    H165961   5.098   4.912   9.843
22028TIP3    H265962   5.201   4.901   9.733
22029TIP3   OH265963   5.686   5.034   9.530
22029TIP3    H165964   5.656   5.090   9.457
22029TIP3    H265965   5.759   4.986   9.484
22030TIP3   OH265966   5.856   5.056   9.794
22030TIP3    H165967   5.797   5.088   9.724
22030TIP3    H265968   5.887   4.973   9.754
22031TIP3   OH265969   5.187   4.560   9.228
22031TIP3    H165970   5.179   4.555   9.325
22031TIP3    H265971   5.105   4.608   9.205
22032TIP3   OH265972   4.707   4.585   9.608
22032TIP3    H165973   4.752   4.627   9.532
22032TIP3    H265974   4.645   4.657   9.632
22033TIP3   OH265975   5.817   5.299  10.202
22033TIP3    H165976   5.876   5.235  10.156
22033TIP3    H265977   5.852   5.299  10.292
22034TIP3   OH265978   5.539   4.771   9.873
22034TIP3    H165979   5.453   4.764   9.921
22034TIP3    H265980   5.603   4.754   9.945
22035TIP3   OH265981   4.968   4.811   9.885
22035TIP3    H165982   4.873   4.822   9.865
22035TIP3    H265983   4.984   4.715   9.874
22036TIP3   OH265984   5.232   4.819   9.583
22036TIP3    H165985   5.327   4.822   9.560
22036TIP3    H265986   5.187   4.835   9.497
22037TIP3   OH265987   5.992   4.843  10.073
22037TIP3    H165988   5.976   4.822  10.167
22037TIP3    H265989   5.959   4.764  10.029
22038TIP3   OH265990   5.069   4.852   9.363
22038TIP3    H165991   4.996   4.804   9.319
22038TIP3    H265992   5.120   4.881   9.285
22039TIP3   OH265993   5.611   5.104   9.952
22039TIP3    H165994   5.683   5.044   9.927
22039TIP3    H265995   5.597   5.081  10.047
22040TIP3   OH265996   5.135   4.559   9.858
22040TIP3    H165997   5.146   4.476   9.907
22040TIP3    H265998   5.197   4.546   9.786
22041TIP3   OH265999   6.227   5.601  10.003
22041TIP3    H166000   6.255   5.664   9.934
22041TIP3    H266001   6.138   5.576   9.973
22042TIP3   OH266002   5.782   4.691   9.226
22042TIP3    H166003   5.686   4.674   9.237
22042TIP3    H266004   5.792   4.785   9.252
22043TIP3   OH266005   5.855   4.933   9.336
22043TIP3    H166006   5.952   4.939   9.350
22043TIP3    H266007   5.837   5.011   9.281
22044TIP3   OH266008   5.003   5.407  10.029
22044TIP3    H166009   5.036   5.369   9.945
22044TIP3    H266010   5.017   5.335  10.092
22045TIP3   OH266011   5.470   5.530   9.192
22045TIP3    H166012   5.427   5.619   9.197
22045TIP3    H266013   5.403   5.475   9.233
22046TIP3   OH266014   6.295   5.024   9.170
22046TIP3    H166015   6.232   4.979   9.109
22046TIP3    H266016   6.292   5.113   9.128
22047TIP3   OH266017   5.991   5.846   9.076
22047TIP3    H166018   5.971   5.775   9.138
22047TIP3    H266019   6.006   5.799   8.992
22048TIP3   OH266020   5.978   5.475   9.922
22048TIP3    H166021   5.886   5.442   9.921
22048TIP3    H266022   6.024   5.400   9.879
22049TIP3   OH266023   5.118   5.689   9.655
22049TIP3    H166024   5.123   5.777   9.613
22049TIP3    H266025   5.024   5.687   9.679
22050TIP3   OH266026   4.679   5.009   9.372
22050TIP3    H166027   4.723   5.093   9.392
22050TIP3    H266028   4.601   5.014   9.431
22051TIP3   OH266029   5.269   5.453   9.636
22051TIP3    H166030   5.248   5.548   9.621
22051TIP3    H266031   5.203   5.434   9.705
22052TIP3   OH266032   5.385   6.048  10.114
22052TIP3    H166033   5.433   6.122  10.073
22052TIP3    H266034   5.448   6.013  10.178
22053TIP3   OH266035   5.038   5.939   9.523
22053TIP3    H166036   4.952   5.947   9.568
22053TIP3    H266037   5.069   6.033   9.526
22054TIP3   OH266038   5.771   5.689  10.090
22054TIP3    H166039   5.771   5.690  10.188
22054TIP3    H266040   5.850   5.637  10.068
22055TIP3   OH266041   5.749   5.571   8.980
22055TIP3    H166042   5.801   5.548   9.060
22055TIP3    H266043   5.660   5.545   9.008
22056TIP3   OH266044   6.088   6.049   8.800
22056TIP3    H166045   6.128   6.122   8.749
22056TIP3    H266046   6.008   6.095   8.832
22057TIP3   OH266047   5.907   5.510   9.203
22057TIP3    H166048   5.900   5.439   9.269
22057TIP3    H266049   6.004   5.507   9.185
22058TIP3   OH266050   5.118   5.554   8.977
22058TIP3    H166051   5.128   5.462   8.946
22058TIP3    H266052   5.099   5.541   9.072
22059TIP3   OH266053   5.069   5.557   9.249
22059TIP3    H166054   5.112   5.536   9.332
22059TIP3    H266055   5.068   5.656   9.253
22060TIP3   OH266056   4.801   5.256   9.454
22060TIP3    H166057   4.733   5.297   9.512
22060TIP3    H266058   4.809   5.326   9.387
22061TIP3   OH266059   5.826   4.647   9.506
22061TIP3    H166060   5.813   4.670   9.412
22061TIP3    H266061   5.869   4.727   9.543
22062TIP3   OH266062   5.326   5.757   9.200
22062TIP3    H166063   5.239   5.785   9.235
22062TIP3    H266064   5.344   5.829   9.137
22063TIP3   OH266065   5.513   4.825   9.608
22063TIP3    H166066   5.585   4.890   9.592
22063TIP3    H266067   5.521   4.811   9.705
22064TIP3   OH266068   5.668   4.562   9.714
22064TIP3    H166069   5.668   4.637   9.776
22064TIP3    H266070   5.729   4.593   9.644
22065TIP3   OH266071   5.067   5.830   9.267
22065TIP3    H166072   5.038   5.899   9.203
22065TIP3    H266073   5.052   5.875   9.353
22066TIP3   OH266074   5.170   4.544   9.502
22066TIP3    H166075   5.166   4.631   9.545
22066TIP3    H266076   5.265   4.523   9.515
22067TIP3   OH266077   6.075   5.236   9.790
22067TIP3    H166078   6.003   5.172   9.804
22067TIP3    H266079   6.150   5.192   9.835
22068TIP3   OH266080   4.787   5.463   9.264
22068TIP3    H166081   4.841   5.544   9.266
22068TIP3    H266082   4.834   5.414   9.193
22069TIP3   OH266083   4.737   4.741   9.385
22069TIP3    H166084   4.729   4.838   9.385
22069TIP3    H266085   4.649   4.713   9.356
22070TIP3   OH266086   6.043   6.180   9.735
22070TIP3    H166087   6.004   6.232   9.663
22070TIP3    H266088   6.138   6.200   9.722
22071TIP3   OH266089   4.659   5.672   9.651
22071TIP3    H166090   4.586   5.708   9.703
22071TIP3    H266091   4.641   5.714   9.564
22072TIP3   OH266092   5.280   5.760   8.893
22072TIP3    H166093   5.223   5.687   8.929
22072TIP3    H266094   5.354   5.708   8.856
22073TIP3   OH266095   5.715   5.800   8.802
22073TIP3    H166096   5.763   5.739   8.860
22073TIP3    H266097   5.771   5.802   8.722
22074TIP3   OH266098   4.920   5.280   9.107
22074TIP3    H166099   4.972   5.239   9.178
22074TIP3    H266100   4.988   5.283   9.036
22075TIP3   OH266101   5.432   5.474   8.919
22075TIP3    H166102   5.434   5.487   9.015
22075TIP3    H266103   5.432   5.375   8.914
22076TIP3   OH266104   5.173   5.164   9.372
22076TIP3    H166105   5.098   5.124   9.418
22076TIP3    H266106   5.187   5.101   9.298
22077TIP3   OH266107   5.230   4.972   9.175
22077TIP3    H166108   5.203   4.970   9.080
22077TIP3    H266109   5.327   4.977   9.166
22078TIP3   OH266110   6.054   5.304   8.837
22078TIP3    H166111   6.032   5.256   8.755
22078TIP3    H266112   6.023   5.394   8.812
22079TIP3   OH266113   5.038   6.032   9.079
22079TIP3    H166114   5.133   6.032   9.060
22079TIP3    H266115   5.005   6.081   9.001
22080TIP3   OH266116   4.518   5.415   9.297
22080TIP3    H166117   4.613   5.436   9.284
22080TIP3    H266118   4.512   5.327   9.254
22081TIP3   OH266119   4.434   6.029   9.705
22081TIP3    H166120   4.366   5.966   9.672
22081TIP3    H266121   4.478   5.974   9.774
22082TIP3   OH266122   4.570   5.887   9.893
22082TIP3    H166123   4.546   5.819   9.957
22082TIP3    H266124   4.610   5.954   9.953
22083TIP3   OH266125   6.295   6.282   9.693
22083TIP3    H166126   6.319   6.328   9.774
22083TIP3    H266127   6.353   6.325   9.629
22084TIP3   OH266128   6.187   5.491   9.171
22084TIP3    H166129   6.256   5.555   9.144
22084TIP3    H266130   6.229   5.451   9.250
22085TIP3   OH266131   6.314   5.358   9.374
22085TIP3    H166132   6.250   5.316   9.435
22085TIP3    H266133   6.380   5.398   9.435
22086TIP3   OH266134   6.342   5.737   9.794
22086TIP3    H166135   6.420   5.687   9.764
22086TIP3    H266136   6.348   5.819   9.743
22087TIP3   OH266137   6.212   6.045   9.991
22087TIP3    H166138   6.143   6.086  10.043
22087TIP3    H266139   6.163   5.981   9.937
22088TIP3   OH266140   6.254   5.265   9.022
22088TIP3    H166141   6.182   5.269   8.955
22088TIP3    H266142   6.228   5.342   9.078
22089TIP3   OH266143   6.123   4.939   8.978
22089TIP3    H166144   6.084   4.979   8.899
22089TIP3    H266145   6.097   4.845   8.967
22090TIP3   OH266146   6.129   5.212   9.521
22090TIP3    H166147   6.142   5.116   9.520
22090TIP3    H266148   6.117   5.230   9.618
22091TIP3   OH266149   6.068   4.674   8.965
22091TIP3    H166150   6.145   4.643   9.017
22091TIP3    H266151   5.997   4.613   8.991
22092TIP3   OH266152   6.126   4.928   9.417
22092TIP3    H166153   6.166   4.839   9.431
22092TIP3    H266154   6.185   4.962   9.348
22093TIP3   OH266155   6.289   5.109   9.901
22093TIP3    H166156   6.378   5.133   9.868
22093TIP3    H266157   6.296   5.143   9.992
22094TIP3   OH266158   6.336   5.242  10.135
22094TIP3    H166159   6.285   5.281  10.207
22094TIP3    H266160   6.385   5.319  10.098
22095TIP3   OH266161   6.233   4.679   9.452
22095TIP3    H166162   6.284   4.665   9.535
22095TIP3    H266163   6.174   4.601   9.454
22096TIP3   OH266164   6.317   4.616   9.085
22096TIP3    H166165   6.357   4.543   9.034
22096TIP3    H266166   6.384   4.686   9.078
22097TIP3   OH266167   4.746   4.470   9.848
22097TIP3    H166168   4.654   4.476   9.879
22097TIP3    H266169   4.741   4.516   9.762
22098TIP3   OH266170   5.876   6.146   9.351
22098TIP3    H166171   5.933   6.133   9.272
22098TIP3    H266172   5.929   6.210   9.403
22099TIP3   OH266173   5.069   6.207  10.155
22099TIP3    H166174   5.000   6.236  10.214
22099TIP3    H266175   5.052   6.256  10.073
22100TIP3   OH266176   5.496   6.261   9.965
22100TIP3    H166177   5.425   6.266   9.897
22100TIP3    H266178   5.495   6.351  10.000
22101TIP3   OH266179   5.759   6.180  10.019
22101TIP3    H166180   5.674   6.215   9.986
22101TIP3    H266181   5.823   6.250   9.991
22102TIP3   OH266182   5.939   6.373   9.925
22102TIP3    H166183   5.955   6.462   9.889
22102TIP3    H266184   5.990   6.317   9.864
22103TIP3   OH266185   4.753   6.044  10.044
22103TIP3    H166186   4.746   6.011  10.135
22103TIP3    H266187   4.826   5.990  10.007
22104TIP3   OH266188   4.944   5.898   9.909
22104TIP3    H166189   4.962   5.821   9.966
22104TIP3    H266190   5.031   5.943   9.909
22105TIP3   OH266191   5.203   6.002   9.911
22105TIP3    H166192   5.241   5.913   9.906
22105TIP3    H266193   5.239   6.029   9.999
22106TIP3   OH266194   5.771   4.652   9.991
22106TIP3    H166195   5.761   4.590  10.064
22106TIP3    H266196   5.850   4.615   9.945
22107TIP3   OH266197   6.298   4.529   9.885
22107TIP3    H166198   6.341   4.589   9.821
22107TIP3    H266199   6.224   4.583   9.915
22108TIP3   OH266200   6.405   4.644   9.662
22108TIP3    H166201   6.479   4.592   9.625
22108TIP3    H266202   6.439   4.736   9.650
22109TIP3   OH266203   4.798   4.238   9.651
22109TIP3    H166204   4.841   4.301   9.590
22109TIP3    H266205   4.777   4.295   9.728
22110TIP3   OH266206   5.521   4.394   9.881
22110TIP3    H166207   5.567   4.473   9.849
22110TIP3    H266208   5.468   4.426   9.955
22111TIP3   OH266209   6.000   4.543   9.888
22111TIP3    H166210   6.025   4.516   9.799
22111TIP3    H266211   5.997   4.458   9.936
22112TIP3   OH266212   6.051   4.464   9.444
22112TIP3    H166213   5.964   4.506   9.455
22112TIP3    H266214   6.037   4.380   9.492
22113TIP3   OH266215   4.536   5.804   9.448
22113TIP3    H166216   4.451   5.771   9.412
22113TIP3    H266217   4.524   5.899   9.433
22114TIP3   OH266218   4.934   4.399   9.427
22114TIP3    H166219   4.983   4.332   9.375
22114TIP3    H266220   5.006   4.450   9.467
22115TIP3   OH266221   5.448   4.569   9.531
22115TIP3    H166222   5.501   4.519   9.594
22115TIP3    H266223   5.474   4.660   9.556
22116TIP3   OH266224   5.307   5.997   9.028
22116TIP3    H166225   5.396   6.018   8.993
22116TIP3    H266226   5.285   5.921   8.969
22117TIP3   OH266227   6.026   6.112   9.120
22117TIP3    H166228   6.016   6.015   9.107
22117TIP3    H266229   5.981   6.146   9.040
22118TIP3   OH266230   4.611   5.833   9.087
22118TIP3    H166231   4.608   5.861   9.179
22118TIP3    H266232   4.700   5.793   9.079
22119TIP3   OH266233   7.519   5.627   9.075
22119TIP3    H166234   7.493   5.720   9.059
22119TIP3    H266235   7.438   5.581   9.045
22120TIP3   OH266236   7.507   5.629   9.452
22120TIP3    H166237   7.541   5.609   9.542
22120TIP3    H266238   7.470   5.543   9.425
22121TIP3   OH266239   6.822   5.529   9.816
22121TIP3    H166240   6.840   5.496   9.904
22121TIP3    H266241   6.903   5.577   9.793
22122TIP3   OH266242   7.753   5.925   9.138
22122TIP3    H166243   7.752   5.853   9.204
22122TIP3    H266244   7.788   5.998   9.190
22123TIP3   OH266245   6.790   5.934   9.551
22123TIP3    H166246   6.780   5.836   9.552
22123TIP3    H266247   6.886   5.941   9.538
22124TIP3   OH266248   6.496   5.140   9.333
22124TIP3    H166249   6.447   5.223   9.347
22124TIP3    H266250   6.425   5.083   9.298
22125TIP3   OH266251   6.555   5.424   9.497
22125TIP3    H166252   6.603   5.349   9.538
22125TIP3    H266253   6.616   5.452   9.428
22126TIP3   OH266254   7.376   6.375   9.136
22126TIP3    H166255   7.436   6.321   9.081
22126TIP3    H266256   7.407   6.349   9.224
22127TIP3   OH266257   7.306   5.846   9.496
22127TIP3    H166258   7.348   5.769   9.455
22127TIP3    H266259   7.387   5.900   9.513
22128TIP3   OH266260   8.301   5.176   9.496
22128TIP3    H166261   8.354   5.243   9.541
22128TIP3    H266262   8.332   5.187   9.404
22129TIP3   OH266263   7.731   5.354   9.540
22129TIP3    H166264   7.774   5.267   9.554
22129TIP3    H266265   7.700   5.344   9.448
22130TIP3   OH266266   7.063   5.016   9.504
22130TIP3    H166267   7.043   5.088   9.440
22130TIP3    H266268   7.016   4.942   9.459
22131TIP3   OH266269   7.759   5.105   9.126
22131TIP3    H166270   7.831   5.088   9.191
22131TIP3    H266271   7.810   5.142   9.052
22132TIP3   OH266272   6.700   5.221   9.608
22132TIP3    H166273   6.782   5.197   9.656
22132TIP3    H266274   6.709   5.163   9.530
22133TIP3   OH266275   7.141   5.416   9.399
22133TIP3    H166276   7.235   5.391   9.412
22133TIP3    H266277   7.102   5.331   9.368
22134TIP3   OH266278   7.064   4.997   9.938
22134TIP3    H166279   7.003   5.034   9.872
22134TIP3    H266280   7.007   4.988  10.015
22135TIP3   OH266281   7.410   5.850   8.947
22135TIP3    H166282   7.368   5.827   8.863
22135TIP3    H266283   7.369   5.937   8.966
22136TIP3   OH266284   7.137   5.777   9.732
22136TIP3    H166285   7.114   5.853   9.786
22136TIP3    H266286   7.213   5.810   9.681
22137TIP3   OH266287   7.972   5.101   9.295
22137TIP3    H166288   7.958   5.056   9.379
22137TIP3    H266289   8.018   5.182   9.324
22138TIP3   OH266290   6.933   5.113   9.723
22138TIP3    H166291   6.998   5.185   9.740
22138TIP3    H266292   6.978   5.069   9.647
22139TIP3   OH266293   6.393   5.657   9.066
22139TIP3    H166294   6.352   5.685   8.983
22139TIP3    H266295   6.423   5.743   9.104
22140TIP3   OH266296   8.109   5.076   9.668
22140TIP3    H166297   8.025   5.100   9.625
22140TIP3    H266298   8.176   5.107   9.603
22141TIP3   OH266299   7.423   4.717   9.652
22141TIP3    H166300   7.407   4.623   9.670
22141TIP3    H266301   7.344   4.756   9.697
22142TIP3   OH266302   7.547   6.228   8.990
22142TIP3    H166303   7.591   6.144   8.963
22142TIP3    H266304   7.597   6.291   8.935
22143TIP3   OH266305   7.673   6.006   8.887
22143TIP3    H166306   7.638   5.928   8.843
22143TIP3    H266307   7.706   5.968   8.971
22144TIP3   OH266308   7.347   5.478   8.904
22144TIP3    H166309   7.267   5.531   8.882
22144TIP3    H266310   7.396   5.480   8.820
22145TIP3   OH266311   7.308   5.265   8.623
22145TIP3    H166312   7.375   5.314   8.674
22145TIP3    H266313   7.366   5.201   8.577
22146TIP3   OH266314   7.695   5.561   8.878
22146TIP3    H166315   7.642   5.588   8.957
22146TIP3    H266316   7.780   5.536   8.922
22147TIP3   OH266317   6.928   5.561   9.294
22147TIP3    H166318   6.888   5.503   9.226
22147TIP3    H266319   7.006   5.509   9.322
22148TIP3   OH266320   7.058   5.974   9.443
22148TIP3    H166321   7.037   5.930   9.360
22148TIP3    H266322   7.145   5.934   9.465
22149TIP3   OH266323   7.068   5.527   9.649
22149TIP3    H166324   7.099   5.513   9.557
22149TIP3    H266325   7.101   5.618   9.668
22150TIP3   OH266326   7.539   5.419   8.704
22150TIP3    H166327   7.597   5.478   8.758
22150TIP3    H266328   7.565   5.446   8.612
22151TIP3   OH266329   7.280   6.103   8.973
22151TIP3    H166330   7.345   6.162   9.012
22151TIP3    H266331   7.213   6.165   8.939
22152TIP3   OH266332   8.052   4.663   8.750
22152TIP3    H166333   7.972   4.683   8.804
22152TIP3    H266334   8.065   4.748   8.703
22153TIP3   OH266335   6.796   5.403   9.098
22153TIP3    H166336   6.730   5.449   9.041
22153TIP3    H266337   6.752   5.319   9.114
22154TIP3   OH266338   7.850   6.029   8.299
22154TIP3    H166339   7.858   6.126   8.287
22154TIP3    H266340   7.943   6.001   8.286
22155TIP3   OH266341   6.428   5.980   9.636
22155TIP3    H166342   6.525   5.980   9.630
22155TIP3    H266343   6.411   6.055   9.695
22156TIP3   OH266344   7.156   6.346   8.782
22156TIP3    H166345   7.114   6.331   8.696
22156TIP3    H266346   7.129   6.437   8.805
22157TIP3   OH266347   6.597   6.198   9.163
22157TIP3    H166348   6.647   6.188   9.247
22157TIP3    H266349   6.536   6.123   9.171
22158TIP3   OH266350   7.362   6.247   8.420
22158TIP3    H166351   7.422   6.178   8.385
22158TIP3    H266352   7.395   6.258   8.512
22159TIP3   OH266353   7.408   6.295   8.688
22159TIP3    H166354   7.322   6.304   8.735
22159TIP3    H266355   7.465   6.260   8.758
22160TIP3   OH266356   7.183   4.800   9.772
22160TIP3    H166357   7.093   4.766   9.752
22160TIP3    H266358   7.159   4.881   9.821
22161TIP3   OH266359   7.611   5.468   8.446
22161TIP3    H166360   7.582   5.442   8.356
22161TIP3    H266361   7.691   5.520   8.425
22162TIP3   OH266362   7.328   4.845   8.750
22162TIP3    H166363   7.297   4.845   8.842
22162TIP3    H266364   7.287   4.761   8.719
22163TIP3   OH266365   7.115   5.306   9.794
22163TIP3    H166366   7.087   5.339   9.879
22163TIP3    H266367   7.100   5.385   9.736
22164TIP3   OH266368   6.996   5.195   9.311
22164TIP3    H166369   6.903   5.169   9.328
22164TIP3    H266370   7.009   5.154   9.222
22165TIP3   OH266371   7.486   5.281   9.037
22165TIP3    H166372   7.432   5.353   8.998
22165TIP3    H266373   7.541   5.254   8.961
22166TIP3   OH266374   7.643   5.311   9.280
22166TIP3    H166375   7.585   5.343   9.208
22166TIP3    H266376   7.675   5.229   9.238
22167TIP3   OH266377   6.981   4.816   8.716
22167TIP3    H166378   6.974   4.814   8.814
22167TIP3    H266379   6.902   4.867   8.693
22168TIP3   OH266380   6.525   4.870   9.579
22168TIP3    H166381   6.599   4.896   9.638
22168TIP3    H266382   6.570   4.829   9.504
22169TIP3   OH266383   6.500   4.843   9.106
22169TIP3    H166384   6.545   4.883   9.028
22169TIP3    H266385   6.439   4.916   9.129
22170TIP3   OH266386   7.632   5.556   9.689
22170TIP3    H166387   7.677   5.482   9.641
22170TIP3    H266388   7.605   5.515   9.771
22171TIP3   OH266389   7.320   5.017   9.373
22171TIP3    H166390   7.238   5.015   9.426
22171TIP3    H266391   7.388   5.020   9.442
22172TIP3   OH266392   6.758   5.073   9.381
22172TIP3    H166393   6.663   5.080   9.355
22172TIP3    H266394   6.781   4.981   9.359
22173TIP3   OH266395   7.030   5.069   9.069
22173TIP3    H166396   7.124   5.087   9.049
22173TIP3    H266397   6.983   5.094   8.986
22174TIP3   OH266398   7.817   5.093   9.567
22174TIP3    H166399   7.793   5.099   9.662
22174TIP3    H266400   7.750   5.030   9.535
22175TIP3   OH266401   6.866   5.102   8.849
22175TIP3    H166402   6.793   5.060   8.801
22175TIP3    H266403   6.918   5.138   8.774
22176TIP3   OH266404   7.406   5.344   9.466
22176TIP3    H166405   7.481   5.307   9.418
22176TIP3    H266406   7.417   5.304   9.555
22177TIP3   OH266407   6.931   4.834   9.347
22177TIP3    H166408   6.898   4.754   9.393
22177TIP3    H266409   6.985   4.797   9.276
22178TIP3   OH266410   7.383   5.241   9.743
22178TIP3    H166411   7.290   5.265   9.760
22178TIP3    H266412   7.430   5.282   9.817
22179TIP3   OH266413   7.120   5.634   8.854
22179TIP3    H166414   7.047   5.569   8.844
22179TIP3    H266415   7.103   5.668   8.946
22180TIP3   OH266416   7.578   4.950   8.705
22180TIP3    H166417   7.483   4.934   8.721
22180TIP3    H266418   7.592   5.041   8.736
22181TIP3   OH266419   7.650   5.190   8.816
22181TIP3    H166420   7.745   5.197   8.836
22181TIP3    H266421   7.632   5.272   8.766
22182TIP3   OH266422   6.813   5.655   9.531
22182TIP3    H166423   6.851   5.628   9.445
22182TIP3    H266424   6.848   5.586   9.590
22183TIP3   OH266425   7.264   5.783   8.673
22183TIP3    H166426   7.218   5.869   8.681
22183TIP3    H266427   7.211   5.728   8.734
22184TIP3   OH266428   8.089   5.281   8.657
22184TIP3    H166429   8.027   5.236   8.596
22184TIP3    H266430   8.087   5.370   8.615
22185TIP3   OH266431   7.782   6.103   8.561
22185TIP3    H166432   7.769   6.032   8.625
22185TIP3    H266433   7.802   6.055   8.478
22186TIP3   OH266434   7.770   5.734   9.393
22186TIP3    H166435   7.682   5.698   9.413
22186TIP3    H266436   7.815   5.656   9.355
22187TIP3   OH266437   6.911   5.957   9.155
22187TIP3    H166438   6.916   6.040   9.104
22187TIP3    H266439   6.816   5.946   9.165
22188TIP3   OH266440   6.475   5.264   8.857
22188TIP3    H166441   6.522   5.347   8.878
22188TIP3    H266442   6.398   5.270   8.919
22189TIP3   OH266443   7.053   5.725   9.101
22189TIP3    H166444   7.018   5.815   9.118
22189TIP3    H266445   7.017   5.676   9.176
22190TIP3   OH266446   6.833   6.198   9.009
22190TIP3    H166447   6.747   6.206   9.054
22190TIP3    H266448   6.865   6.290   9.013
22191TIP3   OH266449   7.545   5.963   9.556
22191TIP3    H166450   7.557   5.960   9.652
22191TIP3    H266451   7.626   5.916   9.529
22192TIP3   OH266452   7.543   5.825   8.467
22192TIP3    H166453   7.597   5.803   8.546
22192TIP3    H266454   7.454   5.804   8.500
22193TIP3   OH266455   7.883   6.303   8.288
22193TIP3    H166456   7.924   6.373   8.235
22193TIP3    H266457   7.803   6.351   8.320
22194TIP3   OH266458   7.703   5.764   8.685
22194TIP3    H166459   7.695   5.697   8.756
22194TIP3    H266460   7.800   5.763   8.671
22195TIP3   OH266461   6.620   6.180   9.782
22195TIP3    H166462   6.663   6.096   9.801
22195TIP3    H266463   6.639   6.231   9.862
22196TIP3   OH266464   6.911   5.810   8.465
22196TIP3    H166465   6.927   5.719   8.436
22196TIP3    H266466   6.894   5.798   8.560
22197TIP3   OH266467   6.858   5.815   8.738
22197TIP3    H166468   6.927   5.789   8.800
22197TIP3    H266469   6.861   5.913   8.744
22198TIP3   OH266470   6.593   5.509   8.941
22198TIP3    H166471   6.528   5.554   8.999
22198TIP3    H266472   6.609   5.580   8.875
22199TIP3   OH266473   7.749   5.134   9.831
22199TIP3    H166474   7.792   5.196   9.893
22199TIP3    H266475   7.694   5.086   9.892
22200TIP3   OH266476   7.622   4.899   8.994
22200TIP3    H166477   7.608   4.927   8.902
22200TIP3    H266478   7.661   4.980   9.034
22201TIP3   OH266479   7.121   6.012   8.686
22201TIP3    H166480   7.035   6.042   8.722
22201TIP3    H266481   7.142   6.087   8.627
22202TIP3   OH266482   7.312   5.075   9.099
22202TIP3    H166483   7.376   5.147   9.082
22202TIP3    H266484   7.316   5.069   9.197
22203TIP3   OH266485   7.457   4.806   9.204
22203TIP3    H166486   7.451   4.882   9.265
22203TIP3    H266487   7.517   4.844   9.135
22204TIP3   OH266488   6.863   6.088   8.753
22204TIP3    H166489   6.834   6.158   8.690
22204TIP3    H266490   6.848   6.132   8.840
22205TIP3   OH266491   6.967   4.801   8.992
22205TIP3    H166492   6.963   4.891   9.028
22205TIP3    H266493   7.063   4.783   9.002
22206TIP3   OH266494   7.864   5.491   9.273
22206TIP3    H166495   7.786   5.433   9.285
22206TIP3    H266496   7.933   5.443   9.324
22207TIP3   OH266497   6.582   5.722   8.748
22207TIP3    H166498   6.645   5.795   8.757
22207TIP3    H266499   6.630   5.669   8.680
22208TIP3   OH266500   6.531   4.995   8.879
22208TIP3    H166501   6.527   5.092   8.875
22208TIP3    H266502   6.445   4.970   8.841
22209TIP3   OH266503   6.919   4.717   9.754
22209TIP3    H166504   6.885   4.684   9.669
22209TIP3    H266505   6.906   4.639   9.813
22210TIP3   OH266506   6.457   5.930   9.137
22210TIP3    H166507   6.384   5.964   9.191
22210TIP3    H266508   6.436   5.971   9.050
22211TIP3   OH266509   7.074   6.016   8.379
22211TIP3    H166510   7.018   5.945   8.418
22211TIP3    H266511   7.150   5.963   8.348
22212TIP3   OH266512   7.510   6.056   8.288
22212TIP3    H166513   7.561   5.998   8.348
22212TIP3    H266514   7.567   6.060   8.209
22213TIP3   OH266515   6.718   5.533   8.598
22213TIP3    H166516   6.772   5.499   8.671
22213TIP3    H266517   6.786   5.537   8.527
22214TIP3   OH266518   7.224   5.728   8.405
22214TIP3    H166519   7.228   5.743   8.501
22214TIP3    H266520   7.222   5.630   8.402
22215TIP3   OH266521   6.928   5.434   8.822
22215TIP3    H166522   6.901   5.394   8.906
22215TIP3    H266523   6.962   5.357   8.772
22216TIP3   OH266524   7.027   5.225   8.663
22216TIP3    H166525   7.000   5.229   8.569
22216TIP3    H266526   7.124   5.236   8.655
22217TIP3   OH266527   7.850   5.560   8.323
22217TIP3    H166528   7.828   5.514   8.240
22217TIP3    H266529   7.820   5.651   8.299
22218TIP3   OH266530   7.332   5.067   9.971
22218TIP3    H166531   7.346   5.097   9.881
22218TIP3    H266532   7.238   5.040   9.971
22219TIP3   OH266533   6.833   6.290   8.565
22219TIP3    H166534   6.929   6.288   8.548
22219TIP3    H266535   6.804   6.339   8.486
22220TIP3   OH266536   6.314   5.672   8.783
22220TIP3    H166537   6.409   5.695   8.771
22220TIP3    H266538   6.310   5.583   8.742
22221TIP3   OH266539   6.228   6.285   9.196
22221TIP3    H166540   6.160   6.222   9.162
22221TIP3    H266541   6.272   6.229   9.263
22222TIP3   OH266542   6.365   6.138   9.382
22222TIP3    H166543   6.353   6.064   9.444
22222TIP3    H266544   6.416   6.199   9.438
22223TIP3   OH266545   7.983   5.750   8.656
22223TIP3    H166546   8.053   5.812   8.630
22223TIP3    H266547   8.024   5.708   8.735
22224TIP3   OH266548   8.105   5.615   8.856
22224TIP3    H166549   8.046   5.573   8.922
22224TIP3    H266550   8.178   5.650   8.912
22225TIP3   OH266551   8.049   5.521   8.509
22225TIP3    H166552   7.977   5.527   8.442
22225TIP3    H266553   8.025   5.598   8.565
22226TIP3   OH266554   7.920   5.194   8.465
22226TIP3    H166555   7.881   5.238   8.388
22226TIP3    H266556   7.893   5.101   8.450
22227TIP3   OH266557   7.924   5.468   9.007
22227TIP3    H166558   7.936   5.372   9.006
22227TIP3    H266559   7.911   5.487   9.103
22228TIP3   OH266560   6.554   5.548   9.750
22228TIP3    H166561   6.550   5.519   9.656
22228TIP3    H266562   6.651   5.547   9.765
22229TIP3   OH266563   7.866   4.927   8.448
22229TIP3    H166564   7.944   4.902   8.501
22229TIP3    H266565   7.796   4.869   8.482
22230TIP3   OH266566   7.920   5.184   8.904
22230TIP3    H166567   7.963   5.097   8.919
22230TIP3    H266568   7.980   5.221   8.836
22231TIP3   OH266569   8.055   5.352   9.406
22231TIP3    H166570   8.144   5.368   9.365
22231TIP3    H266571   8.075   5.377   9.497
22232TIP3   OH266572   8.031   4.935   8.941
22232TIP3    H166573   8.080   4.920   9.025
22232TIP3    H266574   7.971   4.858   8.941
22233TIP3   OH266575   6.731   4.921   9.752
22233TIP3    H166576   6.792   4.847   9.770
22233TIP3    H266577   6.793   4.997   9.753
22234TIP3   OH266578   6.542   5.192   9.839
22234TIP3    H166579   6.589   5.196   9.753
22234TIP3    H266580   6.546   5.284   9.869
22235TIP3   OH266581   8.112   4.874   8.570
22235TIP3    H166582   8.156   4.801   8.524
22235TIP3    H266583   8.180   4.945   8.568
22236TIP3   OH266584   6.517   4.699   9.333
22236TIP3    H166585   6.423   4.699   9.360
22236TIP3    H266586   6.516   4.758   9.255
22237TIP3   OH266587   7.661   6.411   8.825
22237TIP3    H166588   7.715   6.388   8.746
22237TIP3    H266589   7.733   6.422   8.890
22238TIP3   OH266590   6.736   4.756  10.121
22238TIP3    H166591   6.707   4.745  10.213
22238TIP3    H266592   6.669   4.819  10.087
22239TIP3   OH266593   6.849   6.435   9.625
22239TIP3    H166594   6.838   6.491   9.703
22239TIP3    H266595   6.850   6.499   9.552
22240TIP3   OH266596   6.543   6.291   9.539
22240TIP3    H166597   6.570   6.266   9.630
22240TIP3    H266598   6.618   6.251   9.490
22241TIP3   OH266599   6.735   6.160   9.394
22241TIP3    H166600   6.753   6.078   9.446
22241TIP3    H266601   6.825   6.200   9.389
22242TIP3   OH266602   7.000   6.258   9.391
22242TIP3    H166603   7.037   6.168   9.395
22242TIP3    H266604   7.006   6.287   9.483
22243TIP3   OH266605   7.578   4.912   9.487
22243TIP3    H166606   7.535   4.842   9.540
22243TIP3    H266607   7.651   4.864   9.444
22244TIP3   OH266608   8.109   4.787   9.392
22244TIP3    H166609   8.141   4.843   9.318
22244TIP3    H266610   8.014   4.811   9.395
22245TIP3   OH266611   8.199   4.894   9.157
22245TIP3    H166612   8.272   4.844   9.115
22245TIP3    H266613   8.228   4.986   9.140
22246TIP3   OH266614   6.829   4.623   9.505
22246TIP3    H166615   6.737   4.588   9.506
22246TIP3    H266616   6.879   4.538   9.503
22247TIP3   OH266617   6.613   4.491   9.152
22247TIP3    H166618   6.643   4.550   9.080
22247TIP3    H266619   6.584   4.554   9.219
22248TIP3   OH266620   7.269   4.655   9.385
22248TIP3    H166621   7.330   4.708   9.330
22248TIP3    H266622   7.287   4.690   9.473
22249TIP3   OH266623   7.819   4.801   9.372
22249TIP3    H166624   7.819   4.766   9.282
22249TIP3    H266625   7.805   4.720   9.425
22250TIP3   OH266626   7.847   4.722   8.931
22250TIP3    H166627   7.761   4.766   8.945
22250TIP3    H266628   7.833   4.638   8.979
22251TIP3   OH266629   6.332   6.059   8.934
22251TIP3    H166630   6.247   6.028   8.899
22251TIP3    H266631   6.320   6.155   8.922
22252TIP3   OH266632   6.729   4.652   8.918
22252TIP3    H166633   6.778   4.590   8.861
22252TIP3    H266634   6.802   4.706   8.955
22253TIP3   OH266635   7.245   4.824   9.015
22253TIP3    H166636   7.305   4.780   9.078
22253TIP3    H266637   7.264   4.918   9.040
22254TIP3   OH266638   7.103   6.253   8.515
22254TIP3    H166639   7.191   6.275   8.480
22254TIP3    H266640   7.081   6.177   8.456
22255TIP3   OH266641   7.821   6.369   8.606
22255TIP3    H166642   7.815   6.273   8.591
22255TIP3    H266643   7.785   6.405   8.523
22256TIP3   OH266644   6.407   6.089   8.574
22256TIP3    H166645   6.407   6.116   8.667
22256TIP3    H266646   6.496   6.048   8.564
22257TIP3   OH266647   8.289   5.390   8.819
22257TIP3    H166648   8.249   5.477   8.836
22257TIP3    H266649   8.213   5.342   8.781
22258TIP3   OH266650   8.349   5.675   8.959
22258TIP3    H166651   8.408   5.616   9.009
22258TIP3    H266652   8.410   5.726   8.904
22259TIP3   OH266653   8.885   5.239   8.962
22259TIP3    H166654   8.882   5.327   8.921
22259TIP3    H266655   8.802   5.199   8.928
22260TIP3   OH266656   8.467   5.443   9.096
22260TIP3    H166657   8.562   5.438   9.119
22260TIP3    H266658   8.472   5.402   9.007
22261TIP3   OH266659   8.188   5.914   8.553
22261TIP3    H166660   8.145   5.944   8.471
22261TIP3    H266661   8.216   6.000   8.592
22262TIP3   OH266662   9.104   5.517   8.113
22262TIP3    H166663   9.170   5.566   8.163
22262TIP3    H266664   9.162   5.456   8.062
22263TIP3   OH266665   9.846   4.926   8.230
22263TIP3    H166666   9.766   4.937   8.287
22263TIP3    H266667   9.834   5.000   8.167
22264TIP3   OH266668   8.588   5.646   8.564
22264TIP3    H166669   8.516   5.694   8.518
22264TIP3    H266670   8.541   5.575   8.607
22265TIP3   OH266671   9.412   5.731   7.926
22265TIP3    H166672   9.380   5.693   7.842
22265TIP3    H266673   9.466   5.804   7.895
22266TIP3   OH266674   9.127   5.100   8.233
22266TIP3    H166675   9.094   5.098   8.325
22266TIP3    H266676   9.088   5.017   8.199
22267TIP3   OH266677   8.784   5.441   8.771
22267TIP3    H166678   8.695   5.418   8.804
22267TIP3    H266679   8.785   5.393   8.686
22268TIP3   OH266680   8.777   5.073   8.202
22268TIP3    H166681   8.769   5.068   8.299
22268TIP3    H266682   8.698   5.125   8.179
22269TIP3   OH266683   8.309   5.119   9.061
22269TIP3    H166684   8.381   5.145   9.123
22269TIP3    H266685   8.357   5.087   8.984
22270TIP3   OH266686   8.295   5.098   8.592
22270TIP3    H166687   8.342   5.138   8.516
22270TIP3    H266688   8.236   5.173   8.616
22271TIP3   OH266689   8.550   5.321   8.859
22271TIP3    H166690   8.456   5.326   8.829
22271TIP3    H266691   8.578   5.231   8.833
22272TIP3   OH266692   8.810   5.307   8.538
22272TIP3    H166693   8.899   5.340   8.515
22272TIP3    H266694   8.755   5.340   8.463
22273TIP3   OH266695   8.653   5.362   8.328
22273TIP3    H166696   8.584   5.317   8.276
22273TIP3    H266697   8.709   5.396   8.255
22274TIP3   OH266698   8.703   5.087   8.818
22274TIP3    H166699   8.685   5.007   8.873
22274TIP3    H266700   8.773   5.057   8.759
22275TIP3   OH266701   8.856   5.911   8.349
22275TIP3    H166702   8.811   5.829   8.318
22275TIP3    H266703   8.885   5.873   8.437
22276TIP3   OH266704   9.372   5.224   8.214
22276TIP3    H166705   9.278   5.198   8.206
22276TIP3    H266706   9.375   5.310   8.168
22277TIP3   OH266707   8.270   5.520   8.343
22277TIP3    H166708   8.319   5.603   8.364
22277TIP3    H266709   8.194   5.527   8.405
22278TIP3   OH266710   8.705   6.067   7.948
22278TIP3    H166711   8.721   5.978   7.913
22278TIP3    H266712   8.690   6.049   8.043
22279TIP3   OH266713   8.658   6.066   8.219
22279TIP3    H166714   8.711   6.014   8.283
22279TIP3    H266715   8.649   6.153   8.256
22280TIP3   OH266716   8.382   5.766   8.426
22280TIP3    H166717   8.318   5.812   8.485
22280TIP3    H266718   8.397   5.836   8.360
22281TIP3   OH266719   9.425   5.131   8.466
22281TIP3    H166720   9.409   5.165   8.375
22281TIP3    H266721   9.437   5.214   8.515
22282TIP3   OH266722   9.080   5.359   8.560
22282TIP3    H166723   9.178   5.357   8.563
22282TIP3    H266724   9.057   5.398   8.646
22283TIP3   OH266725   9.246   5.039   8.692
22283TIP3    H166726   9.284   5.092   8.762
22283TIP3    H266727   9.302   5.067   8.618
22284TIP3   OH266728   8.761   5.046   8.477
22284TIP3    H166729   8.759   5.139   8.510
22284TIP3    H266730   8.857   5.029   8.486
22285TIP3   OH266731   8.376   5.975   8.234
22285TIP3    H166732   8.424   6.058   8.226
22285TIP3    H266733   8.426   5.920   8.169
22286TIP3   OH266734   8.326   5.250   8.366
22286TIP3    H166735   8.328   5.348   8.361
22286TIP3    H266736   8.238   5.231   8.330
22287TIP3   OH266737   8.696   4.972   9.254
22287TIP3    H166738   8.690   4.951   9.158
22287TIP3    H266739   8.712   4.883   9.291
22288TIP3   OH266740   8.244   6.173   8.628
22288TIP3    H166741   8.189   6.226   8.687
22288TIP3    H266742   8.240   6.228   8.547
22289TIP3   OH266743   8.854   6.278   7.855
22289TIP3    H166744   8.806   6.202   7.894
22289TIP3    H266745   8.945   6.243   7.853
22290TIP3   OH266746   8.515   5.790   8.087
22290TIP3    H166747   8.568   5.749   8.157
22290TIP3    H266748   8.582   5.794   8.015
22291TIP3   OH266749   9.016   5.986   7.889
22291TIP3    H166750   9.014   5.996   7.986
22291TIP3    H266751   9.024   5.888   7.882
22292TIP3   OH266752   8.713   5.685   8.305
22292TIP3    H166753   8.690   5.654   8.394
22292TIP3    H266754   8.749   5.604   8.263
22293TIP3   OH266755   8.823   5.479   8.149
22293TIP3    H166756   8.796   5.483   8.055
22293TIP3    H266757   8.920   5.489   8.140
22294TIP3   OH266758   8.109   5.929   8.267
22294TIP3    H166759   8.204   5.950   8.258
22294TIP3    H266760   8.105   5.839   8.227
22295TIP3   OH266761   9.660   5.465   7.940
22295TIP3    H166762   9.655   5.485   7.845
22295TIP3    H266763   9.643   5.368   7.937
22296TIP3   OH266764   9.625   5.200   7.940
22296TIP3    H166765   9.714   5.167   7.964
22296TIP3    H266766   9.568   5.122   7.954
22297TIP3   OH266767   8.502   5.157   9.249
22297TIP3    H166768   8.565   5.082   9.257
22297TIP3    H266769   8.565   5.226   9.221
22298TIP3   OH266770   8.302   5.410   9.316
22298TIP3    H166771   8.336   5.403   9.225
22298TIP3    H266772   8.330   5.502   9.334
22299TIP3   OH266773   9.875   5.134   8.018
22299TIP3    H166774   9.929   5.067   7.971
22299TIP3    H266775   9.945   5.195   8.048
22300TIP3   OH266776   8.312   4.952   8.818
22300TIP3    H166777   8.219   4.956   8.846
22300TIP3    H266778   8.313   5.013   8.741
22301TIP3   OH266779   8.628   4.880   8.995
22301TIP3    H166780   8.535   4.848   8.995
22301TIP3    H266781   8.676   4.795   8.994
22302TIP3   OH266782   8.406   4.747   8.638
22302TIP3    H166783   8.441   4.805   8.568
22302TIP3    H266784   8.379   4.811   8.706
22303TIP3   OH266785   9.064   4.907   8.876
22303TIP3    H166786   9.123   4.952   8.814
22303TIP3    H266787   9.051   4.973   8.946
22304TIP3   OH266788   9.632   4.968   8.390
22304TIP3    H166789   9.552   5.022   8.405
22304TIP3    H266790   9.611   4.887   8.441
22305TIP3   OH266791   8.138   6.303   8.407
22305TIP3    H166792   8.050   6.276   8.375
22305TIP3    H266793   8.121   6.397   8.422
22306TIP3   OH266794   8.525   4.907   8.404
22306TIP3    H166795   8.575   4.846   8.348
22306TIP3    H266796   8.597   4.962   8.442
22307TIP3   OH266797   9.040   5.083   8.501
22307TIP3    H166798   9.101   5.045   8.566
22307TIP3    H266799   9.047   5.178   8.523
22308TIP3   OH266800   8.204   6.341   8.057
22308TIP3    H166801   8.192   6.369   8.149
22308TIP3    H266802   8.293   6.302   8.057
22309TIP3   OH266803   2.101   7.082   9.477
22309TIP3    H166804   2.107   7.174   9.445
22309TIP3    H266805   2.189   7.046   9.454
22310TIP3   OH266806   1.865   6.526   9.613
22310TIP3    H166807   1.838   6.472   9.537
22310TIP3    H266808   1.950   6.562   9.581
22311TIP3   OH266809   2.147   7.129   9.742
22311TIP3    H166810   2.061   7.107   9.782
22311TIP3    H266811   2.130   7.103   9.649
22312TIP3   OH266812   1.813   6.856   9.615
22312TIP3    H166813   1.856   6.816   9.693
22312TIP3    H266814   1.722   6.861   9.647
22313TIP3   OH266815   2.128   7.366   9.462
22313TIP3    H166816   2.134   7.416   9.378
22313TIP3    H266817   2.033   7.378   9.480
22314TIP3   OH266818   1.769   7.097   9.476
22314TIP3    H166819   1.811   7.011   9.495
22314TIP3    H266820   1.798   7.113   9.384
22315TIP3   OH266821   1.463   6.779   9.587
22315TIP3    H166822   1.447   6.785   9.683
22315TIP3    H266823   1.506   6.692   9.577
22316TIP3   OH266824   2.098   6.610   9.503
22316TIP3    H166825   2.083   6.556   9.423
22316TIP3    H266826   2.071   6.698   9.467
22317TIP3   OH266827   2.311   6.581   9.674
22317TIP3    H166828   2.230   6.587   9.620
22317TIP3    H266829   2.284   6.615   9.761
22318TIP3   OH266830   2.170   6.242   9.652
22318TIP3    H166831   2.135   6.296   9.581
22318TIP3    H266832   2.143   6.154   9.624
22319TIP3   OH266833   3.562   6.934   9.742
22319TIP3    H166834   3.534   7.024   9.717
22319TIP3    H266835   3.487   6.883   9.708
22320TIP3   OH266836   3.799   7.231   9.801
22320TIP3    H166837   3.802   7.158   9.864
22320TIP3    H266838   3.839   7.303   9.852
22321TIP3   OH266839   3.466   7.703   9.808
22321TIP3    H166840   3.507   7.620   9.776
22321TIP3    H266841   3.402   7.675   9.876
22322TIP3   OH266842   4.369   6.457  10.153
22322TIP3    H166843   4.376   6.532  10.213
22322TIP3    H266844   4.394   6.498  10.068
22323TIP3   OH266845   3.805   6.398   9.791
22323TIP3    H166846   3.880   6.388   9.855
22323TIP3    H266847   3.851   6.444   9.719
22324TIP3   OH266848   3.457   7.153   9.610
22324TIP3    H166849   3.413   7.130   9.527
22324TIP3    H266850   3.414   7.238   9.632
22325TIP3   OH266851   4.023   6.410   9.959
22325TIP3    H166852   4.022   6.381  10.051
22325TIP3    H266853   4.075   6.491   9.968
22326TIP3   OH266854   2.446   6.938   9.718
22326TIP3    H166855   2.380   6.973   9.657
22326TIP3    H266856   2.466   7.014   9.776
22327TIP3   OH266857   3.871   7.454   9.977
22327TIP3    H166858   3.779   7.454  10.008
22327TIP3    H266859   3.874   7.538   9.925
22328TIP3   OH266860   3.593   7.522   9.645
22328TIP3    H166861   3.645   7.443   9.616
22328TIP3    H266862   3.613   7.582   9.572
22329TIP3   OH266863   3.726   7.303   9.544
22329TIP3    H166864   3.680   7.226   9.508
22329TIP3    H266865   3.754   7.269   9.632
22330TIP3   OH266866   3.394   6.785   9.568
22330TIP3    H166867   3.312   6.833   9.545
22330TIP3    H266868   3.440   6.780   9.483
22331TIP3   OH266869   3.353   6.567   9.287
22331TIP3    H166870   3.422   6.615   9.336
22331TIP3    H266871   3.408   6.501   9.240
22332TIP3   OH266872   4.300   7.004  10.128
22332TIP3    H166873   4.228   7.058  10.166
22332TIP3    H266874   4.326   7.058  10.051
22333TIP3   OH266875   3.740   6.864   9.544
22333TIP3    H166876   3.686   6.890   9.622
22333TIP3    H266877   3.823   6.837   9.588
22334TIP3   OH266878   2.967   6.857   9.947
22334TIP3    H166879   2.918   6.803   9.880
22334TIP3    H266880   3.036   6.796   9.974
22335TIP3   OH266881   3.074   7.291  10.050
22335TIP3    H166882   3.080   7.207  10.004
22335TIP3    H266883   3.142   7.279  10.120
22336TIP3   OH266884   3.623   7.452  10.101
22336TIP3    H166885   3.529   7.475  10.093
22336TIP3    H266886   3.620   7.368  10.149
22337TIP3   OH266887   3.584   6.722   9.368
22337TIP3    H166888   3.642   6.781   9.421
22337TIP3    H266889   3.609   6.747   9.276
22338TIP3   OH266890   3.324   7.410   9.649
22338TIP3    H166891   3.403   7.464   9.659
22338TIP3    H266892   3.266   7.466   9.595
22339TIP3   OH266893   4.098   5.964   9.415
22339TIP3    H166894   4.017   5.984   9.466
22339TIP3    H266895   4.110   6.048   9.365
22340TIP3   OH266896   2.842   6.701   9.759
22340TIP3    H166897   2.774   6.743   9.702
22340TIP3    H266898   2.789   6.630   9.799
22341TIP3   OH266899   3.893   7.332   8.961
22341TIP3    H166900   3.901   7.430   8.950
22341TIP3    H266901   3.986   7.304   8.949
22342TIP3   OH266902   3.157   7.639   9.451
22342TIP3    H166903   3.158   7.618   9.356
22342TIP3    H266904   3.186   7.731   9.451
22343TIP3   OH266905   3.408   7.551   9.091
22343TIP3    H166906   3.470   7.482   9.060
22343TIP3    H266907   3.461   7.598   9.160
22344TIP3   OH266908   3.658   6.772   9.112
22344TIP3    H166909   3.626   6.744   9.024
22344TIP3    H266910   3.737   6.823   9.087
22345TIP3   OH266911   3.374   6.145   9.411
22345TIP3    H166912   3.341   6.142   9.503
22345TIP3    H266913   3.331   6.064   9.376
22346TIP3   OH266914   3.531   6.586   9.699
22346TIP3    H166915   3.478   6.657   9.658
22346TIP3    H266916   3.587   6.558   9.624
22347TIP3   OH266917   3.704   6.625   9.928
22347TIP3    H166918   3.631   6.645   9.867
22347TIP3    H266919   3.724   6.534   9.902
22348TIP3   OH266920   3.029   6.119   9.383
22348TIP3    H166921   3.018   6.109   9.480
22348TIP3    H266922   2.943   6.159   9.361
22349TIP3   OH266923   2.555   6.154   9.771
22349TIP3    H166924   2.592   6.195   9.691
22349TIP3    H266925   2.527   6.230   9.824
22350TIP3   OH266926   3.085   6.361   9.719
22350TIP3    H166927   3.169   6.399   9.693
22350TIP3    H266928   3.022   6.394   9.652
22351TIP3   OH266929   2.908   6.412   9.515
22351TIP3    H166930   2.832   6.364   9.477
22351TIP3    H266931   2.957   6.437   9.435
22352TIP3   OH266932   3.164   6.937   9.520
22352TIP3    H166933   3.093   6.870   9.510
22352TIP3    H266934   3.152   6.964   9.614
22353TIP3   OH266935   4.060   7.166  10.165
22353TIP3    H166936   4.098   7.222  10.093
22353TIP3    H266937   3.983   7.127  10.119
22354TIP3   OH266938   3.624   6.249   9.378
22354TIP3    H166939   3.527   6.231   9.387
22354TIP3    H266940   3.633   6.343   9.403
22355TIP3   OH266941   3.693   6.494   9.484
22355TIP3    H166942   3.790   6.500   9.499
22355TIP3    H266943   3.675   6.573   9.429
22356TIP3   OH266944   3.309   7.083   9.338
22356TIP3    H166945   3.263   7.170   9.344
22356TIP3    H266946   3.255   7.029   9.398
22357TIP3   OH266947   4.138   6.582   9.319
22357TIP3    H166948   4.074   6.537   9.258
22357TIP3    H266949   4.133   6.671   9.278
22358TIP3   OH266950   3.844   7.397   9.233
22358TIP3    H166951   3.804   7.333   9.293
22358TIP3    H266952   3.845   7.351   9.147
22359TIP3   OH266953   3.832   7.033  10.071
22359TIP3    H166954   3.742   6.998  10.073
22359TIP3    H266955   3.877   6.958  10.026
22360TIP3   OH266956   2.958   7.231   9.767
22360TIP3    H166957   2.964   7.319   9.726
22360TIP3    H266958   2.878   7.238   9.820
22361TIP3   OH266959   2.525   6.568   9.513
22361TIP3    H166960   2.575   6.648   9.540
22361TIP3    H266961   2.448   6.574   9.575
22362TIP3   OH266962   3.120   7.015   9.780
22362TIP3    H166963   3.075   7.101   9.771
22362TIP3    H266964   3.059   6.968   9.840
22363TIP3   OH266965   2.894   7.488   9.660
22363TIP3    H166966   2.827   7.510   9.727
22363TIP3    H266967   2.949   7.569   9.659
22364TIP3   OH266968   3.587   7.129   9.130
22364TIP3    H166969   3.641   7.104   9.208
22364TIP3    H266970   3.499   7.107   9.161
22365TIP3   OH266971   3.930   7.607   8.946
22365TIP3    H166972   3.963   7.685   8.899
22365TIP3    H266973   3.853   7.648   8.991
22366TIP3   OH266974   3.747   7.062   9.346
22366TIP3    H166975   3.739   6.997   9.418
22366TIP3    H266976   3.844   7.064   9.335
22367TIP3   OH266977   2.954   7.107   9.125
22367TIP3    H166978   2.976   7.014   9.105
22367TIP3    H266979   2.935   7.101   9.221
22368TIP3   OH266980   2.903   7.115   9.398
22368TIP3    H166981   2.970   7.088   9.462
22368TIP3    H266982   2.906   7.213   9.405
22369TIP3   OH266983   2.648   6.808   9.598
22369TIP3    H166984   2.576   6.843   9.656
22369TIP3    H266985   2.656   6.883   9.536
22370TIP3   OH266986   3.670   6.196   9.656
22370TIP3    H166987   3.651   6.223   9.564
22370TIP3    H266988   3.707   6.279   9.694
22371TIP3   OH266989   3.167   7.314   9.350
22371TIP3    H166990   3.080   7.344   9.383
22371TIP3    H266991   3.190   7.388   9.292
22372TIP3   OH266992   3.378   6.366   9.746
22372TIP3    H166993   3.437   6.441   9.729
22372TIP3    H266994   3.348   6.387   9.838
22373TIP3   OH266995   3.509   6.106   9.858
22373TIP3    H166996   3.505   6.176   9.925
22373TIP3    H266997   3.563   6.149   9.788
22374TIP3   OH266998   2.904   7.386   9.406
22374TIP3    H166999   2.879   7.459   9.345
22374TIP3    H267000   2.898   7.431   9.493
22375TIP3   OH267001   3.025   6.099   9.663
22375TIP3    H167002   3.015   6.191   9.695
22375TIP3    H267003   3.122   6.091   9.666
22376TIP3   OH267004   3.914   6.800   9.943
22376TIP3    H167005   3.839   6.737   9.952
22376TIP3    H267006   3.986   6.750   9.988
22377TIP3   OH267007   2.627   7.026   9.411
22377TIP3    H167008   2.696   7.094   9.418
22377TIP3    H267009   2.670   6.968   9.345
22378TIP3   OH267010   2.582   6.300   9.533
22378TIP3    H167011   2.569   6.397   9.531
22378TIP3    H267012   2.494   6.266   9.514
22379TIP3   OH267013   3.888   7.700   9.864
22379TIP3    H167014   3.843   7.757   9.799
22379TIP3    H267015   3.982   7.726   9.851
22380TIP3   OH267016   2.511   7.191   9.816
22380TIP3    H167017   2.425   7.219   9.848
22380TIP3    H267018   2.505   7.201   9.720
22381TIP3   OH267019   3.116   7.318   9.042
22381TIP3    H167020   3.065   7.244   9.082
22381TIP3    H267021   3.194   7.271   9.008
22382TIP3   OH267022   3.558   7.359   8.953
22382TIP3    H167023   3.603   7.296   9.011
22382TIP3    H267024   3.616   7.360   8.874
22383TIP3   OH267025   2.762   6.836   9.262
22383TIP3    H167026   2.812   6.798   9.336
22383TIP3    H267027   2.831   6.839   9.193
22384TIP3   OH267028   3.266   7.029   9.069
22384TIP3    H167029   3.272   7.043   9.166
22384TIP3    H267030   3.268   6.931   9.065
22385TIP3   OH267031   2.978   6.734   9.490
22385TIP3    H167032   2.939   6.693   9.569
22385TIP3    H267033   3.008   6.656   9.439
22386TIP3   OH267034   3.072   6.529   9.325
22386TIP3    H167035   3.045   6.527   9.231
22386TIP3    H267036   3.169   6.537   9.317
22387TIP3   OH267037   3.899   6.862   8.986
22387TIP3    H167038   3.874   6.814   8.904
22387TIP3    H267039   3.865   6.952   8.962
22388TIP3   OH267040   2.877   7.593   9.227
22388TIP3    H167041   2.975   7.594   9.219
22388TIP3    H267042   2.855   7.641   9.145
22389TIP3   OH267043   2.352   6.979   9.434
22389TIP3    H167044   2.449   6.998   9.434
22389TIP3    H267045   2.352   6.886   9.400
22390TIP3   OH267046   4.129   7.838   9.851
22390TIP3    H167047   4.185   7.884   9.915
22390TIP3    H267048   4.148   7.889   9.771
22391TIP3   OH267049   4.029   7.047   9.322
22391TIP3    H167050   4.098   7.112   9.297
22391TIP3    H267051   4.070   7.007   9.402
22392TIP3   OH267052   4.156   6.916   9.526
22392TIP3    H167053   4.090   6.872   9.584
22392TIP3    H267054   4.218   6.956   9.590
22393TIP3   OH267055   4.184   7.293   9.952
22393TIP3    H167056   4.260   7.240   9.920
22393TIP3    H267057   4.189   7.372   9.896
22394TIP3   OH267058   4.051   7.618  10.132
22394TIP3    H167059   3.975   7.644  10.184
22394TIP3    H267060   4.014   7.550  10.073
22395TIP3   OH267061   4.095   6.823   9.172
22395TIP3    H167062   4.024   6.826   9.105
22395TIP3    H267063   4.068   6.899   9.228
22396TIP3   OH267064   3.967   6.496   9.126
22396TIP3    H167065   3.923   6.537   9.051
22396TIP3    H267066   3.940   6.402   9.116
22397TIP3   OH267067   3.971   6.771   9.673
22397TIP3    H167068   3.978   6.674   9.670
22397TIP3    H267069   3.957   6.787   9.769
22398TIP3   OH267070   3.910   6.230   9.114
22398TIP3    H167071   3.984   6.199   9.170
22398TIP3    H267072   3.836   6.173   9.139
22399TIP3   OH267073   3.966   6.488   9.568
22399TIP3    H167074   4.006   6.399   9.584
22399TIP3    H267075   4.025   6.521   9.498
22400TIP3   OH267076   4.130   6.669  10.050
22400TIP3    H167077   4.220   6.694  10.020
22400TIP3    H267078   4.133   6.695  10.143
22401TIP3   OH267079   4.077   6.238   9.603
22401TIP3    H167080   4.125   6.222   9.687
22401TIP3    H267081   4.015   6.162   9.602
22402TIP3   OH267082   4.159   6.174   9.237
22402TIP3    H167083   4.198   6.101   9.185
22402TIP3    H267084   4.225   6.244   9.228
22403TIP3   OH267085   4.152   6.115  10.056
22403TIP3    H167086   4.191   6.157   9.977
22403TIP3    H267087   4.057   6.127  10.037
22404TIP3   OH267088   4.245   6.196   9.816
22404TIP3    H167089   4.320   6.147   9.776
22404TIP3    H267090   4.276   6.289   9.805
22405TIP3   OH267091   3.881   6.101   9.996
22405TIP3    H167092   3.860   6.094   9.902
22405TIP3    H267093   3.891   6.008  10.022
22406TIP3   OH267094   3.894   6.025   9.595
22406TIP3    H167095   3.806   6.066   9.603
22406TIP3    H267096   3.880   5.939   9.638
22407TIP3   OH267097   2.373   7.322   9.597
22407TIP3    H167098   2.290   7.298   9.552
22407TIP3    H267099   2.382   7.414   9.566
22408TIP3   OH267100   2.779   5.981   9.546
22408TIP3    H167101   2.820   5.895   9.531
22408TIP3    H267102   2.823   6.007   9.628
22409TIP3   OH267103   3.298   6.118   9.679
22409TIP3    H167104   3.367   6.089   9.741
22409TIP3    H267105   3.306   6.215   9.694
22410TIP3   OH267106   3.150   7.553   9.183
22410TIP3    H167107   3.240   7.573   9.150
22410TIP3    H267108   3.127   7.479   9.122
22411TIP3   OH267109   3.899   7.666   9.251
22411TIP3    H167110   3.876   7.571   9.255
22411TIP3    H267111   3.814   7.702   9.220
22412TIP3   OH267112   2.450   7.385   9.234
22412TIP3    H167113   2.458   7.440   9.312
22412TIP3    H267114   2.540   7.346   9.225
22413TIP3   OH267115   5.361   7.185   9.227
22413TIP3    H167116   5.334   7.278   9.211
22413TIP3    H267117   5.282   7.138   9.194
22414TIP3   OH267118   5.350   7.188   9.606
22414TIP3    H167119   5.381   7.163   9.696
22414TIP3    H267120   5.314   7.104   9.574
22415TIP3   OH267121   4.661   7.081   9.964
22415TIP3    H167122   4.666   7.057  10.057
22415TIP3    H267123   4.740   7.135   9.951
22416TIP3   OH267124   5.595   7.485   9.283
22416TIP3    H167125   5.593   7.417   9.351
22416TIP3    H267126   5.629   7.562   9.335
22417TIP3   OH267127   4.630   7.494   9.704
22417TIP3    H167128   4.620   7.396   9.704
22417TIP3    H267129   4.726   7.501   9.687
22418TIP3   OH267130   4.337   6.700   9.483
22418TIP3    H167131   4.285   6.781   9.497
22418TIP3    H267132   4.268   6.640   9.450
22419TIP3   OH267133   4.399   6.985   9.650
22419TIP3    H167134   4.445   6.907   9.690
22419TIP3    H267135   4.453   7.001   9.572
22420TIP3   OH267136   5.245   7.947   9.301
22420TIP3    H167137   5.300   7.879   9.256
22420TIP3    H267138   5.242   7.914   9.392
22421TIP3   OH267139   5.158   7.410   9.655
22421TIP3    H167140   5.194   7.331   9.611
22421TIP3    H267141   5.242   7.455   9.677
22422TIP3   OH267142   6.169   6.744   9.654
22422TIP3    H167143   6.162   6.837   9.680
22422TIP3    H267144   6.193   6.753   9.560
22423TIP3   OH267145   5.571   6.916   9.689
22423TIP3    H167146   5.613   6.830   9.705
22423TIP3    H267147   5.538   6.904   9.598
22424TIP3   OH267148   4.904   6.574   9.654
22424TIP3    H167149   4.883   6.646   9.590
22424TIP3    H267150   4.858   6.500   9.610
22425TIP3   OH267151   5.600   6.664   9.277
22425TIP3    H167152   5.672   6.647   9.342
22425TIP3    H267153   5.651   6.700   9.203
22426TIP3   OH267154   4.542   6.779   9.759
22426TIP3    H167155   4.623   6.754   9.807
22426TIP3    H267156   4.549   6.720   9.681
22427TIP3   OH267157   4.982   6.974   9.549
22427TIP3    H167158   5.075   6.948   9.563
22427TIP3    H267159   4.942   6.890   9.518
22428TIP3   OH267160   4.906   6.557  10.090
22428TIP3    H167161   4.844   6.592  10.023
22428TIP3    H267162   4.849   6.550  10.168
22429TIP3   OH267163   5.254   7.409   9.097
22429TIP3    H167164   5.210   7.376   9.018
22429TIP3    H267165   5.212   7.496   9.109
22430TIP3   OH267166   4.989   7.332   9.883
22430TIP3    H167167   4.941   7.407   9.919
22430TIP3    H267168   5.054   7.373   9.824
22431TIP3   OH267169   5.813   6.665   9.446
22431TIP3    H167170   5.807   6.617   9.529
22431TIP3    H267171   5.865   6.743   9.472
22432TIP3   OH267172   4.776   6.671   9.873
22432TIP3    H167173   4.841   6.743   9.889
22432TIP3    H267174   4.819   6.627   9.797
22433TIP3   OH267175   4.237   7.215   9.216
22433TIP3    H167176   4.187   7.241   9.136
22433TIP3    H267177   4.261   7.302   9.253
22434TIP3   OH267178   5.663   7.703   9.433
22434TIP3    H167179   5.582   7.704   9.488
22434TIP3    H267180   5.666   7.796   9.406
22435TIP3   OH267181   5.956   6.624   9.803
22435TIP3    H167182   5.874   6.669   9.778
22435TIP3    H267183   6.023   6.666   9.745
22436TIP3   OH267184   5.262   6.276   9.803
22436TIP3    H167185   5.249   6.181   9.821
22436TIP3    H267186   5.183   6.313   9.847
22437TIP3   OH267187   5.380   7.781   9.133
22437TIP3    H167188   5.429   7.697   9.113
22437TIP3    H267189   5.440   7.845   9.090
22438TIP3   OH267190   5.517   7.565   9.034
22438TIP3    H167191   5.482   7.483   8.996
22438TIP3    H267192   5.551   7.532   9.120
22439TIP3   OH267193   5.189   7.040   9.055
22439TIP3    H167194   5.108   7.087   9.029
22439TIP3    H267195   5.237   7.033   8.970
22440TIP3   OH267196   5.149   6.823   8.775
22440TIP3    H167197   5.219   6.871   8.822
22440TIP3    H267198   5.203   6.757   8.727
22441TIP3   OH267199   6.093   7.261   9.634
22441TIP3    H167200   6.017   7.321   9.647
22441TIP3    H267201   6.130   7.298   9.551
22442TIP3   OH267202   5.537   7.122   9.028
22442TIP3    H167203   5.483   7.146   9.107
22442TIP3    H267204   5.620   7.094   9.072
22443TIP3   OH267205   4.771   7.120   9.442
22443TIP3    H167206   4.727   7.062   9.377
22443TIP3    H267207   4.847   7.065   9.472
22444TIP3   OH267208   4.898   7.527   9.592
22444TIP3    H167209   4.880   7.476   9.512
22444TIP3    H267210   4.988   7.499   9.614
22445TIP3   OH267211   4.915   7.084   9.800
22445TIP3    H167212   4.942   7.071   9.707
22445TIP3    H267213   4.950   7.174   9.819
22446TIP3   OH267214   5.434   7.721   9.573
22446TIP3    H167215   5.402   7.801   9.618
22446TIP3    H267216   5.415   7.650   9.637
22447TIP3   OH267217   5.378   6.980   8.855
22447TIP3    H167218   5.438   7.037   8.908
22447TIP3    H267219   5.405   7.005   8.763
22448TIP3   OH267220   5.124   7.668   9.109
22448TIP3    H167221   5.200   7.712   9.151
22448TIP3    H267222   5.048   7.717   9.142
22449TIP3   OH267223   5.894   6.221   8.901
22449TIP3    H167224   5.813   6.240   8.954
22449TIP3    H267225   5.905   6.305   8.853
22450TIP3   OH267226   4.636   6.962   9.250
22450TIP3    H167227   4.569   7.006   9.193
22450TIP3    H267228   4.595   6.876   9.265
22451TIP3   OH267229   5.692   7.589   8.452
22451TIP3    H167230   5.702   7.685   8.436
22451TIP3    H267231   5.784   7.558   8.437
22452TIP3   OH267232   4.267   7.535   9.792
22452TIP3    H167233   4.362   7.533   9.776
22452TIP3    H267234   4.254   7.615   9.845
22453TIP3   OH267235   4.443   7.754   9.311
22453TIP3    H167236   4.487   7.746   9.399
22453TIP3    H267237   4.378   7.682   9.317
22454TIP3   OH267238   5.179   7.804   8.584
22454TIP3    H167239   5.240   7.738   8.542
22454TIP3    H267240   5.223   7.812   8.671
22455TIP3   OH267241   5.238   7.854   8.857
22455TIP3    H167242   5.173   7.816   8.918
22455TIP3    H267243   5.320   7.823   8.900
22456TIP3   OH267244   5.022   6.358   9.922
22456TIP3    H167245   4.933   6.324   9.900
22456TIP3    H267246   4.997   6.439   9.969
22457TIP3   OH267247   5.454   7.032   8.599
22457TIP3    H167248   5.421   7.002   8.512
22457TIP3    H267249   5.537   7.077   8.573
22458TIP3   OH267250   5.168   6.403   8.900
22458TIP3    H167251   5.136   6.401   8.992
22458TIP3    H267252   5.129   6.319   8.867
22459TIP3   OH267253   4.958   6.865   9.947
22459TIP3    H167254   4.912   6.894  10.027
22459TIP3    H267255   4.943   6.943   9.888
22460TIP3   OH267256   4.836   6.754   9.461
22460TIP3    H167257   4.744   6.727   9.479
22460TIP3    H267258   4.850   6.713   9.373
22461TIP3   OH267259   5.328   6.841   9.188
22461TIP3    H167260   5.274   6.912   9.147
22461TIP3    H267261   5.382   6.811   9.113
22462TIP3   OH267262   5.484   6.869   9.430
22462TIP3    H167263   5.427   6.899   9.357
22462TIP3    H267264   5.518   6.787   9.389
22463TIP3   OH267265   4.824   6.375   8.866
22463TIP3    H167266   4.815   6.370   8.964
22463TIP3    H267267   4.742   6.423   8.842
22464TIP3   OH267268   4.363   6.423   9.732
22464TIP3    H167269   4.438   6.452   9.788
22464TIP3    H267270   4.406   6.384   9.655
22465TIP3   OH267271   4.343   6.401   9.256
22465TIP3    H167272   4.387   6.441   9.178
22465TIP3    H267273   4.280   6.473   9.279
22466TIP3   OH267274   5.470   7.116   9.843
22466TIP3    H167275   5.520   7.048   9.792
22466TIP3    H267276   5.502   7.100   9.932
22467TIP3   OH267277   5.162   6.578   9.524
22467TIP3    H167278   5.079   6.573   9.576
22467TIP3    H267279   5.230   6.576   9.593
22468TIP3   OH267280   4.599   6.631   9.531
22468TIP3    H167281   4.504   6.639   9.505
22468TIP3    H267282   4.621   6.539   9.509
22469TIP3   OH267283   4.870   6.629   9.219
22469TIP3    H167284   4.964   6.643   9.198
22469TIP3    H267285   4.823   6.652   9.136
22470TIP3   OH267286   5.651   6.655   9.717
22470TIP3    H167287   5.621   6.659   9.810
22470TIP3    H267288   5.592   6.587   9.681
22471TIP3   OH267289   4.707   6.663   9.000
22471TIP3    H167290   4.634   6.618   8.954
22471TIP3    H267291   4.758   6.696   8.923
22472TIP3   OH267292   5.248   6.903   9.617
22472TIP3    H167293   5.321   6.864   9.566
22472TIP3    H267294   5.259   6.862   9.704
22473TIP3   OH267295   4.774   6.392   9.498
22473TIP3    H167296   4.739   6.312   9.543
22473TIP3    H267297   4.825   6.353   9.426
22474TIP3   OH267298   5.222   6.789   9.899
22474TIP3    H167299   5.130   6.820   9.913
22474TIP3    H267300   5.274   6.844   9.958
22475TIP3   OH267301   4.959   7.197   9.003
22475TIP3    H167302   4.890   7.127   8.994
22475TIP3    H267303   4.944   7.226   9.097
22476TIP3   OH267304   5.863   7.414   9.642
22476TIP3    H167305   5.892   7.468   9.565
22476TIP3    H267306   5.776   7.380   9.610
22477TIP3   OH267307   5.419   6.506   8.863
22477TIP3    H167308   5.323   6.489   8.874
22477TIP3    H267309   5.429   6.600   8.890
22478TIP3   OH267310   5.489   6.750   8.969
22478TIP3    H167311   5.586   6.755   8.987
22478TIP3    H267312   5.473   6.830   8.915
22479TIP3   OH267313   4.661   7.219   9.683
22479TIP3    H167314   4.694   7.186   9.597
22479TIP3    H267315   4.682   7.144   9.742
22480TIP3   OH267316   5.099   7.348   8.823
22480TIP3    H167317   5.065   7.437   8.845
22480TIP3    H267318   5.048   7.291   8.883
22481TIP3   OH267319   5.933   6.839   8.807
22481TIP3    H167320   5.869   6.793   8.746
22481TIP3    H267321   5.929   6.927   8.765
22482TIP3   OH267322   5.624   7.660   8.714
22482TIP3    H167323   5.609   7.588   8.777
22482TIP3    H267324   5.642   7.613   8.630
22483TIP3   OH267325   5.617   7.291   9.553
22483TIP3    H167326   5.526   7.257   9.564
22483TIP3    H267327   5.660   7.214   9.511
22484TIP3   OH267328   4.750   7.514   9.299
22484TIP3    H167329   4.746   7.601   9.254
22484TIP3    H267330   4.657   7.500   9.321
22485TIP3   OH267331   4.317   6.822   9.009
22485TIP3    H167332   4.362   6.905   9.031
22485TIP3    H267333   4.238   6.827   9.069
22486TIP3   OH267334   4.897   7.285   9.252
22486TIP3    H167335   4.855   7.372   9.270
22486TIP3    H267336   4.861   7.232   9.325
22487TIP3   OH267337   5.026   7.851   9.759
22487TIP3    H167338   5.056   7.935   9.719
22487TIP3    H267339   5.087   7.839   9.831
22488TIP3   OH267340   4.672   7.755   9.154
22488TIP3    H167341   4.587   7.759   9.203
22488TIP3    H267342   4.702   7.848   9.162
22489TIP3   OH267343   5.418   7.498   9.739
22489TIP3    H167344   5.437   7.485   9.832
22489TIP3    H267345   5.488   7.445   9.697
22490TIP3   OH267346   5.383   7.391   8.617
22490TIP3    H167347   5.438   7.365   8.694
22490TIP3    H267348   5.296   7.357   8.646
22491TIP3   OH267349   5.726   7.864   8.437
22491TIP3    H167350   5.768   7.936   8.387
22491TIP3    H267351   5.645   7.910   8.465
22492TIP3   OH267352   5.544   7.323   8.834
22492TIP3    H167353   5.534   7.256   8.904
22492TIP3    H267354   5.641   7.320   8.821
22493TIP3   OH267355   4.465   7.744   9.950
22493TIP3    H167356   4.483   7.650   9.943
22493TIP3    H267357   4.535   7.772  10.010
22494TIP3   OH267358   4.753   7.372   8.615
22494TIP3    H167359   4.766   7.281   8.581
22494TIP3    H267360   4.734   7.355   8.709
22495TIP3   OH267361   4.703   7.378   8.887
22495TIP3    H167362   4.762   7.338   8.953
22495TIP3    H267363   4.712   7.473   8.905
22496TIP3   OH267364   4.436   7.069   9.091
22496TIP3    H167365   4.369   7.111   9.149
22496TIP3    H267366   4.447   7.139   9.024
22497TIP3   OH267367   5.582   6.693   9.979
22497TIP3    H167368   5.652   6.742  10.024
22497TIP3    H267369   5.548   6.636  10.049
22498TIP3   OH267370   5.461   6.457   9.146
22498TIP3    H167371   5.448   6.482   9.053
22498TIP3    H267372   5.501   6.539   9.184
22499TIP3   OH267373   4.973   7.606   8.823
22499TIP3    H167374   4.884   7.619   8.860
22499TIP3    H267375   4.955   7.590   8.729
22500TIP3   OH267376   5.153   6.634   9.250
22500TIP3    H167377   5.219   6.705   9.233
22500TIP3    H267378   5.157   6.626   9.348
22501TIP3   OH267379   5.298   6.364   9.354
22501TIP3    H167380   5.292   6.440   9.415
22501TIP3    H267381   5.358   6.401   9.285
22502TIP3   OH267382   4.712   7.656   8.900
22502TIP3    H167383   4.636   7.694   8.852
22502TIP3    H267384   4.696   7.691   8.991
22503TIP3   OH267385   4.808   6.358   9.143
22503TIP3    H167386   4.804   6.448   9.180
22503TIP3    H267387   4.904   6.340   9.152
22504TIP3   OH267388   5.712   7.049   9.427
22504TIP3    H167389   5.637   6.988   9.441
22504TIP3    H267390   5.785   7.002   9.473
22505TIP3   OH267391   4.425   7.278   8.898
22505TIP3    H167392   4.489   7.351   8.906
22505TIP3    H267393   4.470   7.223   8.831
22506TIP3   OH267394   4.372   6.552   9.028
22506TIP3    H167395   4.367   6.650   9.025
22506TIP3    H267396   4.286   6.527   8.993
22507TIP3   OH267397   5.647   7.975   9.365
22507TIP3    H167398   5.620   8.038   9.295
22507TIP3    H267399   5.744   7.986   9.364
22508TIP3   OH267400   4.758   6.277   9.904
22508TIP3    H167401   4.725   6.243   9.818
22508TIP3    H267402   4.748   6.198   9.961
22509TIP3   OH267403   4.296   7.495   9.287
22509TIP3    H167404   4.222   7.522   9.342
22509TIP3    H267405   4.269   7.532   9.200
22510TIP3   OH267406   4.922   7.580   8.550
22510TIP3    H167407   4.860   7.505   8.570
22510TIP3    H267408   4.994   7.530   8.506
22511TIP3   OH267409   5.347   7.624   8.444
22511TIP3    H167410   5.392   7.559   8.501
22511TIP3    H267411   5.403   7.622   8.364
22512TIP3   OH267412   4.562   7.094   8.748
22512TIP3    H167413   4.611   7.052   8.820
22512TIP3    H267414   4.630   7.094   8.677
22513TIP3   OH267415   5.064   7.287   8.555
22513TIP3    H167416   5.069   7.299   8.652
22513TIP3    H267417   5.066   7.189   8.550
22514TIP3   OH267418   4.774   6.993   8.975
22514TIP3    H167419   4.742   6.951   9.056
22514TIP3    H267420   4.805   6.916   8.923
22515TIP3   OH267421   4.867   6.786   8.813
22515TIP3    H167422   4.840   6.784   8.719
22515TIP3    H267423   4.965   6.792   8.805
22516TIP3   OH267424   5.691   7.120   8.474
22516TIP3    H167425   5.670   7.070   8.392
22516TIP3    H267426   5.659   7.209   8.447
22517TIP3   OH267427   5.170   6.625  10.137
22517TIP3    H167428   5.192   6.654  10.047
22517TIP3    H267429   5.077   6.598  10.126
22518TIP3   OH267430   4.155   7.231   8.931
22518TIP3    H167431   4.250   7.250   8.921
22518TIP3    H267432   4.148   7.141   8.891
22519TIP3   OH267433   4.073   7.850   9.347
22519TIP3    H167434   4.008   7.788   9.306
22519TIP3    H267435   4.112   7.791   9.415
22520TIP3   OH267436   4.208   7.697   9.531
22520TIP3    H167437   4.190   7.622   9.590
22520TIP3    H267438   4.260   7.755   9.591
22521TIP3   OH267439   5.824   7.307   8.809
22521TIP3    H167440   5.896   7.368   8.782
22521TIP3    H267441   5.864   7.265   8.888
22522TIP3   OH267442   5.951   7.173   9.011
22522TIP3    H167443   5.886   7.130   9.071
22522TIP3    H267444   6.015   7.213   9.073
22523TIP3   OH267445   5.976   7.548   9.436
22523TIP3    H167446   6.057   7.511   9.398
22523TIP3    H267447   5.971   7.637   9.398
22524TIP3   OH267448   5.891   7.081   8.659
22524TIP3    H167449   5.819   7.083   8.592
22524TIP3    H267450   5.864   7.156   8.715
22525TIP3   OH267451   5.761   6.754   8.614
22525TIP3    H167452   5.721   6.791   8.535
22525TIP3    H267453   5.736   6.659   8.605
22526TIP3   OH267454   5.767   7.027   9.158
22526TIP3    H167455   5.776   6.931   9.156
22526TIP3    H267456   5.754   7.044   9.254
22527TIP3   OH267457   4.395   7.117   9.894
22527TIP3    H167458   4.390   7.079   9.804
22527TIP3    H267459   4.491   7.106   9.914
22528TIP3   OH267460   5.706   6.488   8.601
22528TIP3    H167461   5.782   6.457   8.654
22528TIP3    H267462   5.634   6.428   8.627
22529TIP3   OH267463   5.762   6.743   9.054
22529TIP3    H167464   5.802   6.654   9.070
22529TIP3    H267465   5.822   6.776   8.985
22530TIP3   OH267466   5.925   6.915   9.539
22530TIP3    H167467   6.013   6.942   9.504
22530TIP3    H267468   5.929   6.957   9.627
22531TIP3   OH267469   5.969   7.057   9.766
22531TIP3    H167470   5.940   7.096   9.849
22531TIP3    H267471   6.017   7.132   9.725
22532TIP3   OH267472   5.871   6.494   9.091
22532TIP3    H167473   5.921   6.478   9.174
22532TIP3    H267474   5.812   6.416   9.090
22533TIP3   OH267475   4.572   6.480   9.901
22533TIP3    H167476   4.633   6.405   9.916
22533TIP3    H267477   4.634   6.555   9.904
22534TIP3   OH267478   4.382   6.748   9.991
22534TIP3    H167479   4.430   6.758   9.906
22534TIP3    H267480   4.385   6.838  10.028
22535TIP3   OH267481   5.954   6.432   8.722
22535TIP3    H167482   5.995   6.357   8.673
22535TIP3    H267483   6.023   6.501   8.716
22536TIP3   OH267484   4.358   6.259   9.485
22536TIP3    H167485   4.264   6.257   9.511
22536TIP3    H267486   4.356   6.317   9.406
22537TIP3   OH267487   5.515   7.965   8.986
22537TIP3    H167488   5.566   7.945   8.905
22537TIP3    H267489   5.577   8.023   9.033
22538TIP3   OH267490   4.691   8.004   9.788
22538TIP3    H167491   4.642   8.055   9.854
22538TIP3    H267492   4.691   8.063   9.711
22539TIP3   OH267493   5.117   8.072   9.604
22539TIP3    H167494   5.048   8.083   9.535
22539TIP3    H267495   5.106   8.154   9.655
22540TIP3   OH267496   5.359   7.963   9.666
22540TIP3    H167497   5.269   7.995   9.641
22540TIP3    H267498   5.411   8.044   9.655
22541TIP3   OH267499   4.385   7.842   9.693
22541TIP3    H167500   4.415   7.824   9.785
22541TIP3    H267501   4.461   7.807   9.642
22542TIP3   OH267502   4.579   7.718   9.546
22542TIP3    H167503   4.595   7.636   9.597
22542TIP3    H267504   4.667   7.760   9.546
22543TIP3   OH267505   4.844   7.814   9.545
22543TIP3    H167506   4.878   7.723   9.543
22543TIP3    H267507   4.875   7.840   9.634
22544TIP3   OH267508   5.418   6.470   9.638
22544TIP3    H167509   5.376   6.399   9.690
22544TIP3    H267510   5.491   6.422   9.594
22545TIP3   OH267511   5.945   6.345   9.539
22545TIP3    H167512   5.981   6.402   9.467
22545TIP3    H267513   5.852   6.372   9.542
22546TIP3   OH267514   6.039   6.455   9.306
22546TIP3    H167515   6.113   6.403   9.268
22546TIP3    H267516   6.073   6.546   9.292
22547TIP3   OH267517   4.670   6.181   9.655
22547TIP3    H167518   4.578   6.147   9.656
22547TIP3    H267519   4.720   6.097   9.654
22548TIP3   OH267520   4.456   6.048   9.303
22548TIP3    H167521   4.484   6.108   9.231
22548TIP3    H267522   4.424   6.112   9.370
22549TIP3   OH267523   5.110   6.213   9.535
22549TIP3    H167524   5.172   6.264   9.480
22549TIP3    H267525   5.129   6.248   9.623
22550TIP3   OH267526   5.656   6.359   9.522
22550TIP3    H167527   5.660   6.322   9.433
22550TIP3    H267528   5.645   6.278   9.577
22551TIP3   OH267529   5.689   6.280   9.081
22551TIP3    H167530   5.601   6.321   9.092
22551TIP3    H267531   5.675   6.195   9.130
22552TIP3   OH267532   4.177   7.615   9.077
22552TIP3    H167533   4.090   7.580   9.051
22552TIP3    H267534   4.156   7.709   9.078
22553TIP3   OH267535   4.570   6.210   9.067
22553TIP3    H167536   4.620   6.147   9.011
22553TIP3    H267537   4.643   6.264   9.105
22554TIP3   OH267538   5.085   6.383   9.166
22554TIP3    H167539   5.144   6.336   9.227
22554TIP3    H267540   5.106   6.476   9.191
22555TIP3   OH267541   5.656   7.926   8.754
22555TIP3    H167542   5.651   7.828   8.742
22555TIP3    H267543   5.615   7.957   8.671
22556TIP3   OH267544   4.252   7.656   8.726
22556TIP3    H167545   4.229   7.673   8.819
22556TIP3    H267546   4.333   7.603   8.732
22557TIP3   OH267547   6.131   6.956   8.970
22557TIP3    H167548   6.080   7.038   8.983
22557TIP3    H267549   6.062   6.897   8.936
22558TIP3   OH267550   6.194   7.244   9.132
22558TIP3    H167551   6.235   7.165   9.174
22558TIP3    H267552   6.249   7.255   9.053
22559TIP3   OH267553   6.690   6.832   9.143
22559TIP3    H167554   6.678   6.901   9.075
22559TIP3    H267555   6.648   6.756   9.098
22560TIP3   OH267556   7.393   6.871   8.743
22560TIP3    H167557   7.394   6.893   8.838
22560TIP3    H267558   7.404   6.958   8.703
22561TIP3   OH267559   6.330   7.038   9.241
22561TIP3    H167560   6.412   7.016   9.291
22561TIP3    H267561   6.342   6.978   9.165
22562TIP3   OH267562   6.764   7.228   9.030
22562TIP3    H167563   6.854   7.200   9.053
22562TIP3    H267564   6.724   7.143   9.003
22563TIP3   OH267565   6.704   6.810   9.535
22563TIP3    H167566   6.633   6.859   9.490
22563TIP3    H267567   6.689   6.830   9.629
22564TIP3   OH267568   6.562   6.952   9.352
22564TIP3    H167569   6.621   7.026   9.374
22564TIP3    H267570   6.615   6.905   9.282
22565TIP3   OH267571   6.031   7.471   8.703
22565TIP3    H167572   5.989   7.497   8.619
22565TIP3    H267573   6.060   7.557   8.739
22566TIP3   OH267574   7.057   6.539   9.272
22566TIP3    H167575   7.059   6.446   9.300
22566TIP3    H267576   6.983   6.573   9.327
22567TIP3   OH267577   6.973   7.282   8.525
22567TIP3    H167578   6.903   7.347   8.507
22567TIP3    H267579   7.035   7.298   8.452
22568TIP3   OH267580   6.943   7.078   8.259
22568TIP3    H167581   7.005   7.123   8.318
22568TIP3    H267582   7.004   7.016   8.212
22569TIP3   OH267583   6.573   7.385   8.918
22569TIP3    H167584   6.524   7.323   8.859
22569TIP3    H267585   6.642   7.325   8.956
22570TIP3   OH267586   7.186   7.245   8.343
22570TIP3    H167587   7.249   7.309   8.381
22570TIP3    H267588   7.201   7.261   8.246
22571TIP3   OH267589   7.690   6.478   8.387
22571TIP3    H167590   7.610   6.497   8.439
22571TIP3    H267591   7.697   6.560   8.333
22572TIP3   OH267592   6.428   7.224   8.744
22572TIP3    H167593   6.364   7.262   8.681
22572TIP3    H267594   6.396   7.133   8.752
22573TIP3   OH267595   6.231   7.989   8.788
22573TIP3    H167596   6.230   8.019   8.883
22573TIP3    H267597   6.183   7.904   8.795
22574TIP3   OH267598   6.980   8.018   8.057
22574TIP3    H167599   7.041   7.954   8.013
22574TIP3    H267600   7.041   8.056   8.121
22575TIP3   OH267601   6.823   6.608   9.408
22575TIP3    H167602   6.736   6.571   9.382
22575TIP3    H267603   6.790   6.688   9.454
22576TIP3   OH267604   7.250   7.294   8.087
22576TIP3    H167605   7.213   7.261   8.002
22576TIP3    H267606   7.338   7.324   8.055
22577TIP3   OH267607   6.963   6.661   8.386
22577TIP3    H167608   6.935   6.658   8.479
22577TIP3    H267609   6.927   6.576   8.354
22578TIP3   OH267610   6.628   7.009   8.946
22578TIP3    H167611   6.537   6.978   8.965
22578TIP3    H267612   6.644   6.967   8.859
22579TIP3   OH267613   7.104   7.079   8.653
22579TIP3    H167614   7.054   7.154   8.615
22579TIP3    H267615   7.158   7.049   8.576
22580TIP3   OH267616   6.618   6.630   8.352
22580TIP3    H167617   6.613   6.626   8.450
22580TIP3    H267618   6.537   6.680   8.331
22581TIP3   OH267619   6.162   6.680   9.220
22581TIP3    H167620   6.238   6.708   9.276
22581TIP3    H267621   6.204   6.640   9.143
22582TIP3   OH267622   6.137   6.657   8.743
22582TIP3    H167623   6.183   6.696   8.666
22582TIP3    H267624   6.077   6.730   8.765
22583TIP3   OH267625   6.952   6.836   9.015
22583TIP3    H167626   6.873   6.833   9.072
22583TIP3    H267627   7.020   6.850   9.083
22584TIP3   OH267628   6.394   6.887   9.017
22584TIP3    H167629   6.299   6.892   8.991
22584TIP3    H267630   6.419   6.795   8.996
22585TIP3   OH267631   6.662   6.885   8.706
22585TIP3    H167632   6.758   6.895   8.691
22585TIP3    H267633   6.621   6.909   8.620
22586TIP3   OH267634   6.500   6.922   8.484
22586TIP3    H167635   6.430   6.875   8.437
22586TIP3    H267636   6.554   6.955   8.409
22587TIP3   OH267637   6.566   6.648   8.981
22587TIP3    H167638   6.535   6.568   9.029
22587TIP3    H267639   6.627   6.611   8.916
22588TIP3   OH267640   6.751   7.456   8.488
22588TIP3    H167641   6.685   7.384   8.480
22588TIP3    H267642   6.742   7.481   8.583
22589TIP3   OH267643   7.213   6.765   8.344
22589TIP3    H167644   7.117   6.749   8.356
22589TIP3    H267645   7.225   6.858   8.374
22590TIP3   OH267646   7.282   7.008   8.452
22590TIP3    H167647   7.380   7.003   8.465
22590TIP3    H267648   7.274   7.084   8.392
22591TIP3   OH267649   6.481   7.451   9.170
22591TIP3    H167650   6.490   7.435   9.074
22591TIP3    H267651   6.484   7.362   9.205
22592TIP3   OH267652   6.888   7.598   8.291
22592TIP3    H167653   6.874   7.687   8.328
22592TIP3    H267654   6.852   7.543   8.363
22593TIP3   OH267655   7.709   7.073   8.274
22593TIP3    H167656   7.636   7.041   8.216
22593TIP3    H267657   7.716   7.164   8.236
22594TIP3   OH267658   6.544   7.772   8.808
22594TIP3    H167659   6.570   7.844   8.748
22594TIP3    H267660   6.447   7.770   8.800
22595TIP3   OH267661   6.112   7.079   8.494
22595TIP3    H167662   6.160   7.161   8.516
22595TIP3    H267663   6.035   7.084   8.556
22596TIP3   OH267664   6.713   7.547   8.747
22596TIP3    H167665   6.662   7.629   8.761
22596TIP3    H267666   6.664   7.485   8.805
22597TIP3   OH267667   6.411   8.040   8.601
22597TIP3    H167668   6.340   8.020   8.665
22597TIP3    H267669   6.485   8.063   8.660
22598TIP3   OH267670   7.157   7.634   8.084
22598TIP3    H167671   7.214   7.630   8.162
22598TIP3    H267672   7.072   7.606   8.123
22599TIP3   OH267673   6.545   7.621   8.104
22599TIP3    H167674   6.561   7.530   8.071
22599TIP3    H267675   6.525   7.604   8.198
22600TIP3   OH267676   6.493   7.629   8.379
22600TIP3    H167677   6.572   7.597   8.425
22600TIP3    H267678   6.502   7.726   8.384
22601TIP3   OH267679   6.231   7.324   8.577
22601TIP3    H167680   6.165   7.368   8.635
22601TIP3    H267681   6.246   7.393   8.511
22602TIP3   OH267682   7.239   6.692   8.618
22602TIP3    H167683   7.233   6.723   8.525
22602TIP3    H267684   7.294   6.763   8.658
22603TIP3   OH267685   6.762   7.853   8.337
22603TIP3    H167686   6.667   7.874   8.347
22603TIP3    H267687   6.773   7.860   8.241
22604TIP3   OH267688   6.937   6.882   8.741
22604TIP3    H167689   7.003   6.951   8.717
22604TIP3    H267690   6.949   6.877   8.839
22605TIP3   OH267691   7.089   6.619   8.843
22605TIP3    H167692   7.089   6.694   8.905
22605TIP3    H267693   7.146   6.653   8.771
22606TIP3   OH267694   6.499   7.905   8.384
22606TIP3    H167695   6.471   7.970   8.316
22606TIP3    H267696   6.460   7.949   8.463
22607TIP3   OH267697   6.603   6.615   8.628
22607TIP3    H167698   6.601   6.705   8.668
22607TIP3    H267699   6.699   6.595   8.638
22608TIP3   OH267700   6.219   7.536   8.384
22608TIP3    H167701   6.286   7.606   8.392
22608TIP3    H267702   6.264   7.480   8.317
22609TIP3   OH267703   6.167   6.809   8.516
22609TIP3    H167704   6.164   6.907   8.511
22609TIP3    H267705   6.082   6.784   8.479
22610TIP3   OH267706   6.553   6.529   9.391
22610TIP3    H167707   6.521   6.495   9.305
22610TIP3    H267708   6.544   6.451   9.450
22611TIP3   OH267709   6.089   7.748   8.774
22611TIP3    H167710   6.014   7.776   8.829
22611TIP3    H267711   6.061   7.784   8.686
22612TIP3   OH267712   6.716   7.817   8.024
22612TIP3    H167713   6.658   7.742   8.051
22612TIP3    H267714   6.788   7.769   7.979
22613TIP3   OH267715   7.165   7.874   7.925
22613TIP3    H167716   7.182   7.788   7.967
22613TIP3    H267717   7.202   7.865   7.834
22614TIP3   OH267718   6.355   7.348   8.236
22614TIP3    H167719   6.409   7.310   8.307
22614TIP3    H267720   6.422   7.351   8.164
22615TIP3   OH267721   6.854   7.537   8.031
22615TIP3    H167722   6.856   7.556   8.128
22615TIP3    H267723   6.860   7.439   8.032
22616TIP3   OH267724   6.568   7.248   8.462
22616TIP3    H167725   6.540   7.200   8.542
22616TIP3    H267726   6.603   7.174   8.407
22617TIP3   OH267727   6.664   7.043   8.300
22617TIP3    H167728   6.637   7.042   8.205
22617TIP3    H267729   6.761   7.049   8.292
22618TIP3   OH267730   7.478   7.366   7.955
22618TIP3    H167731   7.456   7.322   7.870
22618TIP3    H267732   7.467   7.459   7.928
22619TIP3   OH267733   6.460   8.116   8.213
22619TIP3    H167734   6.555   8.106   8.188
22619TIP3    H267735   6.428   8.153   8.129
22620TIP3   OH267736   5.951   7.487   8.421
22620TIP3    H167737   6.046   7.509   8.407
22620TIP3    H267738   5.946   7.398   8.379
22621TIP3   OH267739   5.857   8.100   8.823
22621TIP3    H167740   5.786   8.043   8.787
22621TIP3    H267741   5.892   8.041   8.892
22622TIP3   OH267742   5.948   7.936   9.020
22622TIP3    H167743   5.965   7.853   9.066
22622TIP3    H267744   5.909   7.990   9.094
22623TIP3   OH267745   7.664   7.307   8.145
22623TIP3    H167746   7.599   7.326   8.074
22623TIP3    H267747   7.705   7.393   8.157
22624TIP3   OH267748   7.522   7.011   8.093
22624TIP3    H167749   7.513   7.044   8.003
22624TIP3    H267750   7.507   6.915   8.081
22625TIP3   OH267751   6.188   7.347   9.392
22625TIP3    H167752   6.190   7.324   9.297
22625TIP3    H267753   6.269   7.401   9.404
22626TIP3   OH267754   7.490   6.744   8.081
22626TIP3    H167755   7.572   6.715   8.126
22626TIP3    H267756   7.423   6.681   8.114
22627TIP3   OH267757   7.551   6.995   8.500
22627TIP3    H167758   7.590   6.910   8.528
22627TIP3    H267759   7.623   7.030   8.443
22628TIP3   OH267760   7.667   6.756   8.590
22628TIP3    H167761   7.739   6.721   8.645
22628TIP3    H267762   7.605   6.680   8.587
22629TIP3   OH267763   6.371   6.739   9.392
22629TIP3    H167764   6.434   6.665   9.406
22629TIP3    H267765   6.431   6.815   9.390
22630TIP3   OH267766   6.177   7.007   9.477
22630TIP3    H167767   6.223   7.008   9.391
22630TIP3    H267768   6.185   7.099   9.505
22631TIP3   OH267769   7.729   6.677   8.194
22631TIP3    H167770   7.772   6.604   8.144
22631TIP3    H267771   7.796   6.749   8.186
22632TIP3   OH267772   6.154   6.515   8.972
22632TIP3    H167773   6.060   6.513   8.997
22632TIP3    H267774   6.153   6.573   8.893
22633TIP3   OH267775   6.362   6.589   9.789
22633TIP3    H167776   6.317   6.586   9.874
22633TIP3    H267777   6.296   6.635   9.734
22634TIP3   OH267778   7.204   6.735   9.124
22634TIP3    H167779   7.151   6.666   9.167
22634TIP3    H267780   7.272   6.683   9.075
22635TIP3   OH267781   6.465   6.437   9.142
22635TIP3    H167782   6.373   6.402   9.144
22635TIP3    H267783   6.516   6.353   9.140
22636TIP3   OH267784   6.247   6.305   8.788
22636TIP3    H167785   6.280   6.364   8.718
22636TIP3    H267786   6.221   6.369   8.857
22637TIP3   OH267787   6.904   6.472   9.023
22637TIP3    H167788   6.965   6.521   8.965
22637TIP3    H267789   6.931   6.504   9.110
22638TIP3   OH267790   7.405   6.609   8.994
22638TIP3    H167791   7.450   6.585   8.912
22638TIP3    H267792   7.408   6.525   9.044
22639TIP3   OH267793   7.485   6.540   8.568
22639TIP3    H167794   7.394   6.574   8.575
22639TIP3    H267795   7.476   6.455   8.617
22640TIP3   OH267796   5.968   7.873   8.571
22640TIP3    H167797   5.884   7.842   8.533
22640TIP3    H267798   5.959   7.969   8.555
22641TIP3   OH267799   6.367   6.468   8.553
22641TIP3    H167800   6.417   6.404   8.498
22641TIP3    H267801   6.440   6.521   8.591
22642TIP3   OH267802   6.880   6.634   8.651
22642TIP3    H167803   6.941   6.588   8.712
22642TIP3    H267804   6.899   6.726   8.679
22643TIP3   OH267805   6.709   8.072   8.114
22643TIP3    H167806   6.795   8.100   8.081
22643TIP3    H267807   6.703   7.984   8.070
22644TIP3   OH267808   6.046   7.904   8.211
22644TIP3    H167809   6.045   7.927   8.305
22644TIP3    H267810   6.134   7.861   8.200
22645TIP3   OH267811   8.371   6.846   7.822
22645TIP3    H167812   8.395   6.907   7.894
22645TIP3    H267813   8.306   6.901   7.773
22646TIP3   OH267814   7.903   6.891   8.203
22646TIP3    H167815   7.954   6.936   8.133
22646TIP3    H267816   7.840   6.963   8.227
22647TIP3   OH267817   7.973   7.066   8.002
22647TIP3    H167818   7.966   7.162   7.994
22647TIP3    H267819   7.901   7.031   7.946
22648TIP3   OH267820   7.914   6.724   8.411
22648TIP3    H167821   7.831   6.750   8.454
22648TIP3    H267822   7.920   6.790   8.338
22649TIP3   OH267823   8.055   6.543   8.262
22649TIP3    H167824   8.071   6.595   8.181
22649TIP3    H267825   7.993   6.600   8.312
22650TIP3   OH267826   8.142   6.693   8.045
22650TIP3    H167827   8.207   6.655   7.982
22650TIP3    H267828   8.181   6.779   8.069
22651TIP3   OH267829   2.965   8.385   8.891
22651TIP3    H167830   3.018   8.409   8.969
22651TIP3    H267831   3.021   8.314   8.853
22652TIP3   OH267832   3.726   7.773   9.041
22652TIP3    H167833   3.659   7.773   9.114
22652TIP3    H267834   3.726   7.867   9.016
22653TIP3   OH267835   3.316   8.582   8.738
22653TIP3    H167836   3.273   8.546   8.658
22653TIP3    H267837   3.396   8.622   8.699
22654TIP3   OH267838   3.003   7.966   8.991
22654TIP3    H167839   2.992   7.967   9.090
22654TIP3    H267840   2.975   7.873   8.977
22655TIP3   OH267841   2.678   7.926   9.021
22655TIP3    H167842   2.666   7.915   9.117
22655TIP3    H267843   2.588   7.954   8.995
22656TIP3   OH267844   3.264   8.042   9.007
22656TIP3    H167845   3.167   8.039   9.008
22656TIP3    H267846   3.288   8.134   9.030
22657TIP3   OH267847   3.365   8.286   9.061
22657TIP3    H167848   3.447   8.274   9.115
22657TIP3    H267849   3.382   8.372   9.022
22658TIP3   OH267850   3.775   8.387   8.950
22658TIP3    H167851   3.707   8.342   8.896
22658TIP3    H267852   3.775   8.474   8.907
22659TIP3   OH267853   3.266   8.089   9.294
22659TIP3    H167854   3.264   8.036   9.213
22659TIP3    H267855   3.356   8.069   9.325
22660TIP3   OH267856   3.537   8.680   8.609
22660TIP3    H167857   3.517   8.627   8.530
22660TIP3    H267858   3.503   8.767   8.579
22661TIP3   OH267859   3.716   8.643   8.807
22661TIP3    H167860   3.672   8.620   8.722
22661TIP3    H267861   3.642   8.695   8.844
22662TIP3   OH267862   3.593   8.318   8.758
22662TIP3    H167863   3.553   8.338   8.673
22662TIP3    H267864   3.576   8.221   8.762
22663TIP3   OH267865   3.545   8.051   8.754
22663TIP3    H167866   3.623   8.019   8.804
22663TIP3    H267867   3.475   7.987   8.779
22664TIP3   OH267868   3.602   8.303   9.192
22664TIP3    H167869   3.634   8.217   9.229
22664TIP3    H267870   3.685   8.336   9.156
22665TIP3   OH267871   3.707   8.045   9.249
22665TIP3    H167872   3.759   8.035   9.331
22665TIP3    H267873   3.652   7.964   9.257
22666TIP3   OH267874   3.793   7.997   8.863
22666TIP3    H167875   3.830   7.914   8.827
22666TIP3    H267876   3.870   8.058   8.862
22667TIP3   OH267877   3.795   7.918   9.710
22667TIP3    H167878   3.832   7.953   9.625
22667TIP3    H267879   3.700   7.917   9.686
22668TIP3   OH267880   3.882   8.018   9.465
22668TIP3    H167881   3.950   7.961   9.423
22668TIP3    H267882   3.917   8.107   9.443
22669TIP3   OH267883   3.524   7.905   9.638
22669TIP3    H167884   3.521   7.858   9.552
22669TIP3    H267885   3.497   7.834   9.701
22670TIP3   OH267886   2.456   7.697   9.277
22670TIP3    H167887   2.468   7.663   9.187
22670TIP3    H267888   2.443   7.792   9.258
22671TIP3   OH267889   2.978   7.945   9.254
22671TIP3    H167890   2.970   7.891   9.334
22671TIP3    H267891   2.955   8.032   9.289
22672TIP3   OH267892   4.981   9.007   8.882
22672TIP3    H167893   4.958   9.094   8.842
22672TIP3    H267894   4.919   8.949   8.836
22673TIP3   OH267895   3.980   8.517   9.118
22673TIP3    H167896   3.906   8.568   9.156
22673TIP3    H267897   3.939   8.430   9.113
22674TIP3   OH267898   4.555   8.386   9.271
22674TIP3    H167899   4.520   8.456   9.213
22674TIP3    H267900   4.502   8.309   9.240
22675TIP3   OH267901   5.232   8.472   8.914
22675TIP3    H167902   5.302   8.467   8.983
22675TIP3    H267903   5.284   8.503   8.837
22676TIP3   OH267904   4.630   8.791   9.161
22676TIP3    H167905   4.720   8.760   9.188
22676TIP3    H267906   4.586   8.705   9.145
22677TIP3   OH267907   4.896   9.220   8.734
22677TIP3    H167908   4.865   9.191   8.647
22677TIP3    H267909   4.854   9.305   8.746
22678TIP3   OH267910   5.434   8.476   9.097
22678TIP3    H167911   5.448   8.411   9.167
22678TIP3    H267912   5.522   8.514   9.084
22679TIP3   OH267913   4.450   8.501   9.497
22679TIP3    H167914   4.463   8.582   9.446
22679TIP3    H267915   4.471   8.433   9.430
22680TIP3   OH267916   4.900   8.088   9.434
22680TIP3    H167917   4.883   7.994   9.454
22680TIP3    H267918   4.821   8.128   9.479
22681TIP3   OH267919   4.831   8.864   8.692
22681TIP3    H167920   4.746   8.901   8.662
22681TIP3    H267921   4.878   8.848   8.607
22682TIP3   OH267922   4.787   8.635   8.414
22682TIP3    H167923   4.857   8.685   8.459
22682TIP3    H267924   4.841   8.570   8.364
22683TIP3   OH267925   5.159   8.944   8.668
22683TIP3    H167926   5.110   8.964   8.750
22683TIP3    H267927   5.240   8.907   8.707
22684TIP3   OH267928   4.410   8.925   9.081
22684TIP3    H167929   4.375   8.873   9.004
22684TIP3    H267930   4.494   8.875   9.099
22685TIP3   OH267931   5.009   8.799   8.488
22685TIP3    H167932   5.070   8.853   8.542
22685TIP3    H267933   5.038   8.821   8.397
22686TIP3   OH267934   5.526   8.032   8.534
22686TIP3    H167935   5.448   8.053   8.588
22686TIP3    H267936   5.544   8.119   8.492
22687TIP3   OH267937   4.257   8.777   8.905
22687TIP3    H167938   4.194   8.818   8.842
22687TIP3    H267939   4.230   8.684   8.903
22688TIP3   OH267940   5.330   9.388   8.103
22688TIP3    H167941   5.326   9.481   8.073
22688TIP3    H267942   5.421   9.364   8.075
22689TIP3   OH267943   4.850   9.620   8.193
22689TIP3    H167944   4.905   9.549   8.151
22689TIP3    H267945   4.875   9.609   8.287
22690TIP3   OH267946   4.869   9.631   8.462
22690TIP3    H167947   4.799   9.655   8.524
22690TIP3    H267948   4.939   9.607   8.524
22691TIP3   OH267949   4.669   8.165   9.553
22691TIP3    H167950   4.572   8.147   9.546
22691TIP3    H267951   4.672   8.253   9.596
22692TIP3   OH267952   5.092   8.849   8.236
22692TIP3    H167953   5.057   8.817   8.150
22692TIP3    H267954   5.176   8.890   8.207
22693TIP3   OH267955   4.818   8.203   8.544
22693TIP3    H167956   4.776   8.211   8.632
22693TIP3    H267957   4.759   8.137   8.502
22694TIP3   OH267958   4.472   8.578   9.093
22694TIP3    H167959   4.382   8.542   9.112
22694TIP3    H267960   4.488   8.532   9.007
22695TIP3   OH267961   4.959   8.653   8.818
22695TIP3    H167962   4.909   8.727   8.777
22695TIP3    H267963   5.015   8.623   8.744
22696TIP3   OH267964   5.090   8.672   9.079
22696TIP3    H167965   5.062   8.713   8.996
22696TIP3    H267966   5.143   8.599   9.042
22697TIP3   OH267967   4.469   8.189   8.506
22697TIP3    H167968   4.454   8.183   8.602
22697TIP3    H267969   4.386   8.231   8.477
22698TIP3   OH267970   4.006   8.233   9.352
22698TIP3    H167971   4.080   8.259   9.411
22698TIP3    H267972   4.050   8.179   9.285
22699TIP3   OH267973   3.983   8.215   8.893
22699TIP3    H167974   4.026   8.257   8.815
22699TIP3    H267975   3.917   8.284   8.916
22700TIP3   OH267976   4.806   8.387   9.154
22700TIP3    H167977   4.720   8.385   9.202
22700TIP3    H267978   4.869   8.397   9.227
22701TIP3   OH267979   4.248   8.448   9.150
22701TIP3    H167980   4.151   8.458   9.152
22701TIP3    H267981   4.261   8.351   9.156
22702TIP3   OH267982   4.510   8.446   8.856
22702TIP3    H167983   4.604   8.460   8.835
22702TIP3    H267984   4.464   8.467   8.772
22703TIP3   OH267985   5.288   8.432   9.378
22703TIP3    H167986   5.229   8.472   9.442
22703TIP3    H267987   5.224   8.388   9.319
22704TIP3   OH267988   4.343   8.484   8.638
22704TIP3    H167989   4.271   8.433   8.597
22704TIP3    H267990   4.393   8.511   8.558
22705TIP3   OH267991   4.875   8.711   9.263
22705TIP3    H167992   4.952   8.697   9.204
22705TIP3    H267993   4.905   8.671   9.346
22706TIP3   OH267994   4.410   8.201   9.135
22706TIP3    H167995   4.369   8.126   9.186
22706TIP3    H267996   4.459   8.154   9.067
22707TIP3   OH267997   4.865   8.636   9.558
22707TIP3    H167998   4.775   8.639   9.597
22707TIP3    H267999   4.921   8.671   9.629
22708TIP3   OH268000   4.590   9.013   8.641
22708TIP3    H168001   4.526   8.939   8.630
22708TIP3    H268002   4.575   9.037   8.735
22709TIP3   OH268003   5.060   8.317   8.499
22709TIP3    H168004   4.964   8.301   8.510
22709TIP3    H268005   5.070   8.412   8.523
22710TIP3   OH268006   5.110   8.563   8.601
22710TIP3    H168007   5.206   8.552   8.619
22710TIP3    H268008   5.108   8.644   8.546
22711TIP3   OH268009   4.741   9.164   8.470
22711TIP3    H168010   4.686   9.244   8.476
22711TIP3    H268011   4.688   9.100   8.522
22712TIP3   OH268012   5.564   8.633   8.428
22712TIP3    H168013   5.491   8.599   8.372
22712TIP3    H268014   5.567   8.724   8.396
22713TIP3   OH268015   5.269   9.430   8.372
22713TIP3    H168016   5.225   9.344   8.364
22713TIP3    H268017   5.295   9.444   8.279
22714TIP3   OH268018   3.953   8.636   8.647
22714TIP3    H168019   4.001   8.719   8.665
22714TIP3    H268020   3.875   8.646   8.705
22715TIP3   OH268021   4.528   9.109   8.888
22715TIP3    H168022   4.504   9.198   8.917
22715TIP3    H268023   4.492   9.055   8.960
22716TIP3   OH268024   5.020   9.204   8.255
22716TIP3    H168025   5.072   9.173   8.332
22716TIP3    H268026   4.933   9.170   8.277
22717TIP3   OH268027   5.323   9.649   8.049
22717TIP3    H168028   5.330   9.702   7.967
22717TIP3    H268029   5.282   9.714   8.108
22718TIP3   OH268030   5.185   9.138   8.465
22718TIP3    H168031   5.166   9.075   8.537
22718TIP3    H268032   5.283   9.135   8.464
22719TIP3   OH268033   4.389   9.183   8.247
22719TIP3    H168034   4.400   9.091   8.214
22719TIP3    H268035   4.375   9.167   8.343
22720TIP3   OH268036   4.357   9.187   8.518
22720TIP3    H168037   4.394   9.134   8.589
22720TIP3    H268038   4.339   9.272   8.559
22721TIP3   OH268039   4.068   8.885   8.731
22721TIP3    H168040   4.015   8.939   8.791
22721TIP3    H268041   4.084   8.950   8.660
22722TIP3   OH268042   5.105   8.264   8.778
22722TIP3    H168043   5.089   8.297   8.688
22722TIP3    H268044   5.140   8.345   8.823
22723TIP3   OH268045   4.590   9.404   8.486
22723TIP3    H168046   4.506   9.447   8.466
22723TIP3    H268047   4.640   9.430   8.407
22724TIP3   OH268048   4.790   8.446   8.883
22724TIP3    H168049   4.855   8.518   8.867
22724TIP3    H268050   4.796   8.437   8.980
22725TIP3   OH268051   4.936   8.185   8.998
22725TIP3    H168052   4.926   8.263   9.056
22725TIP3    H268053   4.998   8.219   8.930
22726TIP3   OH268054   4.449   8.171   8.781
22726TIP3    H168055   4.437   8.259   8.823
22726TIP3    H268056   4.546   8.159   8.794
22727TIP3   OH268057   4.067   9.089   8.548
22727TIP3    H168058   4.090   9.181   8.531
22727TIP3    H268059   4.113   9.043   8.474
22728TIP3   OH268060   4.013   8.367   8.665
22728TIP3    H168061   4.002   8.464   8.660
22728TIP3    H268062   3.930   8.334   8.626
22729TIP3   OH268063   4.407   8.080   9.545
22729TIP3    H168064   4.362   8.059   9.461
22729TIP3    H268065   4.385   8.003   9.601
22730TIP3   OH268066   4.561   9.384   8.178
22730TIP3    H168067   4.500   9.310   8.201
22730TIP3    H268068   4.629   9.336   8.127
22731TIP3   OH268069   4.994   9.426   8.074
22731TIP3    H168070   5.041   9.361   8.128
22731TIP3    H268071   5.047   9.428   7.991
22732TIP3   OH268072   4.197   8.909   8.383
22732TIP3    H168073   4.247   8.865   8.453
22732TIP3    H268074   4.264   8.910   8.311
22733TIP3   OH268075   4.707   9.101   8.196
22733TIP3    H168076   4.707   9.110   8.293
22733TIP3    H268077   4.707   9.003   8.187
22734TIP3   OH268078   4.416   8.803   8.615
22734TIP3    H168079   4.380   8.750   8.688
22734TIP3    H268080   4.448   8.732   8.555
22735TIP3   OH268081   4.505   8.602   8.448
22735TIP3    H168082   4.478   8.600   8.354
22735TIP3    H268083   4.603   8.606   8.440
22736TIP3   OH268084   5.328   8.933   8.111
22736TIP3    H168085   5.310   8.882   8.029
22736TIP3    H268086   5.295   9.021   8.082
22737TIP3   OH268087   4.764   8.384   9.699
22737TIP3    H168088   4.815   8.457   9.662
22737TIP3    H268089   4.736   8.424   9.784
22738TIP3   OH268090   4.335   9.675   8.349
22738TIP3    H168091   4.423   9.669   8.306
22738TIP3    H268092   4.278   9.702   8.275
22739TIP3   OH268093   3.793   9.045   8.508
22739TIP3    H168094   3.880   9.060   8.549
22739TIP3    H268095   3.792   8.948   8.495
22740TIP3   OH268096   5.473   9.133   8.465
22740TIP3    H168097   5.549   9.143   8.405
22740TIP3    H268098   5.509   9.082   8.540
22741TIP3   OH268099   5.526   8.903   8.295
22741TIP3    H168100   5.459   8.894   8.224
22741TIP3    H268101   5.479   8.964   8.353
22742TIP3   OH268102   5.381   8.572   8.242
22742TIP3    H168103   5.349   8.601   8.155
22742TIP3    H268104   5.362   8.475   8.237
22743TIP3   OH268105   5.428   8.791   8.704
22743TIP3    H168106   5.464   8.710   8.747
22743TIP3    H268107   5.413   8.847   8.781
22744TIP3   OH268108   5.344   8.303   8.242
22744TIP3    H168109   5.420   8.272   8.294
22744TIP3    H268110   5.273   8.242   8.265
22745TIP3   OH268111   5.368   8.510   8.665
22745TIP3    H168112   5.435   8.444   8.690
22745TIP3    H268113   5.427   8.577   8.626
22746TIP3   OH268114   5.522   8.276   8.713
22746TIP3    H168115   5.557   8.282   8.804
22746TIP3    H268116   5.451   8.210   8.724
22747TIP3   OH268117   4.218   8.286   9.509
22747TIP3    H168118   4.278   8.226   9.556
22747TIP3    H268119   4.222   8.366   9.566
22748TIP3   OH268120   5.596   8.243   8.357
22748TIP3    H168121   5.628   8.165   8.308
22748TIP3    H268122   5.658   8.312   8.328
22749TIP3   OH268123   3.996   8.066   9.117
22749TIP3    H168124   3.904   8.066   9.150
22749TIP3    H268125   3.992   8.127   9.041
22750TIP3   OH268126   5.060   8.285   9.282
22750TIP3    H168127   5.009   8.215   9.328
22750TIP3    H268128   5.125   8.234   9.231
22751TIP3   OH268129   5.569   8.184   9.197
22751TIP3    H168130   5.613   8.220   9.117
22751TIP3    H268131   5.474   8.188   9.173
22752TIP3   OH268132   5.672   8.273   8.950
22752TIP3    H168133   5.748   8.224   8.912
22752TIP3    H268134   5.688   8.364   8.919
22753TIP3   OH268135   4.307   7.994   9.287
22753TIP3    H168136   4.214   7.961   9.295
22753TIP3    H268137   4.356   7.910   9.290
22754TIP3   OH268138   4.092   7.864   8.937
22754TIP3    H168139   4.116   7.928   8.868
22754TIP3    H268140   4.060   7.922   9.009
22755TIP3   OH268141   4.753   8.024   9.167
22755TIP3    H168142   4.815   8.081   9.119
22755TIP3    H268143   4.755   8.062   9.256
22756TIP3   OH268144   5.293   8.168   9.154
22756TIP3    H168145   5.288   8.131   9.065
22756TIP3    H268146   5.277   8.089   9.210
22757TIP3   OH268147   5.318   8.087   8.717
22757TIP3    H168148   5.240   8.144   8.737
22757TIP3    H268149   5.301   8.010   8.774
22758TIP3   OH268150   4.206   8.030   8.699
22758TIP3    H168151   4.254   7.962   8.648
22758TIP3    H268152   4.280   8.078   8.742
22759TIP3   OH268153   4.730   8.191   8.809
22759TIP3    H168154   4.788   8.156   8.880
22759TIP3    H268155   4.744   8.286   8.827
22760TIP3   OH268156   4.597   9.629   8.285
22760TIP3    H168157   4.685   9.640   8.243
22760TIP3    H268158   4.570   9.546   8.240
22761TIP3   OH268159   5.760   8.778   8.579
22761TIP3    H168160   5.763   8.840   8.655
22761TIP3    H268161   5.667   8.750   8.581
22762TIP3   OH268162   6.563   8.484   7.981
22762TIP3    H168163   6.612   8.489   8.066
22762TIP3    H268164   6.542   8.389   7.976
22763TIP3   OH268165   6.244   8.436   7.986
22763TIP3    H168166   6.228   8.428   8.081
22763TIP3    H268167   6.172   8.497   7.960
22764TIP3   OH268168   5.790   8.485   8.389
22764TIP3    H168169   5.824   8.517   8.302
22764TIP3    H268170   5.708   8.541   8.393
22765TIP3   OH268171   6.144   8.690   8.122
22765TIP3    H168172   6.073   8.668   8.058
22765TIP3    H268173   6.194   8.756   8.070
22766TIP3   OH268174   5.746   8.886   8.132
22766TIP3    H168175   5.798   8.962   8.160
22766TIP3    H268176   5.668   8.891   8.191
22767TIP3   OH268177   6.230   8.415   8.267
22767TIP3    H168178   6.229   8.511   8.277
22767TIP3    H268179   6.325   8.394   8.267
22768TIP3   OH268180   5.798   8.616   8.154
22768TIP3    H168181   5.801   8.714   8.148
22768TIP3    H268182   5.723   8.595   8.098
22769TIP3   OH268183   5.984   9.158   7.856
22769TIP3    H168184   6.047   9.125   7.921
22769TIP3    H268185   6.043   9.154   7.776
22770TIP3   OH268186   6.309   8.844   7.935
22770TIP3    H168187   6.256   8.832   7.853
22770TIP3    H268188   6.394   8.866   7.894
22771TIP3   OH268189   5.583   9.310   8.020
22771TIP3    H168190   5.659   9.323   8.078
22771TIP3    H268191   5.588   9.215   7.997
22772TIP3   OH268192   5.778   8.320   8.599
22772TIP3    H168193   5.688   8.302   8.632
22772TIP3    H268194   5.761   8.354   8.509
22773TIP3   OH268195   6.085   8.230   8.719
22773TIP3    H168196   5.994   8.200   8.738
22773TIP3    H268197   6.136   8.147   8.734
22774TIP3   OH268198   5.886   8.114   8.424
22774TIP3    H168199   5.919   8.172   8.353
22774TIP3    H268200   5.866   8.177   8.494
22775TIP3   OH268201   6.000   8.276   8.193
22775TIP3    H168202   6.045   8.212   8.133
22775TIP3    H268203   6.077   8.324   8.229
22776TIP3   OH268204   4.984  10.104   7.906
22776TIP3    H168205   5.049  10.042   7.869
22776TIP3    H268206   4.899  10.060   7.892
22777TIP3   OH268207   4.961   9.877   8.339
22777TIP3    H168208   4.900   9.940   8.296
22777TIP3    H268209   4.900   9.803   8.356
   9.80000   9.23953   8.00167   0.00000   0.00000  -3.26667   0.00000  -3.26667  -4.61976
