        86  EXT
         1         1  GLY       N              -2.5160000000       12.9870000000       17.4900000000  PROA      1              96.0200000000
         2         1  GLY       CA             -3.5200000000       12.3130000000       16.6810000000  PROA      1              97.0200000000
         3         1  GLY       C              -3.0480000000       10.9790000000       16.1340000000  PROA      1              97.4000000000
         4         1  GLY       O              -1.8440000000       10.7230000000       16.0610000000  PROA      1              96.7300000000
         5         2  ASP       N              -3.8650000000       10.0840000000       15.8760000000  PROA      2              97.4700000000
         6         2  ASP       CA             -3.5090000000        8.7880000000       15.3060000000  PROA      2              97.6400000000
         7         2  ASP       C              -3.1390000000        8.9200000000       13.8300000000  PROA      2              97.7500000000
         8         2  ASP       CB             -4.6600000000        7.7940000000       15.4720000000  PROA      2              96.8400000000
         9         2  ASP       O              -3.6640000000        9.7860000000       13.1280000000  PROA      2              97.3000000000
        10         2  ASP       CG             -4.9500000000        7.4600000000       16.9250000000  PROA      2              91.3100000000
        11         2  ASP       OD1            -4.0630000000        7.6550000000       17.7840000000  PROA      2              84.1100000000
        12         2  ASP       OD2            -6.0730000000        6.9940000000       17.2120000000  PROA      2              90.5000000000
        13         3  SER       N              -2.2650000000        8.1190000000       13.3840000000  PROA      3              97.6400000000
        14         3  SER       CA             -1.9770000000        8.0610000000       11.9550000000  PROA      3              97.5300000000
        15         3  SER       C              -3.2500000000        7.8550000000       11.1420000000  PROA      3              97.7100000000
        16         3  SER       CB             -0.9820000000        6.9390000000       11.6530000000  PROA      3              96.9100000000
        17         3  SER       O              -4.2190000000        7.2720000000       11.6330000000  PROA      3              97.4000000000
        18         3  SER       OG              0.2020000000        7.0990000000       12.4150000000  PROA      3              89.6900000000
        19         4  GLY       N              -3.2580000000        8.4950000000        9.9640000000  PROA      4              97.1900000000
        20         4  GLY       CA             -4.3740000000        8.2460000000        9.0650000000  PROA      4              97.0900000000
        21         4  GLY       C              -4.4870000000        6.7940000000        8.6420000000  PROA      4              97.4800000000
        22         4  GLY       O              -3.5530000000        6.0120000000        8.8310000000  PROA      4              97.1600000000
        23         5  SER       N              -5.5060000000        6.5250000000        8.0450000000  PROA      5              97.5700000000
        24         5  SER       CA             -5.6590000000        5.1950000000        7.4650000000  PROA      5              97.5900000000
        25         5  SER       C              -4.6910000000        4.9830000000        6.3050000000  PROA      5              97.9700000000
        26         5  SER       CB             -7.0960000000        4.9810000000        6.9860000000  PROA      5              97.1100000000
        27         5  SER       O              -4.2690000000        5.9440000000        5.6590000000  PROA      5              97.8500000000
        28         5  SER       OG             -8.0180000000        5.2390000000        8.0310000000  PROA      5              93.4700000000
        29         6  GLY       N              -4.0990000000        3.7780000000        6.3020000000  PROA      6              97.1700000000
        30         6  GLY       CA             -3.2710000000        3.4900000000        5.1420000000  PROA      6              97.0700000000
        31         6  GLY       C              -4.0260000000        3.5970000000        3.8300000000  PROA      6              97.5500000000
        32         6  GLY       O              -5.2500000000        3.7370000000        3.8210000000  PROA      6              97.3000000000
        33         7  PRO       N              -3.4060000000        3.5560000000        2.8330000000  PROA      7              98.1800000000
        34         7  PRO       CA             -4.0210000000        3.4980000000        1.5050000000  PROA      7              98.2200000000
        35         7  PRO       C              -4.8450000000        2.2300000000        1.2920000000  PROA      7              98.4700000000
        36         7  PRO       CB             -2.8190000000        3.5340000000        0.5580000000  PROA      7              98.0400000000
        37         7  PRO       O              -4.6600000000        1.2410000000        2.0060000000  PROA      7              98.4300000000
        38         7  PRO       CG             -1.6830000000        2.9860000000        1.3610000000  PROA      7              96.9200000000
        39         7  PRO       CD             -1.9200000000        3.3140000000        2.8070000000  PROA      7              96.4100000000
        40         8  GLY       N              -5.7180000000        2.3320000000        0.3110000000  PROA      8              97.7600000000
        41         8  GLY       CA             -6.5300000000        1.1710000000       -0.0200000000  PROA      8              97.7200000000
        42         8  GLY       C              -5.7380000000        0.0570000000       -0.6770000000  PROA      8              98.1200000000
        43         8  GLY       O              -4.6060000000        0.2680000000       -1.1170000000  PROA      8              98.0200000000
        44         9  ASP       N              -6.3600000000       -1.1490000000       -0.7370000000  PROA      9              98.1000000000
        45         9  ASP       CA             -5.7950000000       -2.2950000000       -1.4430000000  PROA      9              98.1200000000
        46         9  ASP       C              -5.6510000000       -2.0040000000       -2.9360000000  PROA      9              98.4000000000
        47         9  ASP       CB             -6.6610000000       -3.5380000000       -1.2310000000  PROA      9              97.9000000000
        48         9  ASP       O              -6.4380000000       -1.2450000000       -3.5040000000  PROA      9              98.3300000000
        49         9  ASP       CG             -6.6380000000       -4.0390000000        0.2030000000  PROA      9              96.2900000000
        50         9  ASP       OD1            -5.6810000000       -3.7250000000        0.9430000000  PROA      9              95.6900000000
        51         9  ASP       OD2            -7.5840000000       -4.7560000000        0.5950000000  PROA      9              94.8200000000
        52        10  PRO       N              -4.7660000000       -2.6680000000       -3.5380000000  PROA      10             98.1800000000
        53        10  PRO       CA             -4.6980000000       -2.5160000000       -4.9940000000  PROA      10             98.1500000000
        54        10  PRO       C              -5.9320000000       -3.0690000000       -5.7030000000  PROA      10             98.3600000000
        55        10  PRO       CB             -3.4470000000       -3.3130000000       -5.3730000000  PROA      10             97.9900000000
        56        10  PRO       O              -6.6440000000       -3.9090000000       -5.1470000000  PROA      10             98.2800000000
        57        10  PRO       CG             -2.7900000000       -3.6360000000       -4.0700000000  PROA      10             96.4600000000
        58        10  PRO       CD             -3.7820000000       -3.4100000000       -2.9660000000  PROA      10             95.3200000000
        59        11  GLY       N              -6.3300000000       -2.3160000000       -6.8230000000  PROA      11             97.0800000000
        60        11  GLY       CA             -7.4620000000       -2.7810000000       -7.6080000000  PROA      11             97.0600000000
        61        11  GLY       C              -7.3440000000       -4.2360000000       -8.0220000000  PROA      11             97.5500000000
        62        11  GLY       O              -6.2600000000       -4.8200000000       -7.9530000000  PROA      11             97.4100000000
        63        12  SER       N              -8.3790000000       -4.7970000000       -8.5600000000  PROA      12             97.6500000000
        64        12  SER       CA             -8.3450000000       -6.1410000000       -9.1280000000  PROA      12             97.6400000000
        65        12  SER       C              -7.6700000000       -6.1460000000      -10.4950000000  PROA      12             98.0700000000
        66        12  SER       CB             -9.7600000000       -6.7080000000       -9.2470000000  PROA      12             96.9500000000
        67        12  SER       O              -7.7080000000       -5.1470000000      -11.2160000000  PROA      12             97.9700000000
        68        12  SER       OG            -10.4390000000       -6.6330000000       -8.0050000000  PROA      12             88.9800000000
        69        13  GLY       N              -6.8750000000       -7.1670000000      -10.9310000000  PROA      13             96.4200000000
        70        13  GLY       CA             -6.2260000000       -7.3320000000      -12.2220000000  PROA      13             96.6000000000
        71        13  GLY       C              -7.2070000000       -7.4440000000      -13.3740000000  PROA      13             97.3600000000
        72        13  GLY       O              -8.3810000000       -7.7600000000      -13.1670000000  PROA      13             97.3400000000
        73        14  ASP       N              -7.1190000000       -7.1230000000      -14.4590000000  PROA      14             97.3600000000
        74        14  ASP       CA             -7.9120000000       -7.2520000000      -15.6780000000  PROA      14             97.4100000000
        75        14  ASP       C              -8.3070000000       -8.7070000000      -15.9240000000  PROA      14             97.8000000000
        76        14  ASP       CB             -7.1390000000       -6.7060000000      -16.8810000000  PROA      14             96.6700000000
        77        14  ASP       O              -7.5250000000       -9.6220000000      -15.6570000000  PROA      14             97.6700000000
        78        14  ASP       CG             -6.9100000000       -5.2070000000      -16.8080000000  PROA      14             92.4000000000
        79        14  ASP       OD1            -7.6480000000       -4.5120000000      -16.0760000000  PROA      14             91.5800000000
        80        14  ASP       OD2            -5.9860000000       -4.7150000000      -17.4900000000  PROA      14             91.0700000000
        81        15  SER       N              -9.6860000000       -9.0230000000      -16.0700000000  PROA      15             96.6700000000
        82        15  SER       CA            -10.1920000000      -10.3760000000      -16.2760000000  PROA      15             96.3100000000
        83        15  SER       C              -9.6740000000      -10.9660000000      -17.5830000000  PROA      15             96.6100000000
        84        15  SER       CB            -11.7210000000      -10.3820000000      -16.2740000000  PROA      15             94.8000000000
        85        15  SER       O              -9.2820000000      -10.2300000000      -18.4910000000  PROA      15             95.8600000000
        86        15  SER       OG            -12.2290000000       -9.5380000000      -17.2930000000  PROA      15             82.7300000000
