* SET NIONTYPES = 1
* SET NPOSTOT = 45
* SET NNEGTOT = 42
* SET NIONTOT = 87
*  DATE:     6/13/26     11:35:14      CREATED BY USER: charmm-gui
*
        87  EXT
         1         1  SOD       SOD            10.4454788997       11.0559673939      -11.2686441743  IONS      1               1.0000000000
         2         2  SOD       SOD            19.8841094370      -22.3306403074       -9.2470508316  IONS      2               1.0000000000
         3         3  SOD       SOD            24.3479531952       11.7008036621        8.1990634480  IONS      3               1.0000000000
         4         4  SOD       SOD            -1.2837389848       25.1394525020       23.6151562070  IONS      4               1.0000000000
         5         5  SOD       SOD            38.1354713641       -4.5615268917        9.9747445180  IONS      5               1.0000000000
         6         6  SOD       SOD            -8.6693393128      -44.2873595516       -6.0298883451  IONS      6               1.0000000000
         7         7  SOD       SOD           -31.4654161851        9.8431071817       35.0554249383  IONS      7               1.0000000000
         8         8  SOD       SOD            35.2538635380      -29.5900733391      -10.9580444086  IONS      8               1.0000000000
         9         9  SOD       SOD           -23.0507280906      -42.2540985541       10.7173092050  IONS      9               1.0000000000
        10        10  SOD       SOD            18.6558195570       31.9242998869        1.9823112078  IONS      10              1.0000000000
        11        11  SOD       SOD            -8.9235001741        7.8555838346       42.3113235597  IONS      11              1.0000000000
        12        12  SOD       SOD            21.7453420613      -18.7213354800      -42.1638799303  IONS      12              1.0000000000
        13        13  SOD       SOD            -9.8783932310      -11.7995902574      -27.9190371592  IONS      13              1.0000000000
        14        14  SOD       SOD           -28.9214342763      -39.4731226928        3.3976360369  IONS      14              1.0000000000
        15        15  SOD       SOD           -21.8207056019      -28.7900620924        4.0670275477  IONS      15              1.0000000000
        16        16  SOD       SOD            12.9136587726      -10.3778055600      -39.9402537448  IONS      16              1.0000000000
        17        17  SOD       SOD           -16.7205536867       36.5484083315       21.4744036863  IONS      17              1.0000000000
        18        18  SOD       SOD           -20.3001292593       20.2145172481       19.8275141048  IONS      18              1.0000000000
        19        19  SOD       SOD            31.1524010938      -26.1867231609        3.9419474248  IONS      19              1.0000000000
        20        20  SOD       SOD           -10.2366282006       33.3049268659      -24.9097775019  IONS      20              1.0000000000
        21        21  SOD       SOD             7.4834990201       15.1334230528       20.9776175414  IONS      21              1.0000000000
        22        22  SOD       SOD           -15.4132940710       29.9768178768       30.3065343642  IONS      22              1.0000000000
        23        23  SOD       SOD             7.1358097378       31.8253406322       17.7074873876  IONS      23              1.0000000000
        24        24  SOD       SOD             2.6241641132       26.0739465157      -26.6905524077  IONS      24              1.0000000000
        25        25  SOD       SOD            40.9136062123       24.5445155594       -4.0937454175  IONS      25              1.0000000000
        26        26  SOD       SOD             7.3883204897       -8.3923043917      -12.8758422085  IONS      26              1.0000000000
        27        27  SOD       SOD           -30.0319075021      -28.0720299874       15.3521238822  IONS      27              1.0000000000
        28        28  SOD       SOD            -6.6747227101       30.1757317138      -12.3866397531  IONS      28              1.0000000000
        29        29  SOD       SOD            -7.1644751245      -30.3102636790       -7.3394830579  IONS      29              1.0000000000
        30        30  SOD       SOD            -0.1643884782       -2.0555788572        9.7932436932  IONS      30              1.0000000000
        31        31  SOD       SOD            10.3391434635      -18.6652371931      -23.8528615086  IONS      31              1.0000000000
        32        32  SOD       SOD            25.2173998949       21.9627930405       19.5675332996  IONS      32              1.0000000000
        33        33  SOD       SOD           -11.0214353802      -29.9841883187        8.7942581460  IONS      33              1.0000000000
        34        34  SOD       SOD            -2.3475108372      -34.8071923226       18.2689955399  IONS      34              1.0000000000
        35        35  SOD       SOD           -11.8851247250       37.3146277019       22.9469960041  IONS      35              1.0000000000
        36        36  SOD       SOD           -12.7521447919        9.5125683313      -19.0820701330  IONS      36              1.0000000000
        37        37  SOD       SOD            33.5093626798      -23.3201847516       24.2195350828  IONS      37              1.0000000000
        38        38  SOD       SOD             8.2120028084       19.1883887185       39.0173320817  IONS      38              1.0000000000
        39        39  SOD       SOD            -9.7140061852        7.4400527222        4.2809682947  IONS      39              1.0000000000
        40        40  SOD       SOD           -14.0156471590       18.5067903444       -3.1206720754  IONS      40              1.0000000000
        41        41  SOD       SOD            22.6817472036       -4.1264104289       -7.9924671290  IONS      41              1.0000000000
        42        42  SOD       SOD            15.2217007943        7.5395080114       21.3900296850  IONS      42              1.0000000000
        43        43  SOD       SOD           -24.4939927220      -30.7921064059      -13.0537037890  IONS      43              1.0000000000
        44        44  SOD       SOD           -43.6553287713      -13.0139156555       -2.5576458058  IONS      44              1.0000000000
        45        45  SOD       SOD             7.7193098567       10.0529385336       46.4595915946  IONS      45              1.0000000000
        46        46  CLA       CLA             6.3605065106       11.5764084568       19.4443771223  IONS      46             -1.0000000000
        47        47  CLA       CLA           -17.9037223792      -13.3574662556      -42.0320776425  IONS      47             -1.0000000000
        48        48  CLA       CLA           -26.2201400424       30.1966952843        3.5549796746  IONS      48             -1.0000000000
        49        49  CLA       CLA           -28.6880552199        3.0843272225      -33.6903671182  IONS      49             -1.0000000000
        50        50  CLA       CLA            11.3336729964       31.8064445528       20.4991473305  IONS      50             -1.0000000000
        51        51  CLA       CLA            12.6459800667        4.5693618102      -16.0906555522  IONS      51             -1.0000000000
        52        52  CLA       CLA            14.9621770241       17.1860939257       40.2690986275  IONS      52             -1.0000000000
        53        53  CLA       CLA            25.0109924038       12.3481259164      -36.2992564920  IONS      53             -1.0000000000
        54        54  CLA       CLA            18.4990704023       25.8618400117       23.8075738605  IONS      54             -1.0000000000
        55        55  CLA       CLA            12.0005273910        9.3736394670       29.5210521246  IONS      55             -1.0000000000
        56        56  CLA       CLA            17.2745751352       22.3957825734      -19.5321384721  IONS      56             -1.0000000000
        57        57  CLA       CLA            27.5906004144       -5.1962967445       -7.4136591971  IONS      57             -1.0000000000
        58        58  CLA       CLA            13.2698874926       30.0344836682      -32.5494140905  IONS      58             -1.0000000000
        59        59  CLA       CLA           -27.2039242050      -35.3703912784        6.2418521557  IONS      59             -1.0000000000
        60        60  CLA       CLA           -34.9885161913       29.2887213017       13.2160518584  IONS      60             -1.0000000000
        61        61  CLA       CLA           -15.9776927865       40.3291347398       14.9798118706  IONS      61             -1.0000000000
        62        62  CLA       CLA            -9.6016682318      -24.7962730434      -13.5618283811  IONS      62             -1.0000000000
        63        63  CLA       CLA            13.0848690559       33.3738821507       13.6822847458  IONS      63             -1.0000000000
        64        64  CLA       CLA            34.9238476076       25.3834779276        3.0940086466  IONS      64             -1.0000000000
        65        65  CLA       CLA            -6.0100109704      -27.8662150370      -33.1062364442  IONS      65             -1.0000000000
        66        66  CLA       CLA             4.7404392002      -25.8047204238        9.4086262970  IONS      66             -1.0000000000
        67        67  CLA       CLA            15.8072336922      -25.6375118072      -26.6204810384  IONS      67             -1.0000000000
        68        68  CLA       CLA            12.7855234579        5.3958762172      -33.0036360965  IONS      68             -1.0000000000
        69        69  CLA       CLA            27.7082690078        8.7023983350      -20.8922611799  IONS      69             -1.0000000000
        70        70  CLA       CLA            29.7402574594       26.7888679912       16.1123025258  IONS      70             -1.0000000000
        71        71  CLA       CLA            24.2696649706       -3.0443784742       26.3608667132  IONS      71             -1.0000000000
        72        72  CLA       CLA           -30.9317178338       13.8306850020       20.0940714921  IONS      72             -1.0000000000
        73        73  CLA       CLA            27.4563128113      -17.0825096427       16.0217695794  IONS      73             -1.0000000000
        74        74  CLA       CLA           -23.9582025318      -36.1137705873       -7.4522584282  IONS      74             -1.0000000000
        75        75  CLA       CLA             3.8546260123        2.4754611743       10.9359887955  IONS      75             -1.0000000000
        76        76  CLA       CLA           -38.3851621263      -25.0792190075       10.3799180281  IONS      76             -1.0000000000
        77        77  CLA       CLA           -12.1091935113       -9.7001369859      -31.5481567688  IONS      77             -1.0000000000
        78        78  CLA       CLA            10.1473257939      -11.4930353852      -29.9378270212  IONS      78             -1.0000000000
        79        79  CLA       CLA             5.2845965668       23.3805931372      -19.9750637081  IONS      79             -1.0000000000
        80        80  CLA       CLA           -11.0395260647      -13.2385061920      -23.4198043679  IONS      80             -1.0000000000
        81        81  CLA       CLA             5.8667454633      -35.5609487517      -21.5237447005  IONS      81             -1.0000000000
        82        82  CLA       CLA            28.4607642885       25.0026218620      -10.9038841934  IONS      82             -1.0000000000
        83        83  CLA       CLA             9.0092446120       -6.1244569200      -41.7423582323  IONS      83             -1.0000000000
        84        84  CLA       CLA           -24.0510163559      -45.8022606839        2.1958865511  IONS      84             -1.0000000000
        85        85  CLA       CLA            -5.4341012367      -27.9988784415       -1.4551400817  IONS      85             -1.0000000000
        86        86  CLA       CLA           -11.1797287493       39.3159058019       25.0370844038  IONS      86             -1.0000000000
        87        87  CLA       CLA            -7.5479908186       25.3972976319       21.4813755977  IONS      87             -1.0000000000
