* GENERATED BY CHARMM-GUI (HTTP://WWW.CHARMM-GUI.ORG) V3.7 ON JUN, 13. 2026. JOB
* GENERATES IONS
*  DATE:     6/13/26     11:34:37      CREATED BY USER: charmm-gui
*
       153  EXT
         1         1  GLY       N              21.8758712628        0.2901546749        1.5307924106  PROA      1              96.0200000000
         2         1  GLY       HT1            22.5029123104        0.2335558213        2.3585702156  PROA      1               0.0000000000
         3         1  GLY       HT2            21.5943829491        1.2793144954        1.3761094610  PROA      1               0.0000000000
         4         1  GLY       HT3            22.3778377488       -0.0623049200        0.6909105636  PROA      1               0.0000000000
         5         1  GLY       CA             20.6904487751       -0.5207489353        1.7631323785  PROA      1              97.0200000000
         6         1  GLY       HA1            20.2936381102       -0.2477869379        2.7297433542  PROA      1               0.0000000000
         7         1  GLY       HA2            20.9985788913       -1.5558121501        1.7612069705  PROA      1               0.0000000000
         8         1  GLY       C              19.6156718689       -0.3210821274        0.7112118646  PROA      1              97.4000000000
         9         1  GLY       O              19.6097551664        0.6907373374        0.0064655532  PROA      1              96.7300000000
        10         2  ASP       N              18.8099013934       -1.2280483037        0.4597674455  PROA      2              97.4700000000
        11         2  ASP       HN             18.8728936378       -2.1103289799        0.9183526747  PROA      2               0.0000000000
        12         2  ASP       CA             17.7172526058       -1.1112187576       -0.5013368590  PROA      2              97.6400000000
        13         2  ASP       HA             18.0987229680       -0.6199694532       -1.3841278690  PROA      2               0.0000000000
        14         2  ASP       CB             17.1658160537       -2.4929331666       -0.8579543306  PROA      2              96.8400000000
        15         2  ASP       HB1            16.2732368185       -2.3673197906       -1.5069545127  PROA      2               0.0000000000
        16         2  ASP       HB2            16.8670099929       -3.0130678046        0.0768464738  PROA      2               0.0000000000
        17         2  ASP       CG             18.1731829501       -3.3624164912       -1.5901262258  PROA      2              91.3100000000
        18         2  ASP       OD1            19.1357494129       -2.8197408748       -2.1746294166  PROA      2              84.1100000000
        19         2  ASP       OD2            18.0001072952       -4.5996235899       -1.5859533585  PROA      2              90.5000000000
        20         2  ASP       C              16.5988908982       -0.2249740075        0.0433991631  PROA      2              97.7500000000
        21         2  ASP       O              16.3716363261       -0.1766094913        1.2535236332  PROA      2              97.3000000000
        22         3  SER       N              15.9464371239        0.4585348416       -0.8001129741  PROA      3              97.6400000000
        23         3  SER       HN             16.2071963821        0.5232323522       -1.7602248560  PROA      3               0.0000000000
        24         3  SER       CA             14.7570315162        1.1973646400       -0.3904865232  PROA      3              97.5300000000
        25         3  SER       HA             15.0606444273        1.9564296199        0.3150665706  PROA      3               0.0000000000
        26         3  SER       CB             14.0794092701        1.8386704922       -1.6027851232  PROA      3              96.9100000000
        27         3  SER       HB1            13.2207454140        2.4578394351       -1.2658047963  PROA      3               0.0000000000
        28         3  SER       HB2            13.7159277536        1.0450180925       -2.2899725751  PROA      3               0.0000000000
        29         3  SER       OG             14.9884429417        2.6673355697       -2.3063986344  PROA      3              89.6900000000
        30         3  SER       HG1            14.4966092334        3.0312288561       -3.0461832514  PROA      3               0.0000000000
        31         3  SER       C              13.7674559732        0.2937650019        0.3362747435  PROA      3              97.7100000000
        32         3  SER       O              13.7300183026       -0.9148487566        0.0958954524  PROA      3              97.4000000000
        33         4  GLY       N              13.1031028054        0.8971250828        1.3322363297  PROA      4              97.1900000000
        34         4  GLY       HN             13.2902735163        1.8238076883        1.6482417476  PROA      4               0.0000000000
        35         4  GLY       CA             12.0433418558        0.1493740012        1.9905926540  PROA      4              97.0900000000
        36         4  GLY       HA1            11.6395546296        0.7712075693        2.7758102068  PROA      4               0.0000000000
        37         4  GLY       HA2            12.4817115501       -0.7436294373        2.4109075190  PROA      4               0.0000000000
        38         4  GLY       C              10.9211796296       -0.2481597519        1.0510604017  PROA      4              97.4800000000
        39         4  GLY       O              10.8230420395        0.2712076958       -0.0625946021  PROA      4              97.1600000000
        40         5  SER       N              10.1207489204       -1.0223457789        1.5275870802  PROA      5              97.5700000000
        41         5  SER       HN             10.2332887677       -1.4475896684        2.4222671703  PROA      5               0.0000000000
        42         5  SER       CA              8.9228897470       -1.3626213621        0.7672878443  PROA      5              97.5900000000
        43         5  SER       HA              9.2257791197       -1.6254117682       -0.2353918286  PROA      5               0.0000000000
        44         5  SER       CB              8.1851514815       -2.5310423814        1.4235961357  PROA      5              97.1100000000
        45         5  SER       HB1             7.3401642460       -2.8492066038        0.7762969556  PROA      5               0.0000000000
        46         5  SER       HB2             7.7936859418       -2.2155053542        2.4142621970  PROA      5               0.0000000000
        47         5  SER       OG              9.0552245676       -3.6342575979        1.6095047448  PROA      5              93.4700000000
        48         5  SER       HG1             9.3633261332       -3.8787800220        0.7337866341  PROA      5               0.0000000000
        49         5  SER       C               7.9867558757       -0.1641938422        0.6448425313  PROA      5              97.9700000000
        50         5  SER       O               8.0031166256        0.7312386241        1.4915148551  PROA      5              97.8500000000
        51         6  GLY       N               7.4556141808       -0.0098382285       -0.5784975051  PROA      6              97.1700000000
        52         6  GLY       HN              7.6927862401       -0.5508949408       -1.3806760615  PROA      6               0.0000000000
        53         6  GLY       CA              6.4585238388        1.0414169661       -0.7001583685  PROA      6              97.0700000000
        54         6  GLY       HA1             6.0886408485        1.0299041087       -1.7147257647  PROA      6               0.0000000000
        55         6  GLY       HA2             6.9443380572        1.9830786966       -0.4914703136  PROA      6               0.0000000000
        56         6  GLY       C               5.2903084955        0.8674012358        0.2526319742  PROA      6              97.5500000000
        57         6  GLY       O               5.1642381739       -0.1689487187        0.9068047694  PROA      6              97.3000000000
        58         7  PRO       N               4.5254565771        1.7533416024        0.3536330121  PROA      7              98.1800000000
        59         7  PRO       CD              4.6102800174        3.0023607674       -0.4831418140  PROA      7              96.4100000000
        60         7  PRO       HD1             4.7758963799        2.7434462605       -1.5496098679  PROA      7               0.0000000000
        61         7  PRO       HD2             5.4291976738        3.6572486417       -0.1193900368  PROA      7               0.0000000000
        62         7  PRO       CA              3.2805518468        1.6580632089        1.1193400319  PROA      7              98.2200000000
        63         7  PRO       HA              3.4833088718        1.3348279120        2.1277694690  PROA      7               0.0000000000
        64         7  PRO       CB              2.6881440563        3.0648344617        1.0055127411  PROA      7              98.0400000000
        65         7  PRO       HB1             2.9820843155        3.6880781374        1.8768572225  PROA      7               0.0000000000
        66         7  PRO       HB2             1.5793416441        3.0225480452        0.9521851666  PROA      7               0.0000000000
        67         7  PRO       CG              3.2595030638        3.6190901970       -0.2601722373  PROA      7              96.9200000000
        68         7  PRO       HG1             2.5895559492        3.3798960241       -1.1135493810  PROA      7               0.0000000000
        69         7  PRO       HG2             3.3569553409        4.7228191375       -0.1790487646  PROA      7               0.0000000000
        70         7  PRO       C               2.3194516304        0.6144834750        0.5541880938  PROA      7              98.4700000000
        71         7  PRO       O               2.4405037850        0.2234052376       -0.6096616336  PROA      7              98.4300000000
        72         8  GLY       N               1.4092542204        0.2183053108        1.4199118009  PROA      8              97.7600000000
        73         8  GLY       HN              1.3661079830        0.5379481489        2.3632099058  PROA      8               0.0000000000
        74         8  GLY       CA              0.4056966419       -0.7403344455        0.9832105250  PROA      8              97.7200000000
        75         8  GLY       HA1            -0.1186405250       -1.0914846695        1.8595967656  PROA      8               0.0000000000
        76         8  GLY       HA2             0.9192767022       -1.5600593999        0.5030279474  PROA      8               0.0000000000
        77         8  GLY       C              -0.5986142422       -0.1514132574        0.0113872476  PROA      8              98.1200000000
        78         8  GLY       O              -0.6844604182        1.0691382050       -0.1383777736  PROA      8              98.0200000000
        79         9  ASP       N              -1.3673656762       -1.0510300944       -0.6554191555  PROA      9              98.1000000000
        80         9  ASP       HN             -1.2134576454       -2.0323571960       -0.5733163655  PROA      9               0.0000000000
        81         9  ASP       CA             -2.4648106820       -0.6554940536       -1.5329969012  PROA      9              98.1200000000
        82         9  ASP       HA             -2.0768207496        0.0415120149       -2.2608764400  PROA      9               0.0000000000
        83         9  ASP       CB             -3.0613778161       -1.8778194779       -2.2329806236  PROA      9              97.9000000000
        84         9  ASP       HB1            -3.9801063664       -1.5688608745       -2.7753477420  PROA      9               0.0000000000
        85         9  ASP       HB2            -3.3276801436       -2.6366236508       -1.4668351045  PROA      9               0.0000000000
        86         9  ASP       CG             -2.1073180813       -2.5151215217       -3.2287226220  PROA      9              96.2900000000
        87         9  ASP       OD1            -1.1728372497       -1.8321708977       -3.7002828202  PROA      9              95.6900000000
        88         9  ASP       OD2            -2.2936476354       -3.7097954838       -3.5460622218  PROA      9              94.8200000000
        89         9  ASP       C              -3.5507795025        0.0857008150       -0.7546859816  PROA      9              98.4000000000
        90         9  ASP       O              -3.7610238950       -0.1775998118        0.4304486417  PROA      9              98.3300000000
        91        10  PRO       N              -4.2624174027        0.8758312630       -1.4298084698  PROA      10             98.1800000000
        92        10  PRO       CD             -4.0093650164        1.3171815256       -2.6896411712  PROA      10             95.3200000000
        93        10  PRO       HD1            -4.2583037551        0.5222007698       -3.4238419637  PROA      10              0.0000000000
        94        10  PRO       HD2            -2.9387184447        1.5967070668       -2.7823616725  PROA      10              0.0000000000
        95        10  PRO       CA             -5.4006491290        1.4941016169       -0.7443638647  PROA      10             98.1500000000
        96        10  PRO       HA             -5.0836792350        1.9376090531        0.1858876852  PROA      10              0.0000000000
        97        10  PRO       CB             -5.9358642717        2.4887322554       -1.7778558308  PROA      10             97.9900000000
        98        10  PRO       HB1            -6.0594727165        3.4967643262       -1.3276686280  PROA      10              0.0000000000
        99        10  PRO       HB2            -6.9157286938        2.1519392417       -2.1784958199  PROA      10              0.0000000000
       100        10  PRO       CG             -4.9017767540        2.5128630770       -2.8566828370  PROA      10             96.4600000000
       101        10  PRO       HG1            -5.3940004047        2.4803622812       -3.8521485261  PROA      10              0.0000000000
       102        10  PRO       HG2            -4.3016449816        3.4449473770       -2.7835181227  PROA      10              0.0000000000
       103        10  PRO       C              -6.4752702041        0.4818372383       -0.3548046616  PROA      10             98.3600000000
       104        10  PRO       O              -6.5503070041       -0.6012833558       -0.9403806663  PROA      10             98.2800000000
       105        11  GLY       N              -7.0932580337        0.7546235896        0.8794933774  PROA      11             97.0800000000
       106        11  GLY       HN             -6.8347046576        1.5138186836        1.4716383624  PROA      11              0.0000000000
       107        11  GLY       CA             -8.1707115365       -0.1136939081        1.3255793250  PROA      11             97.0600000000
       108        11  GLY       HA1            -8.6117715967        0.3326861199        2.2044983531  PROA      11              0.0000000000
       109        11  GLY       HA2            -7.7407924595       -1.0734774431        1.5710847574  PROA      11              0.0000000000
       110        11  GLY       C              -9.2508607631       -0.3110096318        0.2783500505  PROA      11             97.5500000000
       111        11  GLY       O              -9.3247684627        0.4440130153       -0.6939418061  PROA      11             97.4100000000
       112        12  SER       N             -10.1544930105       -1.2097966673        0.5042275095  PROA      12             97.6500000000
       113        12  SER       HN            -10.0942303055       -1.8257623606        1.2854794026  PROA      12              0.0000000000
       114        12  SER       CA            -11.3203299070       -1.3932025852       -0.3544357539  PROA      12             97.6400000000
       115        12  SER       HA            -11.0022342997       -1.2801952579       -1.3802100501  PROA      12              0.0000000000
       116        12  SER       CB            -11.9330930726       -2.7770876898       -0.1370459655  PROA      12             96.9500000000
       117        12  SER       HB1           -12.7384801879       -2.9492688747       -0.8826527303  PROA      12              0.0000000000
       118        12  SER       HB2           -12.3580707523       -2.8396402675        0.8875053316  PROA      12              0.0000000000
       119        12  SER       OG            -10.9534244014       -3.7908180026       -0.2847962537  PROA      12             88.9800000000
       120        12  SER       HG1           -10.6190251473       -3.7070677524       -1.1807666966  PROA      12              0.0000000000
       121        12  SER       C             -12.3699093095       -0.3175937024       -0.0979448008  PROA      12             98.0700000000
       122        12  SER       O             -12.4688171312        0.2090259398        1.0120889804  PROA      12             97.9700000000
       123        13  GLY       N             -13.1395794545        0.2249313119       -1.0868009465  PROA      13             96.4200000000
       124        13  GLY       HN            -12.9774531877       -0.0599518443       -2.0251879149  PROA      13              0.0000000000
       125        13  GLY       CA            -14.2115847778        1.2016849532       -0.9778793645  PROA      13             96.6000000000
       126        13  GLY       HA1           -14.5468440958        1.4362683958       -1.9773079126  PROA      13              0.0000000000
       127        13  GLY       HA2           -13.8071410124        2.0838118918       -0.5039986523  PROA      13              0.0000000000
       128        13  GLY       C             -15.3929720109        0.7042950573       -0.1661303289  PROA      13             97.3600000000
       129        13  GLY       O             -15.5641359829       -0.5038249957        0.0131176344  PROA      13             97.3400000000
       130        14  ASP       N             -16.1283397526        1.2618700425        0.4944409544  PROA      14             97.3600000000
       131        14  ASP       HN            -15.9198438494        2.2170197283        0.6231155737  PROA      14              0.0000000000
       132        14  ASP       CA            -17.3456764801        0.9490612907        1.2372013307  PROA      14             97.4100000000
       133        14  ASP       HA            -17.0886952845        0.2577010906        2.0259658059  PROA      14              0.0000000000
       134        14  ASP       CB            -17.9579038111        2.2230505784        1.8245538568  PROA      14             96.6700000000
       135        14  ASP       HB1           -18.9421703241        1.9742505194        2.2750991150  PROA      14              0.0000000000
       136        14  ASP       HB2           -18.1065935081        2.9603199631        1.0072422295  PROA      14              0.0000000000
       137        14  ASP       CG            -17.0884463495        2.8605575657        2.8933847898  PROA      14             92.4000000000
       138        14  ASP       OD1           -16.2283802530        2.1642999309        3.4756258186  PROA      14             91.5800000000
       139        14  ASP       OD2           -17.2658753583        4.0684988411        3.1586409343  PROA      14             91.0700000000
       140        14  ASP       C             -18.3641224889        0.2390275025        0.3471531596  PROA      14             97.8000000000
       141        14  ASP       O             -18.4887120314        0.5556968378       -0.8378514724  PROA      14             97.6700000000
       142        15  SER       N             -18.8647224615       -1.0264068176        0.7605399628  PROA      15             96.6700000000
       143        15  SER       HN            -18.5786413051       -1.4361878418        1.6225930050  PROA      15              0.0000000000
       144        15  SER       CA            -19.8141925364       -1.8173185753       -0.0153763784  PROA      15             96.3100000000
       145        15  SER       HA            -19.4064694714       -1.9532772427       -1.0060556685  PROA      15              0.0000000000
       146        15  SER       CB            -20.0537069680       -3.1721437717        0.6516787349  PROA      15             94.8000000000
       147        15  SER       HB1           -19.0974824513       -3.7351004024        0.7059056983  PROA      15              0.0000000000
       148        15  SER       HB2           -20.7922025305       -3.7537301267        0.0595574012  PROA      15              0.0000000000
       149        15  SER       OG            -20.5568188684       -3.0041574437        1.9659922474  PROA      15             82.7300000000
       150        15  SER       HG1           -21.1818285493       -2.2769926898        1.9191486849  PROA      15              0.0000000000
       151        15  SER       C             -21.1390392053       -1.0813989448       -0.1823392526  PROA      15             96.6100000000
       152        15  SER       OT1           -21.2518761534        0.0595683405        0.3402135935  PROA      15              0.0000000000
       153        15  SER       OT2           -22.0542055697       -1.6513357587       -0.8344454968  PROA      15              0.0000000000
