Title
29212
    1ASP      N    1   4.356   1.658   1.515  0.0013  0.2520  0.5053
    1ASP    HT1    2   4.423   1.649   1.436  0.6243 -3.1808  1.2662
    1ASP    HT2    3   4.378   1.749   1.561 -1.5846  0.6299  0.5688
    1ASP    HT3    4   4.260   1.668   1.476  0.8447  1.5440 -1.4155
    1ASP     CA    5   4.381   1.554   1.621 -0.8462 -0.6362 -0.1871
    1ASP     HA    6   4.382   1.454   1.580 -1.7704 -1.2498  1.2101
    1ASP     CB    7   4.530   1.579   1.679 -0.1748 -0.3201  0.6916
    1ASP    HB1    8   4.542   1.669   1.742  3.2609  0.1335 -0.3725
    1ASP    HB2    9   4.598   1.599   1.593  0.8374  1.5069  1.8478
    1ASP     CG   10   4.593   1.463   1.747 -0.1410 -0.3024  0.1330
    1ASP    OD1   11   4.709   1.472   1.794 -0.6203 -0.1721  0.3530
    1ASP    OD2   12   4.526   1.355   1.756 -0.1091 -0.3595 -0.5782
    1ASP      C   13   4.280   1.552   1.728 -0.1621 -1.2038 -0.7322
    1ASP      O   14   4.185   1.631   1.722 -0.0122 -0.7234 -0.8234
    2GLY      N   15   4.294   1.465   1.836 -0.2385 -0.5953  0.7513
    2GLY     HN   16   4.381   1.417   1.831  0.4733  0.6917  0.1558
    2GLY     CA   17   4.214   1.468   1.955  0.5125  0.3193 -0.0435
    2GLY    HA1   18   4.247   1.385   2.016 -0.5480 -1.4511 -1.7239
    2GLY    HA2   19   4.112   1.453   1.922  0.2073  2.8637 -0.4247
    2GLY      C   20   4.210   1.601   2.023 -0.3148 -0.0708 -0.5678
    2GLY      O   21   4.291   1.690   2.006 -0.2800  0.5849  0.0497
    3ASP      N   22   4.118   1.617   2.117  0.5461 -0.1673 -0.1091
    3ASP     HN   23   4.057   1.542   2.140  1.4102 -0.7270  0.4017
    3ASP     CA   24   4.084   1.736   2.197 -0.1194 -0.1085  0.2261
    3ASP     HA   25   4.122   1.823   2.146 -3.0571  1.0307 -0.2519
    3ASP     CB   26   3.929   1.750   2.196  0.2309  0.3988 -0.6148
    3ASP    HB1   27   3.901   1.824   2.274  1.5328 -0.2470  0.4971
    3ASP    HB2   28   3.884   1.657   2.237 -0.6447  2.1825  2.7706
    3ASP     CG   29   3.854   1.789   2.065 -0.2417 -0.3619  0.2172
    3ASP    OD1   30   3.913   1.800   1.953 -0.0820 -0.7370 -0.1580
    3ASP    OD2   31   3.734   1.818   2.072  0.8044  0.6557  0.1050
    3ASP      C   32   4.138   1.729   2.337 -0.3525  0.1396 -0.1806
    3ASP      O   33   4.195   1.637   2.391  0.3337 -0.1021 -0.2119
    4GLY      N   34   4.116   1.844   2.406  0.2689  0.1515  0.7411
    4GLY     HN   35   4.086   1.927   2.360 -0.2292  0.1760  1.0988
    4GLY     CA   36   4.115   1.857   2.552 -0.2127  0.4292 -0.1133
    4GLY    HA1   37   4.088   1.959   2.574 -0.1721  0.0604  1.7681
    4GLY    HA2   38   4.216   1.832   2.582 -0.7307  0.1672  1.5152
    4GLY      C   39   4.014   1.769   2.625 -0.1598 -0.5482  0.1558
    4GLY      O   40   3.955   1.682   2.565 -0.1411 -0.7797 -0.1091
    5PRO      N   41   3.988   1.798   2.751 -0.6268  0.0868 -0.0556
    5PRO     CD   42   4.072   1.893   2.831  0.1276  0.4645  0.1233
    5PRO    HD1   43   4.046   1.997   2.798 -2.9326 -0.3858 -0.4817
    5PRO    HD2   44   4.180   1.869   2.818 -0.1115 -1.4609  1.3680
    5PRO     CA   45   3.875   1.749   2.828  0.8842  0.2726 -0.1836
    5PRO     HA   46   3.870   1.641   2.828  1.3229  0.2413  0.9162
    5PRO     CB   47   3.891   1.814   2.963 -0.0741  0.2330 -0.1635
    5PRO    HB1   48   3.860   1.742   3.041 -0.5540 -0.6139 -1.0978
    5PRO    HB2   49   3.825   1.902   2.979 -1.8955 -0.7896 -1.5807
    5PRO     CG   50   4.031   1.867   2.977 -0.0105  0.3938 -0.3040
    5PRO    HG1   51   4.023   1.950   3.051  0.9418  1.1175 -0.9885
    5PRO    HG2   52   4.101   1.791   3.017 -0.7639  0.2024  0.6857
    5PRO      C   53   3.737   1.764   2.760 -0.5124  0.2113 -0.6129
    5PRO      O   54   3.701   1.879   2.727 -0.3204 -0.3782  0.8794
    6GLY      N   55   3.659   1.657   2.741 -0.2075 -0.1308 -0.7283
    6GLY     HN   56   3.692   1.569   2.776 -4.0040 -0.4073  2.9106
    6GLY     CA   57   3.516   1.662   2.699 -0.3646 -0.0803 -0.0017
    6GLY    HA1   58   3.481   1.560   2.689  0.2009 -0.2053 -0.8560
    6GLY    HA2   59   3.519   1.710   2.602  1.4203  0.0817  0.0995
    6GLY      C   60   3.428   1.730   2.795  0.6959 -0.1271 -0.0489
    6GLY      O   61   3.468   1.786   2.897  0.4919  0.0457  0.1088
    7ASP      N   62   3.295   1.722   2.768 -0.0597  0.3099 -0.4665
    7ASP     HN   63   3.257   1.667   2.693 -0.4744 -1.4739  0.9746
    7ASP     CA   64   3.191   1.784   2.847 -0.3846 -0.2007  1.3101
    7ASP     HA   65   3.211   1.890   2.851  1.0871 -0.2854 -1.5230
    7ASP     CB   66   3.051   1.761   2.780 -0.3431  0.4882 -0.0798
    7ASP    HB1   67   2.965   1.806   2.833 -0.5898  2.5121 -2.0437
    7ASP    HB2   68   3.036   1.651   2.783  1.5991  0.2089  1.1159
    7ASP     CG   69   3.039   1.829   2.646 -0.0805  0.0155 -0.1572
    7ASP    OD1   70   3.111   1.929   2.618 -0.3254 -0.3392 -0.3869
    7ASP    OD2   71   2.954   1.789   2.560  0.0022 -0.3961  0.1237
    7ASP      C   72   3.182   1.730   2.993 -0.0756 -0.4451  0.0565
    7ASP      O   73   3.163   1.608   3.021 -0.4194  0.3686  0.5037
    8PRO      N   74   3.185   1.811   3.099 -0.2813  0.3897  0.2164
    8PRO     CD   75   3.209   1.960   3.096  0.2025  0.0883  0.7380
    8PRO    HD1   76   3.165   2.013   3.010 -0.0096 -1.8837 -0.4289
    8PRO    HD2   77   3.319   1.968   3.086  0.1055 -0.4115 -1.0948
    8PRO     CA   78   3.152   1.759   3.230 -0.9489 -0.1916 -0.0340
    8PRO     HA   79   3.208   1.670   3.254  0.1516  0.5340  0.1869
    8PRO     CB   80   3.179   1.885   3.317  0.3339  0.1501  0.2881
    8PRO    HB1   81   3.286   1.872   3.345  1.2522  0.7700 -2.5323
    8PRO    HB2   82   3.121   1.889   3.411  2.0362 -2.7807  1.6033
    8PRO     CG   83   3.162   2.009   3.229  0.4468 -0.6782 -0.6555
    8PRO    HG1   84   3.052   2.026   3.220  0.3973 -1.4744 -1.8514
    8PRO    HG2   85   3.220   2.091   3.277  0.2373 -1.7136  1.4683
    8PRO      C   86   3.002   1.735   3.234 -0.0085  0.5107  0.3131
    8PRO      O   87   2.923   1.789   3.156 -0.0035  0.3415  0.1670
    9GLY      N   88   2.964   1.637   3.319 -0.4011  0.5278 -0.0503
    9GLY     HN   89   3.030   1.598   3.382 -0.2912  1.6432  0.5446
    9GLY     CA   90   2.827   1.584   3.319  0.3478 -0.4533 -0.2582
    9GLY    HA1   91   2.828   1.483   3.356 -1.3665  0.5430  2.9912
    9GLY    HA2   92   2.781   1.588   3.222 -1.3909  1.3695  0.5660
    9GLY      C   93   2.742   1.655   3.422  0.7997 -0.6940 -0.0643
    9GLY      O   94   2.784   1.750   3.490  0.1202 -0.0973 -0.1755
   10ASP      N   95   2.615   1.605   3.441  0.1388 -0.1881  0.2888
   10ASP     HN   96   2.587   1.531   3.380  1.9430 -0.5264 -0.2021
   10ASP     CA   97   2.527   1.632   3.554 -0.4881  0.0282  0.3442
   10ASP     HA   98   2.522   1.739   3.567  0.1007  0.6837 -3.4084
   10ASP     CB   99   2.379   1.589   3.519 -0.4285  0.1673 -0.0113
   10ASP    HB1  100   2.309   1.599   3.605 -1.5210 -0.6932 -0.7797
   10ASP    HB2  101   2.390   1.484   3.484 -0.2716  0.3506 -0.5188
   10ASP     CG  102   2.324   1.668   3.403  0.8076  0.0684 -0.2176
   10ASP    OD1  103   2.252   1.607   3.321  0.2967  0.2343 -0.0656
   10ASP    OD2  104   2.337   1.792   3.390 -1.1452  0.4592 -0.5631
   10ASP      C  105   2.580   1.575   3.683 -0.2258 -0.4445  0.1083
   10ASP      O  106   2.634   1.464   3.673 -0.1511 -0.7813 -0.2435
   11GLY      N  107   2.563   1.636   3.797 -0.4421 -0.1039  0.3766
   11GLY     HN  108   2.504   1.717   3.799  0.3876  0.5716 -0.8680
   11GLY     CA  109   2.618   1.594   3.926  0.4519  0.1653 -0.3183
   11GLY    HA1  110   2.628   1.684   3.986  4.2963 -0.5139  0.3252
   11GLY    HA2  111   2.715   1.549   3.909  0.6878  1.1221 -1.7124
   11GLY      C  112   2.531   1.496   4.000  0.0033  0.2120 -0.1821
   11GLY    OT1  113   2.425   1.541   4.048 -0.4282 -0.7551  0.0889
   11GLY    OT2  114   2.559   1.379   4.015  0.1585 -0.4043  0.1670
   12SOD    SOD  115   2.619   4.561   2.561 -0.2641 -0.0267 -0.1276
   13SOD    SOD  116   6.925   3.326   0.285  0.0257 -0.1853  0.2667
   14SOD    SOD  117   4.822   0.592   2.235 -0.0257 -0.0880 -0.7868
   15SOD    SOD  118   6.238   0.735   2.208 -0.3310  0.4501  0.4088
   16SOD    SOD  119   0.146   5.310   4.442 -0.2849  0.5210 -0.0526
   17SOD    SOD  120   4.159   4.285   3.452  0.2584  0.4448  0.5417
   18SOD    SOD  121   3.309   6.086   4.839 -0.5653  0.2827  0.0460
   19SOD    SOD  122   2.724   4.554   4.424  0.1072  0.2378  0.0813
   20SOD    SOD  123   6.161   0.472   4.799 -0.4440 -0.1404  0.2952
   21SOD    SOD  124   0.994   4.688   3.616 -0.0655 -0.0509  0.0336
   22SOD    SOD  125   0.842   2.320   1.872 -0.1185 -0.5118 -0.1385
   23SOD    SOD  126   4.389   0.299   3.888  0.2354  0.4412 -0.1976
   24SOD    SOD  127   2.984   1.222   3.638 -0.0764  0.1173  0.0298
   25SOD    SOD  128   3.615   0.946   1.719  0.1002  0.2637 -0.5562
   26SOD    SOD  129   3.378   3.360   4.157  0.4895 -0.5267  0.0250
   27SOD    SOD  130   6.672   0.490   4.167  0.5388 -0.2840  0.4023
   28SOD    SOD  131   2.949   2.087   5.359  0.4320 -0.7749 -0.2842
   29SOD    SOD  132   7.053   0.210   1.376 -0.1105  0.1631 -0.2775
   30SOD    SOD  133   3.478   5.172   1.112 -0.1554  0.2441  0.0382
   31SOD    SOD  134   6.253   1.729   5.135 -0.8303 -0.3003 -0.1654
   32SOD    SOD  135   0.079   3.151   4.532  0.0322 -0.0658  0.0759
   33SOD    SOD  136   5.724   3.170   1.590  0.0283  0.0664 -0.4386
   34SOD    SOD  137   6.253   2.433   1.477  0.3760  0.0204  0.0710
   35SOD    SOD  138   6.921   4.413   0.365  0.5361  0.0903 -0.4570
   36SOD    SOD  139   6.795   0.571   3.296  0.0070 -0.5354 -0.4879
   37SOD    SOD  140   5.241   1.019   5.652  0.3158 -0.0337  0.2025
   38SOD    SOD  141   1.938   0.558   5.179  0.2273  0.0189  0.3091
   39SOD    SOD  142   3.890   2.663   0.131 -0.1172  0.4216  0.0709
   40SOD    SOD  143   3.669   4.236   2.207  0.0146 -0.1295 -0.4676
   41SOD    SOD  144   4.497   2.568   2.241 -0.5304  0.1683  0.2725
   42SOD    SOD  145   0.158   0.950   0.826 -0.5247 -0.1900  0.0426
   43CLA    CLA  146   6.780   5.470   4.934 -0.2430  0.2564  0.4018
   44CLA    CLA  147   5.714   1.633   4.319 -0.1318  0.2201  0.6320
   45CLA    CLA  148   5.096   0.535   5.455 -0.2129  0.4512  0.0407
   46CLA    CLA  149   5.581   6.623   0.617 -0.3917  0.2763 -0.1037
   47CLA    CLA  150   3.869   0.952   3.317 -0.2687 -0.0512  0.3412
   48CLA    CLA  151   6.762   4.392   0.586 -0.1061  0.1004  0.5715
   49CLA    CLA  152   2.376   2.768   4.490 -0.3786 -0.0846 -0.3664
   50CLA    CLA  153   1.496   4.366   2.926  0.0413  0.2865 -0.4690
   51CLA    CLA  154   5.943   0.718   5.052 -0.0272  0.1295 -0.1498
   52CLA    CLA  155   5.060   6.156   3.054 -0.0223  0.2584 -0.1692
   53CLA    CLA  156   0.055   3.760   5.412 -0.4091  0.1332 -0.0733
   54CLA    CLA  157   0.885   5.886   3.061 -0.2343 -0.0475  0.5806
   55CLA    CLA  158   2.820   4.170   4.742  0.1290  0.1620 -0.1104
   56CLA    CLA  159   1.697   4.987   4.566 -0.1068 -0.1186 -0.1153
   57CLA    CLA  160   0.702   1.061   4.621 -0.0334  0.0691  0.1878
   58CLA    CLA  161   2.217   6.596   2.808  0.1666  0.1393 -0.2034
   59CLA    CLA  162   6.162   5.126   1.892  0.1719 -0.1022  0.5045
   60CLA    CLA  163   5.628   5.249   5.335  0.2638 -0.5231  0.1422
   61CLA    CLA  164   4.817   1.812   1.258  0.1478 -0.0770 -0.2310
   62CLA    CLA  165   1.255   1.448   0.294  0.0141 -0.0165 -0.2538
   63CLA    CLA  166   3.011   6.511   5.019  0.0367  0.1159 -0.2065
   64CLA    CLA  167   0.941   4.210   4.532  0.1716  0.1181 -0.1473
   65CLA    CLA  168   7.079   3.404   2.677  0.2343  0.2272  0.4537
   66CLA    CLA  169   3.200   2.273   5.666  0.4996 -0.1585  0.0113
   67CLA    CLA  170   4.322   3.228   3.610  0.0638  0.1808 -0.1280
   68CLA    CLA  171   3.510   5.899   3.253  0.0669 -0.2011 -0.3264
   69CLA    CLA  172   0.934   4.740   1.960 -0.1132 -0.3822  0.2942
   70TIP3   OH2  173   4.807   2.872   3.882  0.5636  0.6180  0.4738
   70TIP3    H1  174   4.801   2.938   3.951 -2.3853 -0.1946  1.1493
   70TIP3    H2  175   4.833   2.792   3.927  2.8130  0.9231 -0.1364
   71TIP3   OH2  176   0.992   4.870   3.987 -0.0379  0.5342  0.0134
   71TIP3    H1  177   0.930   4.848   4.056  0.6992 -0.1717  0.4764
   71TIP3    H2  178   1.075   4.832   4.016  0.3866  0.5827 -1.0577
   72TIP3   OH2  179   5.686   1.302   4.047  0.4696 -0.1428  0.3917
   72TIP3    H1  180   5.738   1.374   4.011 -1.0534  0.3235 -1.0599
   72TIP3    H2  181   5.731   1.223   4.019  0.1693  0.2420 -1.3166
   73TIP3   OH2  182   3.077   0.743   2.325 -0.4997 -0.2499 -0.0500
   73TIP3    H1  183   3.162   0.750   2.368 -0.7604 -0.4830  0.5161
   73TIP3    H2  184   3.043   0.832   2.325 -0.5637 -0.2719  0.3708
   74TIP3   OH2  185   3.810   3.416   0.849  0.2912  0.4215 -0.0328
   74TIP3    H1  186   3.791   3.496   0.899 -0.9191  0.2428 -0.1745
   74TIP3    H2  187   3.867   3.365   0.906  0.2963  0.9711  0.4598
   75TIP3   OH2  188   1.404   0.968   4.037 -0.3934 -0.6087  0.3284
   75TIP3    H1  189   1.433   0.929   4.119  1.6499 -1.1364 -0.5845
   75TIP3    H2  190   1.342   0.906   4.001  1.0360 -1.9398  0.0364
   76TIP3   OH2  191   2.492   2.296   5.675 -0.2655 -0.0574  0.1961
   76TIP3    H1  192   2.434   2.248   5.735  0.3703 -1.3189 -0.1710
   76TIP3    H2  193   2.544   2.352   5.733  0.7979 -1.7282  0.9384
   77TIP3   OH2  194   4.984   4.414   1.163  0.4182  0.0776  0.2077
   77TIP3    H1  195   4.998   4.410   1.069  2.6624 -1.5162  0.5210
   77TIP3    H2  196   4.966   4.324   1.189  0.1488  0.4384  1.3377
   78TIP3   OH2  197   1.335   3.639   2.824  0.0717 -0.5453  0.1028
   78TIP3    H1  198   1.274   3.570   2.850 -0.3660  0.3599  1.6068
   78TIP3    H2  199   1.279   3.712   2.798  0.5164 -0.9906 -2.3547
   79TIP3   OH2  200   4.091   3.739   0.251  1.0923  0.0333  0.6165
   79TIP3    H1  201   4.170   3.687   0.239  0.1051 -1.7870  1.6582
   79TIP3    H2  202   4.031   3.682   0.298 -2.1005  0.0859 -2.9308
   80TIP3   OH2  203   4.051   1.033   1.138 -0.5703  0.1750 -0.4938
   80TIP3    H1  204   3.989   1.048   1.210 -1.4232  1.1665 -1.4093
   80TIP3    H2  205   4.046   0.939   1.122 -0.9383  0.0626  0.2326
   81TIP3   OH2  206   3.237   0.083   4.290  0.0506  0.3185 -0.1440
   81TIP3    H1  207   3.257  -0.009   4.274  1.2946  0.4282  0.6318
   81TIP3    H2  208   3.154   0.098   4.246  0.3072 -0.9253 -1.0904
   82TIP3   OH2  209   1.649   5.226   1.508  0.2476  0.2167 -0.7332
   82TIP3    H1  210   1.581   5.177   1.461  1.2193  0.0056 -1.9772
   82TIP3    H2  211   1.695   5.161   1.560  0.0942  0.2051 -0.6109
   83TIP3   OH2  212   2.780   1.398   4.161 -0.1375 -0.1306  0.2224
   83TIP3    H1  213   2.697   1.405   4.114  0.7296 -0.6047 -1.4543
   83TIP3    H2  214   2.829   1.476   4.135  0.5399 -0.6374 -0.0319
   84TIP3   OH2  215   6.414   5.230   2.454 -0.0108  0.1442 -0.4591
   84TIP3    H1  216   6.339   5.290   2.459  0.7353  1.2911 -2.0778
   84TIP3    H2  217   6.465   5.249   2.532 -1.1783 -0.3841  0.4715
   85TIP3   OH2  218   3.127   4.710   1.652 -0.0392 -0.3349 -0.1761
   85TIP3    H1  219   3.188   4.775   1.688 -0.6515  1.1226 -1.6509
   85TIP3    H2  220   3.171   4.676   1.575 -0.8895  0.4314 -1.0195
   86TIP3   OH2  221   5.819   3.222   0.188  0.0293  0.3255  0.4023
   86TIP3    H1  222   5.818   3.203   0.095 -1.5280  1.3092  0.1768
   86TIP3    H2  223   5.746   3.173   0.224 -0.5045  1.3656  0.7773
   87TIP3   OH2  224   6.454   5.733   0.651  0.2159  0.4174  0.0561
   87TIP3    H1  225   6.389   5.742   0.580 -0.6681  1.0818  0.9194
   87TIP3    H2  226   6.443   5.643   0.682 -1.3741  0.9484  1.1686
   88TIP3   OH2  227   1.279   6.103   1.420  0.1825  0.2971  0.7353
   88TIP3    H1  228   1.227   6.061   1.487 -0.1299  1.6438  1.3724
   88TIP3    H2  229   1.328   6.171   1.466  1.5459 -0.0914 -0.0569
   89TIP3   OH2  230   5.176   4.584   3.882 -0.2656 -0.3030  0.3511
   89TIP3    H1  231   5.202   4.634   3.804  0.2948  0.6744  1.1357
   89TIP3    H2  232   5.147   4.651   3.944 -1.1596 -1.1124  0.8187
   90TIP3   OH2  233   1.352   5.729   2.073  0.0615 -0.6542  0.6147
   90TIP3    H1  234   1.438   5.689   2.071  0.0791 -0.5965 -0.4045
   90TIP3    H2  235   1.350   5.779   2.155  0.6283 -1.4324  1.1109
   91TIP3   OH2  236   6.472   0.021   3.316 -0.4592  0.0771  0.7480
   91TIP3    H1  237   6.501   0.072   3.392 -0.6866  1.7790 -0.2515
   91TIP3    H2  238   6.535  -0.051   3.311 -1.4420 -1.1177  3.5271
   92TIP3   OH2  239   4.596   4.062   4.453 -0.2802 -0.2146  0.4086
   92TIP3    H1  240   4.688   4.085   4.469 -0.4618  0.1726  0.9101
   92TIP3    H2  241   4.546   4.128   4.501 -0.8210 -0.9012  0.8117
   93TIP3   OH2  242   1.326   0.862   0.997 -0.4069  0.4695 -0.6939
   93TIP3    H1  243   1.314   0.957   1.001 -1.4825  0.4865 -2.5935
   93TIP3    H2  244   1.237   0.827   0.988  0.0802 -0.5400 -1.9761
   94TIP3   OH2  245   6.217   1.879   5.324 -0.3555 -0.2292  0.1597
   94TIP3    H1  246   6.192   1.820   5.395 -1.8760  0.1641 -0.0293
   94TIP3    H2  247   6.196   1.967   5.356 -0.2560  0.0231 -0.4547
   95TIP3   OH2  248   2.773   3.758   1.467  0.0067  0.2761 -0.2744
   95TIP3    H1  249   2.680   3.755   1.443  0.3498 -0.4259 -1.5884
   95TIP3    H2  250   2.795   3.851   1.466 -0.7676  0.4857  0.4687
   96TIP3   OH2  251   0.276   5.011   5.393  0.3821 -0.0844  0.3238
   96TIP3    H1  252   0.361   4.967   5.383  0.0128 -0.7488  0.0669
   96TIP3    H2  253   0.246   5.027   5.304 -0.1359 -0.5776  0.4064
   97TIP3   OH2  254   2.812   1.368   5.700  0.0175  0.0396 -0.1855
   97TIP3    H1  255   2.751   1.426   5.745  1.1763  0.2037  1.2454
   97TIP3    H2  256   2.895   1.382   5.744  1.1155 -0.1845 -2.0764
   98TIP3   OH2  257   1.483   5.241   0.157 -0.5738 -0.1495  0.2804
   98TIP3    H1  258   1.432   5.322   0.148  0.4714  0.3587 -1.5690
   98TIP3    H2  259   1.550   5.262   0.221  1.0770  1.2755 -1.7716
   99TIP3   OH2  260   4.953   4.497   2.385  0.7709 -0.0634 -0.5236
   99TIP3    H1  261   5.034   4.512   2.337  0.2698 -1.2868 -1.7921
   99TIP3    H2  262   4.932   4.583   2.424  1.6858  0.7126 -1.6825
  100TIP3   OH2  263   0.733   6.065   1.075 -0.2369  0.2426 -0.1347
  100TIP3    H1  264   0.828   6.071   1.067 -0.2675  0.8974 -0.0402
  100TIP3    H2  265   0.717   5.973   1.096  0.4246  0.2807  0.5662
  101TIP3   OH2  266   1.321   4.355   2.142  0.0992  0.0223 -0.1045
  101TIP3    H1  267   1.371   4.302   2.204  0.7768  0.3882 -0.3186
  101TIP3    H2  268   1.353   4.444   2.156 -0.6798  0.3058 -0.0773
  102TIP3   OH2  269   1.609   0.498   3.313  0.2953 -0.0274  0.2339
  102TIP3    H1  270   1.696   0.533   3.295  0.5959 -1.5201 -1.4964
  102TIP3    H2  271   1.550   0.557   3.266  0.7539 -1.3298 -2.1488
  103TIP3   OH2  272   0.093   2.289   3.091  0.1648 -0.4189  0.4197
  103TIP3    H1  273  -0.002   2.302   3.093  0.3864  1.4806 -0.2959
  103TIP3    H2  274   0.115   2.267   3.182 -0.7584  0.7222  0.9500
  104TIP3   OH2  275   4.734   5.336   1.001 -0.0320  0.0528 -0.1521
  104TIP3    H1  276   4.689   5.290   0.931  0.3920  0.2608 -0.5628
  104TIP3    H2  277   4.763   5.266   1.060 -1.0419 -0.0728  0.2176
  105TIP3   OH2  278   1.827   4.205   3.145 -0.2947 -0.0369 -0.2125
  105TIP3    H1  279   1.904   4.149   3.151 -0.2817  0.0152  0.1684
  105TIP3    H2  280   1.857   4.284   3.101  0.5681  1.1513  2.3358
  106TIP3   OH2  281   7.117   0.903   2.267 -0.0448  0.4872 -0.0094
  106TIP3    H1  282   7.064   0.975   2.301 -2.9813 -1.5944  0.2446
  106TIP3    H2  283   7.163   0.869   2.344 -2.1079 -0.5700  0.8274
  107TIP3   OH2  284   6.004   1.103   4.442 -0.4897  0.5903 -0.4001
  107TIP3    H1  285   5.982   1.077   4.353 -2.1718  1.1799 -0.1976
  107TIP3    H2  286   6.064   1.177   4.432 -1.1664  1.0609 -1.0758
  108TIP3   OH2  287   6.376   5.231   4.912 -0.0413  0.3663  0.9694
  108TIP3    H1  288   6.378   5.317   4.953 -1.0139  1.0716 -0.3656
  108TIP3    H2  289   6.347   5.248   4.822  3.6409 -0.8796 -0.6319
  109TIP3   OH2  290   4.211   2.638   4.320  0.2544  0.2407  0.3946
  109TIP3    H1  291   4.155   2.694   4.374  1.1992  0.6207  1.0183
  109TIP3    H2  292   4.152   2.599   4.255 -0.1120  3.8535 -1.7001
  110TIP3   OH2  293   1.046   3.000   1.388 -0.0133  0.0983 -0.1773
  110TIP3    H1  294   0.966   2.978   1.435  0.4409  1.9941  1.6445
  110TIP3    H2  295   1.110   3.020   1.457  1.4635  0.4940 -1.5909
  111TIP3   OH2  296   6.407   0.552   0.959  0.2337  0.6704 -0.0789
  111TIP3    H1  297   6.371   0.586   1.041 -1.7627 -1.4482  0.0359
  111TIP3    H2  298   6.457   0.474   0.985 -2.2489 -1.3566 -0.9042
  112TIP3   OH2  299   3.731   2.047   0.349  0.4794 -0.3195  0.0233
  112TIP3    H1  300   3.705   1.955   0.354 -0.2025 -0.0778  1.3647
  112TIP3    H2  301   3.770   2.066   0.434  0.7268  0.6045 -0.2845
  113TIP3   OH2  302   0.875   4.341   2.301  0.7386  0.1760 -0.0762
  113TIP3    H1  303   0.851   4.433   2.305 -0.1158 -0.0320 -0.2261
  113TIP3    H2  304   0.931   4.333   2.224 -0.8550  0.2155 -1.2841
  114TIP3   OH2  305   5.480   0.143   0.276 -0.5377  0.0919 -0.1650
  114TIP3    H1  306   5.560   0.109   0.237 -1.1527 -0.1254 -1.3037
  114TIP3    H2  307   5.418   0.149   0.202 -1.3951  0.7688  0.5756
  115TIP3   OH2  308   3.584   2.300   1.055  0.0813 -0.3608  0.0825
  115TIP3    H1  309   3.541   2.372   1.008  2.2348  0.3994 -0.8199
  115TIP3    H2  310   3.562   2.315   1.147 -1.0590  0.3321 -0.2810
  116TIP3   OH2  311   4.692   2.767   4.491  0.2604  0.1574 -0.3966
  116TIP3    H1  312   4.729   2.807   4.413 -3.3933  2.0592 -1.3797
  116TIP3    H2  313   4.674   2.677   4.467 -1.3338  0.8650 -2.0561
  117TIP3   OH2  314   1.720   2.344   0.694 -0.8583 -0.1157  0.2669
  117TIP3    H1  315   1.796   2.302   0.654  0.2037  0.8742  1.1701
  117TIP3    H2  316   1.752   2.431   0.721 -2.3240  0.3401  0.6077
  118TIP3   OH2  317   0.327   1.303   2.624  0.9824 -0.5572  0.1479
  118TIP3    H1  318   0.235   1.275   2.623  0.8699 -0.1796 -0.2456
  118TIP3    H2  319   0.334   1.357   2.703  0.7083 -0.0804 -0.1482
  119TIP3   OH2  320   6.546   3.809   4.741  0.2179  0.2669  0.1260
  119TIP3    H1  321   6.547   3.714   4.745 -0.7698  0.1620 -1.3739
  119TIP3    H2  322   6.466   3.831   4.693  2.2697  1.6495 -3.0524
  120TIP3   OH2  323   1.613   2.742   5.523 -0.2336  0.1098 -0.4371
  120TIP3    H1  324   1.694   2.696   5.499 -0.4141 -1.3775  1.5045
  120TIP3    H2  325   1.643   2.823   5.564  0.2406 -0.0111 -0.5408
  121TIP3   OH2  326   3.235   6.018   2.867  0.2528  0.1861  0.2620
  121TIP3    H1  327   3.219   6.090   2.928 -0.7606 -0.9822  1.4342
  121TIP3    H2  328   3.324   5.990   2.887  0.1246  0.1709  0.8310
  122TIP3   OH2  329   7.003   2.357   3.148 -0.0197 -0.0271 -0.2473
  122TIP3    H1  330   7.038   2.443   3.123 -0.4067  0.0856 -0.4201
  122TIP3    H2  331   6.910   2.373   3.162  0.2078 -0.0442  1.5073
  123TIP3   OH2  332   3.635   5.107   2.681  0.2099 -0.7346  0.3159
  123TIP3    H1  333   3.639   5.087   2.774  0.6011 -0.0553  0.4482
  123TIP3    H2  334   3.726   5.108   2.652  0.1187 -0.4907  0.0253
  124TIP3   OH2  335   4.591   2.878   0.849  0.2624 -0.3897  0.3219
  124TIP3    H1  336   4.640   2.811   0.896  0.1821 -1.2553 -0.7850
  124TIP3    H2  337   4.500   2.861   0.872  0.4177  1.5182  2.7647
  125TIP3   OH2  338   3.272   6.125   3.903 -0.0290 -0.1886 -0.0011
  125TIP3    H1  339   3.209   6.180   3.950 -1.1195  0.2119 -1.8199
  125TIP3    H2  340   3.339   6.104   3.968 -0.5690  1.7130  1.2603
  126TIP3   OH2  341   7.146   1.812   4.665  0.4919  0.1348  0.3584
  126TIP3    H1  342   7.185   1.900   4.658 -1.6426  1.1648  0.6433
  126TIP3    H2  343   7.056   1.823   4.636  0.2908 -2.1038 -0.0606
  127TIP3   OH2  344   4.786   6.698   3.116  0.3426  0.3696 -0.2662
  127TIP3    H1  345   4.749   6.661   3.036 -0.1711 -0.5700  0.3804
  127TIP3    H2  346   4.876   6.722   3.093 -0.4110  2.0530 -1.6775
  128TIP3   OH2  347   4.873   1.428   2.631  0.5286  0.3996  0.0217
  128TIP3    H1  348   4.858   1.339   2.662 -0.6734  0.4558 -0.3247
  128TIP3    H2  349   4.932   1.418   2.556  0.4120 -0.1118 -0.0016
  129TIP3   OH2  350   6.826   3.585   5.542 -0.6360 -0.2324  0.0900
  129TIP3    H1  351   6.845   3.666   5.589  0.5246  0.2311 -1.0945
  129TIP3    H2  352   6.911   3.542   5.532 -1.0813 -1.0739 -0.2331
  130TIP3   OH2  353   0.160   4.096   0.379 -0.3639 -0.0662 -0.1969
  130TIP3    H1  354   0.101   4.130   0.312 -0.2926 -0.3336 -0.3987
  130TIP3    H2  355   0.168   4.002   0.359  0.5048  0.0503 -0.4763
  131TIP3   OH2  356   2.796   1.717   5.246  0.0808  0.0754  0.1898
  131TIP3    H1  357   2.840   1.712   5.330 -1.5947  0.7438  1.1471
  131TIP3    H2  358   2.736   1.791   5.254  0.1583  0.4128 -1.7352
  132TIP3   OH2  359   5.122   3.627   3.293  1.0256  0.2522  0.2185
  132TIP3    H1  360   5.082   3.686   3.357 -2.1813  0.0164 -1.3691
  132TIP3    H2  361   5.126   3.542   3.337  0.9473  0.5622  0.8371
  133TIP3   OH2  362   4.307   6.300   0.539  0.2125 -0.0383  0.3363
  133TIP3    H1  363   4.341   6.368   0.598 -1.2320  0.2641  0.8849
  133TIP3    H2  364   4.384   6.252   0.510  0.9921 -0.4152  2.7568
  134TIP3   OH2  365   0.640   5.731   0.008  0.0929 -0.6514  0.2815
  134TIP3    H1  366   0.632   5.819  -0.029 -0.3318 -0.3508  1.0711
  134TIP3    H2  367   0.730   5.727   0.041  0.5214 -0.9680 -0.8591
  135TIP3   OH2  368   2.626   2.451   5.317  0.1480  0.0946 -0.2449
  135TIP3    H1  369   2.551   2.392   5.306 -0.0909  0.2392  0.5462
  135TIP3    H2  370   2.587   2.539   5.322  0.5857  0.5040 -2.7325
  136TIP3   OH2  371   1.320   0.197   2.040  0.2246 -0.2197  0.2636
  136TIP3    H1  372   1.233   0.236   2.039  0.4085  0.2330  0.7725
  136TIP3    H2  373   1.364   0.235   1.964 -0.7063 -2.1437 -1.3150
  137TIP3   OH2  374   3.233   6.541   4.041  0.0289 -0.2946 -0.0584
  137TIP3    H1  375   3.195   6.626   4.063 -1.7766 -1.3579  1.2617
  137TIP3    H2  376   3.215   6.530   3.948 -1.3590  0.0286  0.1410
  138TIP3   OH2  377   4.042   2.552   2.354  0.1778 -0.1219 -0.7495
  138TIP3    H1  378   4.028   2.633   2.304  0.2158  1.8936  2.2818
  138TIP3    H2  379   3.966   2.498   2.332 -1.0756  1.6918 -1.1122
  139TIP3   OH2  380   4.262   2.342   0.461 -0.2635 -0.0957 -0.0437
  139TIP3    H1  381   4.288   2.344   0.369  0.2109  0.1176  0.0914
  139TIP3    H2  382   4.327   2.285   0.503 -1.9474 -2.3361 -0.2770
  140TIP3   OH2  383   5.257   0.968   4.989 -0.0885 -0.2001 -0.6492
  140TIP3    H1  384   5.325   1.036   4.981 -1.1665  1.0346  0.1866
  140TIP3    H2  385   5.220   0.960   4.902 -0.3205  0.7139 -0.6419
  141TIP3   OH2  386   2.070   1.785   3.573  0.0857  0.2154  0.4523
  141TIP3    H1  387   2.115   1.788   3.488 -1.6051 -1.1701 -0.5551
  141TIP3    H2  388   2.065   1.876   3.601  1.0791  0.6482 -0.7111
  142TIP3   OH2  389   0.618   6.750   0.706 -0.7393  0.6405 -0.2038
  142TIP3    H1  390   0.579   6.663   0.705  1.7835 -0.6127  0.6284
  142TIP3    H2  391   0.584   6.791   0.785  0.0837 -0.6703  0.8772
  143TIP3   OH2  392   1.882   2.807   3.157  0.3516 -0.9987  0.1341
  143TIP3    H1  393   1.844   2.770   3.237 -0.0900  0.4784  0.6534
  143TIP3    H2  394   1.809   2.808   3.095 -0.2798  0.9277  0.8191
  144TIP3   OH2  395   5.048   6.178   4.702 -0.2108  0.3497 -0.1582
  144TIP3    H1  396   5.059   6.095   4.655 -1.7587  0.2527 -0.4004
  144TIP3    H2  397   4.963   6.169   4.745 -0.3271  1.7612 -0.0700
  145TIP3   OH2  398   5.449   6.382   4.957 -0.4892  0.5546 -0.3316
  145TIP3    H1  399   5.468   6.314   5.022 -1.5486 -0.0332 -0.6129
  145TIP3    H2  400   5.494   6.352   4.878 -0.1500  0.6924 -0.1971
  146TIP3   OH2  401   1.416   0.740   2.614  0.0812 -0.1041 -0.4184
  146TIP3    H1  402   1.489   0.690   2.577 -0.8350 -0.2074 -2.2085
  146TIP3    H2  403   1.393   0.803   2.545 -2.0854 -0.6873 -0.3175
  147TIP3   OH2  404   2.180   6.095   4.405 -0.2927 -0.4768 -0.0824
  147TIP3    H1  405   2.186   6.037   4.481 -0.5266 -0.3090  0.0629
  147TIP3    H2  406   2.122   6.050   4.345  0.2766 -0.8405 -0.3696
  148TIP3   OH2  407   7.178   3.571   3.287  0.3045 -0.3843 -0.9908
  148TIP3    H1  408   7.092   3.586   3.326  0.3826 -1.5254 -0.3445
  148TIP3    H2  409   7.173   3.484   3.249  0.8049  0.0192 -2.0203
  149TIP3   OH2  410   3.217   0.859   4.756 -0.2057  0.2937 -0.2710
  149TIP3    H1  411   3.216   0.949   4.721  0.5231  0.4434  0.0794
  149TIP3    H2  412   3.170   0.808   4.690 -0.5287  0.9099 -0.5346
  150TIP3   OH2  413   1.138   0.652   3.115  0.2652  0.1955  0.3273
  150TIP3    H1  414   1.162   0.705   3.191 -1.6045 -1.8647  2.5061
  150TIP3    H2  415   1.166   0.563   3.138 -0.6278 -0.5366 -1.2689
  151TIP3   OH2  416   4.332   6.350   2.629  0.1483 -0.1715  0.6113
  151TIP3    H1  417   4.327   6.315   2.540 -0.8580  0.4221  0.4264
  151TIP3    H2  418   4.250   6.323   2.670 -0.0453  0.8174  0.8911
  152TIP3   OH2  419   1.620   1.342   0.837  0.0136  0.0924  0.0164
  152TIP3    H1  420   1.544   1.353   0.895 -0.3074  0.4222 -0.4585
  152TIP3    H2  421   1.620   1.422   0.783 -0.5407 -0.8343 -1.4194
  153TIP3   OH2  422   1.084   5.680   2.256  0.1344 -0.6201 -0.0734
  153TIP3    H1  423   1.112   5.617   2.190 -0.6029  0.6811 -1.6678
  153TIP3    H2  424   1.159   5.686   2.316  0.4898 -2.4521 -0.2516
  154TIP3   OH2  425   2.262   2.924   3.121 -0.1993 -0.5642  0.0583
  154TIP3    H1  426   2.298   2.979   3.052  1.0733  0.3105  1.3599
  154TIP3    H2  427   2.167   2.929   3.109 -0.0393 -2.3518 -3.0333
  155TIP3   OH2  428   1.188   3.088   1.606  0.0458  0.1363 -0.1889
  155TIP3    H1  429   1.252   3.092   1.535 -1.0478 -2.1386 -1.4105
  155TIP3    H2  430   1.207   3.005   1.651 -2.6828 -1.2165 -1.3200
  156TIP3   OH2  431   6.747   3.464   0.231  0.4198 -0.3006 -0.3062
  156TIP3    H1  432   6.693   3.425   0.162  1.1538 -1.6890 -0.1317
  156TIP3    H2  433   6.721   3.556   0.233  0.6925 -0.0987 -2.7501
  157TIP3   OH2  434   1.753   6.122   1.751 -0.2168 -0.0816 -0.0525
  157TIP3    H1  435   1.697   6.050   1.782 -1.7708  1.0188 -0.2004
  157TIP3    H2  436   1.837   6.107   1.794 -0.7883 -1.4712  0.6399
  158TIP3   OH2  437   5.212   2.380   4.330 -0.1681 -0.2880 -0.5037
  158TIP3    H1  438   5.208   2.301   4.385  0.8745  0.3827  0.5756
  158TIP3    H2  439   5.304   2.407   4.334 -0.7580  1.7457  0.2485
  159TIP3   OH2  440   1.947   5.313   4.001  0.5578  0.0528 -0.2857
  159TIP3    H1  441   1.927   5.334   4.092 -0.4949 -0.4748 -0.3743
  159TIP3    H2  442   2.042   5.306   3.999  0.8898  3.2173  0.0465
  160TIP3   OH2  443   1.747   1.136   3.131  0.6463 -0.2451 -0.2067
  160TIP3    H1  444   1.768   1.223   3.099 -1.3453  0.4870  0.2971
  160TIP3    H2  445   1.728   1.085   3.053 -0.1045  0.3627 -0.4412
  161TIP3   OH2  446   1.172   3.078   4.270 -0.0921 -0.4884  0.7523
  161TIP3    H1  447   1.181   3.007   4.333  2.7607  1.0847  2.3420
  161TIP3    H2  448   1.183   3.037   4.184  0.5141 -2.0968  1.5670
  162TIP3   OH2  449   0.517   5.684   1.629 -0.3947 -0.2097  0.0266
  162TIP3    H1  450   0.447   5.649   1.683  0.5054 -1.1352  0.6345
  162TIP3    H2  451   0.554   5.756   1.680 -1.1358  0.5392 -0.4680
  163TIP3   OH2  452   1.622   2.684   3.755  0.3707 -0.1359  0.5444
  163TIP3    H1  453   1.679   2.608   3.772 -0.2796 -0.6343  0.5459
  163TIP3    H2  454   1.681   2.750   3.719  1.2045 -0.1613  1.7934
  164TIP3   OH2  455   7.139   1.825   5.398  0.9533 -0.1444 -0.1313
  164TIP3    H1  456   7.209   1.885   5.422  1.9791 -1.0588 -0.7271
  164TIP3    H2  457   7.184   1.744   5.375 -0.4050 -1.2373  0.9001
  165TIP3   OH2  458   4.735   4.323   0.971  0.3316  0.0308 -0.2303
  165TIP3    H1  459   4.827   4.297   0.960  0.0328 -2.0084  1.4292
  165TIP3    H2  460   4.694   4.302   0.888  1.0957 -0.3569 -0.5174
  166TIP3   OH2  461   7.108   2.254   3.602 -0.0090  0.4135  0.3430
  166TIP3    H1  462   7.200   2.277   3.587  0.0233  0.6963  0.9551
  166TIP3    H2  463   7.107   2.214   3.689 -0.5305  0.8525  0.5465
  167TIP3   OH2  464   2.084   3.144   0.850 -0.0929 -0.1289  0.2076
  167TIP3    H1  465   2.123   3.059   0.826  0.6336 -0.0213  0.9482
  167TIP3    H2  466   2.099   3.151   0.944 -0.9384  0.4350  0.3135
  168TIP3   OH2  467   2.473   3.004   5.443 -0.0006 -0.0820 -0.3997
  168TIP3    H1  468   2.447   3.003   5.535  0.4731 -1.7723 -0.2511
  168TIP3    H2  469   2.400   3.046   5.398  0.2359  1.7878  0.8469
  169TIP3   OH2  470   6.037   4.556   5.216  0.3842  0.1572 -0.4352
  169TIP3    H1  471   6.024   4.467   5.249  0.4385  1.0481  2.2656
  169TIP3    H2  472   6.132   4.567   5.215  0.3910  0.8998  1.6750
  170TIP3   OH2  473   0.527   4.157   2.026 -0.0476  0.0151 -0.6264
  170TIP3    H1  474   0.582   4.234   2.036  0.8892 -0.6206 -0.7882
  170TIP3    H2  475   0.484   4.169   1.941  0.3110  0.2209 -0.7789
  171TIP3   OH2  476   4.901   4.962   0.388 -0.0978  0.3395 -0.3959
  171TIP3    H1  477   4.986   4.989   0.423 -0.7277  1.1092  0.5828
  171TIP3    H2  478   4.869   4.896   0.451  0.2511 -0.7869 -1.3594
  172TIP3   OH2  479   6.076   2.305   5.110 -0.1662  0.2836  0.0518
  172TIP3    H1  480   6.056   2.304   5.203 -0.5540  2.5767  0.0595
  172TIP3    H2  481   6.068   2.397   5.085  3.0302  0.2577 -1.5744
  173TIP3   OH2  482   6.496   5.844   2.233 -0.8242  0.4338 -0.4229
  173TIP3    H1  483   6.513   5.790   2.311 -0.7766  0.9099 -0.1020
  173TIP3    H2  484   6.420   5.803   2.192  0.3263 -1.0041 -1.2174
  174TIP3   OH2  485   1.714   0.634   0.986  0.3744  0.0956 -0.1744
  174TIP3    H1  486   1.748   0.544   0.986  1.1279  0.3571 -1.0759
  174TIP3    H2  487   1.619   0.624   0.991  0.4516 -0.7509 -0.2030
  175TIP3   OH2  488   7.062   3.502   4.450 -0.1036  0.3748  0.1217
  175TIP3    H1  489   7.065   3.455   4.366 -0.8299 -0.1347  0.3668
  175TIP3    H2  490   6.969   3.503   4.472  0.1868 -0.5086  1.4788
  176TIP3   OH2  491   4.085   3.511   4.574  0.3175 -0.2674  0.7394
  176TIP3    H1  492   4.011   3.514   4.513  0.8242  0.1088  0.1220
  176TIP3    H2  493   4.061   3.571   4.644  0.0874 -0.0586  0.4846
  177TIP3   OH2  494   5.926   0.075   5.587  0.1513  0.5459  0.1331
  177TIP3    H1  495   5.857   0.057   5.523  0.1701  2.1516 -0.3771
  177TIP3    H2  496   5.982  -0.003   5.583 -0.4627  0.1327 -1.0122
  178TIP3   OH2  497   0.033   0.880   1.009  0.1334 -0.1016 -0.0716
  178TIP3    H1  498   0.081   0.871   1.091  0.8834 -0.4360 -0.5360
  178TIP3    H2  499  -0.058   0.891   1.036  0.2171 -1.2707  0.7811
  179TIP3   OH2  500   6.104   1.780   5.549 -0.2061  0.4827  0.0172
  179TIP3    H1  501   6.123   1.811   5.637 -1.7141  1.8119 -0.0683
  179TIP3    H2  502   6.090   1.686   5.559  0.7981  0.4134  0.9633
  180TIP3   OH2  503   5.482   2.637   5.361  0.0845  0.3828 -0.2504
  180TIP3    H1  504   5.576   2.622   5.353  0.1892  1.9611 -2.9681
  180TIP3    H2  505   5.473   2.694   5.438  1.4112  0.7491 -0.3426
  181TIP3   OH2  506   6.098   4.396   3.725 -0.2724 -0.4597 -0.8530
  181TIP3    H1  507   6.066   4.451   3.653 -0.4896  1.3103  0.5193
  181TIP3    H2  508   6.187   4.372   3.699 -0.0638  0.7994 -1.3736
  182TIP3   OH2  509   1.132   1.409   0.576  0.0534  0.2936 -0.1194
  182TIP3    H1  510   1.162   1.440   0.490  1.1997 -0.0179  0.1542
  182TIP3    H2  511   1.191   1.337   0.598  0.3083  0.8970  1.3004
  183TIP3   OH2  512   6.460   1.227   3.321 -0.5954 -0.4838  0.4354
  183TIP3    H1  513   6.375   1.230   3.277 -1.5397  2.0217  2.2158
  183TIP3    H2  514   6.440   1.204   3.411  0.2422  2.2291  1.4202
  184TIP3   OH2  515   0.080   0.828   4.991  0.5448 -0.0582  0.3580
  184TIP3    H1  516   0.070   0.908   4.940  0.0624 -0.2268  0.1793
  184TIP3    H2  517   0.056   0.853   5.080  2.7089  0.5726  0.8139
  185TIP3   OH2  518   3.231   1.427   2.242 -0.2486  0.9718 -0.6636
  185TIP3    H1  519   3.292   1.492   2.276 -0.9744  0.7030  1.2354
  185TIP3    H2  520   3.161   1.478   2.202 -0.0633  1.3099 -0.5584
  186TIP3   OH2  521   1.325   4.665   5.256 -0.3894 -0.1584  0.6329
  186TIP3    H1  522   1.357   4.699   5.172  0.0186 -0.0621  0.8289
  186TIP3    H2  523   1.362   4.577   5.262 -1.3791 -0.6257  0.1650
  187TIP3   OH2  524   4.700   2.650   0.945  0.4167 -0.0593  0.2307
  187TIP3    H1  525   4.694   2.570   0.997 -2.9871 -0.5927 -0.7090
  187TIP3    H2  526   4.749   2.625   0.867 -0.4154 -1.2350  0.0597
  188TIP3   OH2  527   5.731   3.104   2.165 -0.1942 -0.0657 -0.0268
  188TIP3    H1  528   5.799   3.053   2.208  1.0367  0.3397 -1.4370
  188TIP3    H2  529   5.670   3.038   2.130 -1.4375 -0.4149  2.4952
  189TIP3   OH2  530   2.198   3.977   5.685 -0.2647  0.2243  0.1738
  189TIP3    H1  531   2.177   3.926   5.763 -0.5298 -0.1893 -0.1658
  189TIP3    H2  532   2.284   4.015   5.704 -0.3723  0.2066  0.7056
  190TIP3   OH2  533   2.928   5.061   5.110  0.6427  0.9489 -0.1543
  190TIP3    H1  534   2.902   5.060   5.018 -1.6811 -1.4060  0.4208
  190TIP3    H2  535   2.999   4.997   5.115 -0.8722 -0.7871  0.0277
  191TIP3   OH2  536   0.545   2.086   4.610 -0.2487  0.5371 -0.2520
  191TIP3    H1  537   0.516   2.005   4.569  0.4179  1.0297 -1.7826
  191TIP3    H2  538   0.638   2.093   4.588 -0.1739  1.4595  0.2804
  192TIP3   OH2  539   1.842   4.405   4.064  0.5452  0.0202 -0.1423
  192TIP3    H1  540   1.804   4.321   4.089  1.6509 -0.3039  0.5449
  192TIP3    H2  541   1.851   4.401   3.969  0.0655 -0.4044 -0.1717
  193TIP3   OH2  542   6.896   3.550   0.979  0.0186  0.0597  0.6181
  193TIP3    H1  543   6.879   3.456   0.991  0.6654 -0.0967  0.3769
  193TIP3    H2  544   6.819   3.583   0.933 -0.8421 -0.0695  1.9115
  194TIP3   OH2  545   5.669   3.496   4.944 -0.7913 -0.2880 -0.3960
  194TIP3    H1  546   5.608   3.556   4.987  0.0733 -1.7352  3.2117
  194TIP3    H2  547   5.712   3.550   4.877 -1.1292  2.7175  1.6093
  195TIP3   OH2  548   5.287   2.861   3.031 -0.3032 -0.4541  0.5573
  195TIP3    H1  549   5.322   2.824   3.112 -0.2625 -3.0460 -0.5296
  195TIP3    H2  550   5.194   2.874   3.049 -0.5658 -2.2224  0.7087
  196TIP3   OH2  551   5.974   0.384   3.805  0.2367  0.1682 -0.1508
  196TIP3    H1  552   6.006   0.294   3.794  0.3939  0.3157 -0.8919
  196TIP3    H2  553   6.007   0.431   3.729  0.1269  0.8531  0.2203
  197TIP3   OH2  554   3.918   0.346   3.926 -0.1663  0.0787  0.1181
  197TIP3    H1  555   3.902   0.409   3.856  1.5135 -1.2567 -1.6036
  197TIP3    H2  556   3.874   0.382   4.002  0.6766  3.3161 -0.7630
  198TIP3   OH2  557   3.947   0.164   3.718  0.2018  0.2763  0.1048
  198TIP3    H1  558   3.982   0.226   3.782  1.4155  1.4873 -1.6426
  198TIP3    H2  559   3.926   0.218   3.642  1.2169 -1.4499 -1.4633
  199TIP3   OH2  560   2.083   5.004   5.774 -0.7343 -0.0691  0.0448
  199TIP3    H1  561   2.023   4.986   5.847 -1.7957  3.1503  0.1216
  199TIP3    H2  562   2.025   5.013   5.698 -0.0332  0.1838 -0.4683
  200TIP3   OH2  563   2.495   0.798   0.266  0.2282  0.5562 -0.9128
  200TIP3    H1  564   2.443   0.864   0.219 -1.5068 -0.3689 -0.3896
  200TIP3    H2  565   2.555   0.849   0.321 -0.0344  1.6687 -1.6231
  201TIP3   OH2  566   6.659   5.420   3.134  0.0754 -0.2370  0.8219
  201TIP3    H1  567   6.589   5.483   3.118  0.6204  0.1853  0.0469
  201TIP3    H2  568   6.674   5.424   3.229 -0.6052  0.0268  0.9206
  202TIP3   OH2  569   1.612   4.904   5.753  0.1176  0.2286  0.8878
  202TIP3    H1  570   1.533   4.888   5.804 -0.5909 -1.8571 -0.7180
  202TIP3    H2  571   1.681   4.855   5.798  0.5606  2.0748  2.3073
  203TIP3   OH2  572   6.495   0.111   4.895  0.7616  0.5572  0.3912
  203TIP3    H1  573   6.479   0.126   4.988 -1.0041 -0.2045  0.2412
  203TIP3    H2  574   6.414   0.137   4.851  1.7702  1.4700 -1.0205
  204TIP3   OH2  575   0.362   4.572   1.179 -0.2231 -0.0400 -0.1531
  204TIP3    H1  576   0.405   4.578   1.264  2.9306  2.9199 -1.6515
  204TIP3    H2  577   0.384   4.485   1.146 -1.0739 -1.0328  1.7824
  205TIP3   OH2  578   2.776   5.390   2.187  0.6847 -0.1644 -0.5360
  205TIP3    H1  579   2.681   5.380   2.202  0.6298 -0.1490 -0.8694
  205TIP3    H2  580   2.805   5.449   2.257  0.5613 -0.6626 -0.0557
  206TIP3   OH2  581   0.927   5.274   2.264  0.2441  0.1133 -0.5679
  206TIP3    H1  582   0.990   5.245   2.331 -0.0034 -0.1664 -0.4499
  206TIP3    H2  583   0.939   5.212   2.192  2.4894  2.0519 -2.0004
  207TIP3   OH2  584   2.037   5.355   3.311  0.2541 -0.1406  0.0883
  207TIP3    H1  585   1.971   5.294   3.278  0.8324 -0.7020 -0.0710
  207TIP3    H2  586   2.103   5.359   3.241  0.2955  0.5596  0.1607
  208TIP3   OH2  587   6.656   5.086   1.294 -0.0936  0.0848  0.5760
  208TIP3    H1  588   6.674   5.094   1.388  3.2507 -0.4589  0.1256
  208TIP3    H2  589   6.684   4.997   1.272 -0.4963  0.3161 -0.9836
  209TIP3   OH2  590   0.751   4.352   4.337 -0.3463  0.2253 -0.2891
  209TIP3    H1  591   0.826   4.311   4.293  0.3358  0.7334  0.3952
  209TIP3    H2  592   0.763   4.331   4.430  0.1931  2.1937  0.1386
  210TIP3   OH2  593   4.921   4.661   3.750  0.2396  0.6492  0.0162
  210TIP3    H1  594   4.973   4.591   3.789  0.9790 -0.6949 -3.0515
  210TIP3    H2  595   4.974   4.740   3.761  0.5877  0.2639  1.2707
  211TIP3   OH2  596   2.410   0.686   5.358 -0.2720  0.5029  0.2578
  211TIP3    H1  597   2.368   0.667   5.441 -0.2202  0.6539  0.3186
  211TIP3    H2  598   2.469   0.759   5.377  1.4543 -0.9158  0.6435
  212TIP3   OH2  599   5.200   1.633   2.924  0.3155 -0.2255  0.2008
  212TIP3    H1  600   5.151   1.715   2.932  1.7256  0.6522  0.1797
  212TIP3    H2  601   5.170   1.580   2.997 -1.6268 -0.2695 -0.5675
  213TIP3   OH2  602   1.802   5.872   4.355  0.6204 -0.2563 -0.5099
  213TIP3    H1  603   1.726   5.815   4.363 -1.7590  2.8569  0.9406
  213TIP3    H2  604   1.781   5.930   4.282  2.6173 -0.6246 -1.4467
  214TIP3   OH2  605   4.101   3.108   5.678 -0.5328 -0.0902 -0.3760
  214TIP3    H1  606   4.043   3.082   5.751 -0.8531  1.0578 -0.2100
  214TIP3    H2  607   4.186   3.123   5.720 -0.4216 -0.5607 -0.4268
  215TIP3   OH2  608   3.311   5.982   0.305  0.3476  0.1859 -0.4355
  215TIP3    H1  609   3.306   6.077   0.293  0.1881  0.0872 -1.1860
  215TIP3    H2  610   3.236   5.960   0.360  0.1650  0.4463 -0.5795
  216TIP3   OH2  611   4.662   2.438   3.842  0.0106  0.3299  0.1336
  216TIP3    H1  612   4.715   2.515   3.819  2.6766 -1.1333  0.8638
  216TIP3    H2  613   4.705   2.402   3.919 -1.3665 -1.7055  0.0169
  217TIP3   OH2  614   2.414   5.504   4.044  0.2144 -0.3841 -0.0193
  217TIP3    H1  615   2.361   5.505   4.124 -0.6046 -0.9543 -0.5467
  217TIP3    H2  616   2.488   5.562   4.064 -0.0467 -0.4151  1.1014
  218TIP3   OH2  617   4.758   2.921   2.931 -0.2080  0.4999  0.4349
  218TIP3    H1  618   4.727   2.894   3.017  0.5494 -1.4170  0.1714
  218TIP3    H2  619   4.698   2.877   2.870  1.3775 -1.1375 -0.0242
  219TIP3   OH2  620   6.701   4.219   4.975 -0.2542  0.0472 -0.2285
  219TIP3    H1  621   6.762   4.209   4.902  0.8704 -1.0117  0.8016
  219TIP3    H2  622   6.638   4.147   4.964  0.2236 -0.4316  0.1129
  220TIP3   OH2  623   1.606   3.686   4.678  1.0442 -0.0273  0.4450
  220TIP3    H1  624   1.576   3.597   4.661 -0.9949  0.8348 -0.9049
  220TIP3    H2  625   1.599   3.730   4.593 -1.3870  2.2961  1.6776
  221TIP3   OH2  626   2.089   5.988   5.809  0.0879  0.0513 -0.5472
  221TIP3    H1  627   2.002   6.008   5.845  0.4356  0.1539  0.2619
  221TIP3    H2  628   2.072   5.957   5.721 -0.6236  2.0221 -1.1602
  222TIP3   OH2  629   4.751   4.189   5.672 -0.6184  0.2903 -0.2893
  222TIP3    H1  630   4.837   4.159   5.700 -1.0058 -0.9796 -0.3988
  222TIP3    H2  631   4.768   4.263   5.614  0.4541 -0.5930 -1.1294
  223TIP3   OH2  632   3.464   4.419   0.472 -0.4731  0.7756 -0.2967
  223TIP3    H1  633   3.400   4.370   0.419 -0.6332 -1.0763  1.4806
  223TIP3    H2  634   3.549   4.396   0.434 -0.4414 -1.9568  1.1554
  224TIP3   OH2  635   1.709   4.963   1.592 -0.1987 -0.5123 -0.0289
  224TIP3    H1  636   1.643   4.928   1.653 -1.8798 -1.7147 -2.3813
  224TIP3    H2  637   1.775   4.894   1.587 -0.2616 -0.5863  0.1352
  225TIP3   OH2  638   3.128   1.253   1.465  0.4728 -0.5613  0.4080
  225TIP3    H1  639   3.146   1.191   1.535  1.6115  0.8510  1.4173
  225TIP3    H2  640   3.061   1.311   1.500  1.0039  0.1140  0.3435
  226TIP3   OH2  641   6.428   4.763   2.226 -0.0745 -0.6656 -0.4205
  226TIP3    H1  642   6.423   4.831   2.293 -1.5461  0.6242 -1.7487
  226TIP3    H2  643   6.473   4.690   2.268  0.1940  0.5752  1.5346
  227TIP3   OH2  644   2.685   5.503   3.698 -0.3244 -0.6915  0.4515
  227TIP3    H1  645   2.710   5.507   3.606  1.7190  1.4555  1.0163
  227TIP3    H2  646   2.596   5.468   3.697 -0.3516 -0.7556 -2.3098
  228TIP3   OH2  647   6.106   1.578   2.765  0.0275  0.4908 -0.4100
  228TIP3    H1  648   6.012   1.558   2.763  0.2673 -0.8520  0.6046
  228TIP3    H2  649   6.142   1.531   2.690 -0.0192  0.4859 -0.4296
  229TIP3   OH2  650   0.756   0.519   5.287  0.8249  0.1917 -0.2033
  229TIP3    H1  651   0.712   0.434   5.284 -2.3911  1.7128 -0.1448
  229TIP3    H2  652   0.735   0.560   5.203 -0.3942  2.1060  0.9590
  230TIP3   OH2  653   4.551   1.275   4.494 -0.0386  0.2318 -0.6019
  230TIP3    H1  654   4.518   1.265   4.584 -0.7865  2.0723 -0.6409
  230TIP3    H2  655   4.644   1.297   4.505 -0.1769  0.6550 -0.2785
  231TIP3   OH2  656   2.041   0.264   1.222 -0.4009 -0.3660  0.5049
  231TIP3    H1  657   2.099   0.338   1.202 -0.3557 -0.7468 -0.9352
  231TIP3    H2  658   2.093   0.186   1.200 -1.3885 -0.7119 -0.7414
  232TIP3   OH2  659   7.169   3.619   2.468 -0.1466 -0.1669 -0.4864
  232TIP3    H1  660   7.144   3.572   2.548  0.6610  0.8428  0.3906
  232TIP3    H2  661   7.212   3.553   2.414  0.0685 -0.6791  0.2903
  233TIP3   OH2  662   4.610   0.490   4.544 -0.0102 -0.0527  0.9192
  233TIP3    H1  663   4.684   0.455   4.593  0.4650 -2.2247 -1.1859
  233TIP3    H2  664   4.541   0.425   4.556 -0.6726  0.5907  0.6469
  234TIP3   OH2  665   6.415   5.961   0.328 -0.2822 -0.0478 -0.0370
  234TIP3    H1  666   6.338   5.930   0.376 -0.4233  0.1573 -0.1322
  234TIP3    H2  667   6.489   5.937   0.384 -0.4966  0.9335  0.6873
  235TIP3   OH2  668   5.933   2.022   1.394 -0.2270 -0.2067  0.3970
  235TIP3    H1  669   5.955   2.065   1.476 -0.8758 -0.9080  0.9510
  235TIP3    H2  670   5.946   1.928   1.411  0.0156 -0.3317 -0.4182
  236TIP3   OH2  671   6.819   5.823   4.329 -0.2247 -0.0188 -0.1129
  236TIP3    H1  672   6.754   5.894   4.333 -1.1275 -0.8289 -0.0123
  236TIP3    H2  673   6.802   5.771   4.407 -0.9889 -1.5321 -1.2299
  237TIP3   OH2  674   2.494   3.288   4.885 -0.3191 -0.0725  0.5826
  237TIP3    H1  675   2.581   3.254   4.862  0.8843  2.6840  0.6695
  237TIP3    H2  676   2.468   3.341   4.809 -0.2561  1.9753  1.8958
  238TIP3   OH2  677   5.490   6.725   4.208  0.1985  0.0423 -0.0690
  238TIP3    H1  678   5.550   6.735   4.134 -1.3186  1.2783 -1.2080
  238TIP3    H2  679   5.445   6.642   4.193  1.6220 -0.9532  0.8555
  239TIP3   OH2  680   6.180   2.465   2.002 -0.5553 -0.5254  0.2800
  239TIP3    H1  681   6.153   2.521   2.074 -0.1604  0.6066 -0.4281
  239TIP3    H2  682   6.274   2.452   2.016 -0.7565 -1.5426  0.7821
  240TIP3   OH2  683   6.326   4.336   2.803 -0.0160  0.7939  0.2814
  240TIP3    H1  684   6.341   4.392   2.727  2.7408 -2.1692 -1.6508
  240TIP3    H2  685   6.375   4.378   2.874 -1.0431  2.6282 -0.0492
  241TIP3   OH2  686   5.402   3.294   1.825  0.1157  0.1687 -0.6477
  241TIP3    H1  687   5.341   3.330   1.889  0.5102 -0.2476 -0.0109
  241TIP3    H2  688   5.488   3.326   1.853  0.4781 -1.2098 -0.0561
  242TIP3   OH2  689   6.372   6.607   3.957 -0.1271 -0.0457  0.1455
  242TIP3    H1  690   6.411   6.555   3.887 -2.4206 -0.6414 -0.7760
  242TIP3    H2  691   6.394   6.697   3.935 -2.3905  0.0019 -2.5724
  243TIP3   OH2  692   4.840   1.003   5.053 -0.0554  0.0830  0.7448
  243TIP3    H1  693   4.925   1.002   5.097  0.4985 -0.6699 -0.2994
  243TIP3    H2  694   4.860   1.031   4.964 -0.7796 -0.8739  0.2717
  244TIP3   OH2  695   0.673   4.796   4.996  0.0198 -0.2774 -0.0568
  244TIP3    H1  696   0.746   4.804   5.058 -0.7973  0.1569  0.8758
  244TIP3    H2  697   0.660   4.702   4.985  1.3954 -0.3750 -1.0676
  245TIP3   OH2  698   1.904   2.405   1.179  0.3498  1.3924 -0.3608
  245TIP3    H1  699   1.964   2.434   1.247 -0.8386 -0.0351  1.3950
  245TIP3    H2  700   1.952   2.337   1.132  0.4957  0.9867  0.3584
  246TIP3   OH2  701   0.342   4.520   3.307 -0.4034 -0.0851  0.2134
  246TIP3    H1  702   0.387   4.519   3.223 -0.0949  0.0794  0.3761
  246TIP3    H2  703   0.289   4.440   3.307 -1.4912  0.5936 -0.7265
  247TIP3   OH2  704   0.271   0.311   3.902  0.2107 -0.1202 -0.3039
  247TIP3    H1  705   0.285   0.265   3.985 -0.5528  0.9430  0.4391
  247TIP3    H2  706   0.331   0.269   3.841  1.0362 -0.6969  0.8709
  248TIP3   OH2  707   5.035   0.331   5.891 -0.1021 -0.4192  0.0410
  248TIP3    H1  708   5.128   0.347   5.875 -0.1942  0.1663  0.0519
  248TIP3    H2  709   5.006   0.279   5.816 -0.5071  2.2044 -1.7645
  249TIP3   OH2  710   0.848   2.074   3.545 -0.6046  0.5948  0.3558
  249TIP3    H1  711   0.922   2.039   3.595 -1.6965 -0.0807  1.5762
  249TIP3    H2  712   0.771   2.044   3.594 -1.7148  0.5226 -1.3679
  250TIP3   OH2  713   3.663   2.241   5.873 -0.0024  0.0972  0.0773
  250TIP3    H1  714   3.739   2.184   5.865 -0.0954 -0.0205  0.0234
  250TIP3    H2  715   3.618   2.233   5.788  1.8306  2.9353 -1.3009
  251TIP3   OH2  716   2.707   3.048   3.592 -0.4415 -0.1776 -0.1436
  251TIP3    H1  717   2.679   3.126   3.638  1.6598  2.7434 -3.3235
  251TIP3    H2  718   2.670   3.057   3.504  3.1365 -0.4664 -1.8611
  252TIP3   OH2  719   0.787   5.492   2.371  0.2520 -0.2768  0.4195
  252TIP3    H1  720   0.883   5.496   2.376  0.3200  2.5445 -0.6536
  252TIP3    H2  721   0.770   5.446   2.289  0.9019  1.9181 -1.0610
  253TIP3   OH2  722   0.316   6.406   4.257 -0.0731 -0.1500 -0.5066
  253TIP3    H1  723   0.256   6.481   4.257  0.1574  0.0373 -0.4265
  253TIP3    H2  724   0.395   6.439   4.214 -0.4573 -0.7486 -1.7104
  254TIP3   OH2  725   4.564   2.225   2.638  0.2915 -0.0171  0.0208
  254TIP3    H1  726   4.650   2.208   2.600  0.1304  0.4239 -0.5451
  254TIP3    H2  727   4.547   2.149   2.693  2.4348  1.2757  2.7066
  255TIP3   OH2  728   0.943   1.303   3.911 -0.0056  0.2782 -1.2616
  255TIP3    H1  729   0.985   1.388   3.896  3.2813 -0.7729  0.8264
  255TIP3    H2  730   0.975   1.248   3.839  0.0365  0.1508 -1.1459
  256TIP3   OH2  731   0.157   0.095   4.403  0.0652 -0.2066  0.6786
  256TIP3    H1  732   0.101   0.021   4.427 -0.6050  0.2976  0.7050
  256TIP3    H2  733   0.196   0.069   4.320 -1.2191 -0.0332  0.0026
  257TIP3   OH2  734   2.971   5.450   2.618  0.3921  0.2570  0.3349
  257TIP3    H1  735   3.061   5.481   2.604  0.3689 -0.4589 -1.8670
  257TIP3    H2  736   2.981   5.371   2.671  0.9232  0.9431  1.2867
  258TIP3   OH2  737   6.762   3.105   2.838 -0.2814  0.0327 -0.3287
  258TIP3    H1  738   6.743   3.011   2.832  1.0450 -0.3188  0.6739
  258TIP3    H2  739   6.788   3.130   2.749  0.4596 -0.7991 -0.3512
  259TIP3   OH2  740   1.127   1.990   4.012  0.2327  0.4528  0.5239
  259TIP3    H1  741   1.143   1.940   3.932  0.8484  0.4554  0.6469
  259TIP3    H2  742   1.031   1.999   4.015  0.0240 -1.5415  0.9972
  260TIP3   OH2  743   0.619   6.722   5.212 -0.1840  0.0147 -0.1303
  260TIP3    H1  744   0.625   6.682   5.299 -1.5279 -0.1411 -0.0853
  260TIP3    H2  745   0.571   6.657   5.159  2.5461 -0.9178 -1.6492
  261TIP3   OH2  746   4.440   6.640   1.768  0.0050 -0.2071  0.2634
  261TIP3    H1  747   4.388   6.613   1.693 -0.0142 -2.3295  0.9744
  261TIP3    H2  748   4.529   6.650   1.734 -0.1344 -0.4859 -0.1828
  262TIP3   OH2  749   5.743   4.777   4.516  0.2572  0.1211 -0.2160
  262TIP3    H1  750   5.672   4.712   4.512  0.7650 -0.3660 -2.2668
  262TIP3    H2  751   5.822   4.725   4.530  0.5167  0.4207 -0.5684
  263TIP3   OH2  752   6.033   4.438   2.492 -0.5316  0.0442  0.0358
  263TIP3    H1  753   6.034   4.422   2.397  0.6183 -0.0739  0.0626
  263TIP3    H2  754   5.948   4.404   2.520 -0.3532 -1.1273 -0.7491
  264TIP3   OH2  755   4.373   4.202   0.074 -0.4074  0.5465 -0.2439
  264TIP3    H1  756   4.395   4.135   0.138 -1.2284 -1.0841 -1.5752
  264TIP3    H2  757   4.312   4.260   0.120 -0.2327 -0.0306  0.7397
  265TIP3   OH2  758   5.454   1.720   0.736  0.0627  0.1959 -0.3784
  265TIP3    H1  759   5.448   1.756   0.647  2.0623  1.3797 -0.0781
  265TIP3    H2  760   5.517   1.649   0.728 -0.9787 -0.7744 -0.1907
  266TIP3   OH2  761   3.308   5.945   4.654  0.0506  0.4376  0.3235
  266TIP3    H1  762   3.354   5.862   4.641 -0.6651  0.1049 -0.1596
  266TIP3    H2  763   3.250   5.953   4.578 -0.8199  0.7495  0.9980
  267TIP3   OH2  764   2.016   4.299   1.439  0.1680  0.6902 -0.2010
  267TIP3    H1  765   1.985   4.378   1.395 -0.6654  1.6606  1.9983
  267TIP3    H2  766   1.950   4.281   1.505  2.1822  0.3612  1.8410
  268TIP3   OH2  767   2.891   0.237   5.266  0.2227  0.2737 -0.9210
  268TIP3    H1  768   2.921   0.148   5.281 -1.4012 -0.0036  1.0903
  268TIP3    H2  769   2.950   0.292   5.317 -0.3454  0.0826 -0.0411
  269TIP3   OH2  770   3.972   1.773   1.192  0.7710  0.5954  0.2541
  269TIP3    H1  771   3.882   1.740   1.188  1.4352 -1.2021 -1.6735
  269TIP3    H2  772   4.000   1.755   1.282 -0.5809  0.6135  0.7104
  270TIP3   OH2  773   6.721   3.809   2.912 -0.8970  0.4448 -0.1330
  270TIP3    H1  774   6.640   3.837   2.869 -1.2061  0.1771  0.2640
  270TIP3    H2  775   6.790   3.856   2.866 -1.3273  1.1319 -0.0946
  271TIP3   OH2  776   2.061   0.888   4.950  0.0847  0.2961  0.1357
  271TIP3    H1  777   2.152   0.860   4.938  1.4771  3.7238  1.4345
  271TIP3    H2  778   2.037   0.854   5.036  0.3683 -0.0571  0.0786
  272TIP3   OH2  779   6.812   0.566   1.255 -0.1691 -0.1249 -0.3165
  272TIP3    H1  780   6.766   0.493   1.212 -1.8609  1.0118 -0.5149
  272TIP3    H2  781   6.833   0.626   1.184 -0.4534  0.4561  0.0898
  273TIP3   OH2  782   5.917   3.615   0.474 -0.6222  0.1907  0.0836
  273TIP3    H1  783   5.961   3.546   0.424 -1.2951  0.4611 -0.9080
  273TIP3    H2  784   5.824   3.595   0.466 -0.7390 -1.3252  3.5188
  274TIP3   OH2  785   0.217   4.607   2.982 -0.0201  0.0111  0.4010
  274TIP3    H1  786   0.126   4.625   3.008 -0.0742 -1.4206  1.3060
  274TIP3    H2  787   0.266   4.684   3.011 -0.5660 -0.2609  2.1442
  275TIP3   OH2  788   4.853   0.516   3.270 -0.1423 -0.0498  0.1181
  275TIP3    H1  789   4.892   0.453   3.209  0.0666 -0.1490  0.3489
  275TIP3    H2  790   4.929   0.559   3.311 -0.2170  2.3860 -2.0709
  276TIP3   OH2  791   0.305   6.561   2.234 -0.3404 -0.4134  0.6080
  276TIP3    H1  792   0.267   6.612   2.162 -0.1854 -0.7745  0.2656
  276TIP3    H2  793   0.304   6.620   2.309  1.3292  0.6675 -0.1771
  277TIP3   OH2  794   7.140   2.489   1.004  0.1015  0.0472  0.4822
  277TIP3    H1  795   7.057   2.523   1.037 -0.2506 -1.3084  1.0748
  277TIP3    H2  796   7.137   2.505   0.910 -0.1616  1.3646  0.7075
  278TIP3   OH2  797   3.548   3.055   2.748 -0.2116  0.0323  0.7740
  278TIP3    H1  798   3.611   2.984   2.738 -0.3572  0.1014 -0.8241
  278TIP3    H2  799   3.592   3.132   2.711  0.1600  0.9551  2.9418
  279TIP3   OH2  800   3.065   6.643   1.400  0.4158 -0.0417 -0.0226
  279TIP3    H1  801   2.979   6.602   1.410  0.0005  0.9195  0.4524
  279TIP3    H2  802   3.048   6.726   1.356  1.1388  0.0424 -0.1663
  280TIP3   OH2  803   0.320   0.791   4.880 -0.1366  0.1431 -0.2175
  280TIP3    H1  804   0.346   0.703   4.907 -0.0923  0.1318 -0.2958
  280TIP3    H2  805   0.234   0.805   4.920 -0.2888 -0.0597 -0.4723
  281TIP3   OH2  806   4.724   1.347   4.137 -0.0226  0.0830 -0.2510
  281TIP3    H1  807   4.714   1.301   4.054  1.6850 -0.0556 -0.4068
  281TIP3    H2  808   4.709   1.279   4.203  0.5648 -0.2659 -0.4673
  282TIP3   OH2  809   3.541   2.400   3.062 -0.2490  0.3602  0.0759
  282TIP3    H1  810   3.543   2.485   3.019  1.8276 -0.3721 -1.4424
  282TIP3    H2  811   3.514   2.339   2.993  2.0532 -0.6881  0.0089
  283TIP3   OH2  812   0.393   1.729   0.334  0.0823  0.0949 -0.1922
  283TIP3    H1  813   0.399   1.737   0.238  0.7751  0.2100 -0.1447
  283TIP3    H2  814   0.338   1.652   0.348 -0.5638  0.4563 -0.6796
  284TIP3   OH2  815   3.777   1.839   4.735  0.4112 -0.0471  0.5320
  284TIP3    H1  816   3.865   1.845   4.772  0.2250  1.9960  0.7482
  284TIP3    H2  817   3.790   1.803   4.647  1.4517  0.2170  0.5707
  285TIP3   OH2  818   6.799   6.700   0.725  0.5244 -0.3426 -0.1940
  285TIP3    H1  819   6.798   6.652   0.643 -1.3496  0.0717 -0.4643
  285TIP3    H2  820   6.819   6.791   0.700  1.9867 -0.5648  0.0754
  286TIP3   OH2  821   0.603   2.270   3.491 -0.0670 -0.2299 -0.0128
  286TIP3    H1  822   0.687   2.227   3.511  0.7810  0.7195 -1.3910
  286TIP3    H2  823   0.608   2.354   3.536 -0.1110 -0.0127 -0.4124
  287TIP3   OH2  824   3.217   0.398   2.546 -0.0609 -0.3233 -0.3126
  287TIP3    H1  825   3.268   0.317   2.548  0.0251 -0.2948 -1.0884
  287TIP3    H2  826   3.133   0.373   2.510  0.4801  0.1876 -2.0495
  288TIP3   OH2  827   6.349   3.334   0.740  0.3244 -0.3268 -0.2108
  288TIP3    H1  828   6.258   3.348   0.767 -0.1793 -2.1889 -0.7856
  288TIP3    H2  829   6.355   3.375   0.654  0.4491  1.0391  0.4329
  289TIP3   OH2  830   0.688   4.371   2.050  0.2358 -0.5667  0.7969
  289TIP3    H1  831   0.671   4.451   2.101 -0.8277 -0.8394  0.8942
  289TIP3    H2  832   0.743   4.318   2.108  1.3269  0.2639  0.5552
  290TIP3   OH2  833   2.921   2.347   5.000 -0.2605  0.3533 -0.4135
  290TIP3    H1  834   2.959   2.365   4.914 -2.5822  2.3520 -1.1442
  290TIP3    H2  835   2.849   2.286   4.982 -0.1271 -0.0206  0.2792
  291TIP3   OH2  836   5.746   1.926   2.379 -0.1667 -0.0945  0.2055
  291TIP3    H1  837   5.718   1.849   2.329 -1.7995 -0.5321  1.6917
  291TIP3    H2  838   5.802   1.975   2.319 -0.4380 -1.6003 -1.3394
  292TIP3   OH2  839   4.996   5.171   1.670 -0.1782  0.3966 -0.1711
  292TIP3    H1  840   4.988   5.095   1.612  0.5843 -0.6816  1.0716
  292TIP3    H2  841   4.931   5.156   1.739 -0.1852  0.9979 -0.0400
  293TIP3   OH2  842   1.566   1.835   0.666  0.2787  0.6513  0.1432
  293TIP3    H1  843   1.512   1.863   0.740  0.2362 -1.0647  0.8092
  293TIP3    H2  844   1.656   1.846   0.696  0.2751 -1.0013  0.9121
  294TIP3   OH2  845   4.720   4.076   3.965 -0.3082 -0.0116  0.1038
  294TIP3    H1  846   4.724   4.150   3.905  2.4881 -0.3952 -0.3421
  294TIP3    H2  847   4.743   4.000   3.911 -0.8641 -0.8649  1.0224
  295TIP3   OH2  848   4.374   2.799   0.245  0.4859 -0.2909  0.0843
  295TIP3    H1  849   4.312   2.853   0.295 -1.5710 -2.5880  0.2299
  295TIP3    H2  850   4.413   2.741   0.310  1.3995 -0.1105 -0.2969
  296TIP3   OH2  851   6.829   4.495   1.667 -0.2586  0.0638 -1.0395
  296TIP3    H1  852   6.856   4.405   1.648  0.9446  0.2243 -0.2595
  296TIP3    H2  853   6.887   4.522   1.738 -1.1248  1.1996 -0.7365
  297TIP3   OH2  854   5.368   5.164   2.092 -0.0134  0.2610 -0.5121
  297TIP3    H1  855   5.386   5.090   2.149  1.4601  0.3714 -0.7997
  297TIP3    H2  856   5.436   5.160   2.025  0.7238  2.4438  0.0248
  298TIP3   OH2  857   3.177  -0.021   3.646  0.5954  0.0061 -0.2336
  298TIP3    H1  858   3.148  -0.009   3.556  1.3493  0.4777 -0.4232
  298TIP3    H2  859   3.199   0.067   3.677  0.7567 -0.2033  0.2590
  299TIP3   OH2  860   6.795   5.393   2.012 -0.4774  0.0428 -0.1416
  299TIP3    H1  861   6.793   5.323   2.077  0.0688  0.7859  0.6896
  299TIP3    H2  862   6.734   5.459   2.045  1.7663  1.6577  1.0981
  300TIP3   OH2  863   3.007   1.625   0.997 -0.0768 -0.2154 -0.0402
  300TIP3    H1  864   2.999   1.552   0.936 -1.9784 -0.2444  0.1889
  300TIP3    H2  865   3.020   1.583   1.082  2.0318 -0.1828 -0.2910
  301TIP3   OH2  866   6.791   1.281   1.908 -0.3238 -0.0206  0.2200
  301TIP3    H1  867   6.737   1.333   1.848 -0.2139 -1.5074 -1.2558
  301TIP3    H2  868   6.733   1.260   1.981 -1.6064 -1.0577 -1.0356
  302TIP3   OH2  869   1.360   6.673   3.095 -0.2155 -0.2533  0.5512
  302TIP3    H1  870   1.435   6.726   3.070 -0.1178  0.1505  1.6503
  302TIP3    H2  871   1.305   6.732   3.147 -1.9857 -0.1352 -1.3290
  303TIP3   OH2  872   4.192   3.022   2.229 -0.5120 -0.2351  0.5483
  303TIP3    H1  873   4.148   3.008   2.146  0.1769  0.9955 -0.0464
  303TIP3    H2  874   4.125   3.059   2.287 -1.0017 -1.1392  0.5678
  304TIP3   OH2  875   6.459   4.623   3.246  0.4413  0.0753 -0.0852
  304TIP3    H1  876   6.521   4.603   3.317  0.5839  0.7930 -0.0002
  304TIP3    H2  877   6.493   4.703   3.206  0.1680 -0.1322 -0.7460
  305TIP3   OH2  878   1.480   0.207   3.866 -0.0366  0.0217 -0.3342
  305TIP3    H1  879   1.545   0.142   3.892  0.3401  0.2319 -0.7481
  305TIP3    H2  880   1.496   0.281   3.924 -0.3869 -0.1987  0.0550
  306TIP3   OH2  881   6.154   3.117   5.362  0.3472  0.0340 -0.7420
  306TIP3    H1  882   6.187   3.118   5.451  0.4713 -1.4100 -0.7413
  306TIP3    H2  883   6.176   3.203   5.326  1.3513  0.1977  0.2333
  307TIP3   OH2  884   4.852   1.802   5.470 -0.4633  0.4123  0.4572
  307TIP3    H1  885   4.948   1.798   5.470 -0.4563  0.5618  0.6569
  307TIP3    H2  886   4.827   1.768   5.557 -0.5861  0.5206  0.4642
  308TIP3   OH2  887   4.998   2.945   4.577 -0.2557  0.5100  0.1608
  308TIP3    H1  888   4.929   3.002   4.610 -0.1717  1.2038 -0.8255
  308TIP3    H2  889   5.078   2.997   4.581  0.2235 -0.2547  1.1994
  309TIP3   OH2  890   5.658   0.804   5.633 -0.0221 -0.3821 -0.0173
  309TIP3    H1  891   5.727   0.771   5.691  0.4325 -0.1882 -0.4336
  309TIP3    H2  892   5.607   0.727   5.610  1.8229 -1.1074 -2.0520
  310TIP3   OH2  893   1.671   0.847   5.107  0.0137 -0.0368 -0.4770
  310TIP3    H1  894   1.607   0.778   5.089  0.7743 -0.8479 -0.1105
  310TIP3    H2  895   1.722   0.855   5.026  0.0394 -0.0221 -0.4591
  311TIP3   OH2  896   1.401   4.286   3.392 -0.0101 -0.3431 -0.1942
  311TIP3    H1  897   1.403   4.368   3.343  1.4895 -0.2366 -0.0229
  311TIP3    H2  898   1.478   4.238   3.360 -0.9734 -1.7851 -0.4438
  312TIP3   OH2  899   6.360   2.082   1.238  0.2159 -0.0234  0.5635
  312TIP3    H1  900   6.355   1.993   1.272 -1.1311  1.3240  4.3700
  312TIP3    H2  901   6.453   2.105   1.243  0.1246  0.1772  4.0989
  313TIP3   OH2  902   5.035   3.605   2.070  0.1947  0.1260  0.0565
  313TIP3    H1  903   4.995   3.689   2.092  0.2789 -0.2136  1.6099
  313TIP3    H2  904   5.060   3.567   2.154  2.1729 -0.4762 -0.7381
  314TIP3   OH2  905   6.070   1.588   3.857  0.1030 -0.5919  0.1989
  314TIP3    H1  906   6.161   1.615   3.864  0.0190 -0.4711  0.8580
  314TIP3    H2  907   6.068   1.528   3.783  0.4467  0.5703 -0.7894
  315TIP3   OH2  908   4.706   4.368   4.391  0.1887  0.7844 -0.3883
  315TIP3    H1  909   4.617   4.391   4.364 -0.9014 -1.6978  0.7986
  315TIP3    H2  910   4.751   4.347   4.310 -0.4650  1.4903 -0.9527
  316TIP3   OH2  911   3.568   6.505   1.866  0.1600 -0.3549  0.0435
  316TIP3    H1  912   3.487   6.455   1.872  0.9651 -1.7233  0.1836
  316TIP3    H2  913   3.624   6.469   1.935  1.0735  0.1743 -0.3905
  317TIP3   OH2  914   5.202   5.992   0.746  0.1577  0.1662  0.2324
  317TIP3    H1  915   5.216   5.899   0.729  1.3012  0.5477 -1.1001
  317TIP3    H2  916   5.176   6.029   0.661  0.2216  1.1550  0.6212
  318TIP3   OH2  917   2.811   3.221   2.980 -0.2639  0.2997 -0.3906
  318TIP3    H1  918   2.719   3.243   2.964 -0.7017 -1.2495 -0.1602
  318TIP3    H2  919   2.837   3.171   2.903  0.1931  0.1953 -0.1668
  319TIP3   OH2  920   3.712   4.308   2.974 -0.2807  0.1467  0.0716
  319TIP3    H1  921   3.617   4.317   2.961 -0.1785  0.1024 -0.7988
  319TIP3    H2  922   3.721   4.230   3.028 -0.6627 -1.1983 -1.6904
  320TIP3   OH2  923   4.410   5.331   3.701  0.2530  0.3104 -0.3853
  320TIP3    H1  924   4.334   5.348   3.755 -0.7607 -0.2763 -1.5649
  320TIP3    H2  925   4.442   5.418   3.677 -0.4637  0.5695 -0.4365
  321TIP3   OH2  926   2.483   0.233   3.364 -0.1011  0.3525  0.1747
  321TIP3    H1  927   2.540   0.293   3.411 -1.6702  1.1851  1.1117
  321TIP3    H2  928   2.542   0.178   3.313  1.4522  1.7699  0.3747
  322TIP3   OH2  929   4.738   4.779   3.071  0.0287 -0.2056  0.4379
  322TIP3    H1  930   4.748   4.684   3.078  0.9608 -0.0614  1.2289
  322TIP3    H2  931   4.825   4.811   3.047  0.0418  0.5397  1.3934
  323TIP3   OH2  932   6.863   2.153   3.890 -0.3511 -0.9520 -0.0113
  323TIP3    H1  933   6.856   2.230   3.834  1.8428 -0.4169  0.3811
  323TIP3    H2  934   6.790   2.162   3.952 -0.3955  0.5735 -0.2508
  324TIP3   OH2  935   5.830   5.418   4.421 -0.4972  0.2214 -0.1282
  324TIP3    H1  936   5.803   5.383   4.336  0.0342  1.1196 -0.6852
  324TIP3    H2  937   5.797   5.507   4.422 -1.3317 -0.0686  1.0317
  325TIP3   OH2  938   3.831   2.392   0.014  0.0343  0.0940  0.5718
  325TIP3    H1  939   3.773   2.337   0.067  2.2344 -0.9282  2.0607
  325TIP3    H2  940   3.843   2.342  -0.067 -1.4986  0.5588  0.0220
  326TIP3   OH2  941   6.035   5.617   5.651 -0.1357  0.5912  0.0033
  326TIP3    H1  942   5.941   5.616   5.670 -0.1979  0.1610 -0.3209
  326TIP3    H2  943   6.071   5.549   5.709  0.0598  1.1263  0.5265
  327TIP3   OH2  944   1.344   5.987   5.736  0.8164 -0.4043 -0.3481
  327TIP3    H1  945   1.428   5.981   5.782 -0.0782  0.9805  1.5688
  327TIP3    H2  946   1.326   5.898   5.707  3.1366 -0.6695 -1.2301
  328TIP3   OH2  947   1.165   1.452   1.147  0.7426 -0.0440 -0.0760
  328TIP3    H1  948   1.147   1.370   1.192 -0.9838 -0.6255 -1.6591
  328TIP3    H2  949   1.086   1.505   1.162  1.0026  0.5329 -0.6985
  329TIP3   OH2  950   5.874   3.736   1.370  0.0978  0.4116  0.6402
  329TIP3    H1  951   5.933   3.747   1.445  0.4153 -0.1254  0.4780
  329TIP3    H2  952   5.918   3.671   1.315 -0.1762  0.7450  0.0276
  330TIP3   OH2  953   2.164   6.029   0.202 -0.2949 -0.1277  0.3165
  330TIP3    H1  954   2.098   5.989   0.145 -0.3914 -1.5256  1.3538
  330TIP3    H2  955   2.236   5.965   0.202 -0.0163  0.1795  1.2080
  331TIP3   OH2  956   6.963   0.125   0.477  0.8174 -0.0335 -0.0713
  331TIP3    H1  957   7.012   0.149   0.398  1.4521 -0.6269  0.1288
  331TIP3    H2  958   7.004   0.044   0.507  0.4303  0.0579  0.7409
  332TIP3   OH2  959   0.726   2.738   4.965 -0.0478  0.2294  0.3700
  332TIP3    H1  960   0.702   2.792   4.890 -0.1582 -2.4484 -1.6839
  332TIP3    H2  961   0.817   2.761   4.984 -0.4750  2.0008  0.4582
  333TIP3   OH2  962   5.341   5.545   4.757  0.5913 -0.1978 -0.1640
  333TIP3    H1  963   5.316   5.537   4.849 -0.6307 -2.0606 -0.5892
  333TIP3    H2  964   5.412   5.481   4.746  2.2823  1.5706 -0.0805
  334TIP3   OH2  965   6.466   5.453   4.562 -0.0382 -0.6082 -0.2525
  334TIP3    H1  966   6.395   5.441   4.499 -1.1423 -1.2609  1.0763
  334TIP3    H2  967   6.493   5.365   4.586  0.2839 -0.3694  0.2823
  335TIP3   OH2  968   6.465   2.445   5.779 -0.0687  0.2092 -0.1651
  335TIP3    H1  969   6.474   2.474   5.869 -1.4552  0.1333  0.0167
  335TIP3    H2  970   6.465   2.349   5.784  1.1844  0.1887 -0.4000
  336TIP3   OH2  971   2.103   0.982   4.654  0.7118  0.4701 -0.0640
  336TIP3    H1  972   2.142   0.969   4.568  1.3269 -0.0774  0.2964
  336TIP3    H2  973   2.011   1.004   4.635  1.0976  1.4778 -0.9009
  337TIP3   OH2  974   7.037   1.064   3.911 -0.0117  0.4512 -0.4675
  337TIP3    H1  975   7.088   1.144   3.917  0.4242  0.4958 -3.3554
  337TIP3    H2  976   7.082   1.011   3.846 -0.6186 -1.9392  0.9087
  338TIP3   OH2  977   4.206   3.209   0.004  0.1091  0.5084 -0.4735
  338TIP3    H1  978   4.254   3.127  -0.005  0.0733  0.3000  0.9673
  338TIP3    H2  979   4.273   3.276   0.012  0.1386  0.6485 -1.7012
  339TIP3   OH2  980   3.793   0.217   5.439 -0.0862  0.2988  0.1981
  339TIP3    H1  981   3.858   0.149   5.455 -1.4088 -0.8855  0.7470
  339TIP3    H2  982   3.798   0.233   5.345  0.1943 -0.6307  0.0445
  340TIP3   OH2  983   0.800   4.760   1.167 -0.2439 -0.2000 -0.1458
  340TIP3    H1  984   0.730   4.791   1.109  0.1447  2.7545  0.7998
  340TIP3    H2  985   0.877   4.755   1.112 -0.6100 -0.7633 -0.6084
  341TIP3   OH2  986   6.896   4.623   3.508  0.3564 -0.3919 -0.3059
  341TIP3    H1  987   6.813   4.668   3.526  0.7237  0.8601 -1.5139
  341TIP3    H2  988   6.875   4.530   3.516 -0.7772 -0.0621  0.9299
  342TIP3   OH2  989   0.157   0.588   5.087 -0.9403  0.0852 -0.1270
  342TIP3    H1  990   0.227   0.562   5.028 -1.2145 -1.4185  0.1786
  342TIP3    H2  991   0.118   0.665   5.045  0.6456  0.7473 -0.4660
  343TIP3   OH2  992   2.509   5.043   2.777  0.2978  0.0776 -0.1751
  343TIP3    H1  993   2.559   4.977   2.824  0.3420 -0.9661 -1.6254
  343TIP3    H2  994   2.448   4.993   2.723 -1.5092  1.2981  0.6595
  344TIP3   OH2  995   6.521   1.384   5.283 -0.1929 -0.4451 -0.1727
  344TIP3    H1  996   6.570   1.321   5.337  0.3168  0.6142  0.6308
  344TIP3    H2  997   6.578   1.400   5.208 -0.3824 -1.0289 -0.4486
  345TIP3   OH2  998   1.609   4.196   0.942 -0.0720 -0.7836 -0.1036
  345TIP3    H1  999   1.619   4.194   1.038  2.6353 -1.2785 -0.3074
  345TIP3    H2 1000   1.609   4.104   0.916 -0.9731 -0.6543 -0.6013
  346TIP3   OH2 1001   1.283   6.087   2.965 -0.1702 -0.2924  0.3528
  346TIP3    H1 1002   1.339   6.139   2.908 -2.1433  0.9486 -0.5979
  346TIP3    H2 1003   1.332   6.078   3.047  1.5412  0.3550 -0.5612
  347TIP3   OH2 1004   7.164   2.936   4.428 -0.2240 -0.5423 -0.3146
  347TIP3    H1 1005   7.076   2.899   4.433 -0.3579 -0.7283 -2.8511
  347TIP3    H2 1006   7.220   2.862   4.406  0.2523 -0.0832 -0.6704
  348TIP3   OH2 1007   0.508   0.007   0.614 -0.7592  0.1443  0.4470
  348TIP3    H1 1008   0.582  -0.053   0.621 -2.2020 -1.6876  0.9301
  348TIP3    H2 1009   0.527   0.061   0.538  0.7100 -0.8037  0.1113
  349TIP3   OH2 1010   2.180   0.819   1.799  0.2158 -0.2535 -0.1703
  349TIP3    H1 1011   2.188   0.729   1.830  0.1958 -0.2064 -0.0285
  349TIP3    H2 1012   2.112   0.858   1.855 -0.0830 -0.2754 -0.5138
  350TIP3   OH2 1013   5.770   2.883   5.549  0.0546  0.0744  0.2388
  350TIP3    H1 1014   5.733   2.874   5.636 -1.4852  1.2893 -0.2479
  350TIP3    H2 1015   5.695   2.896   5.491  1.1535  3.4108 -0.6946
  351TIP3   OH2 1016   6.516   4.337   4.613 -0.3254 -0.3045  0.6905
  351TIP3    H1 1017   6.467   4.258   4.592  1.2862 -0.8713 -1.3143
  351TIP3    H2 1018   6.600   4.305   4.646 -0.5635  0.6204  2.2889
  352TIP3   OH2 1019   5.087   4.519   4.561 -0.3026  0.5301  0.3484
  352TIP3    H1 1020   5.065   4.456   4.629  0.8130 -0.3618 -0.0861
  352TIP3    H2 1021   5.148   4.579   4.604  1.3605 -0.7435 -0.1518
  353TIP3   OH2 1022   1.273   2.336   5.443 -0.5502  0.0159 -0.3517
  353TIP3    H1 1023   1.205   2.351   5.508 -1.6722  1.9378 -1.8528
  353TIP3    H2 1024   1.225   2.315   5.363  0.6620  0.5397 -1.2489
  354TIP3   OH2 1025   1.182   3.689   2.022 -0.1623  0.1531  0.2501
  354TIP3    H1 1026   1.202   3.618   2.083 -1.2172  0.7307  1.3223
  354TIP3    H2 1027   1.266   3.734   2.010  0.5806 -1.4184 -0.6836
  355TIP3   OH2 1028   6.623   3.644   2.618 -0.2191  0.1173  0.9273
  355TIP3    H1 1029   6.605   3.695   2.698  1.5970 -0.5784  1.8291
  355TIP3    H2 1030   6.684   3.575   2.647 -0.5889 -0.9839 -0.7973
  356TIP3   OH2 1031   1.875   3.396   1.012 -0.0210 -0.0119 -0.0744
  356TIP3    H1 1032   1.917   3.384   1.097  1.1295 -1.6251 -0.8066
  356TIP3    H2 1033   1.946   3.424   0.954  0.0094 -2.1626 -1.1965
  357TIP3   OH2 1034   5.392   0.639   1.767  0.1223  0.3984  0.5024
  357TIP3    H1 1035   5.318   0.699   1.778 -0.2805  0.1029 -0.4639
  357TIP3    H2 1036   5.420   0.652   1.676  1.0601  0.2726  0.7602
  358TIP3   OH2 1037   3.513   6.361   1.515 -0.2213  0.1322 -0.1889
  358TIP3    H1 1038   3.514   6.333   1.423 -0.8356  1.0682 -0.4972
  358TIP3    H2 1039   3.480   6.451   1.512  0.3071  0.3741  0.9023
  359TIP3   OH2 1040   3.482   4.284   0.716 -0.1906 -0.1960  0.2303
  359TIP3    H1 1041   3.463   4.367   0.672 -0.0185  0.2093  0.8950
  359TIP3    H2 1042   3.399   4.260   0.757  0.2227  0.6988  1.7075
  360TIP3   OH2 1043   4.843   3.018   5.593 -0.4113  0.5107  0.3083
  360TIP3    H1 1044   4.826   3.068   5.673  0.5761 -1.9315  2.2076
  360TIP3    H2 1045   4.765   3.029   5.540 -0.4710  3.4716  0.8678
  361TIP3   OH2 1046   5.701   5.393   0.386 -0.7724 -0.0808  0.0969
  361TIP3    H1 1047   5.757   5.471   0.386  0.6109 -1.0432  0.3586
  361TIP3    H2 1048   5.612   5.428   0.389 -0.1551  1.4805  2.1664
  362TIP3   OH2 1049   7.193   2.133   5.344 -0.7441 -0.3902  0.0015
  362TIP3    H1 1050   7.124   2.170   5.399 -1.1429 -2.4038  0.9508
  362TIP3    H2 1051   7.241   2.075   5.402  1.3040  0.3741 -0.8461
  363TIP3   OH2 1052   6.865   4.721   3.867 -0.3317 -0.4750 -0.0174
  363TIP3    H1 1053   6.852   4.763   3.952  3.5734 -0.3075  0.6849
  363TIP3    H2 1054   6.903   4.635   3.889 -1.0850 -1.2578 -1.5998
  364TIP3   OH2 1055   6.368   6.642   3.055  0.0087  0.9098 -0.3953
  364TIP3    H1 1056   6.305   6.702   3.094 -1.0737 -0.5591  0.2258
  364TIP3    H2 1057   6.449   6.657   3.104 -1.4846 -1.4065  3.1996
  365TIP3   OH2 1058   5.015   1.017   3.416  0.9311 -0.7337 -0.0430
  365TIP3    H1 1059   4.921   1.000   3.426  0.4466  0.1276 -2.4451
  365TIP3    H2 1060   5.043   0.956   3.348  1.2539  1.3439 -1.9068
  366TIP3   OH2 1061   2.588   3.585   2.392 -0.6653  0.5799  0.2431
  366TIP3    H1 1062   2.499   3.612   2.368 -0.9398 -0.1973  0.3515
  366TIP3    H2 1063   2.587   3.581   2.487 -0.9439 -0.7960  0.2021
  367TIP3   OH2 1064   5.018   2.273   5.797  0.5368  0.1140  0.3487
  367TIP3    H1 1065   5.101   2.274   5.751  1.0364 -1.9200  1.0927
  367TIP3    H2 1066   4.952   2.256   5.729  0.8442  0.7475 -0.1057
  368TIP3   OH2 1067   0.568   0.841   1.049 -0.1804 -0.2568 -0.0534
  368TIP3    H1 1068   0.635   0.903   1.021 -0.1312 -0.6167 -0.7571
  368TIP3    H2 1069   0.583   0.829   1.143 -1.2853  2.1318  0.4913
  369TIP3   OH2 1070   1.290   0.827   0.502 -0.6791 -0.4241  0.0468
  369TIP3    H1 1071   1.209   0.778   0.489 -0.3269 -1.2354  0.8325
  369TIP3    H2 1072   1.283   0.861   0.592  0.3223 -1.4308  0.5311
  370TIP3   OH2 1073   5.752   1.520   0.875  0.0858  0.2671 -0.2099
  370TIP3    H1 1074   5.810   1.445   0.861  0.8318  0.1442  2.7835
  370TIP3    H2 1075   5.772   1.579   0.802  1.2332 -1.3880 -1.3180
  371TIP3   OH2 1076   2.196   2.421   0.050 -0.2152 -0.5542 -0.5115
  371TIP3    H1 1077   2.189   2.385  -0.038  0.0378 -0.9356 -0.3780
  371TIP3    H2 1078   2.105   2.438   0.077 -0.3013 -0.5934 -0.7790
  372TIP3   OH2 1079   2.299   1.832   3.808 -0.2505  0.6118  0.4025
  372TIP3    H1 1080   2.277   1.925   3.811  2.7517  1.5857 -2.0954
  372TIP3    H2 1081   2.247   1.798   3.735  1.4002  1.3696 -1.2281
  373TIP3   OH2 1082   6.335   6.495   5.852 -0.2242  0.2323 -0.0474
  373TIP3    H1 1083   6.282   6.568   5.883 -0.5263 -0.1141  0.2721
  373TIP3    H2 1084   6.425   6.519   5.874 -0.5100 -0.4719  2.1541
  374TIP3   OH2 1085   3.794   0.135   1.597 -0.3000  0.1315 -0.1226
  374TIP3    H1 1086   3.814   0.081   1.521  0.7097 -0.6562  0.6781
  374TIP3    H2 1087   3.710   0.176   1.576  0.3954  0.6572 -2.0495
  375TIP3   OH2 1088   2.617   2.744   2.576  0.2207  0.1971  0.1974
  375TIP3    H1 1089   2.653   2.822   2.535  0.6497 -0.1190 -0.0375
  375TIP3    H2 1090   2.536   2.774   2.617 -0.3814  0.4775 -1.1148
  376TIP3   OH2 1091   2.331   2.922   1.232 -0.3706  0.0755 -0.3890
  376TIP3    H1 1092   2.426   2.934   1.226 -0.3090  0.2393  0.6172
  376TIP3    H2 1093   2.315   2.912   1.326 -1.0962 -2.1090 -0.6957
  377TIP3   OH2 1094   0.215   1.883   0.477  0.5905 -0.1219  0.0012
  377TIP3    H1 1095   0.138   1.829   0.498  0.8971 -0.2750  0.7705
  377TIP3    H2 1096   0.269   1.827   0.422 -0.3237  0.3541 -1.4230
  378TIP3   OH2 1097   4.579   3.350   2.759  0.1262  0.2587 -0.0520
  378TIP3    H1 1098   4.499   3.390   2.723 -0.1301 -0.4383 -0.2734
  378TIP3    H2 1099   4.648   3.414   2.740 -0.4688  1.1319  0.6506
  379TIP3   OH2 1100   4.937   5.335   0.126  0.5766  0.3428  0.2703
  379TIP3    H1 1101   5.000   5.396   0.088  0.4296 -0.8191 -1.9992
  379TIP3    H2 1102   4.852   5.379   0.114  0.3938 -0.4984 -1.9844
  380TIP3   OH2 1103   4.367   1.420   5.660  0.1089 -0.9653 -0.1279
  380TIP3    H1 1104   4.357   1.435   5.755 -2.6475 -2.1625 -0.1119
  380TIP3    H2 1105   4.342   1.504   5.620 -0.1065 -0.8685  0.1983
  381TIP3   OH2 1106   6.950   4.165   1.942 -0.2262  0.1676 -0.1436
  381TIP3    H1 1107   7.015   4.124   1.885 -1.0582 -1.4654  0.0063
  381TIP3    H2 1108   6.879   4.191   1.883  0.4338  1.7746 -0.2821
  382TIP3   OH2 1109   4.939   1.382   4.910 -0.1785  0.4873 -0.0786
  382TIP3    H1 1110   5.019   1.375   4.963 -1.1890 -2.0249  1.2729
  382TIP3    H2 1111   4.897   1.462   4.943  1.1348  1.1395  0.0947
  383TIP3   OH2 1112   6.052   4.723   4.716 -0.2286  0.2433  0.1472
  383TIP3    H1 1113   5.988   4.652   4.722 -1.0740  0.6952 -2.3207
  383TIP3    H2 1114   6.077   4.741   4.807 -2.7239 -0.7454  1.1082
  384TIP3   OH2 1115   6.006   2.355   5.728  0.2399  0.6164 -0.0910
  384TIP3    H1 1116   6.060   2.385   5.655 -1.1811  2.5741 -0.4455
  384TIP3    H2 1117   5.963   2.435   5.760  0.1698 -0.3119  2.3588
  385TIP3   OH2 1118   4.426   6.361   0.064 -0.3871 -0.0693 -0.4209
  385TIP3    H1 1119   4.377   6.442   0.050  0.1846  0.3568 -0.0050
  385TIP3    H2 1120   4.360   6.292   0.057 -1.2442  0.5437  1.0585
  386TIP3   OH2 1121   5.430   0.836   3.250 -0.3208  0.0180 -1.0964
  386TIP3    H1 1122   5.423   0.919   3.202  0.5375  1.2808  0.8338
  386TIP3    H2 1123   5.403   0.857   3.339  0.5837 -1.6101 -0.3878
  387TIP3   OH2 1124   2.713   0.130   4.101  1.0760  0.3733  0.1629
  387TIP3    H1 1125   2.725   0.208   4.048 -0.5420  0.8054  0.3755
  387TIP3    H2 1126   2.725   0.057   4.040 -1.8780  0.8626 -1.1538
  388TIP3   OH2 1127   6.469   3.312   0.438  0.2325 -0.4494  0.1701
  388TIP3    H1 1128   6.489   3.405   0.447 -0.3169 -0.2211 -0.8389
  388TIP3    H2 1129   6.391   3.309   0.383  0.2572 -1.5042  0.1725
  389TIP3   OH2 1130   5.955   0.533   3.223  0.6658 -0.5300 -0.5936
  389TIP3    H1 1131   5.953   0.443   3.257 -0.6190 -0.1720  0.3613
  389TIP3    H2 1132   5.889   0.533   3.153  0.8818 -0.4026 -0.7974
  390TIP3   OH2 1133   2.883   6.271   3.964 -0.5080  0.4383 -0.1380
  390TIP3    H1 1134   2.824   6.299   4.034 -0.1308  0.9054 -0.0051
  390TIP3    H2 1135   2.882   6.175   3.969  0.0994  0.4756  1.0097
  391TIP3   OH2 1136   1.575   0.090   4.772 -0.2025 -0.0072 -0.1698
  391TIP3    H1 1137   1.599   0.086   4.679 -0.5471  0.4123 -0.2817
  391TIP3    H2 1138   1.522   0.170   4.779 -3.2110 -1.8391 -0.3135
  392TIP3   OH2 1139   3.742   3.707   0.144 -0.0264 -0.9624 -0.0086
  392TIP3    H1 1140   3.651   3.714   0.115  0.3257  1.3809 -0.7703
  392TIP3    H2 1141   3.776   3.630   0.098 -1.3725 -1.3304 -0.4376
  393TIP3   OH2 1142   5.513   4.765   0.102 -0.0184  0.8075 -0.4368
  393TIP3    H1 1143   5.496   4.671   0.111 -0.5877  1.0652  1.7514
  393TIP3    H2 1144   5.428   4.802   0.079  0.3441  0.7471 -1.9663
  394TIP3   OH2 1145   2.823   4.867   3.947 -0.0797  0.3781 -0.7278
  394TIP3    H1 1146   2.875   4.947   3.942 -1.0673  1.2386  1.5179
  394TIP3    H2 1147   2.734   4.897   3.966 -0.2799 -1.2508  1.2398
  395TIP3   OH2 1148   5.666   2.182   5.611  0.0714  0.4006  0.7497
  395TIP3    H1 1149   5.730   2.112   5.619 -1.7348 -1.2632  1.4209
  395TIP3    H2 1150   5.657   2.216   5.700  0.7974  1.3898  0.4610
  396TIP3   OH2 1151   4.027   0.231   1.407  0.2136  0.3367 -0.5986
  396TIP3    H1 1152   4.078   0.153   1.429 -1.3252 -0.7772 -0.7901
  396TIP3    H2 1153   3.994   0.262   1.491 -0.3393 -0.0663 -0.6653
  397TIP3   OH2 1154   6.944   2.312   1.257 -0.5548  0.5114 -0.0755
  397TIP3    H1 1155   6.990   2.229   1.245 -1.8361 -0.3195  0.5222
  397TIP3    H2 1156   6.859   2.299   1.213 -0.7747  1.5038  0.0231
  398TIP3   OH2 1157   6.132   0.196   1.723 -0.3522 -0.1032 -0.2864
  398TIP3    H1 1158   6.144   0.188   1.628 -0.2085  1.4992 -0.4251
  398TIP3    H2 1159   6.062   0.261   1.733 -1.4917 -1.4231  0.7025
  399TIP3   OH2 1160   2.747   3.875   4.845 -0.7459  0.0410  0.4472
  399TIP3    H1 1161   2.764   3.969   4.838 -2.4019  0.3582  0.0129
  399TIP3    H2 1162   2.704   3.854   4.762  0.5027 -1.3361  0.1189
  400TIP3   OH2 1163   6.126   4.526   1.260 -0.0084  0.1776 -0.4454
  400TIP3    H1 1164   6.079   4.591   1.312 -0.0941 -0.5925  0.4567
  400TIP3    H2 1165   6.216   4.559   1.256  0.4099 -0.5736  1.6383
  401TIP3   OH2 1166   1.562   3.152   1.994  0.2000 -1.2375 -0.2299
  401TIP3    H1 1167   1.548   3.064   2.029 -1.3253 -1.4094 -1.1849
  401TIP3    H2 1168   1.512   3.154   1.912 -0.6675  0.8380  0.2751
  402TIP3   OH2 1169   1.845   1.384   4.597  0.1213 -0.1711 -0.6322
  402TIP3    H1 1170   1.938   1.380   4.573  0.4811 -2.6415  0.8790
  402TIP3    H2 1171   1.798   1.380   4.514  1.2955  1.9571 -1.4938
  403TIP3   OH2 1172   4.269   6.485   5.794  0.4564  0.3849  0.2437
  403TIP3    H1 1173   4.245   6.541   5.719 -0.6574 -0.1230  0.2010
  403TIP3    H2 1174   4.312   6.545   5.855 -2.5838  1.8680  1.1534
  404TIP3   OH2 1175   6.131   5.900   5.634  0.2484 -0.1122 -0.3935
  404TIP3    H1 1176   6.044   5.934   5.655  0.4976  0.1516  0.2678
  404TIP3    H2 1177   6.124   5.805   5.648 -0.0110 -0.1268 -0.6250
  405TIP3   OH2 1178   0.782   1.319   0.151  0.3178  0.0131 -0.0413
  405TIP3    H1 1179   0.862   1.365   0.176  0.6047  0.1919 -1.2310
  405TIP3    H2 1180   0.722   1.388   0.123 -0.0463 -0.1679  0.2833
  406TIP3   OH2 1181   5.864   2.735   1.849 -0.3698  0.0808 -0.3646
  406TIP3    H1 1182   5.910   2.752   1.931  0.1093  0.8549 -0.7893
  406TIP3    H2 1183   5.813   2.656   1.867 -1.5755  1.1625  1.2158
  407TIP3   OH2 1184   4.318   0.006   0.935  0.1422  0.1518 -0.3871
  407TIP3    H1 1185   4.276   0.051   0.862 -0.2096  1.1487  0.4109
  407TIP3    H2 1186   4.397   0.056   0.952  0.4716 -0.3620 -0.3884
  408TIP3   OH2 1187   0.563   1.696   2.946 -0.6612 -0.0434  0.0817
  408TIP3    H1 1188   0.495   1.762   2.959 -1.5672 -0.5965 -1.5588
  408TIP3    H2 1189   0.626   1.711   3.016 -0.7572  2.6661 -0.3258
  409TIP3   OH2 1190   3.325   0.532   5.663 -0.3885 -0.0023  0.1823
  409TIP3    H1 1191   3.252   0.571   5.710 -0.3075 -1.5019  1.6526
  409TIP3    H2 1192   3.346   0.452   5.712  1.4963 -0.2134 -0.8417
  410TIP3   OH2 1193   6.492   3.275   2.913 -0.4443 -0.7380  0.4816
  410TIP3    H1 1194   6.465   3.185   2.896 -1.4032 -0.3236 -0.2836
  410TIP3    H2 1195   6.533   3.272   2.999 -0.3520 -1.9242  0.4086
  411TIP3   OH2 1196   0.389   1.213   0.377 -0.4573 -0.1337  0.7850
  411TIP3    H1 1197   0.442   1.178   0.306 -0.8445 -0.2234  0.5371
  411TIP3    H2 1198   0.318   1.149   0.388 -1.3086  0.6833  0.1703
  412TIP3   OH2 1199   7.034   4.646   5.235 -0.2372 -0.0044  0.4264
  412TIP3    H1 1200   7.078   4.623   5.317 -1.5100  1.2506  1.5194
  412TIP3    H2 1201   6.950   4.600   5.240 -1.1219  1.5829  0.7546
  413TIP3   OH2 1202   4.997   1.472   4.660 -0.2300  0.4323  0.6377
  413TIP3    H1 1203   4.950   1.443   4.738 -2.5626 -0.6376 -1.0582
  413TIP3    H2 1204   5.060   1.402   4.643 -0.1103  0.3895  1.2308
  414TIP3   OH2 1205   0.171   3.853   1.720 -0.1738 -0.0552 -0.7452
  414TIP3    H1 1206   0.104   3.785   1.727  0.4886 -0.6808 -0.2800
  414TIP3    H2 1207   0.135   3.928   1.766 -0.9728 -0.0425 -1.3804
  415TIP3   OH2 1208   5.203   0.706   4.194 -0.1624 -0.1576 -0.2637
  415TIP3    H1 1209   5.291   0.698   4.231 -0.7015 -2.8335  0.6706
  415TIP3    H2 1210   5.184   0.799   4.197  0.7509  0.0926  4.1874
  416TIP3   OH2 1211   5.349   0.222   1.498  0.3486 -0.1574  0.3256
  416TIP3    H1 1212   5.266   0.260   1.527  1.1806  2.5473 -0.5267
  416TIP3    H2 1213   5.411   0.241   1.569  0.2606 -2.5288  1.1521
  417TIP3   OH2 1214   1.855   4.417   0.750  0.4410 -0.2609 -0.0070
  417TIP3    H1 1215   1.888   4.405   0.839 -0.4771  0.2406  0.4100
  417TIP3    H2 1216   1.874   4.334   0.706  0.2858 -0.7613  0.8549
  418TIP3   OH2 1217   5.696   2.272   5.162 -0.3010  0.2024 -0.1767
  418TIP3    H1 1218   5.698   2.181   5.133  1.2508 -0.2841  1.2690
  418TIP3    H2 1219   5.619   2.277   5.218  0.8671 -0.9414  1.6592
  419TIP3   OH2 1220   4.716   1.486   2.086 -0.0733  0.0736  0.0561
  419TIP3    H1 1221   4.714   1.497   1.991  0.2232  2.0216  0.2303
  419TIP3    H2 1222   4.651   1.418   2.104  1.0961 -1.5940 -1.6542
  420TIP3   OH2 1223   6.333   2.917   5.648 -0.0884 -0.1977 -0.4969
  420TIP3    H1 1224   6.408   2.912   5.708 -1.5956  1.0404  1.6575
  420TIP3    H2 1225   6.341   3.002   5.606 -0.2938 -0.0328 -0.2097
  421TIP3   OH2 1226   2.416   5.376   4.519  0.0800 -0.8431 -0.0082
  421TIP3    H1 1227   2.398   5.290   4.557  0.9225 -1.1593 -0.3056
  421TIP3    H2 1228   2.495   5.406   4.564  0.6044 -0.8542 -0.8897
  422TIP3   OH2 1229   3.549   0.742   1.634 -0.0664 -0.0231  0.4655
  422TIP3    H1 1230   3.480   0.676   1.637 -1.1310  0.9981 -0.5052
  422TIP3    H2 1231   3.616   0.705   1.576 -1.4533  0.4262 -1.5275
  423TIP3   OH2 1232   2.599   2.684   1.148  0.2543 -0.2068 -0.1582
  423TIP3    H1 1233   2.513   2.725   1.150 -0.5721 -1.8302  0.9106
  423TIP3    H2 1234   2.648   2.731   1.081 -1.6398  0.4264 -1.1603
  424TIP3   OH2 1235   3.466   4.753   4.557 -0.7603 -0.4348 -0.1217
  424TIP3    H1 1236   3.529   4.804   4.608 -0.1058 -0.7488 -0.6124
  424TIP3    H2 1237   3.386   4.807   4.559  0.5932  1.9078 -2.7071
  425TIP3   OH2 1238  -0.033   4.164   5.767  0.3346  0.2449  0.0660
  425TIP3    H1 1239  -0.004   4.199   5.852  0.9937 -0.4055  0.1193
  425TIP3    H2 1240   0.048   4.138   5.723 -0.1426 -1.9549  0.3714
  426TIP3   OH2 1241   2.245   4.127   3.855  0.3615  0.2820 -0.2536
  426TIP3    H1 1242   2.151   4.110   3.856  0.3151  0.4488  1.1704
  426TIP3    H2 1243   2.282   4.055   3.804 -0.2521 -1.6767  1.8525
  427TIP3   OH2 1244   2.244   5.700   2.118  0.6191 -0.2264  0.5699
  427TIP3    H1 1245   2.258   5.767   2.184  0.9164  0.1267  0.1602
  427TIP3    H2 1246   2.220   5.749   2.039 -0.1885 -0.6641  0.5290
  428TIP3   OH2 1247   1.895   6.537   1.376 -0.4940  0.1087  0.3558
  428TIP3    H1 1248   1.866   6.449   1.400  1.1844 -0.8019 -0.8308
  428TIP3    H2 1249   1.839   6.561   1.302 -1.3447  0.3135  1.0414
  429TIP3   OH2 1250   1.729   1.695   0.172 -0.2774 -0.4889 -0.0990
  429TIP3    H1 1251   1.672   1.635   0.125 -0.8152 -0.6706  0.7528
  429TIP3    H2 1252   1.677   1.722   0.248  0.6697 -0.4376  0.5449
  430TIP3   OH2 1253   6.087   2.521   3.723 -0.3744  0.5568  0.2458
  430TIP3    H1 1254   6.143   2.483   3.791 -0.0597  1.9843  0.8122
  430TIP3    H2 1255   6.133   2.501   3.641 -0.9388 -1.4968  0.3757
  431TIP3   OH2 1256   1.636   3.784   0.697  0.4438  0.2204 -0.4207
  431TIP3    H1 1257   1.579   3.819   0.766 -0.7977  0.5037 -1.5545
  431TIP3    H2 1258   1.580   3.722   0.650  1.2136  0.1753 -1.2883
  432TIP3   OH2 1259   2.080   3.596   1.150 -0.0003  0.4396 -0.4216
  432TIP3    H1 1260   2.096   3.566   1.060  2.4357  1.1235 -0.2799
  432TIP3    H2 1261   1.995   3.641   1.145 -0.4135 -0.4360 -2.1250
  433TIP3   OH2 1262   4.242   6.084   4.949  0.3441  0.2133 -0.2965
  433TIP3    H1 1263   4.229   6.173   4.917 -2.2547  0.0368  0.0755
  433TIP3    H2 1264   4.158   6.059   4.987  1.0374 -2.3715 -0.2518
  434TIP3   OH2 1265   6.292   5.282   0.891  0.1573 -0.5510 -0.2789
  434TIP3    H1 1266   6.207   5.261   0.854  0.5518 -1.7736 -0.5110
  434TIP3    H2 1267   6.283   5.263   0.984  0.1014 -0.4080 -0.2539
  435TIP3   OH2 1268   2.341   3.519   1.491  0.9052 -0.5335 -0.2153
  435TIP3    H1 1269   2.331   3.465   1.413 -1.2952 -0.5670  0.0091
  435TIP3    H2 1270   2.251   3.543   1.515  1.6976  2.9690 -0.0996
  436TIP3   OH2 1271   6.821   1.031   2.781 -0.0037 -0.4000  0.1071
  436TIP3    H1 1272   6.837   1.111   2.831 -1.5812 -0.7447  1.2820
  436TIP3    H2 1273   6.900   1.018   2.729  0.4538  1.6792  0.1955
  437TIP3   OH2 1274   0.342   6.590   0.320 -0.0878  0.1024  0.1828
  437TIP3    H1 1275   0.392   6.644   0.259 -2.4615  0.1090 -1.9145
  437TIP3    H2 1276   0.286   6.651   0.367 -0.7013 -0.2042 -0.1256
  438TIP3   OH2 1277   5.242   6.245   5.701  0.1112  0.2083  0.3172
  438TIP3    H1 1278   5.246   6.219   5.793 -0.6119  1.6488  0.7803
  438TIP3    H2 1279   5.163   6.202   5.668  0.7542 -0.8915  0.1502
  439TIP3   OH2 1280   6.789   1.686   1.913 -0.0725  0.2653 -0.1366
  439TIP3    H1 1281   6.698   1.668   1.889  0.0852 -1.3506  0.3766
  439TIP3    H2 1282   6.799   1.780   1.901 -1.4648  0.2785 -1.3689
  440TIP3   OH2 1283   6.104   5.792   0.992 -0.2422 -0.4869 -0.0970
  440TIP3    H1 1284   6.109   5.706   1.033 -1.7355  0.0012  1.2164
  440TIP3    H2 1285   6.133   5.853   1.060 -0.5513  0.1676 -0.5366
  441TIP3   OH2 1286   3.083   5.767   5.126  0.6180  0.2821  0.4817
  441TIP3    H1 1287   3.022   5.835   5.154  0.1862 -1.1598  3.4995
  441TIP3    H2 1288   3.027   5.696   5.095  0.9063  0.0110  0.5747
  442TIP3   OH2 1289   5.943   4.555   0.079  0.1293 -0.4098  0.5086
  442TIP3    H1 1290   5.923   4.515  -0.005  0.4821 -0.3321  0.3892
  442TIP3    H2 1291   6.031   4.525   0.101  0.0386 -0.4322  0.8521
  443TIP3   OH2 1292   3.133   4.565   2.420 -0.0667  0.1545 -0.1707
  443TIP3    H1 1293   3.090   4.646   2.394  0.4084  0.8995  1.2244
  443TIP3    H2 1294   3.120   4.561   2.515  1.2222 -0.6000 -0.0000
  444TIP3   OH2 1295   3.145   3.423   1.798 -0.0689 -0.4216  0.3318
  444TIP3    H1 1296   3.193   3.375   1.730 -0.6297 -1.5615  0.7001
  444TIP3    H2 1297   3.089   3.483   1.750 -0.2071 -0.9730 -0.2157
  445TIP3   OH2 1298   6.654   5.189   0.483 -0.2251 -0.4174 -0.4645
  445TIP3    H1 1299   6.623   5.253   0.547 -0.3518 -0.1012 -0.8373
  445TIP3    H2 1300   6.664   5.108   0.533 -0.1126 -0.1189 -0.0023
  446TIP3   OH2 1301   1.314   4.278   3.844 -0.0327 -0.1018  0.2832
  446TIP3    H1 1302   1.380   4.312   3.905 -0.9621  1.5834  0.3895
  446TIP3    H2 1303   1.252   4.350   3.832 -1.3616 -1.3323 -0.5429
  447TIP3   OH2 1304   5.227   5.635   0.433  0.2890  0.3026 -0.2973
  447TIP3    H1 1305   5.263   5.700   0.373 -0.6461 -0.6523 -2.0006
  447TIP3    H2 1306   5.133   5.637   0.417  0.2460 -1.5356 -0.5426
  448TIP3   OH2 1307   6.802   2.270   1.786  0.1340  0.1803 -0.1155
  448TIP3    H1 1308   6.749   2.253   1.709 -0.7471  3.2210 -0.3299
  448TIP3    H2 1309   6.755   2.228   1.858  0.6670 -2.1961 -1.0802
  449TIP3   OH2 1310   1.881   4.024   4.786 -0.2221 -0.2251 -0.2938
  449TIP3    H1 1311   1.933   4.030   4.706 -0.0098 -0.2031 -0.1555
  449TIP3    H2 1312   1.792   4.007   4.756 -0.3124  0.7086 -0.5805
  450TIP3   OH2 1313   6.340   4.097   4.498 -0.3816 -0.2095  0.5163
  450TIP3    H1 1314   6.282   4.049   4.439 -1.6402  0.5049  1.1262
  450TIP3    H2 1315   6.424   4.101   4.451 -0.8969 -1.0162 -0.5174
  451TIP3   OH2 1316   0.372   4.976   2.253  0.2903 -0.6525  0.4168
  451TIP3    H1 1317   0.407   4.912   2.190 -1.3237 -1.1943  0.0284
  451TIP3    H2 1318   0.338   5.047   2.199  0.7142 -0.1596  0.7856
  452TIP3   OH2 1319   3.772   3.326   4.654  0.7172  0.1108  0.2654
  452TIP3    H1 1320   3.808   3.238   4.664 -1.0678 -0.7098 -0.1127
  452TIP3    H2 1321   3.772   3.342   4.560 -1.2311 -0.5423  0.1087
  453TIP3   OH2 1322   6.630   2.199   0.412 -0.6943  0.6553 -1.1709
  453TIP3    H1 1323   6.698   2.258   0.445  1.9457 -2.0331 -1.3185
  453TIP3    H2 1324   6.577   2.178   0.489 -0.6581  1.9122 -0.7900
  454TIP3   OH2 1325   2.262   5.167   0.516 -0.3024 -0.0107 -0.1604
  454TIP3    H1 1326   2.335   5.127   0.564 -1.3309 -0.7154  0.8733
  454TIP3    H2 1327   2.271   5.135   0.427 -0.2976 -1.4474  0.3380
  455TIP3   OH2 1328   2.554   4.556   2.985  0.4684 -0.3302 -0.1203
  455TIP3    H1 1329   2.482   4.585   3.041  0.8811  0.0705  0.2133
  455TIP3    H2 1330   2.592   4.482   3.032 -0.1464 -0.9875 -0.6316
  456TIP3   OH2 1331   1.890   1.935   5.055 -0.4147  0.4660  0.4363
  456TIP3    H1 1332   1.914   1.870   5.121 -0.7549  0.0074  0.1101
  456TIP3    H2 1333   1.946   1.916   4.980 -1.8034 -0.6601 -0.3578
  457TIP3   OH2 1334   0.062   3.116   1.552 -0.8354 -0.2407  0.2457
  457TIP3    H1 1335  -0.015   3.109   1.608 -0.8671 -1.0200  0.1176
  457TIP3    H2 1336   0.135   3.127   1.613 -1.0888  1.1010  0.3489
  458TIP3   OH2 1337   5.503   0.176   3.289 -0.1004  0.0062  0.0677
  458TIP3    H1 1338   5.409   0.172   3.304 -0.1714 -0.5278 -0.4695
  458TIP3    H2 1339   5.532   0.085   3.290  0.5974  0.2154  1.2996
  459TIP3   OH2 1340   3.214   1.808   2.110 -0.0634 -0.1062 -0.0879
  459TIP3    H1 1341   3.302   1.829   2.080 -0.7628  0.3757 -1.8929
  459TIP3    H2 1342   3.202   1.862   2.188  0.2526  1.9517 -1.3882
  460TIP3   OH2 1343   5.543   4.785   3.187  0.4252  0.1040  0.1032
  460TIP3    H1 1344   5.547   4.855   3.253 -0.3218  1.4068 -1.1614
  460TIP3    H2 1345   5.464   4.805   3.137  2.2056  0.6123 -2.6878
  461TIP3   OH2 1346   6.345   6.559   2.576 -0.3281 -0.1208 -0.0434
  461TIP3    H1 1347   6.431   6.578   2.613 -0.1424 -0.8137 -0.1092
  461TIP3    H2 1348   6.363   6.521   2.490 -0.7672  1.9609 -1.1325
  462TIP3   OH2 1349   7.175   0.648   0.583  0.7443  0.2720 -0.4132
  462TIP3    H1 1350   7.194   0.557   0.558 -0.1129 -0.0002 -0.1123
  462TIP3    H2 1351   7.080   0.654   0.580  0.8313  1.6321 -2.0171
  463TIP3   OH2 1352   2.942   4.072   3.951 -0.0355 -0.0447  0.0422
  463TIP3    H1 1353   2.949   4.134   4.024  2.2391 -1.5904  1.2573
  463TIP3    H2 1354   2.890   4.000   3.986 -0.1700 -0.1522 -0.3781
  464TIP3   OH2 1355   3.320   0.865   0.384  0.0897 -0.6787  0.0462
  464TIP3    H1 1356   3.288   0.921   0.314  2.7173  0.2230 -0.5503
  464TIP3    H2 1357   3.286   0.905   0.464 -3.4084 -2.0291 -0.5677
  465TIP3   OH2 1358   3.540   1.226   0.294  0.3341 -0.1934  0.6170
  465TIP3    H1 1359   3.562   1.223   0.387 -1.3564  1.3119  1.1096
  465TIP3    H2 1360   3.455   1.184   0.287  0.4310 -0.2806 -0.2578
  466TIP3   OH2 1361   3.671   6.549   5.249 -0.2137 -0.0001  0.4265
  466TIP3    H1 1362   3.757   6.509   5.263  0.9216  2.9639  2.9382
  466TIP3    H2 1363   3.610   6.487   5.289  0.9164 -1.2954  0.2340
  467TIP3   OH2 1364   1.919   3.712   0.235 -0.6408  0.5650  0.1684
  467TIP3    H1 1365   1.889   3.703   0.325 -0.1656  0.0020  0.2776
  467TIP3    H2 1366   1.839   3.714   0.182 -0.8829 -0.8890  0.4523
  468TIP3   OH2 1367   1.647   2.438   4.508  0.1096 -0.0582 -0.1564
  468TIP3    H1 1368   1.649   2.361   4.565 -1.1588 -0.1012 -0.1358
  468TIP3    H2 1369   1.710   2.418   4.438 -0.8212 -1.5175 -0.6382
  469TIP3   OH2 1370   5.185   6.325   3.984  0.3740 -0.0291 -0.1701
  469TIP3    H1 1371   5.119   6.296   4.048 -1.2076  1.3578 -1.0831
  469TIP3    H2 1372   5.260   6.269   4.001 -0.3129 -0.3675  2.2717
  470TIP3   OH2 1373   2.699   3.948   3.606 -0.9297 -0.4785 -0.0596
  470TIP3    H1 1374   2.790   3.936   3.578 -1.2291  0.2969 -1.4769
  470TIP3    H2 1375   2.653   3.872   3.571 -0.9979 -0.3723 -0.2027
  471TIP3   OH2 1376   0.326   2.123   3.652 -0.3882  0.9050  0.5784
  471TIP3    H1 1377   0.307   2.179   3.576  0.5588 -2.3292 -2.3270
  471TIP3    H2 1378   0.422   2.119   3.655 -0.3930 -1.4043 -0.1613
  472TIP3   OH2 1379   4.992   6.753   2.213  0.6505  0.0850  0.5958
  472TIP3    H1 1380   5.070   6.719   2.258  0.0793 -0.5305  1.1375
  472TIP3    H2 1381   4.923   6.689   2.233 -0.1716  0.9899  0.6916
  473TIP3   OH2 1382   0.065   4.909   3.727  0.3492 -0.0032  0.6548
  473TIP3    H1 1383   0.033   4.977   3.668  3.4869 -0.1346 -1.4865
  473TIP3    H2 1384   0.134   4.951   3.777  1.1768 -1.1508  0.5269
  474TIP3   OH2 1385   1.273   0.322   0.075 -0.2952  0.0020 -0.1604
  474TIP3    H1 1386   1.293   0.399   0.128  0.0109  0.1851 -0.5323
  474TIP3    H2 1387   1.201   0.278   0.121  2.1438 -1.7295  2.2661
  475TIP3   OH2 1388   4.564   5.756   0.163 -0.6102  0.2645  0.4722
  475TIP3    H1 1389   4.564   5.806   0.081  2.4089  1.5730  1.1220
  475TIP3    H2 1390   4.534   5.818   0.229  0.4987  0.4101  0.8634
  476TIP3   OH2 1391   5.144   0.084   1.653 -0.2303  0.7936 -0.5329
  476TIP3    H1 1392   5.146   0.125   1.739  0.2118  2.1379 -1.1565
  476TIP3    H2 1393   5.125   0.156   1.593  2.6789  0.5474 -1.9091
  477TIP3   OH2 1394   3.679   6.465   2.117  0.5865 -0.2419  0.1313
  477TIP3    H1 1395   3.637   6.396   2.167 -0.9125  0.2264 -0.4312
  477TIP3    H2 1396   3.696   6.535   2.181  1.5640 -0.8644  0.5780
  478TIP3   OH2 1397   4.039   5.419   4.901 -0.1425 -0.4200  0.3208
  478TIP3    H1 1398   4.000   5.387   4.983 -0.1440 -1.1640  0.0397
  478TIP3    H2 1399   4.053   5.340   4.849 -1.6942  0.1786 -1.1013
  479TIP3   OH2 1400   3.393   0.273   3.660 -0.2213 -0.0825 -0.1411
  479TIP3    H1 1401   3.437   0.268   3.744 -0.6641  0.7391  0.1502
  479TIP3    H2 1402   3.461   0.252   3.596  0.3532  0.2176  0.3654
  480TIP3   OH2 1403   6.268   0.639   0.493 -0.6077 -0.7871 -0.1279
  480TIP3    H1 1404   6.187   0.673   0.531 -0.5696 -0.8535  0.0141
  480TIP3    H2 1405   6.240   0.580   0.424 -0.7055 -1.7686  0.7313
  481TIP3   OH2 1406   6.797   1.652   4.607 -0.2222 -0.6113 -0.4089
  481TIP3    H1 1407   6.726   1.713   4.593  0.1859  0.1107  0.5103
  481TIP3    H2 1408   6.832   1.634   4.520 -0.1860  0.6782 -0.6835
  482TIP3   OH2 1409   2.935   5.353   5.219 -0.2488 -0.5173 -0.1729
  482TIP3    H1 1410   2.909   5.443   5.198 -2.0090 -1.1976 -1.1894
  482TIP3    H2 1411   2.851   5.306   5.227  0.5675 -1.7453  1.9402
  483TIP3   OH2 1412   0.662   2.354   3.854 -0.4221  0.4022 -0.0509
  483TIP3    H1 1413   0.734   2.352   3.917 -0.1796 -1.1115 -0.3373
  483TIP3    H2 1414   0.704   2.381   3.772 -0.7391  2.3793  0.3842
  484TIP3   OH2 1415   1.962   2.881   0.409 -0.6279 -0.2997  0.5251
  484TIP3    H1 1416   1.912   2.957   0.438 -1.9258 -0.8282 -0.2600
  484TIP3    H2 1417   1.967   2.890   0.314  0.0441 -0.6949  0.5221
  485TIP3   OH2 1418   2.675   3.581   4.790 -0.3219 -0.4150  0.1588
  485TIP3    H1 1419   2.608   3.647   4.806 -0.8553 -0.5416 -1.3751
  485TIP3    H2 1420   2.625   3.503   4.763  0.3703 -0.9412  0.3767
  486TIP3   OH2 1421   3.579   1.116   2.861  0.2483 -0.3114  0.1249
  486TIP3    H1 1422   3.634   1.168   2.919 -0.2762  2.0303 -1.3396
  486TIP3    H2 1423   3.494   1.159   2.863 -0.3622 -1.4147 -0.7825
  487TIP3   OH2 1424   0.745   5.695   0.358 -0.1606  0.0022 -0.0142
  487TIP3    H1 1425   0.792   5.773   0.388  0.2779 -0.2770  0.0250
  487TIP3    H2 1426   0.802   5.622   0.381 -0.3486 -0.2996 -0.5025
  488TIP3   OH2 1427   4.938   0.766   4.814  0.1962  0.2988  0.1421
  488TIP3    H1 1428   4.979   0.680   4.817 -0.2110  0.0275 -1.2942
  488TIP3    H2 1429   5.012   0.827   4.804  0.3511 -0.1267 -1.6598
  489TIP3   OH2 1430   2.170   2.891   0.718 -0.1661  0.2297  0.6291
  489TIP3    H1 1431   2.219   2.863   0.796 -0.7704  0.0572  0.9537
  489TIP3    H2 1432   2.187   2.822   0.653 -0.0756  0.1106  0.7785
  490TIP3   OH2 1433   5.415   3.058   0.510  0.7302  0.4917  0.4287
  490TIP3    H1 1434   5.393   3.045   0.602  0.7926 -0.0538  0.3688
  490TIP3    H2 1435   5.504   3.095   0.511  1.8894 -2.0915  0.5275
  491TIP3   OH2 1436   5.661   2.030   0.968  0.1388  0.0653  0.3054
  491TIP3    H1 1437   5.675   1.937   0.949 -1.1326 -0.0029 -0.3385
  491TIP3    H2 1438   5.746   2.070   0.951  0.6104 -0.9147  0.2495
  492TIP3   OH2 1439   5.949   4.509   2.207 -0.0705  0.4569 -0.2609
  492TIP3    H1 1440   6.043   4.512   2.222 -0.4271  1.8971  2.4328
  492TIP3    H2 1441   5.930   4.416   2.193  1.6892  0.1069 -0.5822
  493TIP3   OH2 1442   1.898   1.091   1.298  0.2866 -0.6206 -0.3351
  493TIP3    H1 1443   1.857   1.021   1.349  0.5083 -0.2273  0.4133
  493TIP3    H2 1444   1.942   1.145   1.364 -0.6169  0.7194 -0.8026
  494TIP3   OH2 1445   7.097   6.023   1.416  0.3684 -0.1178 -0.6596
  494TIP3    H1 1446   7.002   6.019   1.422  0.5116 -2.2025  1.4425
  494TIP3    H2 1447   7.116   6.005   1.324 -1.2478 -0.2130 -0.9960
  495TIP3   OH2 1448   5.203   4.438   3.436  0.5612 -0.1391 -0.2295
  495TIP3    H1 1449   5.166   4.406   3.354 -0.2302 -3.0030  1.1121
  495TIP3    H2 1450   5.294   4.459   3.415  0.0205  0.5292 -2.0893
  496TIP3   OH2 1451   2.139   4.399   5.720  0.4363 -0.3858 -0.0208
  496TIP3    H1 1452   2.233   4.384   5.725  0.5601 -0.2235 -1.4954
  496TIP3    H2 1453   2.126   4.487   5.757  0.8778 -0.3370  0.0153
  497TIP3   OH2 1454   0.671   3.540   3.175 -0.4027 -0.3796  0.8521
  497TIP3    H1 1455   0.692   3.447   3.168 -0.7318 -0.5477  1.8822
  497TIP3    H2 1456   0.661   3.555   3.269 -1.1804  0.5085  0.6435
  498TIP3   OH2 1457   5.660   3.425   2.063 -0.3707  0.7299  0.0449
  498TIP3    H1 1458   5.598   3.415   2.135 -0.2024 -0.1540  0.0840
  498TIP3    H2 1459   5.710   3.343   2.063  0.3884  1.1800 -0.3645
  499TIP3   OH2 1460   3.012   3.036   4.145  0.0824  0.2928 -0.0657
  499TIP3    H1 1461   2.954   2.996   4.209  2.5318  1.1835  2.9849
  499TIP3    H2 1462   3.061   2.962   4.108 -0.2236 -0.1022  0.3053
  500TIP3   OH2 1463   7.142   0.795   0.352  0.3906  0.1257 -0.0945
  500TIP3    H1 1464   7.168   0.756   0.435 -0.8124  0.1011  0.2888
  500TIP3    H2 1465   7.098   0.876   0.375 -1.7505 -0.8353 -0.5261
  501TIP3   OH2 1466   3.946   2.293   2.699  0.0358  0.4681 -0.0312
  501TIP3    H1 1467   3.910   2.379   2.678 -0.6877  0.0958 -0.3626
  501TIP3    H2 1468   3.915   2.236   2.628 -0.2913 -0.2595  0.6747
  502TIP3   OH2 1469   1.709   6.012   2.416  0.3057  0.0210 -0.0402
  502TIP3    H1 1470   1.737   5.922   2.431 -1.0556 -0.2112  1.3347
  502TIP3    H2 1471   1.628   6.003   2.365  1.1158  0.5740 -1.5034
  503TIP3   OH2 1472   1.697   1.934   2.418 -0.2236  0.1821 -1.0280
  503TIP3    H1 1473   1.687   2.001   2.486  2.7742  0.3826 -0.6687
  503TIP3    H2 1474   1.626   1.951   2.357 -0.5125  2.6516 -0.1003
  504TIP3   OH2 1475   1.115   0.813   0.206  0.0707 -0.3172 -0.4654
  504TIP3    H1 1476   1.103   0.781   0.296 -0.6440  0.6295 -0.2070
  504TIP3    H2 1477   1.056   0.888   0.200 -0.6732 -1.0012 -2.0667
  505TIP3   OH2 1478   4.075   4.134   3.319 -0.4995  0.1449  0.2069
  505TIP3    H1 1479   4.106   4.128   3.228  2.0246  0.7575  0.9460
  505TIP3    H2 1480   4.063   4.043   3.346 -0.4984 -0.0694 -0.4794
  506TIP3   OH2 1481   4.088   0.669   2.640  0.0743  0.8662 -0.1501
  506TIP3    H1 1482   4.012   0.612   2.632 -0.2925  1.5474 -2.0126
  506TIP3    H2 1483   4.055   0.750   2.677 -0.1685  1.2143 -1.0945
  507TIP3   OH2 1484   6.810   1.037   2.135  0.3039  0.2965 -0.5288
  507TIP3    H1 1485   6.736   1.097   2.125 -0.1603  0.0889  1.2548
  507TIP3    H2 1486   6.884   1.082   2.095 -0.3772  1.3648 -0.6149
  508TIP3   OH2 1487   6.039   0.757   0.611 -0.6736  0.1941 -0.4870
  508TIP3    H1 1488   5.969   0.702   0.646 -1.9523  2.0292  0.0027
  508TIP3    H2 1489   5.996   0.808   0.542  0.4304  0.6702 -0.8401
  509TIP3   OH2 1490   5.771   5.838  -0.003 -0.1078  0.4338  0.0390
  509TIP3    H1 1491   5.762   5.812   0.089 -0.3812  0.3713 -0.0064
  509TIP3    H2 1492   5.721   5.773  -0.052 -0.7828  1.0364 -0.0783
  510TIP3   OH2 1493   6.448   5.691   2.737  0.5218  0.3637  0.4589
  510TIP3    H1 1494   6.459   5.778   2.697 -0.9988  0.3522 -0.0304
  510TIP3    H2 1495   6.515   5.637   2.694  0.0656  0.7790 -0.8240
  511TIP3   OH2 1496   5.017   3.347   1.063  0.5232 -0.2617 -0.2271
  511TIP3    H1 1497   4.984   3.291   1.134 -0.0248  0.2893 -0.0413
  511TIP3    H2 1498   4.947   3.348   0.998 -0.3817  1.8632  0.6982
  512TIP3   OH2 1499   1.992   0.093   0.515 -0.4166  0.1466 -0.2992
  512TIP3    H1 1500   2.032   0.057   0.436  2.3966  1.3460  0.4520
  512TIP3    H2 1501   1.923   0.152   0.483  0.6118  0.5493 -1.8692
  513TIP3   OH2 1502   5.693   4.468   5.353 -0.4071  0.4441 -0.2662
  513TIP3    H1 1503   5.766   4.525   5.377 -0.1560 -0.1375  0.3687
  513TIP3    H2 1504   5.723   4.380   5.375 -0.1178 -0.1744 -2.7862
  514TIP3   OH2 1505   6.523   5.158   2.704  0.1049 -0.6526 -0.0198
  514TIP3    H1 1506   6.617   5.176   2.693 -0.4435  1.7361 -1.4103
  514TIP3    H2 1507   6.520   5.088   2.770  2.8355 -0.6402  0.2418
  515TIP3   OH2 1508   6.221   2.101   3.408 -0.5804 -0.7112 -0.3567
  515TIP3    H1 1509   6.148   2.138   3.456 -0.5059 -1.4597  0.3490
  515TIP3    H2 1510   6.232   2.159   3.332  0.0954  1.2213  1.1363
  516TIP3   OH2 1511   0.559   3.800   4.605  0.0881 -0.5214 -0.6432
  516TIP3    H1 1512   0.463   3.795   4.601 -0.0108 -0.0305  0.6182
  516TIP3    H2 1513   0.579   3.806   4.699  1.2682  0.9002 -0.9456
  517TIP3   OH2 1514   0.221   4.150   5.432  0.2694 -0.6835 -0.1236
  517TIP3    H1 1515   0.259   4.076   5.385  0.8145 -0.8561  0.5634
  517TIP3    H2 1516   0.165   4.193   5.368 -0.9850 -2.3618 -0.2186
  518TIP3   OH2 1517   0.396   6.159   5.571 -0.0775  0.0450 -0.1925
  518TIP3    H1 1518   0.315   6.131   5.528  0.2247  1.1512 -1.5566
  518TIP3    H2 1519   0.462   6.160   5.501  1.1277 -0.8263  0.8921
  519TIP3   OH2 1520   4.846   4.171   4.507 -0.0245 -0.0845  0.7545
  519TIP3    H1 1521   4.924   4.165   4.452  0.9163  1.8534  1.7571
  519TIP3    H2 1522   4.816   4.261   4.496  1.3817  1.0918  4.7464
  520TIP3   OH2 1523   6.771   6.171   0.257 -0.0334  0.2931 -0.0954
  520TIP3    H1 1524   6.858   6.209   0.274 -0.6561  2.2033 -0.9935
  520TIP3    H2 1525   6.733   6.161   0.344  0.6278  0.5230  0.2305
  521TIP3   OH2 1526   2.957   2.933   1.512 -0.1424 -0.2173 -0.0095
  521TIP3    H1 1527   2.927   2.893   1.594  0.4116 -1.4998 -0.4169
  521TIP3    H2 1528   2.956   3.027   1.530  3.0130 -0.4920  2.6146
  522TIP3   OH2 1529   3.784   6.714   2.279 -0.6642  0.0869 -0.0781
  522TIP3    H1 1530   3.820   6.737   2.193  0.0032 -0.3082  0.0883
  522TIP3    H2 1531   3.695   6.749   2.277 -0.6723  0.0601 -0.9459
  523TIP3   OH2 1532   5.058   5.442   4.357 -0.0034 -0.6016 -0.5167
  523TIP3    H1 1533   5.127   5.455   4.422  0.4154 -1.5273 -0.7564
  523TIP3    H2 1534   5.094   5.479   4.276 -0.5722  0.6607 -0.2208
  524TIP3   OH2 1535   5.083   5.510   1.552 -0.5474  0.2014 -0.3255
  524TIP3    H1 1536   5.126   5.434   1.591 -1.1391  0.0506  0.0491
  524TIP3    H2 1537   5.149   5.579   1.553 -0.3150 -0.0231  0.2327
  525TIP3   OH2 1538   4.948   2.035   1.560 -0.2769 -0.7711  0.3866
  525TIP3    H1 1539   5.040   2.042   1.536  0.0258  0.1666  1.6867
  525TIP3    H2 1540   4.903   2.097   1.503  0.4651  1.6569  2.2635
  526TIP3   OH2 1541   4.694   0.157   1.301  0.3401 -0.3334  0.0571
  526TIP3    H1 1542   4.638   0.233   1.287 -0.2018 -0.6551  0.4586
  526TIP3    H2 1543   4.634   0.083   1.305  0.8682 -0.7888 -0.3557
  527TIP3   OH2 1544   3.759   4.399   4.818  0.3889 -0.0263 -0.0096
  527TIP3    H1 1545   3.708   4.403   4.738 -2.0211 -1.2039  1.3563
  527TIP3    H2 1546   3.829   4.336   4.799  0.4742  0.4656 -1.4460
  528TIP3   OH2 1547   4.972   4.551   0.670  0.0551  0.2282  0.1303
  528TIP3    H1 1548   5.034   4.502   0.615 -0.8337 -0.0972 -0.6178
  528TIP3    H2 1549   5.017   4.561   0.754  1.5091  0.8330 -0.6778
  529TIP3   OH2 1550   1.945   2.065   0.646  0.4920  0.5785 -0.1972
  529TIP3    H1 1551   2.037   2.044   0.662  1.1392  2.7799 -0.6091
  529TIP3    H2 1552   1.931   2.042   0.554  0.5316 -0.0411 -0.0527
  530TIP3   OH2 1553   1.509   2.832   4.266 -0.3735  0.5390  0.1916
  530TIP3    H1 1554   1.499   2.906   4.326 -0.9474 -1.0938  2.2248
  530TIP3    H2 1555   1.421   2.817   4.231 -0.9465 -0.9636  2.1017
  531TIP3   OH2 1556   3.203   6.735   2.877  0.3536 -0.3966 -0.0400
  531TIP3    H1 1557   3.154   6.812   2.905  0.3361 -0.5077  0.2351
  531TIP3    H2 1558   3.216   6.748   2.783  0.8286  0.2155  0.1022
  532TIP3   OH2 1559   2.749   6.455   2.508 -0.1410  0.3824 -0.5965
  532TIP3    H1 1560   2.742   6.365   2.477  1.6237  1.2651 -4.1461
  532TIP3    H2 1561   2.809   6.450   2.583 -1.1290 -1.4720  0.1330
  533TIP3   OH2 1562   5.305   6.275   1.250  0.4029 -0.0334  0.6014
  533TIP3    H1 1563   5.225   6.255   1.201 -0.2914 -1.2515  2.1495
  533TIP3    H2 1564   5.359   6.325   1.189 -0.7854 -0.7260 -1.0775
  534TIP3   OH2 1565   2.924   2.422   1.130 -0.8261 -0.5565  0.0726
  534TIP3    H1 1566   2.924   2.339   1.179  0.8465 -0.1229  0.8908
  534TIP3    H2 1567   2.898   2.487   1.195 -1.8150 -0.3672 -0.4885
  535TIP3   OH2 1568   1.216   3.469   2.148 -0.2874 -0.2601 -0.5329
  535TIP3    H1 1569   1.280   3.397   2.152  0.8395  0.6248 -1.7836
  535TIP3    H2 1570   1.163   3.458   2.227 -1.0896 -3.3161 -1.3722
  536TIP3   OH2 1571   2.015   4.483   1.098 -0.2614 -0.1564  0.0033
  536TIP3    H1 1572   2.090   4.543   1.087 -0.3108 -0.4137 -2.2807
  536TIP3    H2 1573   2.055   4.399   1.122 -0.0921  0.4184  1.8707
  537TIP3   OH2 1574   0.889   2.559   2.655  0.1949  0.5447 -0.4614
  537TIP3    H1 1575   0.845   2.640   2.628 -1.6300 -0.4162 -0.5153
  537TIP3    H2 1576   0.979   2.570   2.624 -0.2200  2.1798 -1.2382
  538TIP3   OH2 1577   5.865   0.342   4.443  0.4470  0.1590  0.7689
  538TIP3    H1 1578   5.884   0.294   4.362  0.1304  2.2173 -0.5835
  538TIP3    H2 1579   5.821   0.278   4.498  0.6003 -1.2899 -0.6952
  539TIP3   OH2 1580   2.601   1.227   2.610 -0.1226  0.1523  0.1976
  539TIP3    H1 1581   2.651   1.263   2.537 -1.7436  2.0370 -0.0922
  539TIP3    H2 1582   2.630   1.277   2.687 -2.1734  2.0517 -0.1530
  540TIP3   OH2 1583   1.758   2.492   3.879 -0.0112 -0.4871 -0.4287
  540TIP3    H1 1584   1.760   2.553   3.952  1.5788 -0.0996 -0.7533
  540TIP3    H2 1585   1.714   2.414   3.914 -1.2292  0.4663  0.2635
  541TIP3   OH2 1586   1.510   1.294   0.256  0.4636  0.2316 -0.3022
  541TIP3    H1 1587   1.545   1.269   0.341  0.2010 -0.1922 -0.3195
  541TIP3    H2 1588   1.422   1.325   0.275  0.7592  1.1123 -0.2865
  542TIP3   OH2 1589   1.676   4.353   1.920 -1.0457 -0.2966  0.4025
  542TIP3    H1 1590   1.728   4.366   1.841 -1.2943 -2.0302 -0.0973
  542TIP3    H2 1591   1.592   4.394   1.901 -1.2314 -1.0320 -0.3914
  543TIP3   OH2 1592   2.678   0.070   0.180 -0.1903 -0.6721 -0.5482
  543TIP3    H1 1593   2.646   0.143   0.126 -0.0141 -0.1903 -0.0202
  543TIP3    H2 1594   2.761   0.045   0.139  1.2369  1.3544  0.8761
  544TIP3   OH2 1595   5.636   5.000   1.409  0.0491 -0.1630 -0.0465
  544TIP3    H1 1596   5.649   5.017   1.316 -0.4883  0.9851  0.0765
  544TIP3    H2 1597   5.706   5.048   1.453 -1.3038  1.5986  0.2865
  545TIP3   OH2 1598   6.207   2.726   2.225 -0.1486 -0.0148  0.1427
  545TIP3    H1 1599   6.156   2.769   2.294 -0.0172  0.8866 -0.3032
  545TIP3    H2 1600   6.298   2.735   2.253 -0.0921  0.3830 -0.1443
  546TIP3   OH2 1601   2.609   2.555   2.320 -0.6850 -0.1540  0.0769
  546TIP3    H1 1602   2.647   2.603   2.393 -1.6762  0.0537  0.4689
  546TIP3    H2 1603   2.656   2.471   2.319 -1.6565 -0.7527  1.8773
  547TIP3   OH2 1604   0.022   3.276   1.046 -0.9926 -0.1798 -0.4066
  547TIP3    H1 1605   0.004   3.197   1.097  1.2386 -0.5054 -0.0056
  547TIP3    H2 1606   0.015   3.347   1.110  0.8992 -0.4999  0.2397
  548TIP3   OH2 1607   4.422   6.742   2.542  0.4145 -0.2349  0.2991
  548TIP3    H1 1608   4.343   6.703   2.581 -0.6505  0.5627 -0.9948
  548TIP3    H2 1609   4.484   6.669   2.537 -0.9722 -1.4217 -0.6010
  549TIP3   OH2 1610   7.151   0.227   2.458  0.0065 -0.7055 -0.3155
  549TIP3    H1 1611   7.139   0.220   2.363  0.6433  0.9416 -0.5481
  549TIP3    H2 1612   7.240   0.197   2.474  0.9398  1.6549 -0.6633
  550TIP3   OH2 1613   4.194   3.900   5.321  0.7250 -0.3098 -0.6751
  550TIP3    H1 1614   4.195   3.806   5.303  0.8395 -0.0412 -2.2398
  550TIP3    H2 1615   4.264   3.913   5.385  0.2474 -1.3706  0.0967
  551TIP3   OH2 1616   0.693   1.000   5.477 -0.2481  0.3641  0.1798
  551TIP3    H1 1617   0.714   1.080   5.429  0.0471  0.5425  0.6012
  551TIP3    H2 1618   0.760   0.937   5.450 -0.4769  0.2569 -0.1472
  552TIP3   OH2 1619   6.856   2.010   4.227  0.0509 -0.3099  0.0224
  552TIP3    H1 1620   6.792   1.939   4.224 -0.0003 -0.2173 -1.3169
  552TIP3    H2 1621   6.841   2.060   4.147 -0.1335  1.4166  1.0758
  553TIP3   OH2 1622   0.797   3.252   5.637  0.0495  0.1635 -0.0006
  553TIP3    H1 1623   0.739   3.313   5.591  0.4957  0.1145 -0.6417
  553TIP3    H2 1624   0.800   3.175   5.580  2.5583  1.0243 -1.1782
  554TIP3   OH2 1625   4.103   0.381   2.402 -0.0633  0.3130 -0.0805
  554TIP3    H1 1626   4.178   0.436   2.423 -0.0562  0.2474  0.0657
  554TIP3    H2 1627   4.102   0.314   2.470  1.1306 -1.0789 -1.3857
  555TIP3   OH2 1628   6.231   3.695   2.864  0.6248  0.3104 -0.1990
  555TIP3    H1 1629   6.232   3.626   2.797  0.2521 -2.9760  2.8385
  555TIP3    H2 1630   6.138   3.707   2.883  0.7695 -0.9868  1.6082
  556TIP3   OH2 1631   6.116   1.520   5.615  0.3055  0.1458  0.3687
  556TIP3    H1 1632   6.147   1.445   5.564  2.1726  0.4736  0.9145
  556TIP3    H2 1633   6.031   1.492   5.649  0.5491 -1.3779 -0.1646
  557TIP3   OH2 1634   6.223   3.821   1.304 -0.0980  0.1273 -0.5044
  557TIP3    H1 1635   6.225   3.726   1.306  1.8878  0.1106 -1.4005
  557TIP3    H2 1636   6.191   3.843   1.217  0.7837  0.2567 -0.8029
  558TIP3   OH2 1637   5.146   4.696   4.136 -0.3425 -0.5584 -0.1192
  558TIP3    H1 1638   5.202   4.672   4.210 -1.4415  2.8353  2.0917
  558TIP3    H2 1639   5.179   4.782   4.108 -2.6401  0.2473 -0.5957
  559TIP3   OH2 1640   5.658   6.722   3.983 -0.2573  0.0671  0.2192
  559TIP3    H1 1641   5.612   6.696   3.902  1.4471  0.8070 -1.0327
  559TIP3    H2 1642   5.683   6.639   4.023 -1.8602 -0.3342  0.4779
  560TIP3   OH2 1643   1.181   3.378   0.893  0.6623 -0.4442 -0.1436
  560TIP3    H1 1644   1.168   3.289   0.861  1.9885 -0.6654 -0.1070
  560TIP3    H2 1645   1.095   3.420   0.882  0.4587 -1.2112 -1.7914
  561TIP3   OH2 1646   6.395   1.287   5.837  0.1288 -0.5474  0.1164
  561TIP3    H1 1647   6.312   1.246   5.813 -0.0457  0.2321 -0.6571
  561TIP3    H2 1648   6.430   1.320   5.755 -0.5207  2.2729  0.8841
  562TIP3   OH2 1649   0.906   2.983   2.826 -0.6979  0.0909 -0.2838
  562TIP3    H1 1650   0.957   3.051   2.782 -2.7135  1.9412  0.0836
  562TIP3    H2 1651   0.972   2.923   2.861  1.3701  3.1482  1.5391
  563TIP3   OH2 1652   3.801   5.631   4.584 -0.3409  0.4974 -0.0517
  563TIP3    H1 1653   3.894   5.613   4.565  0.1512  0.0336  2.5148
  563TIP3    H2 1654   3.757   5.617   4.500  1.7847 -0.1109 -1.1413
  564TIP3   OH2 1655   1.131   5.381   0.516 -0.3525  0.0366  0.5460
  564TIP3    H1 1656   1.186   5.306   0.493 -1.2213 -1.1193  2.0883
  564TIP3    H2 1657   1.115   5.426   0.433  1.1284 -0.8271 -0.2307
  565TIP3   OH2 1658   4.164   0.668   2.991  0.3795 -0.1881  0.5839
  565TIP3    H1 1659   4.076   0.696   2.965  0.1732 -2.4775 -1.5545
  565TIP3    H2 1660   4.223   0.718   2.935  0.4742  0.9466  1.6419
  566TIP3   OH2 1661   6.823   0.026   4.175 -0.6115  0.3758  0.3877
  566TIP3    H1 1662   6.802  -0.067   4.184 -1.0198  0.3197 -0.9784
  566TIP3    H2 1663   6.812   0.061   4.263  0.9873 -1.1290  1.2514
  567TIP3   OH2 1664   6.289   1.967   0.206 -0.4297 -0.6739 -0.0324
  567TIP3    H1 1665   6.224   1.933   0.144 -0.4361  1.0676 -1.0484
  567TIP3    H2 1666   6.322   2.047   0.164  2.9369 -1.8528  0.0457
  568TIP3   OH2 1667   0.826   3.052   1.836 -0.5293  0.3265  0.4069
  568TIP3    H1 1668   0.791   3.076   1.921 -0.3752  0.5095  0.4193
  568TIP3    H2 1669   0.842   3.135   1.791 -1.0611  0.2226  0.0138
  569TIP3   OH2 1670   5.642   5.276   2.339  0.2151 -0.1424 -0.1615
  569TIP3    H1 1671   5.707   5.208   2.319  1.0571  0.4910  0.3291
  569TIP3    H2 1672   5.689   5.358   2.324 -0.6298  0.3308 -0.2467
  570TIP3   OH2 1673   5.188   6.224   1.805  0.9312  0.2477 -0.3662
  570TIP3    H1 1674   5.191   6.317   1.829  2.9481 -0.1334  1.1019
  570TIP3    H2 1675   5.174   6.178   1.888  0.5821 -0.8074 -0.9866
  571TIP3   OH2 1676   6.369   0.411   3.275 -0.0708  0.1025  0.1338
  571TIP3    H1 1677   6.347   0.384   3.186  0.7411 -1.1099  0.2715
  571TIP3    H2 1678   6.291   0.455   3.307 -0.2905  0.7762 -1.2575
  572TIP3   OH2 1679   2.813   3.168   1.241 -0.3031 -0.2536  0.0948
  572TIP3    H1 1680   2.813   3.262   1.220  0.5750 -0.0107  1.1170
  572TIP3    H2 1681   2.858   3.162   1.325  1.5370 -1.8231 -0.9385
  573TIP3   OH2 1682   6.598   0.960   1.274  0.0465 -0.1173  0.1197
  573TIP3    H1 1683   6.572   0.966   1.182 -0.8291 -1.1957  0.2834
  573TIP3    H2 1684   6.693   0.970   1.272 -0.1461  2.2690 -0.6435
  574TIP3   OH2 1685   4.412   1.403   3.558 -0.1693 -0.4843  0.0167
  574TIP3    H1 1686   4.441   1.455   3.483  0.2217 -0.3948  0.2282
  574TIP3    H2 1687   4.316   1.408   3.554 -0.1454  1.0412  0.5704
  575TIP3   OH2 1688   1.835   5.551   2.397  0.1178 -0.0784  0.2337
  575TIP3    H1 1689   1.921   5.537   2.437 -0.0041  0.9935  0.9458
  575TIP3    H2 1690   1.853   5.575   2.306  0.6257  0.6629  0.5190
  576TIP3   OH2 1691   1.034   2.975   1.098 -0.0345 -0.5974  0.3403
  576TIP3    H1 1692   1.079   3.002   1.178  0.3082 -0.1499  0.0025
  576TIP3    H2 1693   0.965   3.040   1.086  0.6230 -0.0027 -0.3293
  577TIP3   OH2 1694   1.242   0.949   0.725  0.4921 -0.7455 -0.0796
  577TIP3    H1 1695   1.168   0.957   0.786  0.9119 -1.0782  0.4777
  577TIP3    H2 1696   1.252   1.038   0.690 -0.5673 -0.8295 -0.6370
  578TIP3   OH2 1697   2.682   6.631   4.182 -0.3345 -0.0054 -0.0618
  578TIP3    H1 1698   2.604   6.577   4.172 -0.0989 -0.1149 -1.4828
  578TIP3    H2 1699   2.668   6.705   4.123  0.7650 -0.1889 -0.5890
  579TIP3   OH2 1700   0.519   5.918   0.914  0.0317  0.0100 -0.4187
  579TIP3    H1 1701   0.483   5.881   0.995  0.8844 -0.5330 -0.2730
  579TIP3    H2 1702   0.585   5.981   0.944  0.1480  0.0207 -0.6929
  580TIP3   OH2 1703   3.671   1.729   0.890 -0.7546 -0.2258  0.3529
  580TIP3    H1 1704   3.577   1.723   0.901 -0.8924  1.2592  0.1734
  580TIP3    H2 1705   3.683   1.749   0.797 -0.2470 -0.5646  0.3376
  581TIP3   OH2 1706   3.182   6.152   2.027  0.1026 -0.0939 -0.1904
  581TIP3    H1 1707   3.193   6.079   2.088  1.6165  1.1169  1.0706
  581TIP3    H2 1708   3.088   6.154   2.009 -0.3815 -0.6307  1.9564
  582TIP3   OH2 1709   5.921   6.250   3.276 -0.0625  0.4324 -0.4418
  582TIP3    H1 1710   6.003   6.231   3.231  0.2621 -1.0333  0.7167
  582TIP3    H2 1711   5.927   6.203   3.358 -1.7536  0.9390  0.0076
  583TIP3   OH2 1712   4.018   3.051   3.868 -0.7639 -0.8956 -0.1225
  583TIP3    H1 1713   4.080   3.031   3.938 -0.2854  1.2207  0.1110
  583TIP3    H2 1714   4.066   3.033   3.788  0.3552  1.0502  0.0468
  584TIP3   OH2 1715   5.649   1.030   3.341  0.8071  0.1895 -0.0689
  584TIP3    H1 1716   5.736   0.991   3.349  1.6850  2.1361  0.5113
  584TIP3    H2 1717   5.593   0.975   3.396  1.3898 -1.7453 -1.3087
  585TIP3   OH2 1718   2.176   5.753   3.691  0.4235 -0.1442 -0.0303
  585TIP3    H1 1719   2.240   5.768   3.622  0.5231  1.1330  0.3277
  585TIP3    H2 1720   2.204   5.670   3.731  2.3758  0.7833  0.6610
  586TIP3   OH2 1721   3.412   4.928   4.785 -0.5774  0.2529  0.4931
  586TIP3    H1 1722   3.429   5.022   4.788  0.2054  0.0946  2.2202
  586TIP3    H2 1723   3.497   4.888   4.807 -0.0109 -0.9956 -3.2378
  587TIP3   OH2 1724   7.000   0.883   1.603 -0.3917 -0.4869 -0.1566
  587TIP3    H1 1725   6.991   0.934   1.683 -1.4005 -0.0635 -0.5138
  587TIP3    H2 1726   6.990   0.792   1.630 -2.1952 -0.2679  0.0339
  588TIP3   OH2 1727   0.076   4.366   1.777 -0.3086  0.6292  0.0359
  588TIP3    H1 1728   0.029   4.394   1.856 -0.6515  0.7532 -0.2084
  588TIP3    H2 1729   0.093   4.447   1.730  1.7270  0.7985  0.9596
  589TIP3   OH2 1730   5.186   0.327   2.906  0.0479  0.4968  0.0559
  589TIP3    H1 1731   5.276   0.297   2.920 -0.3432 -0.5563  0.3387
  589TIP3    H2 1732   5.141   0.252   2.869 -1.2131  0.3759  1.7301
  590TIP3   OH2 1733   3.581   4.868   3.589 -0.5981 -0.7146  0.6108
  590TIP3    H1 1734   3.665   4.913   3.590 -1.5681  1.2512 -0.5551
  590TIP3    H2 1735   3.560   4.853   3.681  0.4924 -0.1614  0.9572
  591TIP3   OH2 1736   2.535   5.662   2.566  0.1132 -0.3156 -0.6824
  591TIP3    H1 1737   2.471   5.732   2.553  0.5713  0.2645  0.0879
  591TIP3    H2 1738   2.519   5.631   2.655  0.8843 -0.1684 -0.4799
  592TIP3   OH2 1739   4.634   2.220   2.992  0.0126  0.1056  0.4437
  592TIP3    H1 1740   4.546   2.190   2.970  0.4886 -0.1180 -1.3024
  592TIP3    H2 1741   4.625   2.314   3.009 -0.6857 -0.0799  1.1669
  593TIP3   OH2 1742   4.770   3.345   2.220 -0.1716 -0.3126  0.2353
  593TIP3    H1 1743   4.815   3.394   2.152  1.6514 -0.8421  0.9858
  593TIP3    H2 1744   4.822   3.265   2.230 -0.6888 -0.4840  1.8560
  594TIP3   OH2 1745   1.479   2.558   4.317 -0.7410  0.5012 -0.0133
  594TIP3    H1 1746   1.495   2.652   4.317 -0.3196  0.4462  0.9510
  594TIP3    H2 1747   1.527   2.526   4.394 -1.4154 -0.3999  0.0469
  595TIP3   OH2 1748   0.359   1.155   1.227  0.3612  0.3512 -0.2675
  595TIP3    H1 1749   0.423   1.154   1.298  0.2900 -1.3619 -0.1746
  595TIP3    H2 1750   0.408   1.183   1.150  0.6987  1.1437  0.2229
  596TIP3   OH2 1751   2.841   3.059   2.134  0.1888  0.3031  0.6472
  596TIP3    H1 1752   2.880   2.973   2.152  0.3827  0.0742 -0.7270
  596TIP3    H2 1753   2.865   3.077   2.043  0.8558  2.1994  1.1533
  597TIP3   OH2 1754   4.056   2.220   0.207 -1.1162 -0.1489  0.0734
  597TIP3    H1 1755   3.993   2.275   0.253  0.2502  0.0742  1.7647
  597TIP3    H2 1756   4.047   2.133   0.247  1.1439  0.3970  2.0098
  598TIP3   OH2 1757   2.905   5.971   5.206  0.1439  0.2631 -0.2588
  598TIP3    H1 1758   2.842   5.991   5.275 -1.3168  0.6856 -1.6505
  598TIP3    H2 1759   2.959   6.050   5.200  1.2826 -0.3306  1.3603
  599TIP3   OH2 1760   5.476   3.089   1.334  0.4723  0.0573  0.5136
  599TIP3    H1 1761   5.449   3.164   1.386 -1.3005  0.2292 -0.5605
  599TIP3    H2 1762   5.452   3.013   1.388 -1.0951  0.2357  0.1146
  600TIP3   OH2 1763   6.410   0.896   5.335  0.1828 -0.2028 -0.0707
  600TIP3    H1 1764   6.389   0.964   5.399 -0.3237  0.3096 -0.7760
  600TIP3    H2 1765   6.494   0.924   5.297 -0.0224  0.0236 -0.3566
  601TIP3   OH2 1766   5.522   0.575   5.593 -0.6095  0.1725 -0.6746
  601TIP3    H1 1767   5.567   0.491   5.585  0.0108  0.6257 -2.4189
  601TIP3    H2 1768   5.480   0.588   5.508 -1.0018  1.4583 -0.3046
  602TIP3   OH2 1769   1.670   2.759   2.972  0.4986 -0.5947 -0.5399
  602TIP3    H1 1770   1.644   2.818   2.901  1.7810 -1.0489 -1.4145
  602TIP3    H2 1771   1.678   2.673   2.930 -0.3754 -1.2211  0.5187
  603TIP3   OH2 1772   4.457   5.719   0.560  0.3683  0.3670 -0.3098
  603TIP3    H1 1773   4.460   5.625   0.542 -1.1346 -0.3323  2.3949
  603TIP3    H2 1774   4.546   5.742   0.587  0.2488 -0.9346  1.3774
  604TIP3   OH2 1775   3.395   2.830   1.234 -0.3526  0.4152  0.4934
  604TIP3    H1 1776   3.480   2.870   1.255 -1.1189  2.5651 -0.2041
  604TIP3    H2 1777   3.356   2.812   1.319  0.6758 -0.3858  0.8234
  605TIP3   OH2 1778   6.270   2.089   2.928  0.1227  0.2012 -0.0798
  605TIP3    H1 1779   6.352   2.084   2.976  0.4438 -0.9946 -0.6986
  605TIP3    H2 1780   6.247   1.997   2.910 -1.5926  0.4841  0.4852
  606TIP3   OH2 1781   4.019   2.555   1.553  0.1425 -0.3060 -0.2667
  606TIP3    H1 1782   4.054   2.467   1.572 -0.3106 -0.7320 -1.3569
  606TIP3    H2 1783   3.951   2.540   1.488 -0.1578  0.8351 -0.2287
  607TIP3   OH2 1784   4.525   2.053   5.908  0.3060  0.3442  0.4461
  607TIP3    H1 1785   4.549   2.077   5.819  0.3885 -2.2032 -0.2918
  607TIP3    H2 1786   4.430   2.055   5.910  0.2603  3.3822  1.2924
  608TIP3   OH2 1787   6.443   4.390   0.875  0.6476  0.2313  0.4723
  608TIP3    H1 1788   6.353   4.404   0.905  1.2220 -1.0149  3.0712
  608TIP3    H2 1789   6.489   4.471   0.897  0.3241  0.6270 -0.2755
  609TIP3   OH2 1790   7.190   5.781   4.879 -0.1406  0.0938  0.0533
  609TIP3    H1 1791   7.115   5.833   4.909  0.0693  1.6006 -1.8301
  609TIP3    H2 1792   7.221   5.736   4.957 -0.7744  2.2941  1.6546
  610TIP3   OH2 1793   4.468   2.580   2.468  0.3998 -0.0804 -0.4539
  610TIP3    H1 1794   4.510   2.569   2.554  0.8828  1.3401 -0.4861
  610TIP3    H2 1795   4.374   2.578   2.488  0.4887 -0.6902 -0.0358
  611TIP3   OH2 1796   5.281   1.524   2.698  0.0924  0.0566 -0.0971
  611TIP3    H1 1797   5.344   1.464   2.737  0.0583 -0.4091 -0.7343
  611TIP3    H2 1798   5.251   1.578   2.771  2.6888  1.6648 -0.0857
  612TIP3   OH2 1799   3.355   3.180   4.582 -1.1115  0.3067 -0.0495
  612TIP3    H1 1800   3.276   3.233   4.573 -0.0833  2.2773  1.6761
  612TIP3    H2 1801   3.426   3.238   4.553 -0.2251 -1.3342 -1.3484
  613TIP3   OH2 1802   6.964   6.319   3.138 -0.1488 -0.0435 -0.3212
  613TIP3    H1 1803   7.036   6.339   3.198 -1.8337 -0.2047  1.8494
  613TIP3    H2 1804   6.943   6.404   3.098  1.6486 -0.1135 -1.5609
  614TIP3   OH2 1805   5.235   3.970   4.987 -0.4950  0.3664  0.3095
  614TIP3    H1 1806   5.287   3.952   4.909 -0.8407  0.5046  0.0435
  614TIP3    H2 1807   5.177   4.042   4.962  0.5331  1.5551  1.2115
  615TIP3   OH2 1808   6.102   2.514   5.482 -0.3437 -0.0291  0.4727
  615TIP3    H1 1809   6.056   2.449   5.429 -0.7254 -0.1149  0.8997
  615TIP3    H2 1810   6.050   2.593   5.475 -1.6233 -0.6165  2.4201
  616TIP3   OH2 1811   1.029   5.589   4.169  0.4343  0.6659 -0.2326
  616TIP3    H1 1812   1.000   5.637   4.247 -0.0913  0.3846 -0.2526
  616TIP3    H2 1813   0.984   5.505   4.175 -0.3757  0.9946 -1.3388
  617TIP3   OH2 1814   2.517   2.999   5.743 -0.7548 -0.1327 -0.0848
  617TIP3    H1 1815   2.585   2.957   5.796 -1.0637 -1.4155 -0.6485
  617TIP3    H2 1816   2.442   3.006   5.802 -0.3795  0.5804  0.3133
  618TIP3   OH2 1817   1.979   2.228   3.489  0.1998  0.1724  0.0186
  618TIP3    H1 1818   1.973   2.306   3.544 -0.7819 -0.8007  1.3766
  618TIP3    H2 1819   1.996   2.261   3.401 -1.2206  1.9923  0.3609
  619TIP3   OH2 1820   0.308   0.143   5.785 -0.0298 -0.0161 -0.3491
  619TIP3    H1 1821   0.381   0.205   5.780 -1.2296  1.4764 -0.1533
  619TIP3    H2 1822   0.305   0.104   5.697  0.2098  0.8541 -0.7624
  620TIP3   OH2 1823   7.022   2.416   0.241  0.9375 -0.0119  0.1903
  620TIP3    H1 1824   7.082   2.417   0.166  2.5393 -0.1355  1.4162
  620TIP3    H2 1825   7.063   2.474   0.306 -0.3352 -0.0111  1.0256
  621TIP3   OH2 1826   2.840   5.867   3.766 -0.4134 -0.1372  0.3936
  621TIP3    H1 1827   2.931   5.867   3.736 -0.0659 -2.4125  1.2906
  621TIP3    H2 1828   2.788   5.873   3.685  0.5224 -0.5043 -0.2451
  622TIP3   OH2 1829   6.806   0.794   5.063 -0.3891  0.2275 -0.4216
  622TIP3    H1 1830   6.863   0.719   5.080  0.9232  1.6691  2.1728
  622TIP3    H2 1831   6.785   0.787   4.970  1.3182 -2.2101 -0.7311
  623TIP3   OH2 1832   2.743   6.452   5.170  0.0949  0.7946 -0.1634
  623TIP3    H1 1833   2.769   6.523   5.228 -2.0466  1.1159  0.4802
  623TIP3    H2 1834   2.810   6.451   5.101  2.5307  0.6268  2.0594
  624TIP3   OH2 1835   7.090   6.340   4.536 -0.0276 -0.2575 -1.0722
  624TIP3    H1 1836   7.027   6.269   4.521 -0.5965  0.4497 -2.1844
  624TIP3    H2 1837   7.169   6.313   4.490  0.1479 -0.6789 -0.5340
  625TIP3   OH2 1838   0.154   0.795   2.155  0.3239  0.2236  0.1295
  625TIP3    H1 1839   0.136   0.864   2.091  0.5382  1.0614  0.9537
  625TIP3    H2 1840   0.069   0.754   2.171  0.0702  0.7565  0.1596
  626TIP3   OH2 1841   4.766   1.842   1.572 -0.0917 -0.7730  0.1813
  626TIP3    H1 1842   4.828   1.913   1.588  0.7276 -1.1997 -0.9431
  626TIP3    H2 1843   4.786   1.813   1.483 -3.0245  0.1406 -0.8718
  627TIP3   OH2 1844   4.825   0.690   4.546  0.2404 -0.5873 -0.1178
  627TIP3    H1 1845   4.885   0.707   4.619 -1.0710  0.1120  0.8420
  627TIP3    H2 1846   4.785   0.606   4.566 -0.0719 -0.4273 -0.0638
  628TIP3   OH2 1847   5.097   0.828   0.896  0.3194  0.0102  0.1838
  628TIP3    H1 1848   5.093   0.843   0.990  0.7245  2.0873 -0.0788
  628TIP3    H2 1849   5.094   0.916   0.857  1.6202 -0.6951 -1.6767
  629TIP3   OH2 1850   3.902   1.185   3.529  0.1281  0.6154  0.4352
  629TIP3    H1 1851   3.858   1.166   3.612  1.3127  0.5073  1.0637
  629TIP3    H2 1852   3.888   1.107   3.476  0.7275  0.0129  1.1433
  630TIP3   OH2 1853   0.290   5.147   4.353  0.2098  0.6730 -0.6690
  630TIP3    H1 1854   0.274   5.081   4.287  0.2466 -1.2155  1.1133
  630TIP3    H2 1855   0.336   5.101   4.423  0.2151  2.5798  0.6669
  631TIP3   OH2 1856   1.247   1.012   1.321  0.1682  0.1009  0.0956
  631TIP3    H1 1857   1.172   0.955   1.300  0.5474 -0.7584  0.9820
  631TIP3    H2 1858   1.322   0.952   1.323  0.4895  0.5164  1.6027
  632TIP3   OH2 1859   1.318   3.722   5.784 -0.1419  0.0141  0.0898
  632TIP3    H1 1860   1.398   3.771   5.764 -0.5342  0.4430 -0.4403
  632TIP3    H2 1861   1.349   3.634   5.807  0.4145 -0.1098 -1.0871
  633TIP3   OH2 1862   5.540   4.135   3.409 -0.0403  0.5216  0.4100
  633TIP3    H1 1863   5.605   4.205   3.420  1.0323 -0.3132 -0.3140
  633TIP3    H2 1864   5.464   4.178   3.371  0.7237  1.2592 -0.3420
  634TIP3   OH2 1865   0.820   2.589   3.819 -0.0509  0.2252  0.3129
  634TIP3    H1 1866   0.870   2.532   3.760 -1.9002 -0.9559 -0.1991
  634TIP3    H2 1867   0.883   2.614   3.886  1.4423 -0.5019 -0.7415
  635TIP3   OH2 1868   0.990   4.388   3.306  0.3636  0.1306  0.3301
  635TIP3    H1 1869   1.055   4.458   3.295 -1.1694  1.3660 -1.3143
  635TIP3    H2 1870   1.000   4.333   3.228 -0.5540  0.3449  0.0496
  636TIP3   OH2 1871   3.201   1.371   4.470 -0.0199  0.0404 -0.1172
  636TIP3    H1 1872   3.277   1.317   4.445 -0.9904 -1.6173  0.3600
  636TIP3    H2 1873   3.210   1.450   4.417  2.5192  0.3017  0.5663
  637TIP3   OH2 1874   1.629   6.296   2.953 -0.2478 -0.0695  0.4926
  637TIP3    H1 1875   1.683   6.360   2.908 -2.4175  2.2179  0.9193
  637TIP3    H2 1876   1.573   6.259   2.884 -1.0451  0.7458  0.6785
  638TIP3   OH2 1877   2.558   5.436   5.308 -0.5187  0.3182 -0.0963
  638TIP3    H1 1878   2.598   5.352   5.286 -0.6283  0.0135  0.8102
  638TIP3    H2 1879   2.494   5.415   5.376 -0.8091  1.0876 -0.1161
  639TIP3   OH2 1880   2.367   2.428   1.708 -0.2091  0.1102  0.0704
  639TIP3    H1 1881   2.367   2.332   1.713 -1.7954  0.0960  0.5121
  639TIP3    H2 1882   2.383   2.447   1.616  2.4332 -0.4836  0.3421
  640TIP3   OH2 1883   1.552   4.080   4.370 -0.0672 -0.5646 -0.0326
  640TIP3    H1 1884   1.465   4.095   4.408  0.1551 -0.2376  0.3504
  640TIP3    H2 1885   1.569   3.987   4.386 -0.0202 -0.4526  0.5841
  641TIP3   OH2 1886   4.228   2.153   2.686 -0.4672  0.4447  0.8199
  641TIP3    H1 1887   4.161   2.221   2.696  1.3751  2.1641  2.2060
  641TIP3    H2 1888   4.255   2.160   2.594 -1.3186  0.5328  0.5609
  642TIP3   OH2 1889   6.344   2.798   2.662 -0.5673  0.1000 -0.8667
  642TIP3    H1 1890   6.308   2.712   2.639 -0.0567  0.3440 -2.7597
  642TIP3    H2 1891   6.431   2.798   2.622  0.3489  0.6755  1.0307
  643TIP3   OH2 1892   3.905   4.492   3.060 -0.0952 -0.5847 -0.1919
  643TIP3    H1 1893   3.971   4.443   3.012 -0.0528  0.6195 -1.4219
  643TIP3    H2 1894   3.823   4.472   3.016  0.0519  1.1468 -1.3401
  644TIP3   OH2 1895   0.178   2.587   2.164 -0.0365 -0.0835  0.0007
  644TIP3    H1 1896   0.181   2.638   2.245 -1.6680  0.5195 -0.2794
  644TIP3    H2 1897   0.207   2.499   2.190 -1.1189 -0.0615  1.4014
  645TIP3   OH2 1898   2.704   0.857   0.756 -0.2646  0.0708  0.1888
  645TIP3    H1 1899   2.691   0.767   0.727 -0.5328  0.3249 -0.4886
  645TIP3    H2 1900   2.616   0.893   0.764 -0.1351  1.0857 -2.1733
  646TIP3   OH2 1901   3.931   1.237   3.183  0.7135 -0.4506  0.1845
  646TIP3    H1 1902   3.885   1.220   3.101  2.1821 -2.0683 -0.3532
  646TIP3    H2 1903   3.893   1.175   3.245  0.3262  0.0635  0.4735
  647TIP3   OH2 1904   5.649   2.694   0.765  0.3343  0.5303  0.1925
  647TIP3    H1 1905   5.670   2.746   0.843 -0.7232  1.4887 -0.1317
  647TIP3    H2 1906   5.677   2.606   0.787 -0.4654  0.6590  1.9117
  648TIP3   OH2 1907   4.204   5.220   1.527 -0.3213  0.2361  0.7599
  648TIP3    H1 1908   4.130   5.196   1.583  0.3379 -1.1482  1.0882
  648TIP3    H2 1909   4.250   5.137   1.512  0.7671  0.9583 -0.0104
  649TIP3   OH2 1910   2.238   4.354   1.566  0.2584  0.4963 -0.6985
  649TIP3    H1 1911   2.209   4.356   1.657  0.7736  1.2604 -0.5489
  649TIP3    H2 1912   2.157   4.348   1.515 -0.2906  3.4230 -0.3272
  650TIP3   OH2 1913   6.031   3.276   2.908  0.2380  0.0976  0.4410
  650TIP3    H1 1914   6.003   3.367   2.920  2.1398  0.6835  0.7581
  650TIP3    H2 1915   6.053   3.246   2.996  0.1149 -0.4930  0.2686
  651TIP3   OH2 1916   1.317   2.542   1.961  0.0528  0.0541 -0.2013
  651TIP3    H1 1917   1.293   2.450   1.954  0.1709 -0.0091  0.1972
  651TIP3    H2 1918   1.248   2.589   1.915 -2.4666  0.1090  3.2868
  652TIP3   OH2 1919   6.585   6.151   1.820 -0.0273  0.3332 -0.3902
  652TIP3    H1 1920   6.523   6.110   1.880 -1.9574  3.3803 -0.0384
  652TIP3    H2 1921   6.618   6.227   1.868  2.5066 -0.0592 -1.3465
  653TIP3   OH2 1922   2.560   4.969   2.313 -0.1776 -0.4698  0.4245
  653TIP3    H1 1923   2.635   5.008   2.269 -0.8279  1.5914  1.0269
  653TIP3    H2 1924   2.497   4.954   2.242  0.1481 -0.5682  0.1522
  654TIP3   OH2 1925   4.840   4.605   4.176  0.2238 -0.6910  0.2375
  654TIP3    H1 1926   4.832   4.524   4.226 -0.2232 -0.1367  1.0914
  654TIP3    H2 1927   4.934   4.625   4.179  0.4091 -1.4279 -0.4035
  655TIP3   OH2 1928   5.259   6.741   1.978  0.1629  0.6847 -0.2345
  655TIP3    H1 1929   5.183   6.696   1.943 -0.0379  1.4129 -0.7606
  655TIP3    H2 1930   5.225   6.825   2.010  0.3151  0.0256  1.8323
  656TIP3   OH2 1931   3.544   4.500   5.618 -0.2245 -0.1412 -0.1212
  656TIP3    H1 1932   3.631   4.524   5.651  0.4868 -0.3873 -1.7223
  656TIP3    H2 1933   3.550   4.406   5.603 -1.6963 -0.7134  2.3276
  657TIP3   OH2 1934   4.181   3.279   4.669  0.3186  0.4577 -0.4805
  657TIP3    H1 1935   4.154   3.279   4.761 -0.8123 -0.2659 -0.7986
  657TIP3    H2 1936   4.119   3.337   4.626 -0.0339 -0.3040 -1.0212
  658TIP3   OH2 1937   2.319   1.457   2.549  0.0062  0.2701  0.5879
  658TIP3    H1 1938   2.390   1.509   2.512 -2.5049  3.5420 -0.1897
  658TIP3    H2 1939   2.346   1.366   2.536  2.6985  1.2975 -2.3094
  659TIP3   OH2 1940   3.694   5.250   1.081  0.1767  0.3593  0.2009
  659TIP3    H1 1941   3.782   5.287   1.076  1.0046 -1.1650  2.0842
  659TIP3    H2 1942   3.662   5.251   0.991  2.8511 -0.7142 -0.8643
  660TIP3   OH2 1943   1.985   5.997   0.722  0.3753 -0.1322  0.4137
  660TIP3    H1 1944   2.041   6.019   0.647 -0.7415 -1.0292 -0.7236
  660TIP3    H2 1945   1.973   6.080   0.768  0.3917  0.6128 -0.8856
  661TIP3   OH2 1946   0.652   0.510   5.015 -0.0221  0.4697 -0.3018
  661TIP3    H1 1947   0.673   0.418   4.997 -2.9570 -0.0577 -1.5275
  661TIP3    H2 1948   0.670   0.555   4.932  0.3792  0.8271 -0.0251
  662TIP3   OH2 1949   0.514   5.317   4.552  0.7265  0.1547  0.0631
  662TIP3    H1 1950   0.449   5.329   4.483  1.4545  2.2381 -0.3351
  662TIP3    H2 1951   0.595   5.295   4.506  1.0940  1.0259  0.2812
  663TIP3   OH2 1952   1.073   5.256   2.822 -0.0900 -0.0958 -0.1185
  663TIP3    H1 1953   1.088   5.163   2.841 -0.6931  0.2282  2.1175
  663TIP3    H2 1954   1.148   5.300   2.862 -0.6090  0.5031  0.1937
  664TIP3   OH2 1955   3.999   2.226   1.753  0.4660  0.2713 -0.3735
  664TIP3    H1 1956   3.964   2.250   1.667 -1.2094 -0.7589 -0.0334
  664TIP3    H2 1957   4.094   2.223   1.741  0.2663  0.2112 -2.1704
  665TIP3   OH2 1958   4.647   3.082   1.844 -0.0089  0.2735 -0.4316
  665TIP3    H1 1959   4.594   3.158   1.869  0.5864  0.5807 -0.0752
  665TIP3    H2 1960   4.718   3.118   1.791  0.2146 -0.0477 -0.3534
  666TIP3   OH2 1961   4.049   5.321   5.810 -0.4953  0.4726 -0.3800
  666TIP3    H1 1962   4.018   5.399   5.766 -0.6656  0.9191  0.5138
  666TIP3    H2 1963   4.004   5.249   5.767  0.0440  0.8086 -1.5449
  667TIP3   OH2 1964   0.352   1.844   3.604 -0.1766  0.8754  0.2706
  667TIP3    H1 1965   0.445   1.828   3.589 -0.1989  0.9076  0.0893
  667TIP3    H2 1966   0.347   1.934   3.635 -0.1662  0.9396  0.0857
  668TIP3   OH2 1967   0.746   6.570   3.200  0.2006 -0.5740 -0.0712
  668TIP3    H1 1968   0.668   6.556   3.146  1.6089 -0.3884 -2.2883
  668TIP3    H2 1969   0.805   6.498   3.175  1.8054  0.8556 -0.5582
  669TIP3   OH2 1970   6.229   1.130   3.106  0.3580  0.2554 -0.8384
  669TIP3    H1 1971   6.162   1.085   3.157  0.3900  0.6227 -0.4705
  669TIP3    H2 1972   6.205   1.222   3.112  1.9780  0.6163  0.9296
  670TIP3   OH2 1973   4.136   2.529   4.641  0.4070 -0.6851  0.0559
  670TIP3    H1 1974   4.105   2.460   4.582  1.0096 -1.4915  0.6642
  670TIP3    H2 1975   4.124   2.610   4.591 -1.7769 -1.0379 -0.0990
  671TIP3   OH2 1976   0.273   4.978   4.136  0.2514 -0.0103  0.0104
  671TIP3    H1 1977   0.243   5.027   4.060 -2.4527 -0.8372  0.4624
  671TIP3    H2 1978   0.304   4.894   4.100 -0.5313 -0.1946 -0.2525
  672TIP3   OH2 1979   0.691   6.223   3.345 -0.7914 -0.3468 -0.0143
  672TIP3    H1 1980   0.730   6.136   3.353 -0.7855 -0.4149 -0.7384
  672TIP3    H2 1981   0.736   6.276   3.411  0.0355 -0.5907 -0.3733
  673TIP3   OH2 1982   4.348   4.100   2.006  0.5426  0.4304 -0.1212
  673TIP3    H1 1983   4.302   4.129   1.927  2.3150  2.6034 -0.4591
  673TIP3    H2 1984   4.285   4.044   2.051 -1.8184  1.9483 -1.3307
  674TIP3   OH2 1985   2.166   4.874   0.964  0.1392 -0.0078 -0.0038
  674TIP3    H1 1986   2.106   4.943   0.991 -0.7986 -0.3711 -1.0804
  674TIP3    H2 1987   2.116   4.822   0.901  1.2154 -0.9806 -0.0895
  675TIP3   OH2 1988   4.485   2.173   3.384  0.7566 -0.1091 -0.1577
  675TIP3    H1 1989   4.394   2.145   3.377  0.6859 -0.1229  0.6799
  675TIP3    H2 1990   4.489   2.223   3.465  1.0290  1.7760 -1.2872
  676TIP3   OH2 1991   2.949   0.333   2.518  0.3973 -0.2448 -0.2480
  676TIP3    H1 1992   2.907   0.387   2.451  1.0420  0.7395  0.1161
  676TIP3    H2 1993   2.899   0.351   2.597 -0.6716 -1.7819 -0.5383
  677TIP3   OH2 1994   6.580   4.107   1.953  0.7316  0.2957  0.4519
  677TIP3    H1 1995   6.521   4.151   2.014 -0.0149  2.2524 -1.5110
  677TIP3    H2 1996   6.591   4.170   1.881  0.2059 -2.4233 -2.2288
  678TIP3   OH2 1997   4.183   0.017   1.713  0.1288 -0.2850  0.0397
  678TIP3    H1 1998   4.098   0.008   1.757  0.6473 -3.5259  0.5654
  678TIP3    H2 1999   4.228   0.086   1.763 -0.7485 -1.2098  2.2431
  679TIP3   OH2 2000   5.372   0.095   0.510 -0.3559 -0.9052 -0.3954
  679TIP3    H1 2001   5.401   0.109   0.420  2.0515  0.8191  0.5366
  679TIP3    H2 2002   5.447   0.053   0.553 -1.2987 -1.3099  0.9271
  680TIP3   OH2 2003   5.514   0.988   5.893 -0.0822 -0.6129  0.1553
  680TIP3    H1 2004   5.460   0.962   5.818 -0.4003  0.3975  0.0243
  680TIP3    H2 2005   5.518   1.083   5.888 -0.9826 -0.4335  2.0282
  681TIP3   OH2 2006   2.212   5.937   3.267 -0.0025 -0.7711  0.0160
  681TIP3    H1 2007   2.195   6.006   3.203  3.4134 -0.9322 -1.2815
  681TIP3    H2 2008   2.125   5.906   3.293 -1.5918  0.6482 -3.0474
  682TIP3   OH2 2009   3.627   4.452   4.237  0.6748  0.3917 -0.4354
  682TIP3    H1 2010   3.615   4.358   4.223  1.1024  0.3876 -0.7965
  682TIP3    H2 2011   3.721   4.463   4.242  0.9100  1.3135 -4.2990
  683TIP3   OH2 2012   0.823   0.455   3.846 -0.2011  0.1397 -0.0197
  683TIP3    H1 2013   0.881   0.384   3.817  0.9152  0.5023  1.2214
  683TIP3    H2 2014   0.737   0.413   3.853  0.6058 -1.3797  1.5897
  684TIP3   OH2 2015   4.657   2.950   3.355 -0.2713  0.3209 -0.0203
  684TIP3    H1 2016   4.671   2.894   3.432  0.4661  0.2361 -0.2072
  684TIP3    H2 2017   4.562   2.953   3.345 -0.3885  0.4868  1.0070
  685TIP3   OH2 2018   4.428   1.046   0.223 -0.0585  0.3371  0.0758
  685TIP3    H1 2019   4.472   0.969   0.259 -0.9966  0.1879  0.9630
  685TIP3    H2 2020   4.416   1.104   0.299  0.8224  1.4636 -0.6111
  686TIP3   OH2 2021   2.935   3.334   4.102  0.1160 -0.0276 -0.1417
  686TIP3    H1 2022   3.017   3.300   4.065 -1.0933 -0.2917 -2.8108
  686TIP3    H2 2023   2.916   3.276   4.176  0.5346 -2.2974 -1.6971
  687TIP3   OH2 2024   6.638   0.737   0.355  0.6808 -0.2653  0.4373
  687TIP3    H1 2025   6.623   0.831   0.355  1.1576 -0.1855  0.8904
  687TIP3    H2 2026   6.719   0.724   0.306 -0.0355 -0.5605 -0.7010
  688TIP3   OH2 2027   5.007   3.882   5.558  0.4081  0.0072  0.1135
  688TIP3    H1 2028   5.015   3.846   5.470  1.3998 -0.5893  0.4245
  688TIP3    H2 2029   5.096   3.880   5.593 -0.1948 -1.2691  1.7084
  689TIP3   OH2 2030   3.319   3.987   0.970  0.4175 -0.0842  0.0909
  689TIP3    H1 2031   3.227   3.969   0.989  0.3453 -0.0715 -0.2398
  689TIP3    H2 2032   3.329   3.964   0.877  0.0412  2.5845 -0.7111
  690TIP3   OH2 2033   6.779   3.166   5.455 -0.1641  0.7105 -0.1193
  690TIP3    H1 2034   6.861   3.163   5.407 -0.1549  0.3794 -0.0893
  690TIP3    H2 2035   6.736   3.083   5.433 -0.1821  0.5798  0.4039
  691TIP3   OH2 2036   4.922   0.915   2.390  0.0996 -0.3156 -0.1316
  691TIP3    H1 2037   4.933   0.987   2.452 -0.7997 -0.4104  0.1420
  691TIP3    H2 2038   5.008   0.908   2.347  0.5282  0.1882  0.6152
  692TIP3   OH2 2039   7.091   5.938   2.269 -0.2516  0.4699  0.2542
  692TIP3    H1 2040   7.129   6.022   2.294 -1.5915  0.6429  1.8870
  692TIP3    H2 2041   7.166   5.879   2.261  0.6753  1.7124 -0.5659
  693TIP3   OH2 2042   4.319   1.208   3.303 -0.0469  0.2665  0.3195
  693TIP3    H1 2043   4.411   1.226   3.321  0.5740 -1.3622 -0.9342
  693TIP3    H2 2044   4.303   1.124   3.347 -0.4925 -0.2031 -0.7234
  694TIP3   OH2 2045   5.817   0.298   0.701 -0.3542  0.3021 -0.1394
  694TIP3    H1 2046   5.721   0.296   0.707 -0.4502  1.7545 -0.7238
  694TIP3    H2 2047   5.837   0.265   0.614 -0.4217  1.2825 -0.5362
  695TIP3   OH2 2048   6.194   3.932   2.041  0.1705 -0.8156  0.2365
  695TIP3    H1 2049   6.231   4.020   2.039 -1.5201 -0.0450  0.6170
  695TIP3    H2 2050   6.206   3.903   2.132  0.6850 -0.9725  0.1222
  696TIP3   OH2 2051   4.627   3.163   1.361  0.1402  0.3891 -0.4262
  696TIP3    H1 2052   4.546   3.112   1.368  1.1449 -1.5387 -1.8735
  696TIP3    H2 2053   4.603   3.250   1.393 -2.5762 -0.0197 -1.0719
  697TIP3   OH2 2054   3.734   0.238   2.143  0.4940  0.0487  0.0877
  697TIP3    H1 2055   3.688   0.319   2.167  0.9639 -0.2491  2.2741
  697TIP3    H2 2056   3.730   0.185   2.223  0.4762 -1.9713 -1.2034
  698TIP3   OH2 2057   4.470   1.908   2.436 -0.0413  0.2044 -0.6096
  698TIP3    H1 2058   4.447   1.851   2.362 -1.6087  0.3225 -0.2434
  698TIP3    H2 2059   4.464   1.997   2.401  1.1989  0.2080 -0.8537
  699TIP3   OH2 2060   5.572   2.100   2.110 -0.2709  0.1168  0.8403
  699TIP3    H1 2061   5.485   2.062   2.120  0.1682 -1.2173 -0.1343
  699TIP3    H2 2062   5.630   2.041   2.157  0.4957 -0.7820 -1.1089
  700TIP3   OH2 2063   5.897   1.803   2.571 -0.2988  0.3094  0.0485
  700TIP3    H1 2064   5.967   1.864   2.548 -0.5735  1.0271  1.0706
  700TIP3    H2 2065   5.828   1.820   2.506  1.1191 -1.7064 -2.1684
  701TIP3   OH2 2066   5.003   1.161   1.670  0.1684 -0.1420 -0.4008
  701TIP3    H1 2067   4.955   1.203   1.741  0.0432  0.2362 -0.7025
  701TIP3    H2 2068   4.945   1.169   1.594  1.3609  1.8308 -1.1937
  702TIP3   OH2 2069   5.999   2.724   4.345 -0.5136  0.0794 -0.5698
  702TIP3    H1 2070   6.033   2.753   4.430 -2.5524  1.2265 -0.0760
  702TIP3    H2 2071   6.076   2.720   4.289  0.5800  1.5406  0.7257
  703TIP3   OH2 2072   0.650   4.144   5.330  0.0580 -0.4970 -0.1800
  703TIP3    H1 2073   0.570   4.186   5.297 -0.1709  0.9944  2.0214
  703TIP3    H2 2074   0.710   4.145   5.256 -1.1281  0.6398 -1.1789
  704TIP3   OH2 2075   6.955   3.473   4.188 -0.2723 -0.8643 -0.0995
  704TIP3    H1 2076   6.986   3.563   4.174  0.6917 -1.1920 -0.1409
  704TIP3    H2 2077   6.993   3.423   4.116 -0.5663 -1.3660  0.0894
  705TIP3   OH2 2078   0.241   4.484   4.263  1.0822  0.2884  0.8996
  705TIP3    H1 2079   0.287   4.494   4.346  3.1361  0.0788 -0.1388
  705TIP3    H2 2080   0.259   4.565   4.215  1.3000 -0.2421  0.0554
  706TIP3   OH2 2081   4.481   0.377   0.751 -0.2383 -0.4239 -0.0495
  706TIP3    H1 2082   4.491   0.468   0.778 -1.4976 -0.3931  0.3781
  706TIP3    H2 2083   4.471   0.382   0.656  0.6327 -0.2062 -0.1352
  707TIP3   OH2 2084   2.523   5.104   3.100 -0.2830 -0.0049 -0.9486
  707TIP3    H1 2085   2.543   5.026   3.048  0.5497 -0.6219  0.2199
  707TIP3    H2 2086   2.531   5.177   3.039 -1.0421 -0.8286 -2.0678
  708TIP3   OH2 2087   5.587   6.746   4.937 -0.4380 -0.2500  0.2105
  708TIP3    H1 2088   5.607   6.674   4.877 -1.7418 -0.2566 -0.2562
  708TIP3    H2 2089   5.558   6.703   5.017 -0.0418 -0.2442  0.3559
  709TIP3   OH2 2090   4.723   6.783   1.374 -0.1811  0.5000 -0.0904
  709TIP3    H1 2091   4.642   6.739   1.348  0.0464  0.5997 -0.9925
  709TIP3    H2 2092   4.780   6.712   1.405 -1.1445  0.5940  2.0262
  710TIP3   OH2 2093   1.725   6.709   0.237  0.1002 -0.3855 -0.8710
  710TIP3    H1 2094   1.745   6.675   0.325  0.7459  0.1594 -0.7930
  710TIP3    H2 2095   1.729   6.632   0.180 -2.4680 -1.1465 -0.1432
  711TIP3   OH2 2096   4.463   5.133   3.005  0.6431  0.1002 -0.2859
  711TIP3    H1 2097   4.551   5.169   2.997  0.6710 -0.0482 -0.6587
  711TIP3    H2 2098   4.476   5.044   3.035  0.5049  0.9406  2.4948
  712TIP3   OH2 2099   2.212   3.173   0.100 -0.0143 -0.4154 -0.2242
  712TIP3    H1 2100   2.262   3.245   0.141 -0.7312 -0.9402  1.6940
  712TIP3    H2 2101   2.276   3.103   0.088  0.1565 -0.3634  0.3418
  713TIP3   OH2 2102   1.032   2.273   5.636 -0.0651 -0.2730 -0.1377
  713TIP3    H1 2103   0.945   2.310   5.620  0.3180  0.8498  0.3010
  713TIP3    H2 2104   1.043   2.278   5.731  0.6428  0.0037 -0.2247
  714TIP3   OH2 2105   3.135   4.364   2.011  0.0159  0.3096 -0.5324
  714TIP3    H1 2106   3.076   4.424   2.055 -0.5324 -0.8364  0.3652
  714TIP3    H2 2107   3.093   4.344   1.928 -0.2081  0.5260 -0.4701
  715TIP3   OH2 2108   6.236   3.062   2.006 -0.7492  0.9085 -0.1893
  715TIP3    H1 2109   6.221   3.117   1.929 -0.5538  0.9808 -0.1734
  715TIP3    H2 2110   6.291   2.991   1.973  0.7373  1.8269  0.2637
  716TIP3   OH2 2111   4.098   2.246   0.789 -0.7236 -0.1939  0.3607
  716TIP3    H1 2112   4.192   2.239   0.774 -0.4587  1.2641  1.1628
  716TIP3    H2 2113   4.076   2.169   0.842  0.0110 -0.5306  0.1850
  717TIP3   OH2 2114   2.036   6.727   0.053  0.0136 -0.0341  0.3031
  717TIP3    H1 2115   1.954   6.679   0.063 -0.1763  0.0086 -0.9229
  717TIP3    H2 2116   2.075   6.693  -0.028  0.6875  0.6935  0.3069
  718TIP3   OH2 2117   3.192   2.263   4.188  0.8535  0.4190  0.1107
  718TIP3    H1 2118   3.189   2.179   4.233  0.7490  0.5463  0.3435
  718TIP3    H2 2119   3.258   2.251   4.119 -0.7074 -0.5401 -1.2826
  719TIP3   OH2 2120   1.171   1.707   3.563 -0.1756  0.0877 -0.9859
  719TIP3    H1 2121   1.093   1.696   3.618  1.0218  2.0850  1.3147
  719TIP3    H2 2122   1.227   1.633   3.587  0.3252  0.9292  0.5573
  720TIP3   OH2 2123   0.046   6.213   5.178  0.8018  0.5767 -0.2419
  720TIP3    H1 2124   0.049   6.288   5.120 -0.2448  1.3948  0.7171
  720TIP3    H2 2125   0.042   6.137   5.119  0.6746  1.3285 -1.2277
  721TIP3   OH2 2126   4.963   3.446   5.134 -0.1690  0.3036 -0.3141
  721TIP3    H1 2127   4.952   3.352   5.122  1.7124  0.1345 -1.0869
  721TIP3    H2 2128   5.036   3.469   5.077  1.2336  1.7152  1.8817
  722TIP3   OH2 2129   5.518   0.791   2.288 -0.0260  0.3745  0.5346
  722TIP3    H1 2130   5.479   0.728   2.349  0.8014 -0.8540 -0.1564
  722TIP3    H2 2131   5.480   0.875   2.312 -1.9613 -0.5394  0.8176
  723TIP3   OH2 2132   1.395   6.553   4.496  0.1759  0.1672 -0.4640
  723TIP3    H1 2133   1.403   6.459   4.480  1.7547  0.2886 -0.5837
  723TIP3    H2 2134   1.432   6.566   4.583 -4.1940  0.1352  1.6459
  724TIP3   OH2 2135   5.644   0.045   0.592  0.9959 -0.5261  0.0198
  724TIP3    H1 2136   5.717   0.031   0.652 -0.5918 -2.4201  1.6477
  724TIP3    H2 2137   5.681   0.029   0.505  3.0816  1.1308  0.5207
  725TIP3   OH2 2138   4.471   5.213   4.083 -0.2492 -0.0761 -0.2700
  725TIP3    H1 2139   4.499   5.158   4.009 -0.6413 -0.7257  0.0604
  725TIP3    H2 2140   4.478   5.303   4.049 -0.2198 -0.3535 -1.0270
  726TIP3   OH2 2141   0.313   5.420   2.798  0.1291 -0.2429  0.1275
  726TIP3    H1 2142   0.343   5.511   2.802 -0.7894  0.0543  0.6088
  726TIP3    H2 2143   0.364   5.374   2.865 -0.8027  0.3577  1.2799
  727TIP3   OH2 2144   1.857   0.615   1.701 -0.5031 -0.1447 -0.3873
  727TIP3    H1 2145   1.849   0.632   1.795  0.5469 -2.1948  0.1210
  727TIP3    H2 2146   1.773   0.643   1.665 -1.4317 -0.5206  1.3520
  728TIP3   OH2 2147   2.347   0.592   2.509 -0.0903  0.1421  0.1855
  728TIP3    H1 2148   2.408   0.626   2.575 -0.3308 -1.4484  1.2701
  728TIP3    H2 2149   2.315   0.670   2.465  2.5165  1.0793 -0.2677
  729TIP3   OH2 2150  -0.020   6.775   0.163 -0.2786  0.1597  0.4442
  729TIP3    H1 2151   0.067   6.813   0.151  0.0374 -0.3580  1.0696
  729TIP3    H2 2152  -0.004   6.688   0.200 -1.0277 -0.2799 -0.2214
  730TIP3   OH2 2153   0.326   0.209   1.953  0.4649 -0.5040 -0.3470
  730TIP3    H1 2154   0.258   0.213   2.021 -0.2505 -0.5495 -1.0469
  730TIP3    H2 2155   0.308   0.285   1.897  0.7943 -0.7056 -0.7284
  731TIP3   OH2 2156   5.372   1.942   2.181  0.1039  0.0854 -0.3846
  731TIP3    H1 2157   5.281   1.967   2.201 -0.6930 -2.1391 -0.9285
  731TIP3    H2 2158   5.383   1.857   2.223  1.9986  0.3461 -0.2667
  732TIP3   OH2 2159   4.806   4.931   3.501  0.3598  0.4861 -0.3696
  732TIP3    H1 2160   4.778   5.017   3.533  1.2885  1.0013 -0.9007
  732TIP3    H2 2161   4.752   4.868   3.549  0.6307  1.3015  1.0267
  733TIP3   OH2 2162   4.829   6.459   2.501 -0.3595  0.2575  0.4665
  733TIP3    H1 2163   4.734   6.463   2.511 -0.5356 -0.5791 -0.6752
  733TIP3    H2 2164   4.845   6.495   2.414  0.3750  0.4198  0.6674
  734TIP3   OH2 2165   3.822   0.568   1.075 -0.2466 -0.6920 -0.0191
  734TIP3    H1 2166   3.744   0.592   1.126  0.2312  0.3671  0.2342
  734TIP3    H2 2167   3.820   0.472   1.072 -1.9032 -0.6648 -0.5734
  735TIP3   OH2 2168   2.624   0.806   5.619 -0.3579 -0.1403 -0.2373
  735TIP3    H1 2169   2.679   0.822   5.542  1.4079 -0.9302  0.7997
  735TIP3    H2 2170   2.681   0.762   5.681 -2.1948 -1.0162  0.9280
  736TIP3   OH2 2171   1.721   4.517   0.525  0.1866 -0.2935 -0.4757
  736TIP3    H1 2172   1.783   4.511   0.452 -0.6372 -3.1210 -1.0564
  736TIP3    H2 2173   1.771   4.487   0.601  0.7603  1.7409  0.0179
  737TIP3   OH2 2174   3.192   2.902   4.467 -0.2323  0.1741  0.2921
  737TIP3    H1 2175   3.154   2.942   4.545  3.9701  0.8415  2.2591
  737TIP3    H2 2176   3.209   2.811   4.492 -1.5448 -0.4821 -1.0121
  738TIP3   OH2 2177   4.890   2.322   4.701  0.1265  0.1144 -0.4330
  738TIP3    H1 2178   4.958   2.256   4.685  0.6533  0.4072  0.5458
  738TIP3    H2 2179   4.926   2.378   4.769 -1.2085  0.1158  0.3116
  739TIP3   OH2 2180   4.608   4.997   5.286  0.0860 -0.3267  0.5740
  739TIP3    H1 2181   4.683   5.016   5.342  0.6203 -0.3288 -0.1300
  739TIP3    H2 2182   4.646   4.975   5.201 -0.7706  1.7168 -0.4033
  740TIP3   OH2 2183   2.560   2.120   4.231 -0.0067  0.5340 -0.2418
  740TIP3    H1 2184   2.549   2.215   4.239 -0.6362  0.6354 -1.9399
  740TIP3    H2 2185   2.624   2.109   4.161  1.5559 -0.3130  1.2296
  741TIP3   OH2 2186   1.738   3.978   3.026  0.2672 -0.0680  0.0705
  741TIP3    H1 2187   1.749   4.070   3.051 -0.2249  0.4556 -1.4865
  741TIP3    H2 2188   1.647   3.971   2.999  0.7419 -0.5352 -1.5345
  742TIP3   OH2 2189   3.534   3.801   2.899 -0.3739 -0.1537 -0.9074
  742TIP3    H1 2190   3.493   3.815   2.814  0.0663 -0.6304 -1.2086
  742TIP3    H2 2191   3.521   3.883   2.946 -0.9124 -0.0023 -1.3094
  743TIP3   OH2 2192   5.058   3.081   2.851  0.4732  0.2689 -0.2154
  743TIP3    H1 2193   5.137   3.090   2.799 -0.0280  2.8907 -0.6561
  743TIP3    H2 2194   4.987   3.098   2.790 -0.1674  2.5566  1.0444
  744TIP3   OH2 2195   6.404   1.149   4.381  0.3783 -0.0618 -0.1650
  744TIP3    H1 2196   6.351   1.222   4.413  1.2182  0.7578 -0.6150
  744TIP3    H2 2197   6.385   1.145   4.287 -0.3905 -1.0437  0.0174
  745TIP3   OH2 2198   1.399   5.070   1.449  0.2156 -0.2231 -0.1430
  745TIP3    H1 2199   1.316   5.081   1.402 -0.0820  0.8193  0.5832
  745TIP3    H2 2200   1.375   5.019   1.527  0.0478  0.8427  0.5340
  746TIP3   OH2 2201   2.051   0.220   3.064  0.1957  0.1739 -0.0276
  746TIP3    H1 2202   2.038   0.144   3.007  0.1606  0.9781 -1.1387
  746TIP3    H2 2203   2.138   0.208   3.101 -0.5254 -1.3409  1.3195
  747TIP3   OH2 2204   3.896   3.443   5.604 -0.1940  0.1297  0.2954
  747TIP3    H1 2205   3.850   3.360   5.613  0.6758 -0.2466  1.4064
  747TIP3    H2 2206   3.922   3.446   5.512 -0.6719 -0.5858  0.1290
  748TIP3   OH2 2207   4.000   2.398   0.540 -0.6587 -0.5468 -0.4414
  748TIP3    H1 2208   3.982   2.403   0.634  0.3255  0.9920 -0.2871
  748TIP3    H2 2209   4.084   2.353   0.533 -0.1339  0.4011 -0.4669
  749TIP3   OH2 2210   0.235   0.770   1.719 -0.1692  0.0572 -0.0139
  749TIP3    H1 2211   0.258   0.731   1.803  0.5591  1.5946  0.5336
  749TIP3    H2 2212   0.147   0.737   1.701 -2.0787  2.6445  3.3078
  750TIP3   OH2 2213   4.066   1.446   5.462 -0.2051  0.3857  0.3159
  750TIP3    H1 2214   3.990   1.388   5.457  0.5487 -0.6755  0.7543
  750TIP3    H2 2215   4.081   1.456   5.556  1.0239 -0.5666  0.2446
  751TIP3   OH2 2216   5.741   1.465   5.482 -0.1308 -0.0090 -0.3621
  751TIP3    H1 2217   5.754   1.510   5.565 -1.4747 -1.0875  0.4687
  751TIP3    H2 2218   5.646   1.461   5.471  0.0141  0.8280 -2.3702
  752TIP3   OH2 2219   2.520   2.185   1.906 -0.3148 -0.0334  0.2182
  752TIP3    H1 2220   2.568   2.139   1.974  0.4702  2.2890  1.3541
  752TIP3    H2 2221   2.537   2.278   1.924 -3.2073  0.7969 -0.8498
  753TIP3   OH2 2222   6.178   1.215   3.715  0.7273  0.0727 -0.3341
  753TIP3    H1 2223   6.133   1.293   3.683  0.5242 -0.1847 -0.6854
  753TIP3    H2 2224   6.142   1.200   3.802 -0.0213 -0.2506 -0.6935
  754TIP3   OH2 2225   4.420   5.453   5.141  0.4241 -0.4918  0.3976
  754TIP3    H1 2226   4.364   5.440   5.064  2.3430  0.1884 -1.1806
  754TIP3    H2 2227   4.427   5.365   5.179 -2.4097 -0.4602  1.2291
  755TIP3   OH2 2228   4.677   0.052   4.331 -0.1791  0.7378 -0.4436
  755TIP3    H1 2229   4.640   0.138   4.348 -0.4147  0.7286 -0.9012
  755TIP3    H2 2230   4.604   0.001   4.297 -0.0528  0.3389 -0.1308
  756TIP3   OH2 2231   0.142   4.022   5.131 -0.3237  0.2952 -0.6038
  756TIP3    H1 2232   0.197   3.981   5.198 -1.6636 -0.0987  0.3073
  756TIP3    H2 2233   0.122   4.109   5.166 -0.9447  0.1265 -0.5115
  757TIP3   OH2 2234   2.493   5.491   0.642  0.4545  0.0607  0.5688
  757TIP3    H1 2235   2.522   5.448   0.723 -1.4000 -0.2835  1.1060
  757TIP3    H2 2236   2.541   5.574   0.640 -1.0165  1.0922  3.2118
  758TIP3   OH2 2237   1.682   1.918   4.399  0.2729  0.3924  0.3171
  758TIP3    H1 2238   1.681   2.004   4.440  0.3846  0.6877 -0.2925
  758TIP3    H2 2239   1.771   1.908   4.366  0.3231 -0.0513  0.5674
  759TIP3   OH2 2240   6.308   1.275   5.127  0.0951 -0.0489  0.4312
  759TIP3    H1 2241   6.358   1.297   5.205  1.3847  0.5167 -0.5127
  759TIP3    H2 2242   6.275   1.359   5.094 -0.4143 -0.2760  0.3533
  760TIP3   OH2 2243   2.960   3.142   1.872 -0.0035  0.0560  0.2735
  760TIP3    H1 2244   3.035   3.137   1.813  1.0222  0.9663  1.4342
  760TIP3    H2 2245   2.924   3.230   1.859 -1.1237 -0.5001 -0.5399
  761TIP3   OH2 2246   4.498   1.162   5.789 -0.1288 -0.4768  0.1142
  761TIP3    H1 2247   4.405   1.184   5.793 -0.3053 -1.3091  1.0074
  761TIP3    H2 2248   4.500   1.066   5.796  0.8619 -0.3724  1.6269
  762TIP3   OH2 2249   0.370   5.183   2.604 -0.0356 -0.1470 -0.0093
  762TIP3    H1 2250   0.451   5.177   2.553 -0.4525  2.3041 -1.0809
  762TIP3    H2 2251   0.377   5.267   2.649 -3.1598  1.4993 -2.3041
  763TIP3   OH2 2252   3.105   4.768   5.655  0.5306  0.0282 -0.0724
  763TIP3    H1 2253   3.122   4.862   5.661  1.2947 -0.0429 -1.0128
  763TIP3    H2 2254   3.182   4.727   5.694 -0.4395 -0.2180  1.7040
  764TIP3   OH2 2255   4.099   2.867   0.727  0.0508 -0.0859  0.5653
  764TIP3    H1 2256   4.099   2.804   0.655 -0.3794  1.9468 -1.3197
  764TIP3    H2 2257   4.188   2.904   0.725 -0.3527  0.8965  0.1837
  765TIP3   OH2 2258   1.843   6.477   5.901  0.5100  0.1217  0.4964
  765TIP3    H1 2259   1.844   6.468   5.805  0.7158  1.2390  0.3883
  765TIP3    H2 2260   1.821   6.569   5.917 -0.1252 -0.1904  1.5426
  766TIP3   OH2 2261   3.811   4.613   2.385 -0.0010 -0.3049  0.2755
  766TIP3    H1 2262   3.794   4.707   2.386 -1.7791 -0.5764  0.9311
  766TIP3    H2 2263   3.896   4.603   2.427 -0.2824  0.9409  1.1972
  767TIP3   OH2 2264   4.946   5.679   5.796 -0.4450 -0.8647 -0.3097
  767TIP3    H1 2265   4.950   5.693   5.702 -2.9211  2.2077 -0.1394
  767TIP3    H2 2266   5.029   5.712   5.829  0.1531 -1.3145 -1.3334
  768TIP3   OH2 2267   4.654   2.868   0.567 -0.2819 -0.2737  0.3167
  768TIP3    H1 2268   4.746   2.842   0.561 -0.4533 -0.6008 -1.5797
  768TIP3    H2 2269   4.637   2.873   0.661  1.9158  0.7289  0.7302
  769TIP3   OH2 2270   3.562   0.589   0.170 -0.0386  0.3392 -0.4260
  769TIP3    H1 2271   3.636   0.628   0.217 -0.8416 -0.3069  1.4810
  769TIP3    H2 2272   3.575   0.495   0.180 -0.4993  0.2024 -1.0985
  770TIP3   OH2 2273   4.207   6.680   5.578 -0.0042  0.1877  0.3798
  770TIP3    H1 2274   4.116   6.695   5.555 -0.0149  0.0284  0.3174
  770TIP3    H2 2275   4.249   6.654   5.496  0.3960  1.5939  0.1106
  771TIP3   OH2 2276   5.480   4.403   5.767  0.5768 -0.2164  0.2231
  771TIP3    H1 2277   5.569   4.436   5.755  0.1303  0.6493 -1.0269
  771TIP3    H2 2278   5.424   4.473   5.732 -0.5136 -1.3897 -0.4677
  772TIP3   OH2 2279   6.604   4.159   0.917  0.4276  0.8679  0.2585
  772TIP3    H1 2280   6.559   4.243   0.912  1.8808  1.6579 -0.0666
  772TIP3    H2 2281   6.697   4.181   0.908  0.7659 -0.8841 -1.0236
  773TIP3   OH2 2282   0.346   5.103   1.954  0.7185 -0.0097  0.3749
  773TIP3    H1 2283   0.341   5.188   1.997  0.3314  0.1785 -0.0307
  773TIP3    H2 2284   0.255   5.073   1.950  0.7551 -0.0506 -0.2436
  774TIP3   OH2 2285   6.516   6.331   0.485  0.1701 -0.0009  0.2355
  774TIP3    H1 2286   6.473   6.383   0.553 -0.6504 -1.6975  1.0680
  774TIP3    H2 2287   6.470   6.247   0.486  1.8430 -0.9746 -0.6299
  775TIP3   OH2 2288   3.895   5.966   4.322 -0.1695  0.4094 -0.3382
  775TIP3    H1 2289   3.826   6.024   4.288  0.3929  0.8276 -0.7979
  775TIP3    H2 2290   3.911   5.997   4.410 -0.7407  0.1473 -0.1349
  776TIP3   OH2 2291   1.528   5.826   3.609 -0.4841  0.0748 -0.1827
  776TIP3    H1 2292   1.498   5.807   3.520 -0.4713 -0.7475 -0.0232
  776TIP3    H2 2293   1.541   5.740   3.648  1.9955  0.3892 -0.1932
  777TIP3   OH2 2294   3.846   4.109   5.176  0.7882  0.0188  0.4623
  777TIP3    H1 2295   3.913   4.132   5.241  1.8227 -0.2929 -0.4703
  777TIP3    H2 2296   3.815   4.192   5.142 -0.6515  0.2640  2.1665
  778TIP3   OH2 2297   5.367   3.788   4.325  0.3854  0.1995  0.0357
  778TIP3    H1 2298   5.299   3.749   4.381 -0.5609  0.4599 -0.8899
  778TIP3    H2 2299   5.431   3.824   4.386  0.1424 -0.8302  0.9289
  779TIP3   OH2 2300   2.432   5.968   3.900 -0.1329 -0.7752 -0.0637
  779TIP3    H1 2301   2.374   5.893   3.887 -1.1838 -0.3137  1.6683
  779TIP3    H2 2302   2.458   5.994   3.811 -1.9523 -1.4711 -0.8517
  780TIP3   OH2 2303   3.156   5.282   4.203 -0.2991  0.0334  0.3398
  780TIP3    H1 2304   3.069   5.297   4.240  0.1919 -0.3871  1.7113
  780TIP3    H2 2305   3.139   5.240   4.119 -1.4437  0.8559  0.1279
  781TIP3   OH2 2306   5.045   4.162   4.921  0.0359  0.0108 -0.7699
  781TIP3    H1 2307   5.088   4.206   4.995  0.1707  0.4503 -1.1081
  781TIP3    H2 2308   4.963   4.128   4.958 -0.0242  0.4622 -0.4801
  782TIP3   OH2 2309   1.683   5.580   3.906 -0.1558  0.1766  0.7591
  782TIP3    H1 2310   1.775   5.580   3.934 -0.0793  1.5085  0.5960
  782TIP3    H2 2311   1.638   5.632   3.973 -0.3080  1.7983 -0.5327
  783TIP3   OH2 2312   6.295   1.721   1.368  0.6363  0.1622 -0.2134
  783TIP3    H1 2313   6.311   1.763   1.452 -2.5772 -0.5335  0.8941
  783TIP3    H2 2314   6.275   1.630   1.389  2.7366 -0.8440 -2.0988
  784TIP3   OH2 2315   0.347   3.694   2.371  0.1767  0.1102 -0.3064
  784TIP3    H1 2316   0.322   3.673   2.281 -0.9552  0.4167 -0.0722
  784TIP3    H2 2317   0.275   3.746   2.405  1.0679  0.8889  0.4559
  785TIP3   OH2 2318   2.413   1.838   1.972  0.2361 -0.1169 -0.1315
  785TIP3    H1 2319   2.334   1.890   1.958  1.0800  1.8282  1.7843
  785TIP3    H2 2320   2.460   1.844   1.889  0.5428  2.7389  0.1263
  786TIP3   OH2 2321   4.321   6.498   5.290 -0.0018 -0.4602  0.1241
  786TIP3    H1 2322   4.410   6.530   5.280  0.3557 -1.6002 -0.5983
  786TIP3    H2 2323   4.268   6.554   5.233  0.4842 -0.6607 -0.5295
  787TIP3   OH2 2324   0.826   0.920   0.995  0.0716 -0.0813 -0.4144
  787TIP3    H1 2325   0.847   0.949   0.906  0.9940 -0.3314 -0.2831
  787TIP3    H2 2326   0.798   0.829   0.984  0.3792 -0.1743 -0.4217
  788TIP3   OH2 2327   6.267   4.775   2.624 -0.4815  0.1507 -0.0501
  788TIP3    H1 2328   6.235   4.855   2.584  0.6940  0.4509 -0.4286
  788TIP3    H2 2329   6.215   4.765   2.704 -0.7738  1.1776 -0.1024
  789TIP3   OH2 2330   3.095   1.819   1.842  0.1786  0.0093 -0.4170
  789TIP3    H1 2331   3.134   1.821   1.929  1.7927  0.5949 -1.1151
  789TIP3    H2 2332   3.007   1.784   1.856  0.0026  1.1097  1.5902
  790TIP3   OH2 2333   0.178   5.967   4.386 -0.0879 -0.3168 -0.4980
  790TIP3    H1 2334   0.187   6.031   4.315 -2.2156  0.8073  0.1434
  790TIP3    H2 2335   0.094   5.925   4.369  0.6203 -1.9466 -0.0856
  791TIP3   OH2 2336   4.169   1.534   2.843 -0.0033  0.4576  0.2682
  791TIP3    H1 2337   4.200   1.555   2.932 -1.2698 -2.0581  1.4093
  791TIP3    H2 2338   4.230   1.467   2.812 -0.1761  0.5833 -0.3400
  792TIP3   OH2 2339   3.112   0.324   4.001 -0.5092  0.2372  0.4912
  792TIP3    H1 2340   3.087   0.243   3.956  0.3551  0.2535 -0.0372
  792TIP3    H2 2341   3.033   0.351   4.048 -0.1279 -2.3498  2.9144
  793TIP3   OH2 2342   2.027   3.492   4.619  0.6073  0.1369 -0.6798
  793TIP3    H1 2343   1.971   3.564   4.589  2.1449  1.1033 -1.3602
  793TIP3    H2 2344   2.115   3.520   4.596  1.4212 -1.1585  0.7291
  794TIP3   OH2 2345   3.576   1.742   5.308 -0.0888 -0.9225  0.2872
  794TIP3    H1 2346   3.489   1.717   5.278 -0.5118  0.1379  0.5999
  794TIP3    H2 2347   3.620   1.776   5.230 -1.0656  1.5000  0.7177
  795TIP3   OH2 2348   6.473   3.513   5.795 -0.0520 -1.0033 -0.2061
  795TIP3    H1 2349   6.563   3.543   5.809 -0.4329  0.2598 -0.4019
  795TIP3    H2 2350   6.438   3.500   5.883 -0.5614  1.2523 -0.0215
  796TIP3   OH2 2351   6.135   5.749   5.390  0.5446  0.1788  0.2634
  796TIP3    H1 2352   6.143   5.784   5.479  0.8737 -1.6349  1.0060
  796TIP3    H2 2353   6.156   5.823   5.333 -0.5952  1.6456  1.6459
  797TIP3   OH2 2354   5.254   1.286   4.898  0.1068  0.1852  0.0487
  797TIP3    H1 2355   5.265   1.294   4.993 -1.0108  1.9725  0.0740
  797TIP3    H2 2356   5.280   1.372   4.864  0.5917 -0.4702 -1.2953
  798TIP3   OH2 2357   0.479   1.105   2.726 -0.6021  0.4262  0.0681
  798TIP3    H1 2358   0.515   1.156   2.799 -1.4493  0.7469  0.2668
  798TIP3    H2 2359   0.417   1.164   2.684 -0.8925 -0.1227 -0.2860
  799TIP3   OH2 2360   1.987   5.141   5.525  0.5620  0.3117  0.1453
  799TIP3    H1 2361   1.931   5.203   5.571  1.3908  2.1829 -1.2277
  799TIP3    H2 2362   1.945   5.129   5.440 -0.6020 -2.5815  1.0314
  800TIP3   OH2 2363   1.376   6.731   3.637 -0.0031  0.5698  0.4738
  800TIP3    H1 2364   1.421   6.813   3.656  0.4654  0.3479  0.3329
  800TIP3    H2 2365   1.437   6.682   3.582 -0.2134  0.0604  0.6849
  801TIP3   OH2 2366   4.220   3.766   1.954  0.1522 -0.0571 -0.7241
  801TIP3    H1 2367   4.232   3.672   1.967 -2.7612 -0.1502  2.6043
  801TIP3    H2 2368   4.198   3.800   2.040  0.4343  3.6142 -1.9358
  802TIP3   OH2 2369   3.759   3.280   2.145  0.3394 -0.1136 -0.4682
  802TIP3    H1 2370   3.712   3.318   2.220  0.8370 -0.1172 -0.1471
  802TIP3    H2 2371   3.722   3.193   2.135 -0.2974  0.1793 -0.7428
  803TIP3   OH2 2372   1.808   0.767   3.566  0.2758 -0.3851  0.0693
  803TIP3    H1 2373   1.785   0.810   3.483  0.6483 -1.2353 -0.4862
  803TIP3    H2 2374   1.735   0.707   3.582  0.6061 -0.8306 -0.0823
  804TIP3   OH2 2375   4.504   1.436   3.869 -0.5572  0.2649  0.0936
  804TIP3    H1 2376   4.561   1.361   3.887 -0.5278  0.4830  0.9640
  804TIP3    H2 2377   4.483   1.428   3.776 -0.1736 -0.5587  0.0640
  805TIP3   OH2 2378   4.992   3.490   2.520  0.9039 -0.2288  0.1434
  805TIP3    H1 2379   4.942   3.547   2.462 -0.9541 -1.3017  0.6239
  805TIP3    H2 2380   5.007   3.543   2.598  0.5625  0.1221 -0.0239
  806TIP3   OH2 2381   5.340   1.149   3.389 -0.3177  0.0789 -0.6094
  806TIP3    H1 2382   5.394   1.106   3.455 -1.7222  0.2368  0.7036
  806TIP3    H2 2383   5.251   1.137   3.420 -0.9257  1.4248 -1.7384
  807TIP3   OH2 2384   6.907   3.028   0.947  0.5949 -0.1746 -0.5889
  807TIP3    H1 2385   6.830   2.971   0.949  0.9269 -0.6172  0.9572
  807TIP3    H2 2386   6.968   2.988   1.009  0.4178  2.4296  1.4410
  808TIP3   OH2 2387   2.559   0.535   0.191  0.3253 -0.4693 -0.0662
  808TIP3    H1 2388   2.533   0.623   0.220 -0.2401 -0.7859  0.3754
  808TIP3    H2 2389   2.523   0.476   0.256  1.5450 -0.9765  0.1781
  809TIP3   OH2 2390   1.527   4.657   3.920  0.3875  0.0143  0.5531
  809TIP3    H1 2391   1.536   4.733   3.977 -3.2598  2.9065 -2.1820
  809TIP3    H2 2392   1.582   4.678   3.845 -0.7813  0.1605 -0.2980
  810TIP3   OH2 2393   1.806   3.878   3.781 -0.4154 -0.1293  0.0052
  810TIP3    H1 2394   1.850   3.909   3.860 -1.1506  0.3451  0.2405
  810TIP3    H2 2395   1.715   3.867   3.807 -0.3616 -1.5481 -0.3512
  811TIP3   OH2 2396   2.303   4.020   2.461  0.3732  0.6866 -0.4288
  811TIP3    H1 2397   2.288   3.959   2.533 -0.8527 -0.5551 -1.6718
  811TIP3    H2 2398   2.364   4.085   2.496  1.4517 -1.0518  1.0505
  812TIP3   OH2 2399   1.180   2.553   5.635  0.2794  0.5646 -0.2480
  812TIP3    H1 2400   1.097   2.587   5.602  0.4999  0.1635 -1.2524
  812TIP3    H2 2401   1.247   2.595   5.581  0.7560  1.0563  0.6958
  813TIP3   OH2 2402   0.180   4.296   3.288  0.5262 -0.6060 -0.2133
  813TIP3    H1 2403   0.165   4.291   3.382 -1.4503 -1.6024 -0.5234
  813TIP3    H2 2404   0.173   4.206   3.257 -1.0862 -0.0719 -1.5738
  814TIP3   OH2 2405   6.314   4.190   1.107  0.2945  0.2060  0.0765
  814TIP3    H1 2406   6.252   4.203   1.179 -0.3383  1.7655 -0.6795
  814TIP3    H2 2407   6.385   4.251   1.124  0.2979  0.3557 -0.4402
  815TIP3   OH2 2408   3.313   4.244   5.039  0.2588  0.2944  0.3007
  815TIP3    H1 2409   3.273   4.281   5.118  1.6754 -0.6772  1.5569
  815TIP3    H2 2410   3.251   4.264   4.969 -3.4170 -2.5817  2.3012
  816TIP3   OH2 2411   2.613   6.371   2.228  0.2077  0.5048  0.0207
  816TIP3    H1 2412   2.660   6.430   2.169  2.1008 -0.3154  0.6195
  816TIP3    H2 2413   2.675   6.299   2.244 -2.2691 -2.1908 -1.4273
  817TIP3   OH2 2414   3.416   5.349   0.975 -0.1621 -0.3887 -0.1264
  817TIP3    H1 2415   3.332   5.311   0.949  0.1721 -1.0972 -0.2215
  817TIP3    H2 2416   3.398   5.441   0.992 -1.2175 -0.7778  1.0198
  818TIP3   OH2 2417   5.432   2.156   0.019  0.5412  0.0611 -0.4037
  818TIP3    H1 2418   5.474   2.104   0.087 -2.4534 -1.1641  0.7109
  818TIP3    H2 2419   5.415   2.094  -0.052 -2.7440 -0.5978  0.7913
  819TIP3   OH2 2420   3.146   1.921   2.351  0.4844  0.1796  0.0561
  819TIP3    H1 2421   3.053   1.902   2.339  1.0969 -2.9716 -0.8545
  819TIP3    H2 2422   3.161   1.911   2.445 -0.2830  2.0497  0.4122
  820TIP3   OH2 2423   0.182   6.601   1.114  0.4459  0.5232 -0.2670
  820TIP3    H1 2424   0.274   6.603   1.142  0.2191  0.5286  0.5234
  820TIP3    H2 2425   0.144   6.529   1.165  0.4664 -0.8385 -2.1048
  821TIP3   OH2 2426   3.974   3.938   4.991 -0.5140  0.0729  0.1001
  821TIP3    H1 2427   3.951   4.024   5.027 -1.6768  0.0666 -0.5942
  821TIP3    H2 2428   3.918   3.877   5.038  0.4049 -0.3436  0.6860
  822TIP3   OH2 2429   3.616   2.931   0.334  0.3168 -0.0676  0.1515
  822TIP3    H1 2430   3.566   2.961   0.410 -1.2230 -1.3368 -0.2975
  822TIP3    H2 2431   3.692   2.885   0.371 -1.4257 -2.3973  1.0637
  823TIP3   OH2 2432   2.214   1.106   2.427 -0.4281 -0.6256  0.2706
  823TIP3    H1 2433   2.163   1.150   2.494 -1.7655 -1.8682  0.1403
  823TIP3    H2 2434   2.266   1.175   2.386  1.0764  0.0287  3.0931
  824TIP3   OH2 2435   5.881   1.004   4.202 -0.2729  1.0711  0.1450
  824TIP3    H1 2436   5.802   1.056   4.216 -1.0064 -0.4594  2.0873
  824TIP3    H2 2437   5.850   0.924   4.160 -0.2132 -0.4878  2.8056
  825TIP3   OH2 2438   0.205   4.726   2.034  0.1857  0.0022 -0.0876
  825TIP3    H1 2439   0.178   4.714   2.125  0.1893 -1.0236 -0.2184
  825TIP3    H2 2440   0.168   4.811   2.010 -2.4524 -1.0408 -0.0609
  826TIP3   OH2 2441   6.341   0.845   4.268 -0.2755  0.4786 -0.2381
  826TIP3    H1 2442   6.307   0.933   4.251  0.1204  0.6781 -0.0189
  826TIP3    H2 2443   6.270   0.799   4.313  0.6509  1.7734  2.8062
  827TIP3   OH2 2444   6.199   5.283   4.685 -0.0787 -0.0275  0.2144
  827TIP3    H1 2445   6.175   5.312   4.773  0.7867 -0.8019  0.7286
  827TIP3    H2 2446   6.116   5.253   4.647 -0.2066 -1.4951  1.5018
  828TIP3   OH2 2447   4.651   2.280   0.710  0.4324 -0.2885 -0.2581
  828TIP3    H1 2448   4.701   2.361   0.706  0.7851 -0.2992  2.0902
  828TIP3    H2 2449   4.718   2.212   0.721  0.0195 -0.4699  1.3766
  829TIP3   OH2 2450   5.843   1.509   0.252 -0.3134 -0.8290 -0.1893
  829TIP3    H1 2451   5.748   1.506   0.238 -0.8899  2.0609  2.0161
  829TIP3    H2 2452   5.859   1.446   0.322 -1.4906  1.5311  2.4504
  830TIP3   OH2 2453   6.101   2.732   0.227  0.3861  0.3135 -0.3700
  830TIP3    H1 2454   6.135   2.716   0.315 -2.0075  2.1729  0.9907
  830TIP3    H2 2455   6.042   2.658   0.211 -0.4311  0.8011  0.3094
  831TIP3   OH2 2456   3.313   2.807   2.509 -0.0655 -0.5085  0.0603
  831TIP3    H1 2457   3.361   2.761   2.577  1.2943 -1.0673 -1.2054
  831TIP3    H2 2458   3.251   2.742   2.475 -0.3151 -0.4218  0.3478
  832TIP3   OH2 2459   1.547   3.060   5.856  0.1121  0.7026 -0.5769
  832TIP3    H1 2460   1.619   3.009   5.893  0.3398  1.3899 -0.0690
  832TIP3    H2 2461   1.496   2.996   5.807 -0.4343 -0.3316  1.2518
  833TIP3   OH2 2462   2.038   4.754   4.406  0.1944 -0.0198 -0.0061
  833TIP3    H1 2463   1.993   4.734   4.323  0.7298  0.4966 -0.4335
  833TIP3    H2 2464   1.973   4.736   4.473  0.2982 -2.2100 -0.3959
  834TIP3   OH2 2465   5.350   4.647   0.749  0.8940 -0.2412  0.2543
  834TIP3    H1 2466   5.431   4.687   0.783  0.7965 -0.1104  0.3315
  834TIP3    H2 2467   5.302   4.719   0.709  0.3085 -0.1061  1.1738
  835TIP3   OH2 2468   3.997   4.777   3.238  0.3727 -0.2445 -0.6186
  835TIP3    H1 2469   4.049   4.854   3.262 -1.6109  1.2097 -0.7720
  835TIP3    H2 2470   3.946   4.757   3.317 -3.4450  2.3044 -2.1446
  836TIP3   OH2 2471   2.715   2.156   4.011  0.4241 -0.0692  0.2021
  836TIP3    H1 2472   2.802   2.195   4.011  0.9807 -1.2765  0.8072
  836TIP3    H2 2473   2.725   2.075   3.962 -0.0491 -0.8585  1.3787
  837TIP3   OH2 2474   5.148   3.496   2.302  0.5298  0.0683 -0.0654
  837TIP3    H1 2475   5.086   3.473   2.371  1.6484  0.2075  1.0305
  837TIP3    H2 2476   5.230   3.513   2.349  1.7749 -1.4705 -1.5723
  838TIP3   OH2 2477   6.829   2.408   1.486 -0.0715 -0.4546 -0.6969
  838TIP3    H1 2478   6.838   2.499   1.459  1.8841  0.5143  2.6585
  838TIP3    H2 2479   6.881   2.359   1.423  1.9254  1.2548 -0.4836
  839TIP3   OH2 2480   5.786   1.715   5.699  0.6567 -0.4822 -0.1688
  839TIP3    H1 2481   5.705   1.688   5.742  0.8807 -0.1566  0.4733
  839TIP3    H2 2482   5.855   1.679   5.754  0.9503 -0.8565 -0.7759
  840TIP3   OH2 2483   5.067   1.862   2.959  0.4644 -0.1961  0.2014
  840TIP3    H1 2484   5.092   1.908   3.039  0.8305  2.6383 -1.3994
  840TIP3    H2 2485   4.980   1.897   2.938  1.1506  0.5614 -1.5635
  841TIP3   OH2 2486   4.667   4.914   1.838 -0.0251  0.5299 -0.1962
  841TIP3    H1 2487   4.723   4.967   1.895  0.1791 -0.7394  0.8399
  841TIP3    H2 2488   4.709   4.919   1.752  0.4686  1.3299  0.0824
  842TIP3   OH2 2489   7.024   3.572   3.519  0.9114 -0.0950  0.0700
  842TIP3    H1 2490   6.932   3.576   3.491  0.4805 -2.6312  0.8714
  842TIP3    H2 2491   7.027   3.632   3.594  0.2444  0.9531 -0.7018
  843TIP3   OH2 2492   6.350   4.535   4.387 -0.2148 -0.6453 -0.3225
  843TIP3    H1 2493   6.427   4.559   4.438  0.8592 -3.5496 -0.3801
  843TIP3    H2 2494   6.286   4.603   4.407  1.4124  0.3448  1.9686
  844TIP3   OH2 2495   0.922   6.123   4.369  0.8151 -0.0141 -0.3563
  844TIP3    H1 2496   0.989   6.160   4.426  1.0726  0.5094 -0.9888
  844TIP3    H2 2497   0.876   6.060   4.424  3.1605 -1.9825 -0.4493
  845TIP3   OH2 2498   4.754   4.360   0.028 -0.3407 -0.8880 -0.2035
  845TIP3    H1 2499   4.774   4.358  -0.066 -0.4469  0.3592 -0.2643
  845TIP3    H2 2500   4.746   4.267   0.052  1.6332 -1.3115 -1.0001
  846TIP3   OH2 2501   0.166   0.479   4.743  0.0707  0.2065 -0.0680
  846TIP3    H1 2502   0.153   0.427   4.664 -1.6982  1.3738 -0.5992
  846TIP3    H2 2503   0.110   0.437   4.808 -1.3574  1.3656 -0.4973
  847TIP3   OH2 2504   3.188   0.311   4.956 -0.0780  0.0464  0.2539
  847TIP3    H1 2505   3.247   0.261   5.012  0.7278 -0.0465 -0.6401
  847TIP3    H2 2506   3.159   0.384   5.010  1.2995  0.3998  0.5665
  848TIP3   OH2 2507   5.734   3.196   3.255 -0.3493 -0.4210  0.4435
  848TIP3    H1 2508   5.801   3.128   3.247  1.8142  1.5453  0.6499
  848TIP3    H2 2509   5.656   3.158   3.215  0.6299 -3.1190  0.8946
  849TIP3   OH2 2510   5.276   0.855   5.804  0.2871  0.4260 -0.3914
  849TIP3    H1 2511   5.242   0.852   5.893  2.1814 -0.4279  0.3549
  849TIP3    H2 2512   5.265   0.766   5.770  0.7242  0.4310 -0.5519
  850TIP3   OH2 2513   3.219   3.590   4.973  0.8156  0.7943 -0.3566
  850TIP3    H1 2514   3.252   3.654   5.036 -0.1711  1.1017 -0.1330
  850TIP3    H2 2515   3.135   3.625   4.945  0.3490 -0.2994 -0.3795
  851TIP3   OH2 2516   1.410   1.828   4.046  0.2370 -0.1876  0.0525
  851TIP3    H1 2517   1.473   1.760   4.022  0.3556 -0.5562  1.3369
  851TIP3    H2 2518   1.364   1.793   4.123  1.8269  2.0229  2.1727
  852TIP3   OH2 2519   2.362   2.695   5.035 -0.0625  0.0186  0.3060
  852TIP3    H1 2520   2.420   2.770   5.047 -0.0280 -0.0723  0.7064
  852TIP3    H2 2521   2.421   2.621   5.022 -0.0899 -0.0256  0.4301
  853TIP3   OH2 2522   4.207   6.315   4.168  0.0213 -0.2599 -0.4401
  853TIP3    H1 2523   4.115   6.319   4.196 -0.1061 -2.8681 -0.2294
  853TIP3    H2 2524   4.241   6.237   4.211  1.9903 -0.0878 -1.6040
  854TIP3   OH2 2525   0.814   0.570   2.658 -0.0262  0.4503  0.0870
  854TIP3    H1 2526   0.854   0.490   2.623  0.9471  0.6081  0.7743
  854TIP3    H2 2527   0.853   0.579   2.746 -2.1782  0.1995  1.1249
  855TIP3   OH2 2528   0.073   4.979   3.407  0.1828 -0.2338  0.5383
  855TIP3    H1 2529   0.007   4.967   3.339  0.0389  1.7738  0.2464
  855TIP3    H2 2530   0.026   5.020   3.479  0.9154  0.4819  0.6316
  856TIP3   OH2 2531   2.601   3.399   2.862 -0.1754  0.5178  0.1892
  856TIP3    H1 2532   2.602   3.486   2.904  0.3182  0.3723  0.4896
  856TIP3    H2 2533   2.546   3.346   2.919  1.1492  0.1033  1.1186
  857TIP3   OH2 2534   1.162   5.338   3.974  0.4065 -0.7410  0.3064
  857TIP3    H1 2535   1.181   5.248   3.947  1.5423 -0.4275  0.0261
  857TIP3    H2 2536   1.231   5.391   3.934 -1.1036  0.4768 -0.8142
  858TIP3   OH2 2537   4.260   2.529   2.189  0.0837 -0.4136 -0.3291
  858TIP3    H1 2538   4.212   2.517   2.271  1.8458  0.1525  0.8260
  858TIP3    H2 2539   4.197   2.573   2.132 -1.2320 -0.9461  0.6348
  859TIP3   OH2 2540   2.370   2.229   3.345 -0.0414 -0.4565 -0.0886
  859TIP3    H1 2541   2.358   2.250   3.252 -0.6675  0.3130  0.1569
  859TIP3    H2 2542   2.304   2.282   3.390 -1.0776 -2.2665  0.6433
  860TIP3   OH2 2543   4.227   1.312   1.056 -0.5972 -0.1161 -0.8367
  860TIP3    H1 2544   4.166   1.246   1.024 -0.9087 -0.4369  0.3699
  860TIP3    H2 2545   4.175   1.392   1.060 -2.2439 -1.0694  3.7129
  861TIP3   OH2 2546   1.016   5.723   5.298 -0.0095  0.5570 -0.2982
  861TIP3    H1 2547   0.938   5.671   5.319  0.5596 -0.4314 -0.5658
  861TIP3    H2 2548   1.045   5.688   5.214  2.4960 -1.2707  1.2026
  862TIP3   OH2 2549   5.297   4.665   5.209  0.0807  0.2717  0.1999
  862TIP3    H1 2550   5.294   4.756   5.239  2.4337  0.1763  0.8894
  862TIP3    H2 2551   5.339   4.618   5.281 -2.4595 -1.7055  0.5158
  863TIP3   OH2 2552   3.805   0.356   3.245 -0.2550  0.3749 -0.2118
  863TIP3    H1 2553   3.804   0.433   3.302 -0.0767  0.3629 -0.1897
  863TIP3    H2 2554   3.769   0.386   3.162 -0.5824  0.3749 -0.0699
  864TIP3   OH2 2555   6.336   6.523   1.280 -0.7398  0.1612 -0.9863
  864TIP3    H1 2556   6.349   6.442   1.330 -0.1101  0.7916 -0.0872
  864TIP3    H2 2557   6.241   6.536   1.280 -0.7660  0.0798 -0.0326
  865TIP3   OH2 2558   0.344   0.012   4.584 -0.2341 -0.1088  0.9169
  865TIP3    H1 2559   0.300   0.057   4.512 -0.6458  2.0014  2.4023
  865TIP3    H2 2560   0.283   0.019   4.658  0.7392 -1.0251  1.8518
  866TIP3   OH2 2561   1.612   0.507   0.197 -0.6760 -0.2940 -0.2512
  866TIP3    H1 2562   1.697   0.544   0.220 -0.0234 -1.5550 -0.5804
  866TIP3    H2 2563   1.548   0.569   0.234  0.3567  0.0076  1.1027
  867TIP3   OH2 2564   5.108   5.540   0.054 -0.3181  0.6540 -0.0455
  867TIP3    H1 2565   5.050   5.608   0.090  0.3858  1.4423 -0.3799
  867TIP3    H2 2566   5.195   5.578   0.057  0.4842 -1.1482  2.0365
  868TIP3   OH2 2567   5.169   2.592   0.269  0.1851  0.6800 -0.0141
  868TIP3    H1 2568   5.244   2.537   0.249  0.7686  1.7811 -0.9248
  868TIP3    H2 2569   5.194   2.639   0.348 -0.7024 -1.0052  1.3623
  869TIP3   OH2 2570   1.166   2.978   3.410 -0.3600 -0.0766  0.0057
  869TIP3    H1 2571   1.159   2.883   3.400 -0.2525 -0.0205 -0.6030
  869TIP3    H2 2572   1.133   2.995   3.498 -1.3198 -0.5729 -0.2466
  870TIP3   OH2 2573   6.917   3.955   2.758  0.4993 -0.0491 -1.0108
  870TIP3    H1 2574   6.986   4.017   2.780  1.9440 -2.0414  0.5479
  870TIP3    H2 2575   6.964   3.873   2.741 -1.4374 -1.3210 -0.5262
  871TIP3   OH2 2576   0.671   2.895   4.735  0.2967  0.4579  0.6728
  871TIP3    H1 2577   0.589   2.907   4.688 -0.7960  0.6704  2.5315
  871TIP3    H2 2578   0.710   2.817   4.695 -0.5635  0.6244 -0.5486
  872TIP3   OH2 2579   5.058   0.083   3.176 -0.3496  0.0739 -0.2131
  872TIP3    H1 2580   4.975   0.036   3.170  0.9327 -2.2814 -0.3694
  872TIP3    H2 2581   5.106   0.058   3.097  1.8277 -1.3629  1.4715
  873TIP3   OH2 2582   1.505   2.127   4.183  0.1288 -0.0965  0.3130
  873TIP3    H1 2583   1.410   2.113   4.189  0.2653 -1.1708  0.1333
  873TIP3    H2 2584   1.543   2.049   4.223  0.9479 -0.3380 -0.9044
  874TIP3   OH2 2585   4.190   3.021   0.253 -0.3052 -0.5835  0.7515
  874TIP3    H1 2586   4.254   3.046   0.186 -0.6883  0.4256  0.7435
  874TIP3    H2 2587   4.172   3.102   0.301 -2.8530 -0.3688 -0.3525
  875TIP3   OH2 2588   4.291   0.580   2.483 -0.1020  0.2895  0.5545
  875TIP3    H1 2589   4.364   0.623   2.526 -0.9846  1.9872  0.4117
  875TIP3    H2 2590   4.214   0.606   2.534 -0.6079 -1.8624  1.0100
  876TIP3   OH2 2591   3.888   3.033   5.831 -0.2832  0.3655 -0.0582
  876TIP3    H1 2592   3.857   2.946   5.807 -1.6415  1.3397 -2.1726
  876TIP3    H2 2593   3.902   3.029   5.925 -2.5412 -1.4953  0.2881
  877TIP3   OH2 2594   4.157   1.903   1.048  0.3657  0.0751  0.3136
  877TIP3    H1 2595   4.186   1.847   0.975  0.9375  0.3455  0.3214
  877TIP3    H2 2596   4.076   1.864   1.078  0.7890 -0.7893  0.3602
  878TIP3   OH2 2597   0.189   2.150   1.519  0.3392  0.1445  0.1391
  878TIP3    H1 2598   0.216   2.059   1.505  1.4762  0.3138  1.0964
  878TIP3    H2 2599   0.210   2.168   1.610 -1.0215  0.9986  0.3061
  879TIP3   OH2 2600   1.899   4.180   0.619  0.1446 -0.4621  0.6060
  879TIP3    H1 2601   1.897   4.128   0.699  2.3299  0.5813  1.4152
  879TIP3    H2 2602   1.951   4.129   0.558  1.1851  0.1392  0.9632
  880TIP3   OH2 2603   0.957   5.844   1.033  0.0290 -0.0531  0.6867
  880TIP3    H1 2604   0.887   5.856   1.097 -0.8425 -2.2944  0.2580
  880TIP3    H2 2605   0.930   5.898   0.958  0.0769  1.0690  1.4580
  881TIP3   OH2 2606   5.759   3.521   0.148 -0.1992 -0.1935 -0.4537
  881TIP3    H1 2607   5.769   3.432   0.114  0.6957  0.1475 -1.1004
  881TIP3    H2 2608   5.742   3.508   0.242 -0.3187 -1.0563 -0.5851
  882TIP3   OH2 2609   5.962   2.758   5.364 -0.0290 -0.8102 -0.4463
  882TIP3    H1 2610   5.940   2.809   5.286 -0.5266 -0.6394 -0.1989
  882TIP3    H2 2611   5.944   2.817   5.437  1.6888 -0.5000 -0.2258
  883TIP3   OH2 2612   4.844   1.301   0.130 -0.6269 -0.4716 -0.1375
  883TIP3    H1 2613   4.917   1.360   0.113 -0.0938 -1.3608 -1.0327
  883TIP3    H2 2614   4.882   1.214   0.128 -1.2000 -0.8563  2.1697
  884TIP3   OH2 2615   5.391   4.131   2.302  0.4994 -0.0672 -0.4047
  884TIP3    H1 2616   5.367   4.162   2.214 -3.0616  1.2201  0.8462
  884TIP3    H2 2617   5.346   4.047   2.310  1.3748 -0.5075 -0.0117
  885TIP3   OH2 2618   3.215   2.507   2.923  0.0700  0.0754 -0.1799
  885TIP3    H1 2619   3.290   2.500   2.865 -0.1275  1.2431 -0.6211
  885TIP3    H2 2620   3.177   2.593   2.902 -0.8359 -0.0938  0.6816
  886TIP3   OH2 2621   2.311   6.655   4.694  0.1613 -0.0638  0.2788
  886TIP3    H1 2622   2.321   6.594   4.767  0.2239 -0.3086  0.0671
  886TIP3    H2 2623   2.228   6.699   4.711  0.8843  0.9631  1.3047
  887TIP3   OH2 2624   1.734   3.953   5.527 -0.0403 -0.2892  0.4099
  887TIP3    H1 2625   1.675   4.021   5.561  0.3793  1.1440 -1.5603
  887TIP3    H2 2626   1.762   3.986   5.442  1.4213 -2.2504  0.0637
  888TIP3   OH2 2627   6.281   2.933   4.301  0.0953  0.4001 -0.1764
  888TIP3    H1 2628   6.362   2.895   4.266  0.5092  0.5316  0.6260
  888TIP3    H2 2629   6.225   2.944   4.224  1.3458  1.5611 -0.9647
  889TIP3   OH2 2630   5.719   4.939   2.869 -0.2021 -0.3085  0.4844
  889TIP3    H1 2631   5.710   4.975   2.958 -1.2688  0.5009  0.0687
  889TIP3    H2 2632   5.809   4.960   2.844 -0.3628  0.8520  0.8071
  890TIP3   OH2 2633   2.276   1.748   0.493 -0.2873 -0.0283 -0.2119
  890TIP3    H1 2634   2.326   1.751   0.411 -1.9576 -0.4571 -1.2817
  890TIP3    H2 2635   2.287   1.835   0.531  0.9108  0.0258 -0.6210
  891TIP3   OH2 2636   0.186   4.445   4.691 -0.2652  0.3735  0.3442
  891TIP3    H1 2637   0.163   4.358   4.658 -2.1773  0.8879  0.2257
  891TIP3    H2 2638   0.205   4.431   4.784 -0.3809 -0.2116  0.2822
  892TIP3   OH2 2639   0.797   6.098   2.026  0.3619  0.1177 -0.5479
  892TIP3    H1 2640   0.709   6.124   2.051  0.6554  0.4827  0.1373
  892TIP3    H2 2641   0.787   6.059   1.939 -0.7048 -1.3096  0.1793
  893TIP3   OH2 2642   5.295   4.232   0.089  0.1559 -0.3488 -0.3950
  893TIP3    H1 2643   5.382   4.246   0.052  0.5209  0.2611  0.6535
  893TIP3    H2 2644   5.274   4.315   0.131 -0.4667 -0.8577  0.3134
  894TIP3   OH2 2645   5.658   0.965   5.254 -0.0364 -0.3972  0.3495
  894TIP3    H1 2646   5.640   0.872   5.240  3.0919 -1.0539 -0.1167
  894TIP3    H2 2647   5.686   0.971   5.345 -0.3079  0.0973  0.4027
  895TIP3   OH2 2648   6.635   0.754   3.302  0.0008 -0.0921 -0.0356
  895TIP3    H1 2649   6.561   0.788   3.353  0.4136 -1.5211  1.6123
  895TIP3    H2 2650   6.692   0.830   3.290  0.5144  0.1137  2.8535
  896TIP3   OH2 2651   0.282   1.911   4.042 -0.4666 -0.4217  0.1944
  896TIP3    H1 2652   0.192   1.931   4.065 -1.4581 -0.5766 -3.0212
  896TIP3    H2 2653   0.277   1.871   3.955  2.6488 -1.2119  0.2279
  897TIP3   OH2 2654   6.918   5.681   2.619  0.4218 -0.1368 -0.6403
  897TIP3    H1 2655   6.875   5.720   2.695 -0.2280  0.9079 -1.5214
  897TIP3    H2 2656   7.001   5.729   2.611  1.0060 -0.9975  0.0444
  898TIP3   OH2 2657   0.989   4.311   3.033  0.5058  0.2603 -0.0681
  898TIP3    H1 2658   0.927   4.361   2.980  0.6325  1.1622  0.6086
  898TIP3    H2 2659   1.046   4.268   2.970 -1.8475 -2.0527 -0.8214
  899TIP3   OH2 2660   7.036   6.412   0.051 -0.7350 -0.3625  0.4029
  899TIP3    H1 2661   7.060   6.340  -0.008  0.6818 -0.6431  1.2965
  899TIP3    H2 2662   7.063   6.383   0.137  0.1230  1.3577  0.7499
  900TIP3   OH2 2663   3.299   2.838   0.316 -0.5995 -0.3269 -0.0274
  900TIP3    H1 2664   3.263   2.752   0.339 -0.4888 -0.0503  1.2414
  900TIP3    H2 2665   3.337   2.871   0.398 -0.3412  0.7844 -0.5780
  901TIP3   OH2 2666   1.292   1.718   0.125 -0.1614 -0.7679 -0.1500
  901TIP3    H1 2667   1.270   1.658   0.197  0.9249 -2.2825 -1.0393
  901TIP3    H2 2668   1.217   1.778   0.121 -0.9511 -1.5954  1.2324
  902TIP3   OH2 2669   7.011   0.946   5.382  0.0635 -0.8641 -0.2882
  902TIP3    H1 2670   7.007   0.899   5.465  1.4247  0.0840  0.3482
  902TIP3    H2 2671   6.959   1.025   5.398 -1.1942 -1.5249 -0.9587
  903TIP3   OH2 2672   2.258   1.687   0.771  0.3492 -0.1128 -0.7435
  903TIP3    H1 2673   2.252   1.695   0.676  1.1474 -1.1316 -0.8988
  903TIP3    H2 2674   2.312   1.609   0.785  0.8015  0.4134  0.5483
  904TIP3   OH2 2675   6.421   1.251   3.613  0.2039  0.3036 -0.4760
  904TIP3    H1 2676   6.435   1.345   3.600  0.9233  0.2074 -0.4574
  904TIP3    H2 2677   6.338   1.245   3.660  0.9162  1.0215  0.9316
  905TIP3   OH2 2678   4.875   3.753   0.479 -0.1723  0.0702  0.2066
  905TIP3    H1 2679   4.869   3.693   0.405  0.4762  1.3316 -0.9157
  905TIP3    H2 2680   4.923   3.705   0.546  0.3809 -0.6298 -0.6867
  906TIP3   OH2 2681   3.799   5.599   1.817  0.2537 -0.3281  0.7256
  906TIP3    H1 2682   3.863   5.592   1.746  0.2202 -0.6933  0.7292
  906TIP3    H2 2683   3.829   5.673   1.869  0.9005 -0.7364  0.9518
  907TIP3   OH2 2684   5.367   2.526   1.066 -0.0745  0.5765 -0.6070
  907TIP3    H1 2685   5.352   2.450   1.122  0.4112  1.8254  1.3334
  907TIP3    H2 2686   5.462   2.531   1.056  0.1746  2.4589  1.7132
  908TIP3   OH2 2687   0.652   3.824   2.084  0.1423 -0.2184  0.3373
  908TIP3    H1 2688   0.663   3.802   2.177  2.8002  0.0984  0.1947
  908TIP3    H2 2689   0.591   3.897   2.083 -2.1799 -2.0028  1.5413
  909TIP3   OH2 2690   3.776   2.559   0.303  0.1342 -0.5929 -0.5094
  909TIP3    H1 2691   3.838   2.531   0.371  0.1328  2.1939  0.7677
  909TIP3    H2 2692   3.690   2.541   0.340  0.1465 -0.1645 -0.2670
  910TIP3   OH2 2693   0.066   4.701   0.346 -0.3359  1.0845 -0.5628
  910TIP3    H1 2694   0.064   4.709   0.441 -0.9015 -1.6164 -0.2565
  910TIP3    H2 2695   0.149   4.739   0.320  0.7781  0.0534  1.2769
  911TIP3   OH2 2696   1.281   5.276   5.482 -0.3897 -0.3876 -0.6813
  911TIP3    H1 2697   1.238   5.191   5.483 -2.5286  0.6118  1.9451
  911TIP3    H2 2698   1.229   5.330   5.423 -0.8225 -0.0917 -0.0390
  912TIP3   OH2 2699   0.074   4.405   3.524 -0.1809  0.6998 -0.0278
  912TIP3    H1 2700   0.081   4.501   3.532  1.9715  0.8219 -2.1843
  912TIP3    H2 2701   0.125   4.371   3.597 -0.8407  1.1597  0.6682
  913TIP3   OH2 2702   1.026   6.181   3.073  0.1517  0.3533 -0.1906
  913TIP3    H1 2703   0.977   6.099   3.063 -1.5573  1.3039  0.0198
  913TIP3    H2 2704   1.115   6.159   3.045  0.3358 -2.1504  1.9091
  914TIP3   OH2 2705   4.747   3.285   2.514 -0.3465  0.2666  0.3053
  914TIP3    H1 2706   4.798   3.365   2.500 -0.4303  0.2015 -0.3811
  914TIP3    H2 2707   4.656   3.313   2.504 -0.5198  0.5171  2.1510
  915TIP3   OH2 2708   7.063   4.443   0.184  0.4186  0.5406 -0.2793
  915TIP3    H1 2709   7.097   4.354   0.187  1.9475  1.0295 -1.3615
  915TIP3    H2 2710   7.021   4.449   0.097 -2.9667 -0.1531  1.1374
  916TIP3   OH2 2711   6.834   2.566   5.647 -0.6260 -0.2832  0.0129
  916TIP3    H1 2712   6.790   2.485   5.672  0.2438 -0.0600  2.4761
  916TIP3    H2 2713   6.925   2.540   5.632 -1.1824 -0.5499 -4.0273
  917TIP3   OH2 2714   3.858   5.308   0.111  0.6586  0.1290  0.0170
  917TIP3    H1 2715   3.930   5.370   0.119 -0.5480  1.3648  2.9489
  917TIP3    H2 2716   3.851   5.269   0.198 -1.0725 -1.3029 -0.7018
  918TIP3   OH2 2717   6.226   5.966   5.247 -0.5429  0.1158 -0.4782
  918TIP3    H1 2718   6.184   6.051   5.254  0.1013  0.4786 -0.8895
  918TIP3    H2 2719   6.314   5.979   5.282 -0.3235 -0.2912 -0.8566
  919TIP3   OH2 2720   2.760   3.176   5.063 -0.5399 -0.0055 -0.9085
  919TIP3    H1 2721   2.716   3.150   5.144  0.1183 -1.0240 -0.8686
  919TIP3    H2 2722   2.809   3.254   5.088  1.7760 -1.7529  0.4273
  920TIP3   OH2 2723   7.132   3.261   0.354  0.3811  0.0813  0.3106
  920TIP3    H1 2724   7.206   3.292   0.302  0.9457 -0.8566  0.5313
  920TIP3    H2 2725   7.168   3.245   0.441  0.1191 -1.1415  0.2157
  921TIP3   OH2 2726   0.019   5.526   3.744  0.0421 -0.1321  0.1314
  921TIP3    H1 2727   0.054   5.551   3.830  0.3769  3.1155 -0.8205
  921TIP3    H2 2728   0.093   5.537   3.684 -1.2189  1.9937 -1.1754
  922TIP3   OH2 2729   0.468   0.875   1.957  0.2034 -0.1651 -0.1468
  922TIP3    H1 2730   0.446   0.791   1.918  0.4331 -0.2579 -0.0787
  922TIP3    H2 2731   0.403   0.887   2.027  1.4764 -1.3232  1.2982
  923TIP3   OH2 2732   6.385   0.196   5.143 -0.6065  0.4555 -0.1737
  923TIP3    H1 2733   6.312   0.138   5.165 -0.3193  0.6499  1.3912
  923TIP3    H2 2734   6.392   0.255   5.218 -0.7393  2.3947 -1.6307
  924TIP3   OH2 2735   2.434   5.395   3.259 -0.3629 -0.2375 -0.1173
  924TIP3    H1 2736   2.370   5.359   3.198 -0.4244  0.0926 -0.2461
  924TIP3    H2 2737   2.404   5.366   3.345 -0.7150 -0.0344 -0.1707
  925TIP3   OH2 2738   3.772   2.785   5.188  0.1834 -0.1303 -0.4643
  925TIP3    H1 2739   3.776   2.714   5.252  0.2068  0.2222 -0.0638
  925TIP3    H2 2740   3.862   2.798   5.160  0.0059 -1.1904 -1.6013
  926TIP3   OH2 2741   2.546   0.580   4.444 -0.5558 -0.3115  0.5512
  926TIP3    H1 2742   2.485   0.602   4.515 -0.6453 -0.9825  0.6944
  926TIP3    H2 2743   2.502   0.608   4.364 -1.6468 -1.9255  0.5309
  927TIP3   OH2 2744   3.573   4.198   4.496  0.3324  0.7971 -0.4674
  927TIP3    H1 2745   3.479   4.214   4.501  0.7006  3.2021 -0.0841
  927TIP3    H2 2746   3.602   4.193   4.587  0.9485  2.8913 -0.5105
  928TIP3   OH2 2747   5.228   2.858   3.512 -0.6467  0.3530  0.3799
  928TIP3    H1 2748   5.177   2.839   3.591 -0.6440  2.4221  0.9339
  928TIP3    H2 2749   5.167   2.905   3.455 -0.6616 -1.1592 -0.9314
  929TIP3   OH2 2750   5.096   2.090   1.254  0.0495 -0.2246 -0.5520
  929TIP3    H1 2751   5.164   2.133   1.306 -0.6216  0.5327 -0.2853
  929TIP3    H2 2752   5.087   2.003   1.293  0.2651 -0.0250 -0.0497
  930TIP3   OH2 2753   6.365   6.510   4.219  0.2336  0.8620  0.2384
  930TIP3    H1 2754   6.364   6.528   4.125 -0.8363  0.5188  0.1743
  930TIP3    H2 2755   6.390   6.594   4.259  0.6684  1.0147 -0.3402
  931TIP3   OH2 2756   3.652   3.891   3.642 -0.0024 -0.0145 -0.5650
  931TIP3    H1 2757   3.602   3.811   3.657 -0.1484  0.5959  2.8654
  931TIP3    H2 2758   3.590   3.949   3.597 -0.8419 -0.8562 -0.5366
  932TIP3   OH2 2759   0.500   5.773   0.475  0.3925 -0.4507  0.0750
  932TIP3    H1 2760   0.431   5.745   0.414  0.9102  0.0158 -0.7346
  932TIP3    H2 2761   0.580   5.734   0.440  1.0217  1.3948 -0.6728
  933TIP3   OH2 2762   1.751   5.996   0.132  0.2631  0.5236  0.4670
  933TIP3    H1 2763   1.764   6.066   0.196  0.0834  0.1946  0.8669
  933TIP3    H2 2764   1.816   5.929   0.155 -0.5810 -0.1131  1.0465
  934TIP3   OH2 2765   3.463   5.287   5.319 -0.9444  0.3136  0.1042
  934TIP3    H1 2766   3.439   5.228   5.248  2.4876  0.4091 -1.3125
  934TIP3    H2 2767   3.440   5.239   5.399  2.3596 -3.5701 -0.9133
  935TIP3   OH2 2768   5.362   1.299   1.286 -0.0200  0.0383 -0.0286
  935TIP3    H1 2769   5.393   1.345   1.364 -1.4275 -0.0447  0.6067
  935TIP3    H2 2770   5.315   1.223   1.320  0.4880 -0.7448 -1.0122
  936TIP3   OH2 2771   2.657   5.814   5.761  0.4359  0.2809 -0.4092
  936TIP3    H1 2772   2.648   5.825   5.666  0.7892 -0.3851 -0.5208
  936TIP3    H2 2773   2.613   5.891   5.798  0.9246  0.9190 -1.1272
  937TIP3   OH2 2774   0.727   4.551   2.958  0.4252  0.0361  0.7185
  937TIP3    H1 2775   0.747   4.644   2.968 -0.7158  0.4097 -0.1960
  937TIP3    H2 2776   0.658   4.535   3.023 -0.5571  0.2644 -0.2266
  938TIP3   OH2 2777   2.380   3.381   5.575  0.2260  0.2387 -0.6036
  938TIP3    H1 2778   2.373   3.319   5.502  1.0910  2.4904 -2.7705
  938TIP3    H2 2779   2.473   3.381   5.598 -0.1153 -0.8202  0.9207
  939TIP3   OH2 2780   0.604   6.595   4.389 -0.1482  0.0062 -0.1852
  939TIP3    H1 2781   0.665   6.574   4.318 -1.0956 -0.8979 -0.7596
  939TIP3    H2 2782   0.571   6.682   4.367 -1.1122 -0.6362 -1.3677
  940TIP3   OH2 2783   5.265   0.841   1.491  0.1686  0.1221  0.7253
  940TIP3    H1 2784   5.334   0.775   1.492 -0.3305 -0.4632  2.6972
  940TIP3    H2 2785   5.234   0.844   1.582 -2.3181  0.4355 -0.0560
  941TIP3   OH2 2786   5.460   1.795   2.863 -0.2953 -0.0022 -0.0882
  941TIP3    H1 2787   5.439   1.807   2.770 -0.6708 -0.7913 -0.1087
  941TIP3    H2 2788   5.389   1.741   2.897 -0.3022  0.5045  0.7249
  942TIP3   OH2 2789   4.648   0.840   1.204  0.0836 -0.2560 -0.1680
  942TIP3    H1 2790   4.736   0.827   1.240 -0.2529 -1.3537  0.2889
  942TIP3    H2 2791   4.617   0.921   1.245  1.3593  0.8665 -1.3285
  943TIP3   OH2 2792   1.813   3.553   1.432 -0.0825  0.0383 -0.2783
  943TIP3    H1 2793   1.806   3.589   1.344  1.6441  0.5300 -0.2519
  943TIP3    H2 2794   1.792   3.460   1.422  1.4469 -0.2087 -1.4893
  944TIP3   OH2 2795   2.412   1.437   4.571  0.0258  0.2247  0.0015
  944TIP3    H1 2796   2.401   1.496   4.496 -0.5885 -0.4583 -0.4601
  944TIP3    H2 2797   2.354   1.473   4.638 -1.2639 -0.4900 -0.6843
  945TIP3   OH2 2798   2.947   0.414   1.783  0.2916  0.4116 -0.1447
  945TIP3    H1 2799   3.011   0.344   1.795  0.7551  1.2471  2.7933
  945TIP3    H2 2800   2.863   0.373   1.805  0.4370  0.5409  0.6465
  946TIP3   OH2 2801   6.012   5.032   1.048  0.4267 -0.0372 -0.2077
  946TIP3    H1 2802   5.955   5.104   1.074  1.6317  1.1351 -0.6858
  946TIP3    H2 2803   6.029   5.047   0.955  0.3348 -1.2073 -0.4268
  947TIP3   OH2 2804   3.876   5.440   0.387 -0.1478 -0.3557 -0.2412
  947TIP3    H1 2805   3.850   5.513   0.332  1.0918 -0.0649 -0.4787
  947TIP3    H2 2806   3.969   5.426   0.366  0.3158 -0.3514  1.6252
  948TIP3   OH2 2807   0.859   1.259   5.532 -0.1015  0.7543 -0.7383
  948TIP3    H1 2808   0.921   1.223   5.469 -0.4800 -1.9082  0.2550
  948TIP3    H2 2809   0.914   1.301   5.598  0.6134 -0.4118 -0.5547
  949TIP3   OH2 2810   5.910   6.752   2.748  0.5379 -0.2678  0.0553
  949TIP3    H1 2811   5.860   6.742   2.667  0.7346 -2.8382  0.1693
  949TIP3    H2 2812   6.002   6.744   2.720  0.6294 -0.6353  0.4633
  950TIP3   OH2 2813   4.485   0.369   5.589 -0.2479  0.4618  0.1961
  950TIP3    H1 2814   4.445   0.373   5.503  0.6611  0.2252 -0.2523
  950TIP3    H2 2815   4.575   0.339   5.573 -0.6957 -1.7674  1.4284
  951TIP3   OH2 2816   6.465   5.647   3.057  0.0028  0.2322  0.3534
  951TIP3    H1 2817   6.472   5.741   3.074  0.7081  0.1583  0.4945
  951TIP3    H2 2818   6.459   5.640   2.962 -1.1242  0.4794  0.3965
  952TIP3   OH2 2819   2.160   1.703   2.653 -0.2522  0.3217 -0.1568
  952TIP3    H1 2820   2.126   1.650   2.726 -0.9391 -0.7512 -1.2235
  952TIP3    H2 2821   2.249   1.669   2.640  0.4900  1.6256  1.1977
  953TIP3   OH2 2822   3.847   2.442   2.183 -0.0680 -0.2779 -0.0828
  953TIP3    H1 2823   3.889   2.456   2.097  1.8737 -0.2421  0.8071
  953TIP3    H2 2824   3.798   2.361   2.172  1.3474 -1.0838 -0.8539
  954TIP3   OH2 2825   6.705   2.940   1.303 -0.5704  0.2606 -0.4155
  954TIP3    H1 2826   6.780   2.881   1.300 -0.0196  0.4701  3.7145
  954TIP3    H2 2827   6.744   3.028   1.293 -0.6435  0.2538 -0.7964
  955TIP3   OH2 2828   4.552   0.829   0.331 -0.2855 -0.2813 -0.5648
  955TIP3    H1 2829   4.523   0.747   0.370 -0.3715 -0.2179 -0.4967
  955TIP3    H2 2830   4.646   0.833   0.349 -0.7234  0.9913  1.9270
  956TIP3   OH2 2831   7.123   5.116   3.576  0.2883  0.0907  0.3266
  956TIP3    H1 2832   7.058   5.162   3.629  1.5734  0.9450  1.2286
  956TIP3    H2 2833   7.142   5.176   3.504  1.3039  0.6257  1.0101
  957TIP3   OH2 2834   1.349   4.885   5.831  0.3102  0.1423 -0.1804
  957TIP3    H1 2835   1.266   4.932   5.839  0.7813  1.2027 -1.1840
  957TIP3    H2 2836   1.335   4.804   5.879 -0.5499  1.2839  1.6353
  958TIP3   OH2 2837   6.398   0.724   3.123 -0.2953 -0.1344  0.3165
  958TIP3    H1 2838   6.479   0.693   3.162  0.4494  0.3879 -0.7898
  958TIP3    H2 2839   6.408   0.818   3.117 -0.1678 -0.2383 -1.6003
  959TIP3   OH2 2840   7.108   2.153   1.453 -0.3550  0.3768  0.0233
  959TIP3    H1 2841   7.062   2.091   1.397 -0.0687 -0.5798  0.8362
  959TIP3    H2 2842   7.200   2.128   1.447 -0.2115  0.8359  0.2303
  960TIP3   OH2 2843   3.487   6.756   5.108 -0.5589  0.5549  0.0877
  960TIP3    H1 2844   3.496   6.834   5.162 -0.0220  0.8608 -0.4231
  960TIP3    H2 2845   3.547   6.692   5.147  1.0462  1.3045 -1.0486
  961TIP3   OH2 2846   1.713   2.993   2.800  0.1251  0.3280 -0.1323
  961TIP3    H1 2847   1.791   2.991   2.857 -0.4416  1.2285  0.6946
  961TIP3    H2 2848   1.745   3.028   2.717  0.5063  1.1902  0.3668
  962TIP3   OH2 2849   1.011   5.122   1.840 -0.1884  0.3515 -0.2331
  962TIP3    H1 2850   1.070   5.077   1.900 -0.8610  0.3148  0.4189
  962TIP3    H2 2851   0.947   5.054   1.815  0.7242  0.0537 -1.8863
  963TIP3   OH2 2852   0.865   0.796   1.498 -0.3483  0.0171 -0.1010
  963TIP3    H1 2853   0.946   0.762   1.537 -0.1398 -0.7268 -1.1390
  963TIP3    H2 2854   0.854   0.882   1.538  0.9171  0.1062  0.1111
  964TIP3   OH2 2855   3.536   1.749   3.802  0.4823 -0.0504 -0.6786
  964TIP3    H1 2856   3.459   1.772   3.750 -1.1412 -3.6994 -0.1826
  964TIP3    H2 2857   3.611   1.779   3.749 -1.1754  0.8344 -2.6497
  965TIP3   OH2 2858   0.294   5.301   2.137 -0.9383 -0.0440 -0.4053
  965TIP3    H1 2859   0.381   5.340   2.147 -0.1608 -0.7992 -3.3046
  965TIP3    H2 2860   0.235   5.376   2.128 -0.6512  0.4749  1.5308
  966TIP3   OH2 2861   0.276   3.046   4.581  0.3968  0.0610  0.0321
  966TIP3    H1 2862   0.368   3.073   4.589 -0.2236  2.0562  1.0559
  966TIP3    H2 2863   0.275   2.956   4.612  2.1347 -0.2908 -0.7955
  967TIP3   OH2 2864   6.987   5.175   4.223 -0.3334 -0.0130 -0.1632
  967TIP3    H1 2865   6.915   5.120   4.191  0.2571 -0.3348 -0.9753
  967TIP3    H2 2866   6.950   5.221   4.298 -1.4489 -0.0373 -0.6724
  968TIP3   OH2 2867   0.347   2.528   3.604  0.3724 -0.7670  0.1778
  968TIP3    H1 2868   0.333   2.504   3.696 -0.5359  0.8577  0.5138
  968TIP3    H2 2869   0.440   2.553   3.600  0.6202 -1.6200  0.4588
  969TIP3   OH2 2870   0.405   3.671   2.808 -0.0620 -0.0854  0.7916
  969TIP3    H1 2871   0.347   3.744   2.787  0.2965 -0.5719 -2.3378
  969TIP3    H2 2872   0.471   3.709   2.867  0.2354  2.2070 -0.8869
  970TIP3   OH2 2873   5.180   2.418   3.955 -0.2187 -0.2576 -0.0322
  970TIP3    H1 2874   5.253   2.412   4.018 -0.6786  0.6761  0.6105
  970TIP3    H2 2875   5.190   2.340   3.900 -0.0675 -1.3652  1.4799
  971TIP3   OH2 2876   3.986   5.352   3.448 -0.3063  0.1704  0.1638
  971TIP3    H1 2877   3.970   5.273   3.397 -1.3550  0.8344 -0.5530
  971TIP3    H2 2878   3.910   5.408   3.432  0.9795  1.8572 -0.3490
  972TIP3   OH2 2879   3.024   1.272   2.464  0.2232  0.2343  0.3632
  972TIP3    H1 2880   2.933   1.283   2.436  0.0722  2.3020  1.4292
  972TIP3    H2 2881   3.050   1.359   2.494  1.6925 -0.8969  2.6099
  973TIP3   OH2 2882   1.180   4.010   5.493 -0.3494  0.0029  1.0605
  973TIP3    H1 2883   1.159   4.059   5.572  3.1859  0.8706  1.6254
  973TIP3    H2 2884   1.175   3.918   5.519  0.3114  0.2708  2.1872
  974TIP3   OH2 2885   6.803   4.320   5.277 -0.2302  0.6585 -0.0353
  974TIP3    H1 2886   6.839   4.295   5.192 -1.2147  1.2410 -0.6473
  974TIP3    H2 2887   6.872   4.300   5.339 -0.4944 -2.4170 -0.5937
  975TIP3   OH2 2888   3.760   1.341   5.018  0.0231  0.0349  0.0778
  975TIP3    H1 2889   3.752   1.406   4.948 -2.0590 -0.0490  0.1627
  975TIP3    H2 2890   3.764   1.392   5.099  1.7177  0.1122 -0.0307
  976TIP3   OH2 2891   2.959   6.284   3.674 -0.7786 -0.0256  0.1477
  976TIP3    H1 2892   2.950   6.271   3.769 -1.2555 -1.8399 -0.1116
  976TIP3    H2 2893   2.875   6.255   3.639 -1.0397  1.6961 -0.7862
  977TIP3   OH2 2894   2.531   2.650   4.079  0.1456 -0.4004  0.2961
  977TIP3    H1 2895   2.549   2.690   3.994 -2.1254  1.4831  0.6133
  977TIP3    H2 2896   2.585   2.699   4.141 -0.7776  0.5639  0.3579
  978TIP3   OH2 2897   4.456   0.895   5.820 -0.2693  0.5294  0.2206
  978TIP3    H1 2898   4.501   0.811   5.831 -1.0143  0.1816  0.7358
  978TIP3    H2 2899   4.424   0.916   5.908  1.9796  2.5927  0.6539
  979TIP3   OH2 2900   3.753   4.758   4.377 -0.3640  0.0031  0.0982
  979TIP3    H1 2901   3.771   4.666   4.353 -3.3182 -0.7483  0.4313
  979TIP3    H2 2902   3.704   4.792   4.302  1.0405  1.5150 -0.1974
  980TIP3   OH2 2903   6.537   0.177   0.793 -0.4241  0.1142  0.2716
  980TIP3    H1 2904   6.551   0.269   0.770 -0.3187 -0.2054 -1.0186
  980TIP3    H2 2905   6.608   0.156   0.854  0.8541  0.3300 -1.0764
  981TIP3   OH2 2906   0.317   4.822   0.330  0.4050  0.0337  0.1923
  981TIP3    H1 2907   0.281   4.865   0.407  1.7016  1.1885  0.2089
  981TIP3    H2 2908   0.406   4.797   0.356  1.1305  1.1251 -1.1309
  982TIP3   OH2 2909   1.481   3.939   0.878 -0.0231  0.9254  0.1946
  982TIP3    H1 2910   1.442   3.981   0.802  0.4119  1.7837  0.4284
  982TIP3    H2 2911   1.407   3.903   0.927 -0.3831  1.2098 -0.1396
  983TIP3   OH2 2912   2.733   4.747   5.566  0.1408  0.1527  0.5247
  983TIP3    H1 2913   2.751   4.672   5.622 -0.0059  0.0953  0.4950
  983TIP3    H2 2914   2.750   4.823   5.621  0.1871  0.0968  0.5870
  984TIP3   OH2 2915   0.903   0.027   2.938  0.2147  0.3755  0.5013
  984TIP3    H1 2916   0.941   0.108   2.973  1.2358  0.2565 -0.2916
  984TIP3    H2 2917   0.964  -0.001   2.870 -1.6264  0.5133 -1.2809
  985TIP3   OH2 2918   3.377   4.624   0.644 -0.2591 -0.1508 -0.5484
  985TIP3    H1 2919   3.398   4.562   0.574  0.8713  1.4118 -1.6552
  985TIP3    H2 2920   3.305   4.676   0.610  0.4417  0.7653 -0.6666
  986TIP3   OH2 2921   3.242   6.255   5.422 -0.0808 -0.1330 -0.3183
  986TIP3    H1 2922   3.271   6.215   5.504 -0.0273 -0.3991 -0.4637
  986TIP3    H2 2923   3.179   6.322   5.448  0.2924  0.1106 -0.0300
  987TIP3   OH2 2924   6.784   2.736   3.846 -0.6636  0.3126 -0.6265
  987TIP3    H1 2925   6.714   2.720   3.782 -1.9751  1.2686  0.4942
  987TIP3    H2 2926   6.752   2.810   3.897 -0.4481 -1.4091  2.1851
  988TIP3   OH2 2927   3.499   0.265   0.329  0.2242  0.3465 -0.3000
  988TIP3    H1 2928   3.514   0.199   0.261  1.5720 -0.1308  0.4189
  988TIP3    H2 2929   3.414   0.303   0.307 -0.8538 -1.9747 -0.4268
  989TIP3   OH2 2930   5.605   3.662   5.378  0.3103  0.7483  0.2080
  989TIP3    H1 2931   5.594   3.630   5.468 -0.3872  1.1734  0.2782
  989TIP3    H2 2932   5.524   3.636   5.334  1.4381 -1.2164 -0.8463
  990TIP3   OH2 2933   6.043   1.084   0.807 -0.8646  0.9138  0.0386
  990TIP3    H1 2934   6.113   1.020   0.820  0.2542  2.3696  1.4615
  990TIP3    H2 2935   5.963   1.031   0.808  0.0008 -0.4545  1.3526
  991TIP3   OH2 2936   5.262   6.575   1.387 -0.1901  0.0450  0.2619
  991TIP3    H1 2937   5.257   6.510   1.457 -3.7372  1.5435  1.6561
  991TIP3    H2 2938   5.223   6.531   1.311  0.8590 -0.6000  0.0796
  992TIP3   OH2 2939   6.250   1.682   4.317 -0.1427 -0.6951  0.1387
  992TIP3    H1 2940   6.248   1.695   4.412 -0.5446  0.0632  0.0332
  992TIP3    H2 2941   6.163   1.709   4.287  0.3718  0.2496 -0.5800
  993TIP3   OH2 2942   0.383   0.247   3.118 -0.2433  0.5053  0.6230
  993TIP3    H1 2943   0.445   0.310   3.082 -0.3929  0.3242  0.0174
  993TIP3    H2 2944   0.297   0.282   3.095 -0.3323  0.1886  0.4621
  994TIP3   OH2 2945   5.871   5.109   1.501  0.0607 -0.0567  0.7037
  994TIP3    H1 2946   5.915   5.075   1.578 -2.0873 -1.7820  1.2770
  994TIP3    H2 2947   5.932   5.095   1.429  1.4476  0.0921  1.8175
  995TIP3   OH2 2948   1.742   3.935   0.388  0.2414  0.3732 -0.1333
  995TIP3    H1 2949   1.686   4.006   0.418  0.2415  0.5299 -0.4919
  995TIP3    H2 2950   1.683   3.876   0.342  0.3737  0.5696 -0.5643
  996TIP3   OH2 2951   2.954   2.879   3.546  0.0094 -0.2875  0.7646
  996TIP3    H1 2952   2.864   2.905   3.564 -0.2956 -0.1667 -0.8023
  996TIP3    H2 2953   3.007   2.940   3.597 -0.7787  0.3459  0.8472
  997TIP3   OH2 2954   3.472   0.230   4.136 -0.1826 -0.0567  0.6646
  997TIP3    H1 2955   3.514   0.144   4.142 -0.1198 -0.2106 -1.1625
  997TIP3    H2 2956   3.381   0.214   4.162  0.7093  0.2391  4.4816
  998TIP3   OH2 2957   4.388   1.483   5.174  0.2568  0.3908 -0.2172
  998TIP3    H1 2958   4.449   1.417   5.144 -0.2645 -0.0680 -0.2818
  998TIP3    H2 2959   4.403   1.488   5.269  0.7709  0.6770 -0.3091
  999TIP3   OH2 2960   4.855   4.884   4.421 -0.1773  0.4841  0.4637
  999TIP3    H1 2961   4.814   4.805   4.385 -1.5753  1.4064 -0.0131
  999TIP3    H2 2962   4.912   4.851   4.491 -2.0090 -0.8310  1.4212
 1000TIP3   OH2 2963   6.173   0.687   1.983 -0.7737 -0.1285 -0.1307
 1000TIP3    H1 2964   6.232   0.647   1.919 -0.9583 -0.5122 -0.0593
 1000TIP3    H2 2965   6.088   0.649   1.964 -0.7299 -0.6701  0.7105
 1001TIP3   OH2 2966   0.940   5.879   2.420 -0.0915  0.4849 -0.4838
 1001TIP3    H1 2967   0.851   5.846   2.429 -0.1763  0.3021 -1.7447
 1001TIP3    H2 2968   0.990   5.803   2.390  0.3867  0.7148 -0.2852
 1002TIP3   OH2 2969   3.238   2.938   2.189  0.2712  0.6807 -0.3353
 1002TIP3    H1 2970   3.152   2.895   2.196  1.2475 -1.7586 -2.0248
 1002TIP3    H2 2971   3.253   2.974   2.276 -2.0219  0.2853  0.3005
 1003TIP3   OH2 2972   3.859   0.529   5.459  0.3668 -0.1500 -0.7103
 1003TIP3    H1 2973   3.919   0.580   5.405  0.7308 -0.3955 -0.5474
 1003TIP3    H2 2974   3.857   0.443   5.418  0.6936 -0.3560 -0.3063
 1004TIP3   OH2 2975   5.779   4.133   3.173  0.2119  0.4547 -0.6005
 1004TIP3    H1 2976   5.689   4.133   3.205  0.7228 -0.2071  0.8663
 1004TIP3    H2 2977   5.771   4.159   3.081 -1.2541  2.9285  0.1189
 1005TIP3   OH2 2978   7.064   6.685   2.174 -0.5250 -0.0138 -0.3143
 1005TIP3    H1 2979   7.082   6.700   2.081  2.5574  1.3120  0.3668
 1005TIP3    H2 2980   7.143   6.643   2.207 -1.3621 -0.0243  1.8237
 1006TIP3   OH2 2981   6.098   2.616   1.516 -0.0750  0.3874 -0.1229
 1006TIP3    H1 2982   6.105   2.701   1.559  0.7978  1.1002 -1.5537
 1006TIP3    H2 2983   6.008   2.612   1.484  0.1094  1.1808 -0.7791
 1007TIP3   OH2 2984   7.132   3.142   0.837  0.0365 -0.6194 -0.0718
 1007TIP3    H1 2985   7.053   3.106   0.878  0.3019 -1.0924  0.0337
 1007TIP3    H2 2986   7.173   3.195   0.904  0.6774 -1.7052  0.4207
 1008TIP3   OH2 2987   5.167   4.801   2.161  0.1900 -0.2419  0.2594
 1008TIP3    H1 2988   5.175   4.744   2.084 -0.0957  1.2476 -0.9197
 1008TIP3    H2 2989   5.076   4.788   2.190  0.0557 -0.2246 -0.1444
 1009TIP3   OH2 2990   1.725   4.614   2.574 -0.4847  0.0573  0.2791
 1009TIP3    H1 2991   1.665   4.630   2.648 -1.7651  1.2507 -0.9508
 1009TIP3    H2 2992   1.797   4.675   2.588 -1.2811  1.0915 -0.0257
 1010TIP3   OH2 2993   4.310   3.033   5.274 -0.3173 -0.3744 -0.0696
 1010TIP3    H1 2994   4.353   2.949   5.286  0.5223  0.2992  2.0071
 1010TIP3    H2 2995   4.374   3.098   5.303 -1.6457  0.8576  0.2387
 1011TIP3   OH2 2996   4.337   1.595   0.613  0.5183  0.0740 -0.3299
 1011TIP3    H1 2997   4.425   1.633   0.615  0.9824 -0.9151 -0.8091
 1011TIP3    H2 2998   4.352   1.501   0.627 -0.4476 -0.1179 -0.5504
 1012TIP3   OH2 2999   4.903   3.186   1.362 -0.1951 -0.6376  0.2128
 1012TIP3    H1 3000   4.951   3.138   1.294 -0.6548 -0.2206 -0.4219
 1012TIP3    H2 3001   4.815   3.196   1.326 -0.0893  0.7563  0.2887
 1013TIP3   OH2 3002   2.751   6.374   5.541  0.3052 -0.1314 -0.2898
 1013TIP3    H1 3003   2.789   6.386   5.454 -0.8377  1.9374 -0.5876
 1013TIP3    H2 3004   2.810   6.422   5.599  0.2586 -0.2204 -0.1704
 1014TIP3   OH2 3005   1.639   5.449   2.216 -0.4594 -0.1861  0.3997
 1014TIP3    H1 3006   1.701   5.473   2.285 -0.6129 -1.6873  1.0876
 1014TIP3    H2 3007   1.683   5.380   2.167 -0.5637  0.5094 -0.7036
 1015TIP3   OH2 3008   5.289   4.873   0.364 -0.2071  0.4435 -0.1851
 1015TIP3    H1 3009   5.346   4.826   0.425 -1.7809  0.6901  1.6024
 1015TIP3    H2 3010   5.237   4.930   0.421 -0.8458  1.6774 -1.9402
 1016TIP3   OH2 3011   4.351   6.603   3.039  0.2084 -0.5335  0.9333
 1016TIP3    H1 3012   4.313   6.516   3.032  0.8428 -0.7534 -0.0003
 1016TIP3    H2 3013   4.307   6.654   2.972  1.3316 -0.7162  0.0364
 1017TIP3   OH2 3014   6.114   1.163   5.740  0.3674 -0.5092  0.1018
 1017TIP3    H1 3015   6.076   1.221   5.674 -0.9706 -0.3689  0.9567
 1017TIP3    H2 3016   6.041   1.108   5.769  1.4270 -2.1022 -0.1161
 1018TIP3   OH2 3017   3.919   3.418   1.981  1.0391  0.0854 -0.1603
 1018TIP3    H1 3018   3.974   3.449   2.053  0.7270  0.2641  0.0031
 1018TIP3    H2 3019   3.861   3.353   2.021  1.0931 -0.0619 -0.3209
 1019TIP3   OH2 3020   3.582   6.615   5.729  0.1558  0.1492 -0.0234
 1019TIP3    H1 3021   3.604   6.648   5.816  1.7524 -0.7844 -0.0383
 1019TIP3    H2 3022   3.666   6.611   5.683 -0.6235  0.3895 -1.5420
 1020TIP3   OH2 3023   2.838   2.465   3.870  0.2386 -0.1798  0.2723
 1020TIP3    H1 3024   2.902   2.393   3.873  0.0144 -0.3944  0.0069
 1020TIP3    H2 3025   2.753   2.421   3.874  0.0993  0.0609 -0.0225
 1021TIP3   OH2 3026   5.473   6.280   3.327  0.0611  0.8758 -0.3153
 1021TIP3    H1 3027   5.377   6.274   3.328  0.0424  0.8971 -1.4841
 1021TIP3    H2 3028   5.502   6.200   3.285  0.7082 -0.3448  2.2613
 1022TIP3   OH2 3029   0.976   0.628   0.728  0.3191  0.0993  0.7188
 1022TIP3    H1 3030   0.899   0.571   0.728 -0.5141  1.1805 -0.3814
 1022TIP3    H2 3031   0.988   0.652   0.820 -2.6937  2.5416  0.6218
 1023TIP3   OH2 3032   5.736   2.468   4.225 -0.1553 -0.1370  0.6232
 1023TIP3    H1 3033   5.731   2.564   4.229 -1.3389 -0.2266  2.1206
 1023TIP3    H2 3034   5.738   2.448   4.131 -1.0265  1.3031  0.2747
 1024TIP3   OH2 3035   3.608   6.638   1.604 -0.1683 -0.7335  0.0047
 1024TIP3    H1 3036   3.585   6.580   1.677 -0.9324 -1.2317 -0.6116
 1024TIP3    H2 3037   3.702   6.650   1.612 -0.0520 -1.7682  0.3701
 1025TIP3   OH2 3038   7.038   2.141   1.722  0.5849  0.2855 -0.5295
 1025TIP3    H1 3039   7.093   2.175   1.653 -1.0708  0.4773 -1.8197
 1025TIP3    H2 3040   6.979   2.213   1.744  1.1075  0.2557  1.1663
 1026TIP3   OH2 3041   5.569   6.819   0.141  0.6716 -0.6143 -0.1298
 1026TIP3    H1 3042   5.634   6.750   0.133  1.1330 -0.2297  0.2642
 1026TIP3    H2 3043   5.510   6.806   0.066  0.5603 -1.6318  0.1187
 1027TIP3   OH2 3044   5.679   0.536   3.379  0.2389  0.4727  0.2632
 1027TIP3    H1 3045   5.663   0.498   3.466  1.3712 -1.1741 -0.2071
 1027TIP3    H2 3046   5.728   0.469   3.332 -0.7420  1.1353 -1.8271
 1028TIP3   OH2 3047   1.527   4.891   1.797  0.0630  0.8085  0.1337
 1028TIP3    H1 3048   1.457   4.844   1.752  0.0373  0.6831  0.3010
 1028TIP3    H2 3049   1.563   4.826   1.858  1.1578  0.4931 -0.8207
 1029TIP3   OH2 3050   1.076   6.414   1.380 -0.2781  0.6975  0.4883
 1029TIP3    H1 3051   1.071   6.436   1.287  0.0105 -2.0855 -0.2776
 1029TIP3    H2 3052   1.155   6.360   1.388 -2.0445 -1.9371  1.6264
 1030TIP3   OH2 3053   1.596   3.542   3.088 -0.0430 -0.1413  0.0550
 1030TIP3    H1 3054   1.682   3.502   3.103  0.5506  0.2831 -1.9699
 1030TIP3    H2 3055   1.544   3.472   3.048  0.1679  0.2897 -1.0176
 1031TIP3   OH2 3056   3.652   0.390   4.292 -0.0611  0.1644  0.4545
 1031TIP3    H1 3057   3.585   0.380   4.225 -0.8611  1.4141  1.0109
 1031TIP3    H2 3058   3.665   0.302   4.327 -1.0906 -0.1752  0.0202
 1032TIP3   OH2 3059   3.929   6.255   1.409  0.4962  0.1543 -0.0453
 1032TIP3    H1 3060   3.870   6.260   1.484 -0.8881  2.5652 -1.1748
 1032TIP3    H2 3061   4.000   6.317   1.430  0.4045  0.4043 -0.4543
 1033TIP3   OH2 3062   5.676   1.096   4.534  0.4198  0.1445  0.3017
 1033TIP3    H1 3063   5.590   1.093   4.491  1.1589  0.9976 -1.3588
 1033TIP3    H2 3064   5.708   1.006   4.530 -0.6376 -0.3103  1.5182
 1034TIP3   OH2 3065   1.758   1.450   2.083  0.3311  0.0998  0.2527
 1034TIP3    H1 3066   1.714   1.368   2.107  1.0971 -0.5753 -0.5888
 1034TIP3    H2 3067   1.837   1.451   2.138 -0.5110  1.1380  1.5077
 1035TIP3   OH2 3068   3.592   1.899   3.105 -0.4012  0.3312  0.2587
 1035TIP3    H1 3069   3.528   1.854   3.049  0.7569 -0.6538 -0.3334
 1035TIP3    H2 3070   3.603   1.841   3.180 -0.6363  0.8009  0.6670
 1036TIP3   OH2 3071   5.717   3.355   1.742  0.6445  0.3212  0.0633
 1036TIP3    H1 3072   5.728   3.449   1.747  1.0170  0.3426 -0.9081
 1036TIP3    H2 3073   5.768   3.320   1.815  0.1056  0.8904  0.7173
 1037TIP3   OH2 3074   3.519   1.534   3.024 -0.3914  0.2633  0.6430
 1037TIP3    H1 3075   3.478   1.613   2.989  0.9438  0.8862  0.4358
 1037TIP3    H2 3076   3.555   1.560   3.108  1.9624  0.5345 -0.3611
 1038TIP3   OH2 3077   2.819   5.002   1.061  0.6075  0.3386  0.1902
 1038TIP3    H1 3078   2.816   5.096   1.079 -0.9972  0.1832  0.9748
 1038TIP3    H2 3079   2.730   4.972   1.079  1.5613 -1.6871  2.0489
 1039TIP3   OH2 3080   5.618   4.748   5.094 -0.0626 -0.5921 -0.2021
 1039TIP3    H1 3081   5.705   4.787   5.094  0.8565 -2.5178 -0.4523
 1039TIP3    H2 3082   5.569   4.798   5.159  1.8306 -0.6985  1.3878
 1040TIP3   OH2 3083   6.955   0.389   3.268  0.2117  0.7128  0.1964
 1040TIP3    H1 3084   6.985   0.323   3.331  1.2418  0.5945 -0.4083
 1040TIP3    H2 3085   6.966   0.348   3.183 -2.2159  0.4561 -0.0558
 1041TIP3   OH2 3086   5.107   1.805   1.357  0.1571  0.0773 -0.2046
 1041TIP3    H1 3087   5.128   1.759   1.277  0.1600  1.6395 -1.1459
 1041TIP3    H2 3088   5.013   1.822   1.352 -0.0120 -0.5453  0.5438
 1042TIP3   OH2 3089   1.869   4.310   2.628  0.0399  0.1439  0.2590
 1042TIP3    H1 3090   1.815   4.331   2.552  0.1470 -0.3113  0.0535
 1042TIP3    H2 3091   1.897   4.395   2.662 -1.1265  0.4034  0.6080
 1043TIP3   OH2 3092   0.385   4.259   0.302  0.2592  0.3557  0.0939
 1043TIP3    H1 3093   0.437   4.203   0.244 -0.9468  0.9972 -1.7056
 1043TIP3    H2 3094   0.315   4.201   0.333 -0.5914  0.6326 -1.2185
 1044TIP3   OH2 3095   4.528   5.707   1.068  0.4427 -0.4279 -0.1177
 1044TIP3    H1 3096   4.610   5.657   1.061  0.2137 -0.7455 -0.5029
 1044TIP3    H2 3097   4.486   5.672   1.147  0.5767 -0.4054 -0.0343
 1045TIP3   OH2 3098   2.597   5.182   2.519 -0.0357  0.1332 -0.1531
 1045TIP3    H1 3099   2.622   5.130   2.596 -1.7803  0.0225  0.4043
 1045TIP3    H2 3100   2.642   5.141   2.446  1.2726 -0.0733  0.7414
 1046TIP3   OH2 3101   3.093   5.798   2.736 -0.6593 -0.0969  0.7967
 1046TIP3    H1 3102   3.020   5.784   2.795 -0.2630  0.2313  1.3695
 1046TIP3    H2 3103   3.159   5.842   2.789  1.3723 -3.4175  1.3429
 1047TIP3   OH2 3104   1.320   2.325   3.312  0.5377 -0.4791 -0.0869
 1047TIP3    H1 3105   1.294   2.255   3.252 -1.2337 -0.0803  0.1599
 1047TIP3    H2 3106   1.376   2.282   3.376  2.0865 -1.0076 -1.7107
 1048TIP3   OH2 3107   2.388   6.293   3.186  0.4017 -0.4742  0.2461
 1048TIP3    H1 3108   2.478   6.298   3.218  1.1376  0.3198 -1.7704
 1048TIP3    H2 3109   2.393   6.238   3.108 -0.6992  0.2250 -0.3480
 1049TIP3   OH2 3110   4.432   3.220   0.486 -0.2931 -0.6386  0.2099
 1049TIP3    H1 3111   4.420   3.192   0.576 -2.2146  1.9786  0.9122
 1049TIP3    H2 3112   4.344   3.242   0.456  0.6383  1.7013 -1.1182
 1050TIP3   OH2 3113   3.897   0.429   5.710 -0.6840  0.0262 -0.1263
 1050TIP3    H1 3114   3.826   0.372   5.737 -0.6919  0.0775 -0.0389
 1050TIP3    H2 3115   3.866   0.467   5.627 -1.0209  0.5194  0.2214
 1051TIP3   OH2 3116   5.762   0.229   1.413 -0.5527 -0.6528 -0.1418
 1051TIP3    H1 3117   5.787   0.138   1.424  0.4098 -0.4856 -0.8494
 1051TIP3    H2 3118   5.703   0.230   1.338  1.4040 -0.3993 -1.7473
 1052TIP3   OH2 3119   6.302   2.164   0.525 -0.3358  0.2976  0.4851
 1052TIP3    H1 3120   6.287   2.077   0.489  0.5585 -0.1270  1.1234
 1052TIP3    H2 3121   6.300   2.222   0.448 -0.7663 -0.2936  0.0399
 1053TIP3   OH2 3122   5.647   2.588   1.904  0.1236  0.0630 -0.6471
 1053TIP3    H1 3123   5.587   2.613   1.835  0.1859 -1.6254 -1.3611
 1053TIP3    H2 3124   5.632   2.494   1.918  0.2833  0.2858  1.4727
 1054TIP3   OH2 3125   1.915   3.873   4.412  0.1034 -0.0562 -0.0356
 1054TIP3    H1 3126   2.006   3.900   4.403  0.5550 -1.5853 -0.4386
 1054TIP3    H2 3127   1.866   3.954   4.419  1.5559  0.7930  0.7764
 1055TIP3   OH2 3128   0.422   0.406   0.197  0.4707 -0.3818 -0.0611
 1055TIP3    H1 3129   0.394   0.337   0.259  0.0174  0.5694  0.8300
 1055TIP3    H2 3130   0.467   0.358   0.127 -1.5957 -1.8054 -0.5201
 1056TIP3   OH2 3131   4.056   4.141   2.485  0.3252  0.5259 -0.2837
 1056TIP3    H1 3132   4.088   4.218   2.438  2.4610 -0.1451 -0.0080
 1056TIP3    H2 3133   4.077   4.158   2.577  0.3073 -0.1487 -0.1491
 1057TIP3   OH2 3134   0.937   0.926   4.266 -0.7371 -0.3700  0.3612
 1057TIP3    H1 3135   0.983   0.954   4.346  0.3496 -0.3934 -0.2374
 1057TIP3    H2 3136   0.848   0.907   4.295 -0.8875  1.4692  1.2310
 1058TIP3   OH2 3137   0.507   1.765   1.492 -0.6741 -0.0229  0.3170
 1058TIP3    H1 3138   0.554   1.682   1.488 -2.1348 -0.8634 -0.6400
 1058TIP3    H2 3139   0.432   1.748   1.549 -1.0545  0.5923  0.0152
 1059TIP3   OH2 3140   6.191   5.951   1.215  0.1363  0.0585 -0.5514
 1059TIP3    H1 3141   6.264   6.012   1.214  0.2286 -0.0209  0.4640
 1059TIP3    H2 3142   6.202   5.900   1.296 -0.6388 -0.4386 -0.7411
 1060TIP3   OH2 3143   4.009   4.554   0.200  0.1780  0.1219  0.3023
 1060TIP3    H1 3144   4.006   4.649   0.206  1.9021  0.1825  0.5372
 1060TIP3    H2 3145   4.034   4.535   0.110 -0.5899 -0.1480  0.1310
 1061TIP3   OH2 3146   5.286   4.373   1.451  0.0914 -0.1567 -0.3730
 1061TIP3    H1 3147   5.274   4.417   1.367  0.7781 -0.8082 -0.8186
 1061TIP3    H2 3148   5.197   4.361   1.484 -0.2062 -0.2510 -1.1902
 1062TIP3   OH2 3149   6.361   0.187   0.220 -0.1272 -0.0336  0.0491
 1062TIP3    H1 3150   6.403   0.198   0.304  0.2130 -0.2725 -0.0908
 1062TIP3    H2 3151   6.433   0.179   0.157 -0.3748 -1.2568 -0.0880
 1063TIP3   OH2 3152   3.785   5.779   3.165 -0.2541 -0.1566 -0.9647
 1063TIP3    H1 3153   3.815   5.868   3.181  0.0095 -0.4209  0.1361
 1063TIP3    H2 3154   3.692   5.781   3.188 -0.2365 -0.1776 -0.8920
 1064TIP3   OH2 3155   3.362   1.707   1.751  0.2146  0.0696  0.1105
 1064TIP3    H1 3156   3.392   1.765   1.821  0.8583 -2.2794  1.9389
 1064TIP3    H2 3157   3.268   1.699   1.764  0.0207  1.0897 -0.5233
 1065TIP3   OH2 3158   3.326   4.004   3.866  0.3217  0.2705  0.3074
 1065TIP3    H1 3159   3.245   3.954   3.856  0.4738 -0.1966  1.2916
 1065TIP3    H2 3160   3.344   4.038   3.779 -1.4482  1.1874  0.2560
 1066TIP3   OH2 3161   0.375   0.539   5.694  0.0480  0.1100 -0.1013
 1066TIP3    H1 3162   0.378   0.627   5.658 -1.6977  0.4034  0.3999
 1066TIP3    H2 3163   0.431   0.487   5.635 -0.1555  1.2193 -1.3136
 1067TIP3   OH2 3164   6.260   4.249   5.662 -0.0254 -0.0432  0.0172
 1067TIP3    H1 3165   6.346   4.250   5.704 -0.4502 -0.4779  0.9139
 1067TIP3    H2 3166   6.200   4.218   5.729 -0.8121 -0.2413 -0.7510
 1068TIP3   OH2 3167   6.331   5.856   4.332  0.1151  0.0486  0.2520
 1068TIP3    H1 3168   6.275   5.846   4.409 -0.7638 -0.9160 -0.4679
 1068TIP3    H2 3169   6.328   5.770   4.290 -0.1415  0.8069 -1.3353
 1069TIP3   OH2 3170   5.427   5.805   4.101  0.4579  0.0660  0.0545
 1069TIP3    H1 3171   5.342   5.794   4.143  0.8616 -0.2681  0.7978
 1069TIP3    H2 3172   5.451   5.896   4.118  0.5491 -0.0250  0.4102
 1070TIP3   OH2 3173   4.458   1.196   1.409  0.3074 -0.2307 -0.6077
 1070TIP3    H1 3174   4.419   1.167   1.327  0.7197  0.0812 -0.9112
 1070TIP3    H2 3175   4.511   1.272   1.386 -0.1396  0.2970  0.0613
 1071TIP3   OH2 3176   0.179   3.669   4.037 -0.3588  0.3872  0.5834
 1071TIP3    H1 3177   0.133   3.734   4.092  0.4670  1.1231  0.4248
 1071TIP3    H2 3178   0.271   3.682   4.058 -0.2047 -1.0303  0.8368
 1072TIP3   OH2 3179   5.849   6.102   2.507  0.1533 -0.1817 -0.2658
 1072TIP3    H1 3180   5.861   6.093   2.413  1.5582  0.0703 -0.1277
 1072TIP3    H2 3181   5.934   6.132   2.540 -0.8406  1.6689  0.8356
 1073TIP3   OH2 3182   0.111   3.492   0.432  0.2720 -0.7251  0.2419
 1073TIP3    H1 3183   0.033   3.546   0.423  1.0757  0.4700  0.1218
 1073TIP3    H2 3184   0.101   3.446   0.515 -0.3585 -0.2628  0.4218
 1074TIP3   OH2 3185   3.935   0.114   5.217  0.4081  0.3537  0.2101
 1074TIP3    H1 3186   3.867   0.134   5.153 -0.8327 -1.2485  0.9568
 1074TIP3    H2 3187   4.016   0.111   5.167 -0.3043  0.6422 -0.9910
 1075TIP3   OH2 3188   7.007   1.124   4.385  0.3192  0.3816  0.1167
 1075TIP3    H1 3189   7.065   1.190   4.425  2.5243 -0.7329 -1.0929
 1075TIP3    H2 3190   6.920   1.150   4.413  1.2242  3.0651  0.7516
 1076TIP3   OH2 3191   1.023   0.073   3.556 -0.3312 -0.1068 -0.7373
 1076TIP3    H1 3192   1.053  -0.017   3.564 -0.4199 -0.0306  0.6949
 1076TIP3    H2 3193   0.931   0.066   3.530 -0.6389 -0.4640  0.4172
 1077TIP3   OH2 3194   6.270   0.940   2.801 -0.2187  0.0225 -0.4180
 1077TIP3    H1 3195   6.326   0.919   2.725 -0.9500 -2.8432 -0.2911
 1077TIP3    H2 3196   6.332   0.953   2.873  0.4071 -1.4938 -0.6338
 1078TIP3   OH2 3197   1.889   1.870   3.383 -0.5263  0.6111  0.2158
 1078TIP3    H1 3198   1.813   1.906   3.428 -0.2159  1.1369  0.3289
 1078TIP3    H2 3199   1.922   1.802   3.441 -1.2346 -0.0029 -0.0906
 1079TIP3   OH2 3200   6.417   4.674   5.407  0.5707  0.1380  0.4176
 1079TIP3    H1 3201   6.466   4.718   5.338 -0.3809  0.5330 -0.0243
 1079TIP3    H2 3202   6.445   4.583   5.403 -0.3627 -0.1056 -1.3095
 1080TIP3   OH2 3203   1.737   0.789   4.161 -0.4097 -0.0039  0.2891
 1080TIP3    H1 3204   1.679   0.864   4.178 -0.8029 -0.3816  0.6292
 1080TIP3    H2 3205   1.779   0.810   4.077 -0.8001  0.4180  0.1947
 1081TIP3   OH2 3206   4.997   2.412   3.625  0.1053  0.4105  0.1678
 1081TIP3    H1 3207   5.055   2.425   3.549  0.2474  2.1189  0.5272
 1081TIP3    H2 3208   5.056   2.409   3.700 -0.1425  0.2508  0.3574
 1082TIP3   OH2 3209   5.853   6.385   4.595 -0.3877 -0.1102  0.0634
 1082TIP3    H1 3210   5.930   6.442   4.586 -0.7694  0.6567  1.3796
 1082TIP3    H2 3211   5.889   6.299   4.619  0.0986  0.0433 -0.1100
 1083TIP3   OH2 3212   1.041   4.447   3.576 -0.0234  0.0807  0.1479
 1083TIP3    H1 3213   1.017   4.390   3.503 -0.3841 -1.3386  1.3412
 1083TIP3    H2 3214   1.136   4.453   3.572 -0.0164 -0.2484 -0.2486
 1084TIP3   OH2 3215   5.747   5.145   3.096  0.2448 -0.0906  0.2097
 1084TIP3    H1 3216   5.838   5.174   3.091 -0.3218  1.6218 -1.5198
 1084TIP3    H2 3217   5.736   5.116   3.186  2.3651  0.0755  0.5845
 1085TIP3   OH2 3218   1.747   0.799   0.682  0.5933  0.5029 -0.1498
 1085TIP3    H1 3219   1.720   0.852   0.607 -0.6627 -0.8431 -0.7083
 1085TIP3    H2 3220   1.714   0.846   0.758 -1.6923 -0.0577 -0.7157
 1086TIP3   OH2 3221   7.023   4.245   5.552 -0.1797 -0.1121 -0.3094
 1086TIP3    H1 3222   7.045   4.224   5.643 -0.9984 -1.2505 -0.3518
 1086TIP3    H2 3223   7.046   4.166   5.503 -2.0091 -0.4397 -0.7140
 1087TIP3   OH2 3224   0.313   5.703   0.293  0.3926  0.6011  0.0789
 1087TIP3    H1 3225   0.314   5.772   0.226 -0.4589 -0.5940 -1.2453
 1087TIP3    H2 3226   0.220   5.678   0.299  0.7161 -0.6122  0.2962
 1088TIP3   OH2 3227   6.044   1.406   2.140  0.6039 -0.2693 -0.1766
 1088TIP3    H1 3228   6.060   1.315   2.116 -0.5276  0.2488 -3.3528
 1088TIP3    H2 3229   5.973   1.402   2.205  0.8249 -1.6363  0.0057
 1089TIP3   OH2 3230   4.486   4.868   3.154 -0.5636  0.4611 -0.1890
 1089TIP3    H1 3231   4.434   4.794   3.124  1.5897 -0.8646 -0.8753
 1089TIP3    H2 3232   4.573   4.853   3.118  0.3354  2.5809  0.8779
 1090TIP3   OH2 3233   4.021   3.059   3.186 -0.4571 -0.4836 -0.0466
 1090TIP3    H1 3234   3.938   3.106   3.180 -1.1159 -1.5054  0.6405
 1090TIP3    H2 3235   4.075   3.112   3.245 -1.1065 -0.4689  0.5503
 1091TIP3   OH2 3236   1.709   6.763   4.399 -0.1546 -0.2946 -0.0707
 1091TIP3    H1 3237   1.689   6.705   4.325  0.8543 -1.5876  0.6178
 1091TIP3    H2 3238   1.682   6.714   4.476  0.2895  0.3467  0.5034
 1092TIP3   OH2 3239   2.236   3.184   4.939  0.2900 -0.6283  0.3192
 1092TIP3    H1 3240   2.310   3.242   4.957  0.2015 -0.4164  0.0128
 1092TIP3    H2 3241   2.257   3.145   4.854 -0.5406  0.3837 -0.3679
 1093TIP3   OH2 3242   5.677   6.108   1.194  0.8798  0.1803 -0.2696
 1093TIP3    H1 3243   5.666   6.062   1.110  0.4187 -1.0560  0.4283
 1093TIP3    H2 3244   5.768   6.092   1.219  0.6276 -0.6896  0.1369
 1094TIP3   OH2 3245   2.843   0.103   2.769  0.5877  0.3882  0.4728
 1094TIP3    H1 3246   2.750   0.126   2.769  0.0076 -1.7386  1.4488
 1094TIP3    H2 3247   2.861   0.076   2.859  1.3005 -2.1745 -0.3469
 1095TIP3   OH2 3248   6.461   6.157   2.308 -0.0723 -0.7676  0.0023
 1095TIP3    H1 3249   6.383   6.123   2.263  0.2294 -0.7969 -0.5037
 1095TIP3    H2 3250   6.512   6.079   2.331 -0.5776 -0.8042  1.0709
 1096TIP3   OH2 3251   6.154   4.361   4.414  0.2500 -0.4295 -0.6810
 1096TIP3    H1 3252   6.232   4.412   4.393  0.8301 -0.2482  1.6334
 1096TIP3    H2 3253   6.181   4.305   4.487 -1.2720 -1.7542 -1.0797
 1097TIP3   OH2 3254   4.747   1.760   4.595  0.2623  0.2667 -0.2121
 1097TIP3    H1 3255   4.680   1.707   4.639  1.9464 -1.0683  0.8928
 1097TIP3    H2 3256   4.804   1.790   4.666  1.1775  0.8642 -1.1693
 1098TIP3   OH2 3257   6.887   3.091   0.314 -0.1098  0.1310  0.2903
 1098TIP3    H1 3258   6.877   3.107   0.408  0.6954  0.2308  0.3609
 1098TIP3    H2 3259   6.955   3.024   0.308 -0.7669 -0.5121 -0.1904
 1099TIP3   OH2 3260   6.002   5.071   5.432 -0.5525  0.2247  0.1642
 1099TIP3    H1 3261   6.051   5.153   5.443  1.0971 -0.8930  1.7150
 1099TIP3    H2 3262   6.047   5.008   5.489 -1.4839 -1.8893 -1.3006
 1100TIP3   OH2 3263   5.114   1.949   2.678 -0.5217  0.2365  0.3485
 1100TIP3    H1 3264   5.114   1.919   2.769 -0.3683 -3.1862 -0.6399
 1100TIP3    H2 3265   5.037   1.907   2.639  0.1641  0.5249 -1.3983
 1101TIP3   OH2 3266   2.682   1.391   4.825 -0.5497 -0.5853  0.4697
 1101TIP3    H1 3267   2.665   1.441   4.905 -0.9102  0.5477 -0.2966
 1101TIP3    H2 3268   2.646   1.444   4.755  0.1749 -1.3459 -0.5103
 1102TIP3   OH2 3269   7.214   0.654   1.328  0.1157 -0.1653  0.1809
 1102TIP3    H1 3270   7.175   0.593   1.391 -0.6490 -0.3144 -0.4127
 1102TIP3    H2 3271   7.141   0.710   1.301  0.2648 -0.5415 -1.0634
 1103TIP3   OH2 3272   2.872   3.447   3.131 -0.1424 -0.1290 -0.3191
 1103TIP3    H1 3273   2.870   3.353   3.116  0.0236 -0.1433 -0.2568
 1103TIP3    H2 3274   2.903   3.457   3.221  1.4665  0.0188 -0.8571
 1104TIP3   OH2 3275   5.007   6.479   4.413 -0.2637 -0.7224 -0.7831
 1104TIP3    H1 3276   5.095   6.453   4.385  0.2892  0.8032 -0.5816
 1104TIP3    H2 3277   5.011   6.474   4.509 -0.1790 -0.0524 -0.7455
 1105TIP3   OH2 3278   4.725   0.432   2.580 -0.2252 -0.3157  0.4419
 1105TIP3    H1 3279   4.720   0.510   2.524  0.6328 -0.9579 -0.5688
 1105TIP3    H2 3280   4.712   0.359   2.520  1.5735 -1.0618  0.8995
 1106TIP3   OH2 3281   3.540   5.905   0.428 -0.7734  0.3565 -0.3076
 1106TIP3    H1 3282   3.452   5.907   0.391 -0.8256  0.8255 -0.1619
 1106TIP3    H2 3283   3.554   5.994   0.462 -0.3505  0.2070 -0.0858
 1107TIP3   OH2 3284   6.140   6.154   5.468  0.0017  0.5793 -0.1847
 1107TIP3    H1 3285   6.144   6.074   5.520  1.6392  0.5690 -0.2867
 1107TIP3    H2 3286   6.072   6.136   5.402 -0.2532 -0.3866  0.3252
 1108TIP3   OH2 3287   2.060   1.206   3.227 -0.1205 -0.0079  0.2025
 1108TIP3    H1 3288   1.975   1.209   3.182 -0.5371  0.8021  1.0053
 1108TIP3    H2 3289   2.110   1.141   3.179 -1.7200 -1.6319  0.6113
 1109TIP3   OH2 3290   1.337   6.696   4.258  0.3022  0.0715 -0.3395
 1109TIP3    H1 3291   1.394   6.652   4.321  0.0412 -1.1715 -0.9341
 1109TIP3    H2 3292   1.397   6.733   4.194  0.4924 -0.3917 -0.4365
 1110TIP3   OH2 3293   1.544   1.939   5.334 -0.0346  0.1543 -0.1285
 1110TIP3    H1 3294   1.480   1.875   5.301  0.0642 -0.9731  1.7238
 1110TIP3    H2 3295   1.629   1.898   5.316  0.0084 -1.0105  2.3563
 1111TIP3   OH2 3296   4.924   3.942   2.748  0.0598  0.1088 -0.5411
 1111TIP3    H1 3297   4.992   3.878   2.729 -0.5061 -0.9905  0.9443
 1111TIP3    H2 3298   4.890   3.916   2.833 -0.4103  2.2158 -0.0242
 1112TIP3   OH2 3299   2.723   0.260   1.873  0.6872 -0.2242  0.4403
 1112TIP3    H1 3300   2.643   0.257   1.926  0.1208  0.9765 -0.3158
 1112TIP3    H2 3301   2.733   0.171   1.840 -1.7626  0.1191 -1.4941
 1113TIP3   OH2 3302   3.466   2.522   1.544  0.3817  0.4882 -0.0387
 1113TIP3    H1 3303   3.547   2.477   1.568  1.4229  0.5453 -3.0065
 1113TIP3    H2 3304   3.473   2.608   1.586  1.0156 -0.0974  1.1219
 1114TIP3   OH2 3305   4.049   5.416   1.874 -0.2929  0.0575  0.4711
 1114TIP3    H1 3306   4.017   5.410   1.784  2.3960 -0.7464 -0.5184
 1114TIP3    H2 3307   4.103   5.495   1.876 -0.3172  0.0697  1.3895
 1115TIP3   OH2 3308   4.135   5.437   5.195  0.1645 -0.2804 -0.5019
 1115TIP3    H1 3309   4.204   5.394   5.246 -0.5180 -0.0296  0.6702
 1115TIP3    H2 3310   4.180   5.510   5.152  1.0156 -1.2442 -1.3084
 1116TIP3   OH2 3311   0.762   2.935   0.377 -0.5230 -0.0063  0.3458
 1116TIP3    H1 3312   0.787   2.923   0.469 -0.1935  1.7922  0.5219
 1116TIP3    H2 3313   0.837   2.902   0.327 -1.0483 -1.7927  0.6570
 1117TIP3   OH2 3314   0.008   3.029   3.772 -0.1932  0.3301 -0.2617
 1117TIP3    H1 3315   0.071   2.970   3.814 -1.9147 -1.2571  0.2454
 1117TIP3    H2 3316   0.060   3.079   3.710  1.2547 -2.4404 -1.4666
 1118TIP3   OH2 3317   0.322   3.634   5.156 -0.2773  0.0778  0.1713
 1118TIP3    H1 3318   0.228   3.647   5.158 -0.1700  1.1458  3.0675
 1118TIP3    H2 3319   0.334   3.542   5.135 -1.9975 -0.2128  0.3715
 1119TIP3   OH2 3320   2.813   1.653   1.375  0.1199  0.3255 -0.4802
 1119TIP3    H1 3321   2.876   1.724   1.365  0.9231 -0.3780 -0.5191
 1119TIP3    H2 3322   2.774   1.643   1.288  2.7732 -1.7901 -1.5538
 1120TIP3   OH2 3323   6.055   5.258   3.395 -0.3358  0.0613  0.1973
 1120TIP3    H1 3324   5.997   5.315   3.343 -1.2039 -0.9901 -0.0328
 1120TIP3    H2 3325   6.036   5.281   3.486  0.4317  1.1796  0.1015
 1121TIP3   OH2 3326   6.533   4.803   0.313 -0.1104  0.1806 -0.3915
 1121TIP3    H1 3327   6.479   4.833   0.239 -0.0265  0.6777 -0.2486
 1121TIP3    H2 3328   6.469   4.781   0.381 -0.2043 -0.5367 -0.6989
 1122TIP3   OH2 3329   5.792   0.867   2.374  0.4008 -0.4687 -0.1974
 1122TIP3    H1 3330   5.778   0.917   2.454 -0.1186 -0.8248 -0.0602
 1122TIP3    H2 3331   5.706   0.832   2.352  0.5993 -0.6290 -0.7405
 1123TIP3   OH2 3332   4.324   1.186   0.436 -0.0686  0.0407  0.3471
 1123TIP3    H1 3333   4.275   1.253   0.389 -0.8456 -0.1802  0.8278
 1123TIP3    H2 3334   4.309   1.205   0.528 -1.9805 -1.9469  0.5388
 1124TIP3   OH2 3335   3.805   5.651   5.225  0.0323  0.2298 -0.6720
 1124TIP3    H1 3336   3.862   5.625   5.297 -1.4905  1.9775  1.3238
 1124TIP3    H2 3337   3.780   5.569   5.182  0.6729 -0.9240  1.0589
 1125TIP3   OH2 3338   0.641   0.895   2.845  0.2285  0.2280 -0.2641
 1125TIP3    H1 3339   0.699   0.971   2.845  0.0678  0.3730  0.9320
 1125TIP3    H2 3340   0.579   0.912   2.775 -0.2020  1.5259  0.3961
 1126TIP3   OH2 3341   3.286   1.053   0.575 -0.7692 -0.2736  0.3065
 1126TIP3    H1 3342   3.261   1.130   0.525 -1.5255 -0.7491 -0.0711
 1126TIP3    H2 3343   3.269   1.076   0.666  1.1354  0.7986  0.4341
 1127TIP3   OH2 3344   2.579   1.749   0.730 -0.3493 -0.5572 -0.1708
 1127TIP3    H1 3345   2.505   1.767   0.788  0.4795 -0.6430  0.9472
 1127TIP3    H2 3346   2.570   1.656   0.709 -1.1368 -0.3348 -0.9207
 1128TIP3   OH2 3347   0.005   4.139   2.535 -0.2542  0.2465 -0.3159
 1128TIP3    H1 3348   0.084   4.193   2.542 -0.7469  1.1092 -1.2435
 1128TIP3    H2 3349   0.038   4.049   2.525  0.5943 -0.0869  3.7877
 1129TIP3   OH2 3350   5.468   3.588   3.799 -0.0888  0.2570  0.0776
 1129TIP3    H1 3351   5.487   3.621   3.887  0.9979 -1.0117  0.3405
 1129TIP3    H2 3352   5.394   3.529   3.811  0.6346 -0.6151  0.3013
 1130TIP3   OH2 3353   5.536   6.498   5.467 -0.3503 -0.3225 -0.1065
 1130TIP3    H1 3354   5.471   6.428   5.473  1.2109 -1.8975 -0.5884
 1130TIP3    H2 3355   5.503   6.554   5.397 -0.4643 -1.9455 -1.4256
 1131TIP3   OH2 3356   0.549   2.749   1.653 -0.1048  0.0766 -0.5596
 1131TIP3    H1 3357   0.460   2.714   1.663 -0.1735  0.2736 -0.4765
 1131TIP3    H2 3358   0.589   2.736   1.739  0.0833 -0.3830 -0.7107
 1132TIP3   OH2 3359   7.102   4.156   1.036  0.2279 -0.6006 -0.2582
 1132TIP3    H1 3360   7.036   4.213   0.996 -1.1937 -2.1126 -0.1881
 1132TIP3    H2 3361   7.127   4.096   0.966  2.5732  0.7392 -0.6742
 1133TIP3   OH2 3362   0.937   1.718   1.852 -0.0705 -0.2999 -0.4121
 1133TIP3    H1 3363   0.916   1.633   1.889 -0.9010 -0.4485 -1.1834
 1133TIP3    H2 3364   1.024   1.739   1.886  0.1592 -1.4739 -0.2605
 1134TIP3   OH2 3365   2.493   0.784   3.808  0.0919  0.5458  0.0688
 1134TIP3    H1 3366   2.444   0.856   3.848 -0.2800  1.1663 -1.4238
 1134TIP3    H2 3367   2.567   0.827   3.765 -0.2624  0.0849 -1.0340
 1135TIP3   OH2 3368   6.192   6.296   0.273 -0.1371  0.0565  0.2087
 1135TIP3    H1 3369   6.140   6.375   0.259 -0.1369  0.1610  0.7951
 1135TIP3    H2 3370   6.283   6.326   0.271 -0.1139 -0.0198 -0.1104
 1136TIP3   OH2 3371   4.901   6.131   2.751 -0.4906 -0.3962 -0.4054
 1136TIP3    H1 3372   4.938   6.131   2.840 -0.4809 -2.3323 -0.3640
 1136TIP3    H2 3373   4.968   6.089   2.698 -1.5740 -1.6378 -0.8224
 1137TIP3   OH2 3374   5.574   5.572   4.355  0.1066 -0.3272  0.1841
 1137TIP3    H1 3375   5.528   5.512   4.297 -1.6357  0.3467  0.7839
 1137TIP3    H2 3376   5.507   5.636   4.380  1.0484 -0.0246  2.1210
 1138TIP3   OH2 3377   5.365   2.865   0.295 -0.3221  0.2195  0.3725
 1138TIP3    H1 3378   5.365   2.925   0.370 -2.2873 -0.4161  0.9386
 1138TIP3    H2 3379   5.367   2.778   0.334  1.2999 -0.1433 -0.4223
 1139TIP3   OH2 3380   3.307   6.107   2.470  0.5969 -0.5713 -0.1244
 1139TIP3    H1 3381   3.332   6.015   2.473  1.6683 -0.3175 -0.6563
 1139TIP3    H2 3382   3.378   6.153   2.515  0.0536 -0.0047  0.1684
 1140TIP3   OH2 3383   4.218   5.183   3.115 -0.4050 -0.1530 -0.0390
 1140TIP3    H1 3384   4.222   5.250   3.183 -1.1140 -0.7850  0.6530
 1140TIP3    H2 3385   4.304   5.185   3.073  0.2962 -0.2267  1.3527
 1141TIP3   OH2 3386   0.558   3.115   4.585  0.0410  0.8178 -0.2546
 1141TIP3    H1 3387   0.604   3.039   4.550 -1.2927  0.0330 -0.3837
 1141TIP3    H2 3388   0.551   3.175   4.510  0.7046  0.8834 -0.2696
 1142TIP3   OH2 3389   3.632   3.714   1.353 -0.0057  0.4151  0.0726
 1142TIP3    H1 3390   3.655   3.764   1.431  0.6238  1.1040 -0.5410
 1142TIP3    H2 3391   3.576   3.772   1.302 -1.3304 -0.4361  0.5044
 1143TIP3   OH2 3392   1.501   5.714   4.057  0.2844  0.4728  0.3496
 1143TIP3    H1 3393   1.503   5.809   4.070  0.3706  1.0635 -2.9296
 1143TIP3    H2 3394   1.413   5.697   4.023  0.3419 -0.5961  0.7135
 1144TIP3   OH2 3395   2.739   5.097   0.606  0.6170 -1.0527 -0.2166
 1144TIP3    H1 3396   2.795   5.159   0.559  0.8576  1.3313  2.8562
 1144TIP3    H2 3397   2.697   5.045   0.537 -1.1425  3.7988 -3.3736
 1145TIP3   OH2 3398   7.084   1.576   5.561  0.7483  0.2132  0.4640
 1145TIP3    H1 3399   7.100   1.483   5.550  2.2473  0.5041  0.0229
 1145TIP3    H2 3400   7.096   1.613   5.473 -0.0882  0.7954  0.5799
 1146TIP3   OH2 3401   2.834   2.716   3.112 -0.7743 -0.2357  0.3949
 1146TIP3    H1 3402   2.751   2.671   3.129 -1.2693  0.6358  0.3684
 1146TIP3    H2 3403   2.881   2.712   3.195  0.1822 -2.7282 -0.1817
 1147TIP3   OH2 3404   3.966   6.421   5.803  0.3389  0.2544 -0.0372
 1147TIP3    H1 3405   4.058   6.410   5.781  0.3573 -0.5578  0.4269
 1147TIP3    H2 3406   3.966   6.475   5.882  0.3168  2.0499 -1.1849
 1148TIP3   OH2 3407   4.345   0.947   3.364 -0.5254 -0.0360 -0.4359
 1148TIP3    H1 3408   4.343   0.892   3.443 -1.8837  0.3874 -0.1485
 1148TIP3    H2 3409   4.279   0.908   3.307 -0.4910  0.4519 -0.8110
 1149TIP3   OH2 3410   5.295   3.259   4.919 -0.3986 -0.6469 -0.2285
 1149TIP3    H1 3411   5.274   3.282   4.828  2.0696  0.0850 -0.6773
 1149TIP3    H2 3412   5.286   3.342   4.967 -0.8806 -0.8568  0.0520
 1150TIP3   OH2 3413   1.865   5.102   3.533  0.4166  0.4819  0.0978
 1150TIP3    H1 3414   1.960   5.096   3.532  0.5527  2.1956  0.3377
 1150TIP3    H2 3415   1.843   5.147   3.451  0.0041  2.1473  1.0906
 1151TIP3   OH2 3416   6.680   3.066   1.599  0.0076  0.1723 -0.2264
 1151TIP3    H1 3417   6.722   3.140   1.554  0.7558 -0.3374 -0.3862
 1151TIP3    H2 3418   6.601   3.104   1.639  0.7702  1.2404  0.3383
 1152TIP3   OH2 3419   4.754   6.052   5.263 -0.1212  0.2624 -0.3788
 1152TIP3    H1 3420   4.739   6.146   5.272 -2.4214  0.1219 -1.8750
 1152TIP3    H2 3421   4.668   6.016   5.239  1.0783 -1.9438 -1.6917
 1153TIP3   OH2 3422   6.425   0.254   1.135 -0.1276 -0.5757  0.3017
 1153TIP3    H1 3423   6.364   0.306   1.188 -0.0278 -1.6019  1.4601
 1153TIP3    H2 3424   6.412   0.164   1.164  1.9884 -0.8291  0.6387
 1154TIP3   OH2 3425   0.584   1.724   4.678  0.0272  0.3525 -0.5661
 1154TIP3    H1 3426   0.650   1.786   4.707  0.7380 -0.9505  0.7343
 1154TIP3    H2 3427   0.505   1.749   4.725  0.1774  0.5713 -0.4263
 1155TIP3   OH2 3428   4.193   1.308   0.650  0.2073 -0.3683  0.0087
 1155TIP3    H1 3429   4.123   1.329   0.588  0.0557 -2.1809 -0.4916
 1155TIP3    H2 3430   4.148   1.276   0.728  0.4520 -0.3112  0.1755
 1156TIP3   OH2 3431   3.151   5.414   3.350  0.1650 -0.4492 -0.0868
 1156TIP3    H1 3432   3.229   5.468   3.355 -0.5345  0.5370  0.6951
 1156TIP3    H2 3433   3.088   5.468   3.302 -0.6683 -0.3814  1.0368
 1157TIP3   OH2 3434   0.222   4.044   5.687  0.4510  0.5841 -0.4869
 1157TIP3    H1 3435   0.272   4.082   5.614  2.6691  2.6120  1.8461
 1157TIP3    H2 3436   0.235   3.950   5.678  0.8873  0.7863 -2.5371
 1158TIP3   OH2 3437   6.788   0.576   1.625  0.2250 -0.2782 -0.1306
 1158TIP3    H1 3438   6.705   0.597   1.582 -0.2415 -3.2249 -0.9362
 1158TIP3    H2 3439   6.800   0.645   1.690 -2.4669  0.6684 -0.5000
 1159TIP3   OH2 3440   4.153   4.096   1.805  0.2524 -0.1311 -0.1752
 1159TIP3    H1 3441   4.129   4.187   1.792  1.9259  0.8670  2.8385
 1159TIP3    H2 3442   4.096   4.065   1.876  0.7904 -0.9239 -0.0660
 1160TIP3   OH2 3443   2.441   3.743   4.855  0.7364  0.0782 -0.4056
 1160TIP3    H1 3444   2.352   3.739   4.820  1.1239 -0.6772 -1.3587
 1160TIP3    H2 3445   2.436   3.803   4.929 -0.9422 -1.2895  0.6638
 1161TIP3   OH2 3446   3.988   0.239   3.451  0.2867  0.0020 -0.2076
 1161TIP3    H1 3447   3.929   0.264   3.381  0.4341  1.7543  0.2492
 1161TIP3    H2 3448   4.052   0.181   3.410 -0.4069 -0.0674 -1.2058
 1162TIP3   OH2 3449   3.872   5.941   1.161  0.2617  0.2235  0.3871
 1162TIP3    H1 3450   3.891   5.861   1.112 -0.4866  0.2693  0.0171
 1162TIP3    H2 3451   3.939   5.943   1.229  2.3450  0.9789 -1.5620
 1163TIP3   OH2 3452   0.777   4.447   0.410 -0.4204  0.1396  0.0606
 1163TIP3    H1 3453   0.724   4.385   0.461 -1.3669 -0.0614 -1.1201
 1163TIP3    H2 3454   0.861   4.403   0.399 -0.7417 -0.5016  0.1060
 1164TIP3   OH2 3455   6.654   1.680   3.966 -0.6211  0.3353  0.1651
 1164TIP3    H1 3456   6.718   1.664   3.896 -0.9768  0.2359 -0.1434
 1164TIP3    H2 3457   6.585   1.616   3.950 -0.8531  0.5186  0.4279
 1165TIP3   OH2 3458   0.349   6.192   3.649  0.7246  0.3380  0.0163
 1165TIP3    H1 3459   0.393   6.111   3.623  1.6612  0.5923  0.7092
 1165TIP3    H2 3460   0.258   6.181   3.621  0.6842 -1.2167  0.6483
 1166TIP3   OH2 3461   0.354   1.480   4.470 -0.0162  0.5317  0.1901
 1166TIP3    H1 3462   0.299   1.552   4.501  0.8471  1.8147 -1.1486
 1166TIP3    H2 3463   0.307   1.444   4.395  0.4449  0.9413 -0.3015
 1167TIP3   OH2 3464   2.367   3.718   5.373  0.4794 -0.3557 -0.1350
 1167TIP3    H1 3465   2.423   3.787   5.337  0.0871 -0.5385 -1.1094
 1167TIP3    H2 3466   2.424   3.669   5.432  0.5681  1.2874  1.2486
 1168TIP3   OH2 3467   1.378   6.371   1.455  0.1153 -0.0267 -0.1885
 1168TIP3    H1 3468   1.455   6.356   1.511 -0.3956 -1.8857  0.0937
 1168TIP3    H2 3469   1.410   6.354   1.366 -0.2886 -2.5088  0.0664
 1169TIP3   OH2 3470   2.226   0.286   2.096 -0.5121 -0.3180 -0.5117
 1169TIP3    H1 3471   2.144   0.298   2.048  0.5599  1.3059 -2.0945
 1169TIP3    H2 3472   2.280   0.234   2.037 -0.0868 -0.5786  0.1031
 1170TIP3   OH2 3473   2.317   1.210   0.815  0.1558  0.2262 -0.3316
 1170TIP3    H1 3474   2.232   1.182   0.782 -0.6093 -0.2942  1.9062
 1170TIP3    H2 3475   2.348   1.136   0.867  1.1597  1.1020  0.3583
 1171TIP3   OH2 3476   4.307   0.263   1.190  0.5716 -0.3856 -0.2854
 1171TIP3    H1 3477   4.340   0.224   1.271  0.8801 -1.5971 -0.9634
 1171TIP3    H2 3478   4.363   0.227   1.121 -1.3328 -1.5454 -1.3318
 1172TIP3   OH2 3479   1.820   0.646   3.235 -0.5415 -0.0371 -0.1838
 1172TIP3    H1 3480   1.892   0.686   3.284 -1.3427  1.3574 -0.0840
 1172TIP3    H2 3481   1.861   0.612   3.155  0.3317  0.1327  0.1804
 1173TIP3   OH2 3482   0.930   6.245   2.706 -0.8508  0.4066  0.1256
 1173TIP3    H1 3483   0.979   6.168   2.734 -0.0369  0.9070  0.1047
 1173TIP3    H2 3484   0.857   6.210   2.656 -2.6380 -0.6071  3.1474
 1174TIP3   OH2 3485   0.252   0.097   5.512  0.1233 -0.1126 -0.1808
 1174TIP3    H1 3486   0.235   0.189   5.492 -1.5468 -0.6139 -1.3423
 1174TIP3    H2 3487   0.164   0.058   5.518  0.8026 -1.6232  0.2587
 1175TIP3   OH2 3488   1.678   3.437   2.290  0.5716 -0.4709  0.0649
 1175TIP3    H1 3489   1.725   3.449   2.208 -0.5151  1.2537 -0.3433
 1175TIP3    H2 3490   1.747   3.427   2.356  1.5118  0.9451 -0.6725
 1176TIP3   OH2 3491   6.557   0.618   3.655 -0.2932  0.1306  0.0726
 1176TIP3    H1 3492   6.515   0.692   3.612 -0.6493 -0.1242 -0.0232
 1176TIP3    H2 3493   6.637   0.654   3.693 -0.1232  0.4255 -0.5515
 1177TIP3   OH2 3494   5.018   0.848   3.192  0.1070  0.2338  0.1271
 1177TIP3    H1 3495   5.042   0.780   3.256 -1.0246  0.8167  1.2101
 1177TIP3    H2 3496   4.945   0.810   3.144 -0.1579  0.4479  0.3537
 1178TIP3   OH2 3497   3.130   2.783   0.990  0.0761  0.2643  0.4402
 1178TIP3    H1 3498   3.069   2.723   0.948  0.3712  1.3781 -1.7075
 1178TIP3    H2 3499   3.094   2.870   0.971  1.8872  0.9132 -0.2271
 1179TIP3   OH2 3500   2.781   4.125   3.335 -0.4657  0.2014  0.3821
 1179TIP3    H1 3501   2.754   4.213   3.361 -1.3228 -0.1756  0.8200
 1179TIP3    H2 3502   2.722   4.102   3.263  0.4790  0.4042 -0.4615
 1180TIP3   OH2 3503   1.535   4.366   1.604  0.0846  0.2653  0.0076
 1180TIP3    H1 3504   1.527   4.275   1.575  1.4833  0.5113 -1.2347
 1180TIP3    H2 3505   1.478   4.371   1.682 -0.0265 -1.6493  0.0974
 1181TIP3   OH2 3506   0.451   1.667   3.268  0.2708  0.2021 -0.4073
 1181TIP3    H1 3507   0.419   1.606   3.201  1.1228 -0.1292 -0.5273
 1181TIP3    H2 3508   0.375   1.721   3.289 -0.4202 -0.6995 -0.5194
 1182TIP3   OH2 3509   0.009   4.158   0.142 -0.5095 -0.0220  0.3723
 1182TIP3    H1 3510   0.084   4.115   0.100  0.2024  1.5277  0.0028
 1182TIP3    H2 3511  -0.065   4.140   0.083  0.2562  1.2042 -1.0289
 1183TIP3   OH2 3512   0.133   0.210   2.143  0.2586  0.3023  0.1602
 1183TIP3    H1 3513   0.169   0.124   2.167  0.3923  0.2284 -0.2887
 1183TIP3    H2 3514   0.039   0.195   2.138  0.3901 -0.2546 -1.5232
 1184TIP3   OH2 3515   1.630   2.550   2.547 -0.0474  0.6106  0.0593
 1184TIP3    H1 3516   1.713   2.584   2.580  0.4554 -0.9207  0.4622
 1184TIP3    H2 3517   1.651   2.516   2.460  0.2775 -1.5125  0.8809
 1185TIP3   OH2 3518   2.736   4.553   3.628  0.0610 -0.1789 -0.0482
 1185TIP3    H1 3519   2.642   4.534   3.628  0.1004 -0.4093 -0.4853
 1185TIP3    H2 3520   2.742   4.643   3.597  0.0460 -0.5885 -1.2910
 1186TIP3   OH2 3521   3.416   3.907   0.030 -0.0211  0.2629 -0.0933
 1186TIP3    H1 3522   3.470   3.882  -0.045 -1.5405  1.9166 -1.8215
 1186TIP3    H2 3523   3.467   3.879   0.106  1.9919 -0.6732 -1.6980
 1187TIP3   OH2 3524   1.860   3.356   2.467 -0.1641 -0.3763 -0.5090
 1187TIP3    H1 3525   1.917   3.306   2.409  2.9645  1.2885  0.8404
 1187TIP3    H2 3526   1.884   3.327   2.555 -1.9486 -0.0736  0.1175
 1188TIP3   OH2 3527   6.428   0.912   3.947  0.3965 -0.2143 -0.2441
 1188TIP3    H1 3528   6.461   0.954   3.868  0.2537  0.9030  0.2598
 1188TIP3    H2 3529   6.497   0.924   4.012 -0.0081  0.0493  0.1541
 1189TIP3   OH2 3530   5.241   3.673   4.532 -0.0360 -0.0110 -0.4089
 1189TIP3    H1 3531   5.312   3.640   4.587 -2.0269 -2.1820  1.0484
 1189TIP3    H2 3532   5.181   3.716   4.593  0.1245  2.1209 -1.6606
 1190TIP3   OH2 3533   4.518   4.858   4.909  0.1676  0.1001 -0.1368
 1190TIP3    H1 3534   4.537   4.857   4.816  0.6651 -1.5119 -0.0370
 1190TIP3    H2 3535   4.504   4.767   4.933  0.4137  0.4305  1.4388
 1191TIP3   OH2 3536   2.318   2.359   1.240  0.1364  0.6724 -0.1748
 1191TIP3    H1 3537   2.295   2.268   1.257 -1.0052  0.7155 -1.2761
 1191TIP3    H2 3538   2.238   2.408   1.262  0.9292  1.4932  0.9822
 1192TIP3   OH2 3539   0.682   4.633   4.343 -0.3910 -0.1613  0.4605
 1192TIP3    H1 3540   0.634   4.652   4.423 -0.7653  0.5877  0.0705
 1192TIP3    H2 3541   0.704   4.540   4.349  0.9516  0.2031  2.1634
 1193TIP3   OH2 3542   3.850   1.211   5.426 -0.1328  0.1279  0.1567
 1193TIP3    H1 3543   3.885   1.157   5.354  1.8927 -0.0831  1.2113
 1193TIP3    H2 3544   3.760   1.228   5.401 -0.1611 -1.8037 -1.3661
 1194TIP3   OH2 3545   4.992   2.143   4.029 -0.1671 -0.1812 -0.3838
 1194TIP3    H1 3546   5.001   2.126   3.935 -1.5852  1.0753 -0.7877
 1194TIP3    H2 3547   4.957   2.062   4.065 -1.2960 -0.0960 -1.2540
 1195TIP3   OH2 3548   0.705   6.344   5.734 -0.0765  0.8266  1.1867
 1195TIP3    H1 3549   0.738   6.433   5.723 -1.5568  1.3655  0.7741
 1195TIP3    H2 3550   0.762   6.291   5.679  0.0314  1.7344  0.3765
 1196TIP3   OH2 3551   0.993   4.139   2.486  0.0082 -0.0156  0.4200
 1196TIP3    H1 3552   0.930   4.202   2.451 -0.6368 -0.0561  1.4437
 1196TIP3    H2 3553   0.965   4.055   2.451  0.2184  0.1223 -0.0834
 1197TIP3   OH2 3554   5.058   2.477   4.872 -0.5227 -0.4332 -1.0014
 1197TIP3    H1 3555   5.068   2.542   4.803  0.0446  0.9651  0.3573
 1197TIP3    H2 3556   5.013   2.523   4.943  0.5065 -1.3057  0.2682
 1198TIP3   OH2 3557   2.073   6.662   4.251  0.2749  0.6683 -0.7700
 1198TIP3    H1 3558   2.104   6.628   4.166  0.0272  0.7351 -0.8886
 1198TIP3    H2 3559   2.111   6.602   4.315 -2.0656 -1.3357 -1.1042
 1199TIP3   OH2 3560   0.123   2.260   5.113  0.0657  0.1676  0.0387
 1199TIP3    H1 3561   0.212   2.224   5.112 -0.6066 -1.6855 -2.4878
 1199TIP3    H2 3562   0.073   2.199   5.167  0.1134  0.6991  0.6970
 1200TIP3   OH2 3563   0.200   3.825   0.296  0.2743  0.0624  0.2970
 1200TIP3    H1 3564   0.239   3.781   0.372 -0.6009 -0.7320  0.3061
 1200TIP3    H2 3565   0.231   3.775   0.221 -0.2037 -0.1744  0.2567
 1201TIP3   OH2 3566   4.890   2.611   3.789 -0.1299  0.1514  0.0972
 1201TIP3    H1 3567   4.968   2.626   3.841  0.8226 -0.6990 -1.0380
 1201TIP3    H2 3568   4.921   2.563   3.712 -1.9407 -1.3807  0.2377
 1202TIP3   OH2 3569   6.459   1.887   1.992  0.2189 -0.4250  0.1680
 1202TIP3    H1 3570   6.470   1.863   2.084  1.1814  0.6590  0.3558
 1202TIP3    H2 3571   6.495   1.813   1.943  0.9797 -0.4030  0.6875
 1203TIP3   OH2 3572   0.211   6.744   4.777 -0.1177  0.9356 -0.2770
 1203TIP3    H1 3573   0.221   6.670   4.717 -0.9888 -1.3274  2.1391
 1203TIP3    H2 3574   0.151   6.804   4.733  0.5606  0.1994 -2.3006
 1204TIP3   OH2 3575   6.607   6.041   3.696 -0.3462  0.6887 -0.2151
 1204TIP3    H1 3576   6.701   6.032   3.709 -0.0756  0.3026 -2.1598
 1204TIP3    H2 3577   6.578   6.095   3.769  1.1012 -0.4964  1.3020
 1205TIP3   OH2 3578   0.744   4.484   1.802  0.2449 -0.3279 -0.2071
 1205TIP3    H1 3579   0.767   4.573   1.829 -0.2177 -0.0485 -0.7211
 1205TIP3    H2 3580   0.754   4.432   1.881 -1.8215  0.6019  0.7351
 1206TIP3   OH2 3581   0.019   2.079   4.620 -0.5140  0.5968 -0.0606
 1206TIP3    H1 3582   0.016   2.125   4.705 -0.1660 -1.2081  0.9774
 1206TIP3    H2 3583   0.089   2.124   4.572  0.0880  0.9274  1.0711
 1207TIP3   OH2 3584   5.003   6.244   3.636  0.2374 -0.5609  0.1755
 1207TIP3    H1 3585   5.040   6.261   3.723 -1.3157  1.7328  0.4894
 1207TIP3    H2 3586   4.926   6.191   3.653  0.4666 -0.9201  0.0944
 1208TIP3   OH2 3587   3.441   2.572   5.618  0.2242  0.1252 -0.0022
 1208TIP3    H1 3588   3.365   2.564   5.561 -1.3289  3.1413  1.4037
 1208TIP3    H2 3589   3.406   2.563   5.707  1.6580  0.6524  0.6583
 1209TIP3   OH2 3590   1.457   1.079   5.706  0.4008 -0.1830  0.2278
 1209TIP3    H1 3591   1.542   1.122   5.715  0.1294  0.2221  0.9449
 1209TIP3    H2 3592   1.475   1.001   5.653  1.1102  0.1946 -0.1066
 1210TIP3   OH2 3593   4.009   0.918   5.880  0.0548 -0.3859 -0.3490
 1210TIP3    H1 3594   4.009   0.825   5.856  4.6977 -1.0217  1.0876
 1210TIP3    H2 3595   4.020   0.964   5.797 -0.5425 -1.2301 -0.9120
 1211TIP3   OH2 3596   3.724   5.706   4.283  0.2809  0.5937 -0.3832
 1211TIP3    H1 3597   3.789   5.774   4.300  0.9517  0.2256 -1.3698
 1211TIP3    H2 3598   3.640   5.745   4.309  0.8927  1.0546  0.9512
 1212TIP3   OH2 3599   0.606   3.244   3.029 -0.0152 -0.1487 -0.2281
 1212TIP3    H1 3600   0.522   3.284   3.003  0.5078  1.4102  0.3596
 1212TIP3    H2 3601   0.661   3.252   2.952 -0.5750 -1.7654 -0.8327
 1213TIP3   OH2 3602   4.870   1.104   4.076 -0.1033 -0.5943 -0.4238
 1213TIP3    H1 3603   4.807   1.045   4.034 -0.7024 -1.4029  1.5091
 1213TIP3    H2 3604   4.824   1.139   4.151  1.5961 -0.8792  0.8204
 1214TIP3   OH2 3605   6.937   1.399   4.949 -0.2666  0.2168  0.1208
 1214TIP3    H1 3606   6.946   1.304   4.957  2.5012  0.4724  1.3746
 1214TIP3    H2 3607   6.976   1.420   4.864 -1.1936  0.2479 -0.3149
 1215TIP3   OH2 3608   1.052   4.523   0.641  0.0953  0.3730 -0.3817
 1215TIP3    H1 3609   1.014   4.543   0.726 -1.4652  2.5132 -1.4678
 1215TIP3    H2 3610   1.143   4.501   0.659  0.0631  1.7467  1.7577
 1216TIP3   OH2 3611   1.170   3.950   2.778 -0.1365  0.4951 -0.2556
 1216TIP3    H1 3612   1.092   3.896   2.789  0.2611 -0.2987 -1.0961
 1216TIP3    H2 3613   1.143   4.038   2.804 -0.8356 -0.0873  1.0498
 1217TIP3   OH2 3614   0.837   2.274   2.449  0.0639 -0.4022  0.0713
 1217TIP3    H1 3615   0.924   2.240   2.425 -0.4037  0.9617 -4.6965
 1217TIP3    H2 3616   0.777   2.202   2.428 -0.1504 -0.8111  1.9263
 1218TIP3   OH2 3617   5.133   1.449   1.123  0.4726  0.2991 -0.7769
 1218TIP3    H1 3618   5.149   1.377   1.184  0.4972  0.7872 -0.1957
 1218TIP3    H2 3619   5.186   1.521   1.157 -1.0400  1.1994 -0.2286
 1219TIP3   OH2 3620   1.313   1.322   1.646 -0.0726  0.3887 -0.1386
 1219TIP3    H1 3621   1.371   1.372   1.589  1.1494 -0.8521 -0.0356
 1219TIP3    H2 3622   1.263   1.389   1.694 -0.2913  1.4623 -1.7778
 1220TIP3   OH2 3623   6.719   0.543   3.936 -0.6071  0.2200 -0.7130
 1220TIP3    H1 3624   6.743   0.463   3.890 -0.2086 -0.1308  0.0731
 1220TIP3    H2 3625   6.766   0.613   3.891 -0.6818 -0.0381 -1.1886
 1221TIP3   OH2 3626   0.895   3.492   3.007 -0.4983  0.0348  0.3615
 1221TIP3    H1 3627   0.834   3.546   3.058 -1.9155 -0.0640 -1.1713
 1221TIP3    H2 3628   0.853   3.481   2.922 -0.0387 -3.0507  0.4024
 1222TIP3   OH2 3629   5.149   3.240   1.523  0.2005  0.2661  0.4920
 1222TIP3    H1 3630   5.087   3.238   1.450 -0.7271  0.7323  1.2439
 1222TIP3    H2 3631   5.234   3.256   1.482  0.2556 -2.6820 -0.8255
 1223TIP3   OH2 3632   0.165   2.749   0.632 -0.6016  0.3813 -0.2754
 1223TIP3    H1 3633   0.208   2.664   0.634  1.4489  1.3473  2.0897
 1223TIP3    H2 3634   0.101   2.746   0.703 -2.0866  0.1800 -1.5383
 1224TIP3   OH2 3635   6.910   2.603   1.015  0.5447  0.4667 -0.4152
 1224TIP3    H1 3636   6.898   2.601   0.920  0.1016  0.9869 -0.3766
 1224TIP3    H2 3637   6.821   2.592   1.051  0.8445 -1.0042 -0.0318
 1225TIP3   OH2 3638   1.137   3.765   1.505  0.5519  0.2413  0.7462
 1225TIP3    H1 3639   1.049   3.780   1.540 -0.5907 -2.2123 -0.7879
 1225TIP3    H2 3640   1.152   3.837   1.444 -1.1427 -0.1927 -0.2302
 1226TIP3   OH2 3641   3.615   1.632   3.254 -0.2161  0.0186 -0.1889
 1226TIP3    H1 3642   3.557   1.634   3.330 -2.0131 -0.0421 -1.4927
 1226TIP3    H2 3643   3.703   1.626   3.291 -0.9943  0.5693  1.8777
 1227TIP3   OH2 3644   1.098   3.331   1.812  0.3532 -0.0603  0.0126
 1227TIP3    H1 3645   1.161   3.386   1.767  0.5425 -1.5073 -1.5978
 1227TIP3    H2 3646   1.030   3.313   1.747  0.5295 -2.0512  0.3045
 1228TIP3   OH2 3647   2.231   4.563   4.496  0.0724 -0.1469 -0.0634
 1228TIP3    H1 3648   2.158   4.624   4.487 -0.5482 -0.9911 -0.9128
 1228TIP3    H2 3649   2.275   4.590   4.577 -1.4692  0.0643  0.7472
 1229TIP3   OH2 3650   1.377   0.491   1.305 -0.0834 -0.6208 -0.2909
 1229TIP3    H1 3651   1.383   0.426   1.235  2.9942 -0.5838 -0.1843
 1229TIP3    H2 3652   1.316   0.452   1.368  0.5770 -2.7946 -0.8865
 1230TIP3   OH2 3653   1.067   0.453   3.516  0.4206 -0.3018 -0.2639
 1230TIP3    H1 3654   1.129   0.525   3.508  2.9202 -2.4844 -2.2462
 1230TIP3    H2 3655   1.081   0.400   3.437 -1.7543 -2.6132  0.7652
 1231TIP3   OH2 3656   4.741   2.690   5.370  0.1347 -0.0286  0.1672
 1231TIP3    H1 3657   4.748   2.718   5.279 -2.9344 -0.1800 -0.2109
 1231TIP3    H2 3658   4.830   2.697   5.404  1.3808 -0.0149 -2.8263
 1232TIP3   OH2 3659   2.650   1.513   5.463  0.6919  0.4769  0.0986
 1232TIP3    H1 3660   2.744   1.509   5.479  0.6886  0.1614  0.0480
 1232TIP3    H2 3661   2.623   1.598   5.498  0.9572  0.4749  0.3063
 1233TIP3   OH2 3662   5.407   3.832   2.473  0.2578 -0.2679 -0.1570
 1233TIP3    H1 3663   5.447   3.765   2.529  0.2036 -0.5475 -0.4544
 1233TIP3    H2 3664   5.442   3.814   2.386  0.6350  0.3979 -0.1537
 1234TIP3   OH2 3665   1.050   4.280   4.237 -0.1924 -0.3771 -0.8742
 1234TIP3    H1 3666   1.076   4.372   4.239  0.1003 -0.4270 -1.8498
 1234TIP3    H2 3667   1.008   4.265   4.321  0.5757  0.4101 -0.3368
 1235TIP3   OH2 3668   5.158   5.420   5.092 -0.3344 -0.3252 -0.0581
 1235TIP3    H1 3669   5.165   5.360   5.018  0.3174  0.8524 -0.9914
 1235TIP3    H2 3670   5.149   5.506   5.052 -0.1212  0.3226  1.2358
 1236TIP3   OH2 3671   2.693   4.436   5.803 -0.2929  0.7707 -0.7030
 1236TIP3    H1 3672   2.783   4.464   5.817 -0.5248  0.9993  0.4738
 1236TIP3    H2 3673   2.641   4.492   5.861 -1.3880  1.7678 -2.5480
 1237TIP3   OH2 3674   1.317   5.520   1.414  0.0496 -0.1485  0.4910
 1237TIP3    H1 3675   1.396   5.550   1.459 -0.1982  0.7311  0.3675
 1237TIP3    H2 3676   1.256   5.594   1.421 -1.0142 -1.0613  1.1851
 1238TIP3   OH2 3677   1.666   5.141   0.358 -0.6075 -0.0272 -0.6872
 1238TIP3    H1 3678   1.617   5.102   0.430  0.1211 -1.4614 -0.9345
 1238TIP3    H2 3679   1.659   5.076   0.287 -0.2695  0.7923 -1.4848
 1239TIP3   OH2 3680   5.536   1.235   1.956  0.3282 -0.7512  0.0612
 1239TIP3    H1 3681   5.592   1.194   2.022  2.3237  2.7487  0.7921
 1239TIP3    H2 3682   5.462   1.270   2.005 -0.3624 -1.7045 -0.2646
 1240TIP3   OH2 3683   7.186   0.263   5.853 -0.2400 -0.3566 -0.5972
 1240TIP3    H1 3684   7.155   0.284   5.765  0.4253  1.7954 -0.3637
 1240TIP3    H2 3685   7.261   0.320   5.866  1.2153 -2.3844  0.4827
 1241TIP3   OH2 3686   1.160   2.344   1.194 -0.2778 -0.2199  0.6592
 1241TIP3    H1 3687   1.079   2.304   1.225 -1.0996 -0.0143 -1.0888
 1241TIP3    H2 3688   1.132   2.428   1.156  0.8143  0.0828  0.4859
 1242TIP3   OH2 3689   2.929   0.947   0.656  0.3747 -0.0360  0.0157
 1242TIP3    H1 3690   2.981   0.872   0.627 -0.5743 -1.8529  2.6446
 1242TIP3    H2 3691   2.863   0.910   0.714 -1.4241  2.6543 -0.1278
 1243TIP3   OH2 3692   6.574   1.282   2.952 -0.6869  0.4357  0.0730
 1243TIP3    H1 3693   6.627   1.293   2.873 -0.1883  0.1579  0.3655
 1243TIP3    H2 3694   6.556   1.371   2.982 -1.6343  0.5808 -0.8402
 1244TIP3   OH2 3695   1.576   0.334   1.888 -0.4290 -0.2092  0.0223
 1244TIP3    H1 3696   1.649   0.350   1.828 -1.1180  0.8558 -0.5855
 1244TIP3    H2 3697   1.520   0.412   1.878 -1.3689 -0.7538  0.8627
 1245TIP3   OH2 3698   1.817   3.077   4.692  0.1083 -0.5429  0.3922
 1245TIP3    H1 3699   1.801   3.168   4.717  1.9819  0.2062 -0.9062
 1245TIP3    H2 3700   1.779   3.025   4.762  0.1321  1.2908  1.8136
 1246TIP3   OH2 3701   2.913   4.819   1.969 -0.0196 -0.2392  0.0665
 1246TIP3    H1 3702   2.997   4.854   1.940  1.3874 -1.7284  2.1025
 1246TIP3    H2 3703   2.876   4.779   1.890  0.3242  1.8866 -1.2524
 1247TIP3   OH2 3704   6.219   2.949   4.988  0.2715 -0.2317  0.6980
 1247TIP3    H1 3705   6.145   2.958   5.048  0.5928 -0.9641  1.2083
 1247TIP3    H2 3706   6.286   3.008   5.022  0.0580  0.1788  0.4247
 1248TIP3   OH2 3707   4.650   3.371   3.988 -0.5236 -0.1450 -0.0683
 1248TIP3    H1 3708   4.702   3.451   3.998  0.7914 -0.9488 -0.3178
 1248TIP3    H2 3709   4.579   3.381   4.051  0.4197  0.5846  0.9087
 1249TIP3   OH2 3710   5.545   1.700   2.481 -0.3260  0.4412  0.1678
 1249TIP3    H1 3711   5.555   1.643   2.557  0.6811 -0.7823 -0.8335
 1249TIP3    H2 3712   5.484   1.768   2.510  1.5333  1.1796  2.6954
 1250TIP3   OH2 3713   4.418   3.411   5.801  0.4765  0.4806  0.7979
 1250TIP3    H1 3714   4.508   3.427   5.772  0.1116  1.6106  0.2370
 1250TIP3    H2 3715   4.414   3.316   5.816  1.3197  0.1891 -0.6441
 1251TIP3   OH2 3716   4.072   6.253   2.722  0.1158  0.2775  0.3518
 1251TIP3    H1 3717   4.009   6.278   2.655  0.1956 -0.0675  0.1443
 1251TIP3    H2 3718   4.021   6.245   2.803  0.0111  0.6426  0.3204
 1252TIP3   OH2 3719   4.010   2.363   4.444 -0.0287 -0.5262  0.5805
 1252TIP3    H1 3720   4.054   2.292   4.396  1.1932  0.3143  0.4068
 1252TIP3    H2 3721   3.954   2.405   4.378  1.1593  0.2234  0.0028
 1253TIP3   OH2 3722   2.563   3.154   3.966 -0.0847 -0.5889 -0.4988
 1253TIP3    H1 3723   2.649   3.125   3.937 -0.7972 -1.9043 -1.3715
 1253TIP3    H2 3724   2.516   3.074   3.989 -0.7746  0.1691  0.8851
 1254TIP3   OH2 3725   4.897   0.940   2.763 -0.7088  0.4113 -0.3235
 1254TIP3    H1 3726   4.945   0.937   2.846  0.7831  0.9196 -1.1278
 1254TIP3    H2 3727   4.964   0.929   2.696 -1.9865 -0.8029 -1.4618
 1255TIP3   OH2 3728   2.981   6.201   2.988 -0.0394 -0.3466 -0.0468
 1255TIP3    H1 3729   2.931   6.274   2.952 -1.0499 -1.2793 -0.5543
 1255TIP3    H2 3730   2.944   6.187   3.075  2.2583  1.7661  1.4045
 1256TIP3   OH2 3731   2.002   2.083   3.129 -0.6338 -0.2061  0.3318
 1256TIP3    H1 3732   2.054   2.011   3.165 -1.1181  0.0644  1.6251
 1256TIP3    H2 3733   2.065   2.155   3.120 -0.3250 -0.5340 -0.1897
 1257TIP3   OH2 3734   7.207   3.870   3.797 -0.0143 -0.6195  0.0680
 1257TIP3    H1 3735   7.196   3.922   3.876  0.6460 -0.0919 -0.1756
 1257TIP3    H2 3736   7.188   3.931   3.725 -0.0745 -0.9462 -0.1962
 1258TIP3   OH2 3737   2.180   3.383   2.378 -0.3452  0.2170 -0.0722
 1258TIP3    H1 3738   2.175   3.372   2.283  0.4609 -1.4605  0.0510
 1258TIP3    H2 3739   2.089   3.397   2.405 -0.4866  1.5658 -1.1665
 1259TIP3   OH2 3740   0.655   2.886   2.440  0.2198 -0.6028 -0.2625
 1259TIP3    H1 3741   0.584   2.888   2.504 -0.4218 -3.2624 -0.7698
 1259TIP3    H2 3742   0.735   2.878   2.492  0.0397  0.7866  0.2645
 1260TIP3   OH2 3743   6.957   3.998   5.843 -0.5004  0.1084 -0.8718
 1260TIP3    H1 3744   7.045   4.036   5.848 -0.9021  0.9302  0.6560
 1260TIP3    H2 3745   6.899   4.074   5.841 -1.2589 -0.3817  0.8475
 1261TIP3   OH2 3746   4.564   3.813   1.952 -0.0246  0.4200 -0.0390
 1261TIP3    H1 3747   4.561   3.727   1.908  1.1482  0.6448 -0.5932
 1261TIP3    H2 3748   4.490   3.861   1.914  0.4218  0.2908 -1.1192
 1262TIP3   OH2 3749   5.498   5.506   5.455 -0.1557  0.0434 -0.3827
 1262TIP3    H1 3750   5.546   5.423   5.452  0.1309  0.1971 -0.1307
 1262TIP3    H2 3751   5.464   5.511   5.544  2.3257  1.5682  0.5668
 1263TIP3   OH2 3752   0.474   1.303   3.878 -0.0605 -0.3951  0.5945
 1263TIP3    H1 3753   0.495   1.285   3.786 -0.6047  0.9536  0.1873
 1263TIP3    H2 3754   0.395   1.253   3.895 -1.1569  0.9476 -0.3137
 1264TIP3   OH2 3755   2.119   5.578   4.865 -0.6366  0.1119  0.2759
 1264TIP3    H1 3756   2.119   5.549   4.774 -1.5085  0.9926 -0.0236
 1264TIP3    H2 3757   2.056   5.520   4.909 -1.6507  0.9001 -0.1098
 1265TIP3   OH2 3758   0.228   4.359   2.471 -0.4997 -0.2204 -0.2475
 1265TIP3    H1 3759   0.233   4.400   2.557  1.9061 -1.6051  0.3722
 1265TIP3    H2 3760   0.282   4.280   2.478  0.4510  0.0163 -3.2128
 1266TIP3   OH2 3761   4.817   5.096   3.267  0.6033 -0.2657 -0.2500
 1266TIP3    H1 3762   4.812   5.186   3.299  1.2821 -0.0175 -0.8252
 1266TIP3    H2 3763   4.767   5.045   3.331 -1.7605  0.8341 -1.1259
 1267TIP3   OH2 3764   4.621   2.106   1.724 -0.1089  0.3247  0.0456
 1267TIP3    H1 3765   4.675   2.142   1.654 -1.0911  0.1416 -0.8376
 1267TIP3    H2 3766   4.657   2.144   1.805  0.9378  0.6697 -0.5650
 1268TIP3   OH2 3767   6.172   1.260   2.623  0.4202  0.1285  0.2275
 1268TIP3    H1 3768   6.105   1.202   2.659 -0.4898  0.3295 -1.0725
 1268TIP3    H2 3769   6.236   1.269   2.693 -0.9085 -0.0720  1.5208
 1269TIP3   OH2 3770   5.730   5.143   5.737  0.5954  0.2466  0.2741
 1269TIP3    H1 3771   5.738   5.235   5.711 -2.7996  0.6796  0.3797
 1269TIP3    H2 3772   5.731   5.095   5.654  1.5373  0.4136  0.1712
 1270TIP3   OH2 3773   1.707   5.283   1.909 -0.0509 -0.3140  0.2531
 1270TIP3    H1 3774   1.772   5.239   1.854  2.5126 -0.4413  3.1213
 1270TIP3    H2 3775   1.661   5.211   1.953  0.3214 -0.1920  0.8452
 1271TIP3   OH2 3776   3.546   5.121   1.620 -0.2757  0.4051 -0.1338
 1271TIP3    H1 3777   3.454   5.137   1.643 -0.3305 -0.0266 -0.0419
 1271TIP3    H2 3778   3.584   5.085   1.700  0.1998  1.4142  0.1206
 1272TIP3   OH2 3779   1.985   3.303   0.041  0.4189  0.8435 -0.1782
 1272TIP3    H1 3780   2.073   3.272   0.060  0.0290 -0.7714 -0.8392
 1272TIP3    H2 3781   1.943   3.311   0.126  1.5438  2.8685  0.2612
 1273TIP3   OH2 3782   2.312   0.023   3.711  0.4858  0.0864  0.2928
 1273TIP3    H1 3783   2.298   0.084   3.638 -0.5198  0.0867  0.4731
 1273TIP3    H2 3784   2.360   0.075   3.776  0.2201  0.5014  0.1683
 1274TIP3   OH2 3785   3.069   0.018   1.189 -0.4635  0.3582  0.0608
 1274TIP3    H1 3786   3.124   0.055   1.120  0.0787  0.7099  0.6690
 1274TIP3    H2 3787   3.131  -0.013   1.256 -0.9455 -0.7257  0.0305
 1275TIP3   OH2 3788   0.790   5.600   5.393 -0.1610 -0.6002 -0.0598
 1275TIP3    H1 3789   0.756   5.689   5.386  0.2563 -0.5020 -0.9397
 1275TIP3    H2 3790   0.837   5.598   5.477 -1.7053 -0.5427  0.8461
 1276TIP3   OH2 3791   6.243   5.037   4.551 -0.0290  0.0769 -0.0964
 1276TIP3    H1 3792   6.159   5.060   4.509  0.7397  2.2311 -0.5753
 1276TIP3    H2 3793   6.269   5.117   4.597  1.2825 -0.8963  0.8945
 1277TIP3   OH2 3794   1.431   6.167   0.828  0.2352  0.1997  0.1507
 1277TIP3    H1 3795   1.337   6.153   0.840 -0.2067  0.4678 -2.4127
 1277TIP3    H2 3796   1.468   6.079   0.821 -0.2066  0.0937 -1.0653
 1278TIP3   OH2 3797   2.673   4.189   0.208 -0.0539 -0.3391  0.2616
 1278TIP3    H1 3798   2.737   4.189   0.137  0.1829  0.5457  0.4724
 1278TIP3    H2 3799   2.715   4.137   0.278 -0.1193 -0.8620 -0.0789
 1279TIP3   OH2 3800   5.747   2.424   0.368 -0.1987  0.1418 -0.3650
 1279TIP3    H1 3801   5.721   2.513   0.394  1.7448  0.8511 -0.6228
 1279TIP3    H2 3802   5.815   2.400   0.432  2.0586  0.4506 -2.4956
 1280TIP3   OH2 3803   1.442   2.667   1.719 -0.1076 -0.5371 -0.0081
 1280TIP3    H1 3804   1.430   2.606   1.792 -2.5446  0.4749  0.5470
 1280TIP3    H2 3805   1.370   2.730   1.729  0.7623  0.8775 -2.0751
 1281TIP3   OH2 3806   7.004   6.691   3.937  0.2062 -0.1837 -0.1281
 1281TIP3    H1 3807   7.013   6.596   3.943 -0.3917 -0.2737 -0.5384
 1281TIP3    H2 3808   7.069   6.717   3.871 -0.7375 -0.5178 -1.2212
 1282TIP3   OH2 3809   4.117   1.341   5.172  0.3738  0.2837 -0.3642
 1282TIP3    H1 3810   4.204   1.381   5.170  0.1066  1.0083  1.1485
 1282TIP3    H2 3811   4.131   1.253   5.137  1.4692  0.7993 -1.3067
 1283TIP3   OH2 3812   6.352   3.737   3.094  0.1296  0.6415 -0.2350
 1283TIP3    H1 3813   6.319   3.726   3.005 -0.2859  0.5458 -0.0721
 1283TIP3    H2 3814   6.340   3.651   3.134 -0.3985  0.8853  0.1457
 1284TIP3   OH2 3815   4.849   3.103   3.686 -0.7251 -0.2527 -0.5490
 1284TIP3    H1 3816   4.880   3.029   3.738  1.9823  0.7750 -0.5271
 1284TIP3    H2 3817   4.763   3.123   3.721 -0.2878 -1.5681  1.4199
 1285TIP3   OH2 3818   4.650   2.005   3.242  0.7883  0.5830  0.5242
 1285TIP3    H1 3819   4.638   2.054   3.161  1.4113 -0.3857 -0.1766
 1285TIP3    H2 3820   4.578   2.033   3.298  0.3691  1.2990 -0.3484
 1286TIP3   OH2 3821   1.910   1.868   1.298 -0.1515 -0.1901  0.0344
 1286TIP3    H1 3822   1.994   1.824   1.287 -0.7422 -1.7285  1.3501
 1286TIP3    H2 3823   1.867   1.859   1.213  0.4754 -0.5321 -0.2528
 1287TIP3   OH2 3824   5.180   6.062   2.419  0.5882 -0.3716  0.0755
 1287TIP3    H1 3825   5.272   6.051   2.441  0.6183 -1.3255 -0.4525
 1287TIP3    H2 3826   5.161   6.154   2.438  1.2924 -0.4957  1.4669
 1288TIP3   OH2 3827   1.650   2.703   0.915 -0.2790 -0.3050  0.3186
 1288TIP3    H1 3828   1.663   2.745   0.830  0.1841 -0.1869  0.4433
 1288TIP3    H2 3829   1.738   2.679   0.943 -0.5474 -1.5670  0.1460
 1289TIP3   OH2 3830   3.721   0.807   1.256 -0.3350  0.3203  0.4672
 1289TIP3    H1 3831   3.684   0.856   1.182 -0.0909  1.4151  1.0541
 1289TIP3    H2 3832   3.650   0.748   1.283 -1.1725  1.3956  0.6916
 1290TIP3   OH2 3833   3.171   3.380   4.579  0.0933  0.0291 -0.3378
 1290TIP3    H1 3834   3.082   3.406   4.601 -0.1387 -0.3585 -0.7939
 1290TIP3    H2 3835   3.226   3.425   4.643 -0.1924  2.4297 -1.6999
 1291TIP3   OH2 3836   0.892   1.768   0.693 -0.2904  0.2341 -0.3955
 1291TIP3    H1 3837   0.912   1.778   0.786  1.6742 -0.1030 -0.7313
 1291TIP3    H2 3838   0.873   1.674   0.682  1.1606 -0.0571 -0.5900
 1292TIP3   OH2 3839   0.750   4.262   5.564  0.0206  0.4228  0.4787
 1292TIP3    H1 3840   0.789   4.191   5.615  1.0284  0.2633 -0.4528
 1292TIP3    H2 3841   0.710   4.218   5.489  1.4402  0.8594 -0.5849
 1293TIP3   OH2 3842   0.263   3.509   3.424  0.1157  0.7467 -0.1152
 1293TIP3    H1 3843   0.300   3.578   3.479  1.3172  1.0547 -1.2453
 1293TIP3    H2 3844   0.242   3.554   3.341  0.3581 -0.1168 -0.6571
 1294TIP3   OH2 3845   2.319   0.044   5.231  0.5255 -0.0907 -0.0127
 1294TIP3    H1 3846   2.414   0.038   5.218  0.7605  0.9724  1.0183
 1294TIP3    H2 3847   2.294  -0.042   5.266  1.1778 -0.2298  0.1257
 1295TIP3   OH2 3848   4.361   2.175   2.969 -0.2018 -0.3874 -0.2841
 1295TIP3    H1 3849   4.296   2.172   3.039  1.8092 -1.0749  1.6521
 1295TIP3    H2 3850   4.309   2.185   2.889 -2.5968  0.4088  1.2614
 1296TIP3   OH2 3851   2.868   5.129   3.902 -0.3965  0.1931  0.1275
 1296TIP3    H1 3852   2.831   5.206   3.944 -0.6892 -1.4855  3.2447
 1296TIP3    H2 3853   2.963   5.143   3.905 -0.4637  0.6976  0.0392
 1297TIP3   OH2 3854   5.040   5.097   3.091 -0.3385 -0.5696 -0.0096
 1297TIP3    H1 3855   5.062   5.006   3.111  2.0658 -0.4202 -1.5208
 1297TIP3    H2 3856   4.963   5.115   3.145 -1.6976 -3.8477 -0.5752
 1298TIP3   OH2 3857   0.437   2.086   2.720 -0.7425  0.1898 -0.6498
 1298TIP3    H1 3858   0.461   2.157   2.660 -0.3135  0.6574  0.0707
 1298TIP3    H2 3859   0.380   2.128   2.785 -1.4100 -0.3668 -0.8641
 1299TIP3   OH2 3860   3.351   2.993   3.365  0.8999 -0.0763 -0.1210
 1299TIP3    H1 3861   3.272   3.039   3.334 -0.2275 -1.7098  0.2327
 1299TIP3    H2 3862   3.418   3.061   3.366 -1.2161  2.2083  2.6420
 1300TIP3   OH2 3863   5.602   2.967   5.755 -0.4005 -0.3423  0.1610
 1300TIP3    H1 3864   5.670   2.962   5.821 -0.7044 -0.7893  0.4405
 1300TIP3    H2 3865   5.574   3.059   5.757 -1.7090 -0.7222  1.9926
 1301TIP3   OH2 3866   4.533   6.708   5.478 -0.4943 -0.0419  0.0210
 1301TIP3    H1 3867   4.513   6.751   5.395  0.7585 -0.1794 -0.3782
 1301TIP3    H2 3868   4.510   6.773   5.545 -0.8798  0.3253 -0.4638
 1302TIP3   OH2 3869   1.383   6.131   4.658  0.0086 -0.2420 -0.0398
 1302TIP3    H1 3870   1.349   6.204   4.710  1.2469  1.1975 -1.1434
 1302TIP3    H2 3871   1.442   6.085   4.717 -0.2695  0.0523  0.4790
 1303TIP3   OH2 3872   4.049   2.533   0.222  0.1278  0.2379 -0.1635
 1303TIP3    H1 3873   4.092   2.515   0.305  0.4575  1.6466 -0.0039
 1303TIP3    H2 3874   4.104   2.491   0.156  1.8535  2.0747  0.0271
 1304TIP3   OH2 3875   5.112   0.882   3.912  0.0275 -0.4787 -0.1083
 1304TIP3    H1 3876   5.205   0.862   3.895 -0.0668  0.1538 -1.5515
 1304TIP3    H2 3877   5.112   0.926   3.997  1.2601  0.8956 -0.7759
 1305TIP3   OH2 3878   5.786   1.243   1.528 -0.2529 -0.6011 -0.2284
 1305TIP3    H1 3879   5.705   1.252   1.580  0.2517 -0.2923  0.5223
 1305TIP3    H2 3880   5.761   1.185   1.456 -1.4502  0.3988 -0.6560
 1306TIP3   OH2 3881   5.174   5.204  -0.017 -0.2546  0.1262  0.3087
 1306TIP3    H1 3882   5.209   5.263   0.049 -0.2760  1.6077 -0.9618
 1306TIP3    H2 3883   5.206   5.117   0.008  1.7800  0.9998  0.8823
 1307TIP3   OH2 3884   1.394   0.623   5.198 -0.2664  0.6938  0.5159
 1307TIP3    H1 3885   1.361   0.671   5.274 -3.7388 -1.6475  0.7126
 1307TIP3    H2 3886   1.345   0.541   5.199  4.2131 -2.3012 -0.6500
 1308TIP3   OH2 3887   5.052   5.259   2.638  0.5427  0.2446  0.8481
 1308TIP3    H1 3888   5.049   5.310   2.557  0.4241 -0.9952  0.0347
 1308TIP3    H2 3889   5.139   5.277   2.675  0.3799  1.2663  0.7543
 1309TIP3   OH2 3890   2.430   5.405   3.567  0.7552 -0.5936 -0.3744
 1309TIP3    H1 3891   2.335   5.415   3.570  0.6985 -1.1171 -0.5066
 1309TIP3    H2 3892   2.449   5.330   3.624  1.1032 -0.4173 -0.2476
 1310TIP3   OH2 3893   5.033   3.589   0.665  0.5743 -0.4333 -0.0433
 1310TIP3    H1 3894   5.095   3.521   0.641  0.5965 -1.5074  2.6987
 1310TIP3    H2 3895   5.011   3.571   0.756  0.8705  3.4526  0.9807
 1311TIP3   OH2 3896   1.587   0.637   2.191 -0.5239  0.1556 -0.6368
 1311TIP3    H1 3897   1.545   0.720   2.172 -1.3822  0.0503  0.6385
 1311TIP3    H2 3898   1.680   0.657   2.192 -0.7088  1.0627 -0.5260
 1312TIP3   OH2 3899   4.283   5.516   2.203  0.4029  0.7020  0.5242
 1312TIP3    H1 3900   4.270   5.426   2.233  1.1478  1.3298  2.9723
 1312TIP3    H2 3901   4.200   5.560   2.223  1.1086  1.2710  2.4365
 1313TIP3   OH2 3902   2.458   4.913   4.661  0.2070  0.7446 -0.6595
 1313TIP3    H1 3903   2.405   4.992   4.650 -0.0457  0.4820 -1.4037
 1313TIP3    H2 3904   2.454   4.869   4.576 -0.0222 -0.2992 -0.1292
 1314TIP3   OH2 3905   3.921   3.792   0.706 -0.7418  0.0528 -0.0369
 1314TIP3    H1 3906   3.887   3.805   0.618  2.2976 -0.5773 -1.4556
 1314TIP3    H2 3907   3.995   3.733   0.695 -0.3753 -0.2512  3.0003
 1315TIP3   OH2 3908   0.519   3.641   0.699  0.2851 -0.1577 -0.5639
 1315TIP3    H1 3909   0.523   3.549   0.673  2.0570 -0.3026  0.0932
 1315TIP3    H2 3910   0.517   3.639   0.795 -0.2660  0.4827 -0.5553
 1316TIP3   OH2 3911   0.953   3.678   4.219  0.2783 -0.0668 -0.0827
 1316TIP3    H1 3912   0.951   3.585   4.239 -1.4567 -0.3314 -1.3384
 1316TIP3    H2 3913   0.907   3.719   4.293 -1.8835 -0.5762 -1.0717
 1317TIP3   OH2 3914   1.672   4.007   1.750 -0.1957 -0.1076  0.3615
 1317TIP3    H1 3915   1.745   4.027   1.809  1.8231 -1.3232 -1.5703
 1317TIP3    H2 3916   1.695   3.923   1.711 -1.3078  0.7283 -2.3066
 1318TIP3   OH2 3917   5.713   5.844   2.194  0.3776 -0.1583  0.2935
 1318TIP3    H1 3918   5.770   5.809   2.262 -2.6476 -1.0570  2.5716
 1318TIP3    H2 3919   5.713   5.939   2.210  0.1999 -0.2964  1.1627
 1319TIP3   OH2 3920   5.043   0.515   4.119 -0.4612 -0.5202  0.0562
 1319TIP3    H1 3921   5.023   0.488   4.209  2.1261 -1.4461  0.4362
 1319TIP3    H2 3922   5.107   0.586   4.129 -0.5244 -0.2807 -1.0652
 1320TIP3   OH2 3923   1.522   6.317   1.225  0.1243  0.0359  0.0661
 1320TIP3    H1 3924   1.566   6.235   1.204 -1.0060 -0.6130  0.1797
 1320TIP3    H2 3925   1.555   6.379   1.161  0.2790 -0.7436 -0.6258
 1321TIP3   OH2 3926   4.797   4.121   5.000 -0.4310 -0.1401 -0.0365
 1321TIP3    H1 3927   4.751   4.133   5.083 -0.1781 -0.5523  0.1701
 1321TIP3    H2 3928   4.740   4.062   4.950 -0.1496 -0.6252  0.2070
 1322TIP3   OH2 3929   0.480   3.009   3.216 -0.9324  0.2960 -0.1478
 1322TIP3    H1 3930   0.508   3.088   3.169 -2.6382 -0.1009 -1.9761
 1322TIP3    H2 3931   0.500   2.938   3.155 -1.8013 -0.3997  0.3711
 1323TIP3   OH2 3932   2.866   5.590   5.075 -0.4434  0.1237 -0.0273
 1323TIP3    H1 3933   2.826   5.516   5.029  0.8442 -0.1659 -0.7021
 1323TIP3    H2 3934   2.796   5.656   5.080 -1.3767 -0.8490 -0.0689
 1324TIP3   OH2 3935   1.868   5.614   2.145 -0.1768  0.3818  0.2137
 1324TIP3    H1 3936   1.886   5.703   2.115  1.5801  0.0313  0.1053
 1324TIP3    H2 3937   1.916   5.558   2.084 -0.0167 -0.5578  1.1726
 1325TIP3   OH2 3938   2.304   6.551   1.673 -0.0819 -0.5897  0.1535
 1325TIP3    H1 3939   2.219   6.586   1.699 -0.0891 -0.8282  0.4452
 1325TIP3    H2 3940   2.359   6.629   1.660 -0.5856 -0.3886 -0.8864
 1326TIP3   OH2 3941   2.900   6.022   1.391  0.0253  0.1572 -0.2750
 1326TIP3    H1 3942   2.937   5.939   1.362 -0.2181 -0.7042  1.7510
 1326TIP3    H2 3943   2.947   6.042   1.472 -0.2234  1.7921 -0.4947
 1327TIP3   OH2 3944   0.573   2.115   0.324 -0.2690 -0.1106 -0.1723
 1327TIP3    H1 3945   0.564   2.104   0.230  1.9351  0.3002 -0.4757
 1327TIP3    H2 3946   0.542   2.204   0.341 -2.3582 -0.7698 -0.1780
 1328TIP3   OH2 3947   5.303   5.819   2.320  0.1648 -0.2052 -0.3094
 1328TIP3    H1 3948   5.368   5.836   2.253  1.4957 -2.1147  0.4094
 1328TIP3    H2 3949   5.232   5.880   2.301  1.7689  1.3489 -1.6352
 1329TIP3   OH2 3950   3.814   1.522   3.751 -0.2826 -0.5154  0.2139
 1329TIP3    H1 3951   3.742   1.492   3.807 -0.2007  0.0807  0.6453
 1329TIP3    H2 3952   3.789   1.493   3.663 -1.0116 -0.3944  0.3733
 1330TIP3   OH2 3953   4.374   0.051   2.785 -0.0222 -0.3779 -0.1994
 1330TIP3    H1 3954   4.459   0.093   2.798  0.9198 -1.4823 -2.3570
 1330TIP3    H2 3955   4.364  -0.005   2.862  1.4597 -0.6219 -0.1505
 1331TIP3   OH2 3956   3.328   1.365   1.933 -0.4860  0.5945 -0.3954
 1331TIP3    H1 3957   3.416   1.404   1.929 -0.7978  1.2294 -2.3577
 1331TIP3    H2 3958   3.283   1.401   1.857 -1.8276 -1.2146 -0.5190
 1332TIP3   OH2 3959   4.171   6.149   5.692  0.0159  0.2029  0.1188
 1332TIP3    H1 3960   4.263   6.126   5.699 -0.1474 -0.1814  1.1720
 1332TIP3    H2 3961   4.135   6.130   5.779 -1.0186  0.4918 -0.2358
 1333TIP3   OH2 3962   0.726   5.785   1.145  0.5040  1.0743 -0.4469
 1333TIP3    H1 3963   0.675   5.785   1.226 -0.7791  1.0431 -1.2275
 1333TIP3    H2 3964   0.699   5.705   1.100  0.2013  1.7565 -1.5003
 1334TIP3   OH2 3965   0.850   2.016   0.954 -0.1230  0.3575 -0.3315
 1334TIP3    H1 3966   0.916   1.976   1.012 -0.3345  1.2625  0.5737
 1334TIP3    H2 3967   0.767   1.980   0.984 -0.6267  3.1304  2.1618
 1335TIP3   OH2 3968   2.404   2.316   4.637  0.0498 -0.1322 -0.3885
 1335TIP3    H1 3969   2.359   2.393   4.672 -0.1853 -0.9668  1.2464
 1335TIP3    H2 3970   2.363   2.302   4.551 -0.0713  1.3961 -0.6167
 1336TIP3   OH2 3971   4.926   5.967   5.041  0.8241  0.0222  0.4170
 1336TIP3    H1 3972   4.961   5.878   5.050 -0.3325 -0.5209 -0.3068
 1336TIP3    H2 3973   4.853   5.969   5.102 -0.6099 -0.3124 -1.2235
 1337TIP3   OH2 3974   0.070   0.768   5.383  0.1504 -0.2152 -0.3944
 1337TIP3    H1 3975   0.152   0.720   5.383  0.0773 -0.3837  0.9639
 1337TIP3    H2 3976   0.005   0.705   5.351  0.4800 -0.1885 -1.1297
 1338TIP3   OH2 3977   5.157   0.421   3.871 -0.1669  0.1590 -0.4923
 1338TIP3    H1 3978   5.251   0.424   3.891 -0.2539  0.0452 -0.0558
 1338TIP3    H2 3979   5.114   0.446   3.953 -0.5725 -1.6466 -0.1065
 1339TIP3   OH2 3980   2.150   4.471   2.918  0.6001 -0.1138  0.2461
 1339TIP3    H1 3981   2.209   4.457   2.993 -1.0283 -1.2763  1.3787
 1339TIP3    H2 3982   2.096   4.545   2.944  0.5264 -0.0412 -0.1157
 1340TIP3   OH2 3983   4.750   2.335   3.347 -0.0421 -0.1840 -0.1199
 1340TIP3    H1 3984   4.733   2.424   3.380  2.1045  0.4498 -0.6064
 1340TIP3    H2 3985   4.664   2.305   3.316 -0.9467  1.4611  0.6311
 1341TIP3   OH2 3986   6.191   3.286   4.196 -0.2401 -0.3171  0.3097
 1341TIP3    H1 3987   6.170   3.349   4.127 -2.7331  0.7663  1.9139
 1341TIP3    H2 3988   6.264   3.236   4.161  1.2312  2.7794 -1.4994
 1342TIP3   OH2 3989   2.937   6.614   2.667  0.4856 -0.1584 -0.2389
 1342TIP3    H1 3990   2.843   6.612   2.688  0.9650 -0.7696  2.0701
 1342TIP3    H2 3991   2.955   6.706   2.649 -0.3766  0.1181  0.2241
 1343TIP3   OH2 3992   3.460   3.977   2.595  0.4484  0.4774 -0.7761
 1343TIP3    H1 3993   3.373   3.999   2.560 -0.2344 -0.5407  0.2043
 1343TIP3    H2 3994   3.485   3.898   2.547  0.9382  0.8836 -1.1992
 1344TIP3   OH2 3995   0.062   1.202   3.535  0.1719  0.1211  0.0946
 1344TIP3    H1 3996   0.145   1.249   3.537  1.4176 -1.8280 -1.6624
 1344TIP3    H2 3997   0.079   1.122   3.585 -0.6770 -0.2505 -0.1990
 1345TIP3   OH2 3998   6.956   6.361   2.731  0.1633 -0.0371 -0.2215
 1345TIP3    H1 3999   7.012   6.284   2.743 -0.5986 -0.3026  1.9583
 1345TIP3    H2 4000   7.011   6.423   2.683  1.3852 -1.2764 -0.4996
 1346TIP3   OH2 4001   3.860   2.949   2.956 -0.3446  0.2879  0.0617
 1346TIP3    H1 4002   3.892   2.970   3.044  1.8605 -0.4377 -0.5001
 1346TIP3    H2 4003   3.893   2.861   2.939 -1.3319  0.1445 -1.2358
 1347TIP3   OH2 4004   3.935   0.440   5.147 -0.2147 -0.3156 -0.4014
 1347TIP3    H1 4005   3.880   0.518   5.143  0.6175  0.2405 -2.4286
 1347TIP3    H2 4006   3.886   0.374   5.097 -0.0468 -0.5092 -0.3127
 1348TIP3   OH2 4007   1.360   2.693   5.500  0.3936 -0.2726  0.6192
 1348TIP3    H1 4008   1.452   2.693   5.476  0.8304 -1.7545  2.1752
 1348TIP3    H2 4009   1.314   2.701   5.416  1.8968 -2.9755 -0.6004
 1349TIP3   OH2 4010   3.207   1.894   1.261 -0.3544  0.3813  0.2485
 1349TIP3    H1 4011   3.224   1.801   1.275  0.1431  0.2156 -1.2811
 1349TIP3    H2 4012   3.200   1.904   1.166 -3.4359  1.4051  0.4565
 1350TIP3   OH2 4013   0.784   4.395   1.254  0.0080  0.1281  0.0992
 1350TIP3    H1 4014   0.811   4.466   1.312 -1.1348  0.1045  0.6955
 1350TIP3    H2 4015   0.812   4.423   1.167  1.7342  0.1742  0.6275
 1351TIP3   OH2 4016   7.010   4.912   5.218  0.0379  0.4262 -0.3332
 1351TIP3    H1 4017   7.000   4.817   5.224 -1.5664  0.6046  0.4310
 1351TIP3    H2 4018   6.990   4.932   5.126  0.2290  0.0399 -0.4613
 1352TIP3   OH2 4019   0.046   4.727   3.944 -0.4352  0.0147 -0.2052
 1352TIP3    H1 4020  -0.009   4.651   3.926 -1.1608  0.6323 -0.6702
 1352TIP3    H2 4021   0.048   4.775   3.861  1.7517 -0.5637 -0.5666
 1353TIP3   OH2 4022   3.806   6.063   5.783  0.3978  0.3455  0.0649
 1353TIP3    H1 4023   3.789   6.115   5.704  1.4218  0.6792  0.0607
 1353TIP3    H2 4024   3.718   6.043   5.817 -0.0972 -0.7697 -1.7608
 1354TIP3   OH2 4025   5.545   6.800   3.454 -0.3489 -0.3306 -0.1319
 1354TIP3    H1 4026   5.469   6.813   3.396 -1.3265 -4.0484  0.0773
 1354TIP3    H2 4027   5.600   6.738   3.407  0.1015 -1.4654  1.8278
 1355TIP3   OH2 4028   0.668   5.084   5.307  0.1825  0.8404  0.0482
 1355TIP3    H1 4029   0.646   5.061   5.217  1.2961 -0.0195 -0.0185
 1355TIP3    H2 4030   0.706   5.171   5.301  0.1845  0.8151 -0.2978
 1356TIP3   OH2 4031   3.502   6.082   3.503 -0.3187 -0.1890 -0.3243
 1356TIP3    H1 4032   3.514   6.045   3.416  1.1297 -2.0016  0.5724
 1356TIP3    H2 4033   3.428   6.033   3.540  0.3932 -0.9042  0.1853
 1357TIP3   OH2 4034   1.278   0.758   3.964 -0.1385 -0.6318 -0.2635
 1357TIP3    H1 4035   1.325   0.748   3.881  2.0185 -2.4559  1.0462
 1357TIP3    H2 4036   1.209   0.692   3.961 -1.5921  0.8758 -1.4880
 1358TIP3   OH2 4037   2.656   1.586   1.686  0.8752  0.4156  0.7734
 1358TIP3    H1 4038   2.659   1.612   1.594 -0.8786 -1.5787  0.0715
 1358TIP3    H2 4039   2.582   1.635   1.723  1.8448  1.5433  1.2716
 1359TIP3   OH2 4040   5.327   3.396   2.082  0.1102  0.1900  0.1417
 1359TIP3    H1 4041   5.327   3.335   2.156  0.6098 -0.1299 -0.1166
 1359TIP3    H2 4042   5.252   3.454   2.099 -2.0097 -2.0869 -0.9291
 1360TIP3   OH2 4043   6.011   5.026   4.881 -0.0609 -0.1424 -0.5335
 1360TIP3    H1 4044   5.967   4.952   4.840  1.5542 -2.5542  1.7337
 1360TIP3    H2 4045   5.958   5.046   4.959 -0.0490  0.6001 -0.7023
 1361TIP3   OH2 4046   1.354   5.837   1.553  0.1876 -0.1531  0.2542
 1361TIP3    H1 4047   1.281   5.873   1.603 -1.1625 -1.8935 -0.3920
 1361TIP3    H2 4048   1.412   5.800   1.619 -1.6935 -2.6480  0.6224
 1362TIP3   OH2 4049   0.299   5.521   2.500  1.0236  0.1215  0.2576
 1362TIP3    H1 4050   0.261   5.492   2.583 -0.6993 -0.0093 -0.5238
 1362TIP3    H2 4051   0.389   5.488   2.502  1.3779  1.0516  2.5059
 1363TIP3   OH2 4052   4.402   1.618   4.218  0.5841 -0.0645  0.2383
 1363TIP3    H1 4053   4.326   1.638   4.273  0.3027  0.1458 -0.2244
 1363TIP3    H2 4054   4.413   1.523   4.225  0.2100 -0.1102  0.2190
 1364TIP3   OH2 4055   6.822   4.613   1.984  0.0454  0.4698 -0.3433
 1364TIP3    H1 4056   6.777   4.635   1.903  0.5229  3.0951  0.0168
 1364TIP3    H2 4057   6.914   4.603   1.960 -0.1901 -1.8697 -0.5630
 1365TIP3   OH2 4058   0.914   6.550   2.065 -0.0376  0.3987 -0.1339
 1365TIP3    H1 4059   1.002   6.514   2.053 -0.0809 -1.1865  3.2044
 1365TIP3    H2 4060   0.925   6.644   2.051  1.9107  0.1157 -0.8735
 1366TIP3   OH2 4061   3.543   1.205   5.113 -0.0358  0.1550  0.2434
 1366TIP3    H1 4062   3.560   1.244   5.199 -0.1081 -0.0495  0.3518
 1366TIP3    H2 4063   3.622   1.223   5.062  0.2672 -0.2860  0.5579
 1367TIP3   OH2 4064   1.975   5.590   5.850  0.0943  0.1399 -0.1807
 1367TIP3    H1 4065   2.069   5.588   5.831 -0.2951 -0.2303 -2.3310
 1367TIP3    H2 4066   1.936   5.536   5.782 -1.6205 -0.5209  1.2487
 1368TIP3   OH2 4067   3.054   5.965   0.478  0.2782  0.3519 -0.2590
 1368TIP3    H1 4068   3.043   6.043   0.532 -0.0439 -0.2503  0.5741
 1368TIP3    H2 4069   3.045   5.996   0.388  0.3047  1.2923  0.0520
 1369TIP3   OH2 4070   2.938   4.448   3.077 -0.1557 -0.1819  0.1100
 1369TIP3    H1 4071   2.867   4.511   3.061 -0.5878 -0.6478  0.1864
 1369TIP3    H2 4072   2.920   4.376   3.016 -0.4922 -0.8998  1.0484
 1370TIP3   OH2 4073   5.641   4.396   0.868  0.5594 -0.1744 -1.1115
 1370TIP3    H1 4074   5.698   4.429   0.798  0.9010  0.2313 -0.6489
 1370TIP3    H2 4075   5.678   4.310   0.889  0.6524 -0.1596 -1.2115
 1371TIP3   OH2 4076   0.052   3.974   2.202 -0.2052  0.0045 -0.2672
 1371TIP3    H1 4077  -0.017   4.034   2.174 -0.5136 -0.2874 -0.1490
 1371TIP3    H2 4078   0.121   3.985   2.137 -0.6110 -0.1360 -0.7305
 1372TIP3   OH2 4079   6.606   2.621   3.655  0.1742 -0.0062  0.2854
 1372TIP3    H1 4080   6.512   2.631   3.646  0.0582 -0.2750  1.1006
 1372TIP3    H2 4081   6.639   2.616   3.566 -0.5698  0.1840 -0.0054
 1373TIP3   OH2 4082   4.556   6.144   2.100  0.5456  0.3393 -0.1853
 1373TIP3    H1 4083   4.627   6.084   2.076  2.3712  2.3502 -0.1291
 1373TIP3    H2 4084   4.504   6.096   2.165  0.8648 -1.7903 -1.4268
 1374TIP3   OH2 4085   3.984   2.724   4.472  0.0784  0.0809  0.3711
 1374TIP3    H1 4086   3.925   2.735   4.398  0.5855  0.4513  0.0174
 1374TIP3    H2 4087   3.928   2.733   4.549 -0.8531 -2.3437  0.0723
 1375TIP3   OH2 4088   0.441   0.979   5.336  0.0162 -0.1270  0.3470
 1375TIP3    H1 4089   0.534   0.997   5.332 -0.0752  0.2455 -2.9068
 1375TIP3    H2 4090   0.435   0.883   5.344  0.6993 -0.1923  0.1230
 1376TIP3   OH2 4091   1.277   2.064   3.184 -0.5077 -0.1364  0.0909
 1376TIP3    H1 4092   1.219   2.004   3.231 -0.5635 -1.1588 -1.2132
 1376TIP3    H2 4093   1.310   2.013   3.111 -0.5434  1.4178 -1.0781
 1377TIP3   OH2 4094   3.855   1.664   3.396  0.3307  0.0778 -0.4285
 1377TIP3    H1 4095   3.925   1.600   3.380  0.3121 -0.1012  0.2045
 1377TIP3    H2 4096   3.899   1.749   3.390  0.9245 -0.0602  1.4104
 1378TIP3   OH2 4097   2.900   3.124   0.095 -0.2564 -0.3634  0.1005
 1378TIP3    H1 4098   2.842   3.057   0.131 -1.5102  0.6548  0.0484
 1378TIP3    H2 4099   2.873   3.133   0.004 -0.1714  0.2680  0.1310
 1379TIP3   OH2 4100   3.685   5.786   2.912  0.1707 -0.2331  0.0100
 1379TIP3    H1 4101   3.759   5.777   2.852 -0.1784  1.6024 -0.7674
 1379TIP3    H2 4102   3.724   5.814   2.995  0.4261 -0.0865 -0.1591
 1380TIP3   OH2 4103   4.872   6.297   1.477 -0.6138 -0.6086  0.2284
 1380TIP3    H1 4104   4.924   6.220   1.499  0.6446 -0.6473 -2.5323
 1380TIP3    H2 4105   4.797   6.261   1.428  0.3296 -0.1076 -1.6645
 1381TIP3   OH2 4106   0.028   0.649   3.250  0.4593 -0.1286  0.4937
 1381TIP3    H1 4107   0.045   0.741   3.271  1.7717 -0.4573  0.9217
 1381TIP3    H2 4108   0.099   0.600   3.292  0.3297 -1.2657 -0.5371
 1382TIP3   OH2 4109   6.226   0.015   5.253  0.2327  0.2657  0.4583
 1382TIP3    H1 4110   6.155   0.075   5.276  0.0047 -0.9749  3.4169
 1382TIP3    H2 4111   6.184  -0.069   5.240  0.9368 -0.0077 -0.1731
 1383TIP3   OH2 4112   5.539   4.923   2.441  0.4749  0.5434  0.0646
 1383TIP3    H1 4113   5.478   4.929   2.367 -0.6818 -1.7040  0.7111
 1383TIP3    H2 4114   5.625   4.935   2.402 -0.2437  1.8858 -1.2147
 1384TIP3   OH2 4115   0.580   0.219   5.795 -0.1440 -0.5899  0.4655
 1384TIP3    H1 4116   0.655   0.236   5.739 -1.4976 -1.3616 -1.7340
 1384TIP3    H2 4117   0.582   0.124   5.811 -1.2760 -0.8426 -0.6801
 1385TIP3   OH2 4118   4.840   3.123   4.732  0.6841 -0.1085  0.1294
 1385TIP3    H1 4119   4.896   3.120   4.810 -0.5158 -0.2720  1.0067
 1385TIP3    H2 4120   4.841   3.215   4.705  1.9272 -0.2238 -0.3011
 1386TIP3   OH2 4121   2.851   2.359   1.889  0.4059  0.0500 -0.0459
 1386TIP3    H1 4122   2.828   2.278   1.844 -0.3465  0.4086 -0.3395
 1386TIP3    H2 4123   2.881   2.331   1.976 -0.8313 -0.4911  0.2311
 1387TIP3   OH2 4124   1.792   1.634   0.963 -0.2102 -0.1983 -0.0651
 1387TIP3    H1 4125   1.883   1.610   0.983  0.7369  1.1161 -2.4250
 1387TIP3    H2 4126   1.769   1.578   0.888 -0.8558  0.4757 -0.3768
 1388TIP3   OH2 4127   5.164   1.430   0.858  0.0683 -0.3990 -0.4568
 1388TIP3    H1 4128   5.142   1.422   0.951 -1.5574 -1.1231 -0.8655
 1388TIP3    H2 4129   5.101   1.494   0.824  2.7563  2.5114 -0.4725
 1389TIP3   OH2 4130   5.732   3.618   4.659  0.1849 -0.0136  0.1392
 1389TIP3    H1 4131   5.800   3.683   4.679 -0.3366  0.5111  0.2334
 1389TIP3    H2 4132   5.767   3.570   4.584  0.1796  0.9956 -0.5387
 1390TIP3   OH2 4133   1.107   0.042   5.224  0.3462 -0.4417  0.0637
 1390TIP3    H1 4134   1.161   0.029   5.303 -0.8729  0.9207  1.1620
 1390TIP3    H2 4135   1.074  -0.045   5.204 -1.8496 -0.4344  2.9733
 1391TIP3   OH2 4136   5.401   5.000   4.544  0.4270 -0.0610  0.3226
 1391TIP3    H1 4137   5.462   5.011   4.617  1.3840 -1.6960 -0.1890
 1391TIP3    H2 4138   5.390   5.089   4.509  2.2741  0.3354  0.6325
 1392TIP3   OH2 4139   4.447   4.739   4.242 -0.3565  0.1217 -0.3177
 1392TIP3    H1 4140   4.362   4.762   4.278 -0.2550 -0.2389  0.1696
 1392TIP3    H2 4141   4.493   4.823   4.232 -0.0317  0.1775  1.3280
 1393TIP3   OH2 4142   2.457   0.252   2.549  0.4537  0.1632  0.2348
 1393TIP3    H1 4143   2.378   0.236   2.499  0.6964  0.3768 -0.2161
 1393TIP3    H2 4144   2.518   0.291   2.487  1.2056 -0.7726  0.3554
 1394TIP3   OH2 4145   4.870   6.335   0.676  0.2349  0.1781  0.1119
 1394TIP3    H1 4146   4.958   6.373   0.686  0.0821  0.2397  1.3108
 1394TIP3    H2 4147   4.855   6.288   0.757 -2.1193  2.8066  1.3630
 1395TIP3   OH2 4148   0.613   2.487   1.439  0.1478 -0.2390  0.3964
 1395TIP3    H1 4149   0.680   2.518   1.499 -0.2851  1.2232  0.1606
 1395TIP3    H2 4150   0.661   2.440   1.370  0.9705  1.0690  0.0533
 1396TIP3   OH2 4151   0.715   4.012   4.443  0.4462 -0.1058  0.2945
 1396TIP3    H1 4152   0.720   3.963   4.525  3.0539 -2.6544 -1.2050
 1396TIP3    H2 4153   0.795   4.065   4.442 -0.2287  0.9402 -0.0664
 1397TIP3   OH2 4154   4.247   2.482   3.926  0.0733  0.2307  0.2730
 1397TIP3    H1 4155   4.201   2.534   3.861 -1.6495  0.6736  1.7818
 1397TIP3    H2 4156   4.190   2.407   3.942  0.9385 -0.3791  0.5916
 1398TIP3   OH2 4157   5.664   3.499   0.439  0.6902 -0.3813  0.0047
 1398TIP3    H1 4158   5.588   3.445   0.414 -0.0468 -0.1070  1.5519
 1398TIP3    H2 4159   5.707   3.448   0.508  1.7216 -0.3517 -0.5956
 1399TIP3   OH2 4160   6.542   3.631   1.851  0.6020  0.0571  0.6586
 1399TIP3    H1 4161   6.524   3.707   1.796  1.4142  0.8096  1.3959
 1399TIP3    H2 4162   6.492   3.645   1.931 -0.2683 -0.8431  0.3007
 1400TIP3   OH2 4163   2.516   3.810   1.421  0.0098 -0.6940  0.0692
 1400TIP3    H1 4164   2.439   3.813   1.477 -0.0694  1.3986 -0.0727
 1400TIP3    H2 4165   2.489   3.757   1.346 -1.2634 -0.0897  0.0821
 1401TIP3   OH2 4166   1.356   4.492   4.673  0.1274 -0.3004 -0.1901
 1401TIP3    H1 4167   1.421   4.434   4.633 -0.8099 -1.8612  0.4579
 1401TIP3    H2 4168   1.367   4.478   4.767 -0.2042  0.5011 -0.0217
 1402TIP3   OH2 4169   5.168   5.369   3.378 -0.6721  0.1738  0.2397
 1402TIP3    H1 4170   5.204   5.349   3.291  2.5409  2.3826  0.8580
 1402TIP3    H2 4171   5.152   5.283   3.417  2.5463 -1.0737 -0.8112
 1403TIP3   OH2 4172   1.671   0.768   5.866  0.0045 -0.4071  0.0235
 1403TIP3    H1 4173   1.694   0.724   5.948  0.6419  1.5530  0.9769
 1403TIP3    H2 4174   1.754   0.781   5.822  0.1432  1.5536  0.7355
 1404TIP3   OH2 4175   1.981   1.367   0.658 -0.3758 -0.3583  0.0026
 1404TIP3    H1 4176   1.995   1.272   0.652 -0.8107 -0.3717 -1.1777
 1404TIP3    H2 4177   2.051   1.405   0.605  1.3050  0.1474  2.4667
 1405TIP3   OH2 4178   1.788   4.399   5.648  0.3109 -0.2282 -0.0358
 1405TIP3    H1 4179   1.788   4.480   5.698 -0.8486 -0.1837 -0.0713
 1405TIP3    H2 4180   1.766   4.425   5.559 -0.7039 -0.6407  0.0835
 1406TIP3   OH2 4181   0.656   0.277   5.317 -0.2162  0.2184 -0.2482
 1406TIP3    H1 4182   0.668   0.199   5.370 -1.8376 -0.2335 -0.4926
 1406TIP3    H2 4183   0.653   0.245   5.227 -2.9607  0.1979 -0.2499
 1407TIP3   OH2 4184   1.888   1.736   0.545  0.0808 -0.2905 -0.4276
 1407TIP3    H1 4185   1.914   1.687   0.467 -0.4003 -0.5560 -0.4293
 1407TIP3    H2 4186   1.925   1.823   0.533  0.8764 -0.6325 -0.4631
 1408TIP3   OH2 4187   0.758   2.596   0.893  0.4760  0.0972  0.2766
 1408TIP3    H1 4188   0.679   2.633   0.933 -0.7020 -1.8982 -0.0234
 1408TIP3    H2 4189   0.830   2.637   0.939 -0.7222  2.0384  0.5350
 1409TIP3   OH2 4190   0.395   5.308   3.853  0.2040 -0.2863 -0.0437
 1409TIP3    H1 4191   0.429   5.395   3.875 -0.5809  0.0504 -0.1477
 1409TIP3    H2 4192   0.472   5.252   3.855  0.4846  0.1197  1.4956
 1410TIP3   OH2 4193   2.668   6.261   0.619  0.3054  0.6211  0.3235
 1410TIP3    H1 4194   2.645   6.205   0.693 -1.7871  0.0766 -0.6515
 1410TIP3    H2 4195   2.762   6.248   0.606  0.3080 -0.8373  1.5929
 1411TIP3   OH2 4196   5.535   0.277   0.659 -0.6425 -0.0855  0.5286
 1411TIP3    H1 4197   5.443   0.278   0.683 -0.5762 -1.9820  0.9834
 1411TIP3    H2 4198   5.551   0.188   0.627  1.4601 -0.4501  2.3521
 1412TIP3   OH2 4199   2.615   1.280   0.850  0.0852  0.5011  0.1151
 1412TIP3    H1 4200   2.703   1.276   0.812 -0.6052  0.1210 -1.5246
 1412TIP3    H2 4201   2.618   1.221   0.925  0.5803 -1.4340 -1.3574
 1413TIP3   OH2 4202   5.903   2.394   0.790 -1.0099  0.5407 -0.4975
 1413TIP3    H1 4203   5.819   2.395   0.743 -0.4602 -0.9260 -1.5654
 1413TIP3    H2 4204   5.905   2.310   0.835  0.3248  0.1097 -1.3217
 1414TIP3   OH2 4205   6.051   4.903   3.030 -0.0712 -0.1872  0.1237
 1414TIP3    H1 4206   5.974   4.872   3.078  0.2400 -1.3219 -0.1055
 1414TIP3    H2 4207   6.098   4.959   3.093  0.0541 -1.2236  0.9686
 1415TIP3   OH2 4208   1.622   4.125   4.107 -0.6750  1.0170 -0.3900
 1415TIP3    H1 4209   1.559   4.196   4.099 -0.9932  0.7794  0.0307
 1415TIP3    H2 4210   1.606   4.087   4.193  0.1065  1.0191 -0.2284
 1416TIP3   OH2 4211   4.496   1.038   4.759 -0.2074  0.4175  0.3370
 1416TIP3    H1 4212   4.584   1.026   4.723  0.5034  0.3864  2.0078
 1416TIP3    H2 4213   4.496   1.127   4.793 -1.0462  0.6281 -0.1888
 1417TIP3   OH2 4214   5.183   5.984   1.288  0.0763 -0.1373 -0.1320
 1417TIP3    H1 4215   5.276   5.998   1.307 -0.0476 -0.7415  0.9688
 1417TIP3    H2 4216   5.178   5.986   1.192  1.2353 -0.1947 -0.2077
 1418TIP3   OH2 4217   6.604   0.458   3.394 -0.0348  0.3147 -0.1293
 1418TIP3    H1 4218   6.588   0.511   3.472 -0.7010 -0.5660  0.3484
 1418TIP3    H2 4219   6.519   0.450   3.353 -0.0682 -0.8887  0.1403
 1419TIP3   OH2 4220   7.072   1.991   3.458  0.3925 -0.1521  0.4628
 1419TIP3    H1 4221   6.992   2.031   3.424 -0.2707 -1.3521  0.5702
 1419TIP3    H2 4222   7.072   2.014   3.551  1.4011  1.8013  0.0359
 1420TIP3   OH2 4223   4.250   3.507   5.611  0.0003  0.2504  0.0508
 1420TIP3    H1 4224   4.328   3.539   5.565 -0.6083 -0.1241 -1.3027
 1420TIP3    H2 4225   4.282   3.476   5.695  1.7327 -2.1529 -1.3789
 1421TIP3   OH2 4226   1.822   2.189   2.904 -0.4824 -0.2752  0.2046
 1421TIP3    H1 4227   1.857   2.133   2.974 -0.7878 -0.1413  0.4698
 1421TIP3    H2 4228   1.896   2.245   2.879  0.0962 -1.4145 -0.7095
 1422TIP3   OH2 4229   2.758   1.368   2.430 -0.4559  0.1924  0.1230
 1422TIP3    H1 4230   2.719   1.391   2.346  0.8798  0.5063 -0.4362
 1422TIP3    H2 4231   2.782   1.452   2.469  0.6869 -0.0353 -0.0660
 1423TIP3   OH2 4232   2.933   6.522   4.160 -0.3479  0.1422 -0.4643
 1423TIP3    H1 4233   2.839   6.540   4.168 -0.1388  0.9562  0.4156
 1423TIP3    H2 4234   2.951   6.532   4.067 -1.7274 -3.2518 -1.2268
 1424TIP3   OH2 4235   6.540   4.827   1.435  0.1156  0.4346 -0.4015
 1424TIP3    H1 4236   6.501   4.888   1.497  2.9682  1.5339  0.4764
 1424TIP3    H2 4237   6.538   4.742   1.480 -0.1449  0.7074  0.1086
 1425TIP3   OH2 4238   4.909   6.613   5.697  0.3977 -0.0662 -0.1030
 1425TIP3    H1 4239   4.899   6.664   5.778 -0.6730 -0.4631  0.0294
 1425TIP3    H2 4240   4.878   6.672   5.628  0.5362 -0.0240 -0.1304
 1426TIP3   OH2 4241   0.369   1.398   0.046 -0.0716  0.7737  0.1628
 1426TIP3    H1 4242   0.304   1.464   0.022 -1.3580 -0.9844 -1.5003
 1426TIP3    H2 4243   0.318   1.318   0.060  1.6398 -0.4296 -0.1532
 1427TIP3   OH2 4244   4.902   1.559   4.152 -0.0278 -0.8258 -0.2736
 1427TIP3    H1 4245   4.864   1.473   4.169  0.4435 -0.5803  2.5614
 1427TIP3    H2 4246   4.877   1.612   4.228 -0.2019  1.5506 -1.8710
 1428TIP3   OH2 4247   6.220   3.334   4.479  0.3732  0.4324  0.1174
 1428TIP3    H1 4248   6.216   3.297   4.391  2.6549  0.7517 -0.1818
 1428TIP3    H2 4249   6.233   3.259   4.537  0.7944  0.3898 -0.0325
 1429TIP3   OH2 4250   4.196   3.026   4.444 -0.0777 -0.2243  0.2990
 1429TIP3    H1 4251   4.179   2.956   4.507  0.8455 -1.3592 -0.6895
 1429TIP3    H2 4252   4.286   3.053   4.462 -0.7246  1.4271  1.3197
 1430TIP3   OH2 4253   6.782   0.111   4.425 -0.0141  0.8869 -0.1300
 1430TIP3    H1 4254   6.686   0.103   4.422 -0.1702  2.6213 -2.6328
 1430TIP3    H2 4255   6.797   0.197   4.464  0.4892  0.9472 -0.4477
 1431TIP3   OH2 4256   6.948   2.515   1.758  0.5919  0.6056  0.1277
 1431TIP3    H1 4257   6.946   2.461   1.837  2.1531 -0.5227 -0.5551
 1431TIP3    H2 4258   6.908   2.461   1.690  3.1673 -0.2529 -0.8238
 1432TIP3   OH2 4259   4.364   4.588   0.152 -0.2030 -0.1468 -0.3371
 1432TIP3    H1 4260   4.435   4.613   0.094  0.2020 -1.5026 -0.4584
 1432TIP3    H2 4261   4.388   4.501   0.185 -1.2264 -0.1254  0.5513
 1433TIP3   OH2 4262   6.535   4.211   3.966 -0.3636  0.6130  0.5053
 1433TIP3    H1 4263   6.522   4.146   3.898 -0.4170  1.9025 -0.7566
 1433TIP3    H2 4264   6.459   4.200   4.024 -0.1563 -0.6984  0.5497
 1434TIP3   OH2 4265   3.988   5.093   2.239 -0.7522 -0.1601  0.2688
 1434TIP3    H1 4266   4.025   5.117   2.154  0.4484  1.2422  1.1399
 1434TIP3    H2 4267   3.897   5.071   2.220 -0.3793 -0.3262 -1.4399
 1435TIP3   OH2 4268   1.196   0.760   1.746  0.9444 -0.1228  0.0909
 1435TIP3    H1 4269   1.146   0.710   1.811 -0.6168 -0.6525 -1.4597
 1435TIP3    H2 4270   1.242   0.826   1.797 -0.2232 -0.5290  1.7439
 1436TIP3   OH2 4271   0.743   5.591   4.007  0.1411  0.0527 -0.5830
 1436TIP3    H1 4272   0.757   5.502   3.975  0.1548  0.3346 -1.3693
 1436TIP3    H2 4273   0.812   5.643   3.966 -0.2643  0.5494 -0.6507
 1437TIP3   OH2 4274   0.631   4.396   3.600  0.2405 -0.2913  0.2981
 1437TIP3    H1 4275   0.650   4.418   3.509  1.7820 -1.2265  0.3530
 1437TIP3    H2 4276   0.639   4.301   3.604  0.5867 -0.2318  1.4834
 1438TIP3   OH2 4277   0.944   1.118   5.025  0.1704  0.2615  0.1806
 1438TIP3    H1 4278   0.854   1.090   5.042  0.2779  0.9144  2.0389
 1438TIP3    H2 4279   0.935   1.203   4.983 -0.0771 -0.8224 -2.1470
 1439TIP3   OH2 4280   4.704   0.805   0.908  0.2429 -0.4058  0.5151
 1439TIP3    H1 4281   4.691   0.841   0.996  0.4259  1.3824 -0.1696
 1439TIP3    H2 4282   4.676   0.874   0.849 -0.0125 -1.6421 -0.8672
 1440TIP3   OH2 4283   4.666   4.270   2.358  0.4248  0.1493  0.1358
 1440TIP3    H1 4284   4.737   4.329   2.334  1.0933 -0.1401  1.3648
 1440TIP3    H2 4285   4.650   4.287   2.450 -2.5352  1.6887 -0.5235
 1441TIP3   OH2 4286   1.709   2.251   0.391  0.0025  0.3458  0.0060
 1441TIP3    H1 4287   1.647   2.212   0.329 -1.1712  2.4841 -0.2683
 1441TIP3    H2 4288   1.792   2.206   0.374 -1.3591 -2.4688  0.2367
 1442TIP3   OH2 4289   4.848   5.231   3.513 -0.1649 -0.0630  0.1728
 1442TIP3    H1 4290   4.864   5.318   3.548 -1.2301  0.3635 -0.3881
 1442TIP3    H2 4291   4.934   5.187   3.518  0.3876  1.0211  0.4007
 1443TIP3   OH2 4292   4.282   2.019   5.434  0.4961  1.1572 -0.3661
 1443TIP3    H1 4293   4.337   1.967   5.492  0.4288  0.4854 -0.8962
 1443TIP3    H2 4294   4.334   2.031   5.355  2.0748  5.0761  1.0277
 1444TIP3   OH2 4295   6.329   1.335   2.832  0.6770  0.5966 -0.0708
 1444TIP3    H1 4296   6.297   1.388   2.905  0.3636  1.7403 -1.0032
 1444TIP3    H2 4297   6.408   1.293   2.866  2.0320  3.1412  0.1904
 1445TIP3   OH2 4298   4.955   3.802   3.015 -0.2998  0.1900  0.2894
 1445TIP3    H1 4299   5.036   3.757   2.991 -1.6914 -1.6081 -1.4199
 1445TIP3    H2 4300   4.929   3.762   3.098 -1.0366 -1.6711 -0.7589
 1446TIP3   OH2 4301   2.810   3.806   0.048 -0.2089 -0.1973  0.3659
 1446TIP3    H1 4302   2.792   3.865  -0.026  0.6756 -0.3491  0.0125
 1446TIP3    H2 4303   2.878   3.747   0.015 -0.7672 -1.1421  0.8602
 1447TIP3   OH2 4304   4.191   0.754   0.153 -0.3231 -0.2284 -0.3307
 1447TIP3    H1 4305   4.263   0.771   0.092 -0.0729 -1.9154 -0.5494
 1447TIP3    H2 4306   4.203   0.818   0.224  1.8003 -0.9234 -0.0131
 1448TIP3   OH2 4307   6.561   1.942   0.007  0.2704  0.4111 -0.3237
 1448TIP3    H1 4308   6.469   1.954  -0.017  0.0886  0.7718  0.5305
 1448TIP3    H2 4309   6.573   1.997   0.084  0.4024 -2.0080  1.4826
 1449TIP3   OH2 4310   1.153   2.027   1.305 -0.3005 -0.3105 -0.2990
 1449TIP3    H1 4311   1.216   2.070   1.247 -1.5049  0.1273 -1.3120
 1449TIP3    H2 4312   1.067   2.053   1.273 -1.0713 -2.2945 -0.0406
 1450TIP3   OH2 4313   4.254   4.211   3.637 -0.4240 -0.2152  0.1323
 1450TIP3    H1 4314   4.302   4.130   3.652  0.7920  0.4311 -0.1315
 1450TIP3    H2 4315   4.218   4.234   3.723 -2.3050 -1.9241 -0.1228
 1451TIP3   OH2 4316   6.495   4.250   5.188 -0.7519  1.1834  0.1319
 1451TIP3    H1 4317   6.565   4.238   5.124  0.5378  1.0132  1.5312
 1451TIP3    H2 4318   6.473   4.161   5.217 -2.0274  1.1813 -0.7598
 1452TIP3   OH2 4319   2.395   5.042   3.312  0.2423  0.1125  0.6828
 1452TIP3    H1 4320   2.453   5.069   3.384  0.5253 -0.5882  0.7255
 1452TIP3    H2 4321   2.441   5.071   3.233 -0.6077  1.9117  0.8004
 1453TIP3   OH2 4322   0.445   5.785   2.161 -0.0511  0.1345 -0.6776
 1453TIP3    H1 4323   0.530   5.823   2.181 -0.2060  0.5994 -0.8835
 1453TIP3    H2 4324   0.393   5.800   2.240 -0.1443  0.4485 -0.7979
 1454TIP3   OH2 4325   4.330   1.611   5.481  0.0260 -0.0218  0.1122
 1454TIP3    H1 4326   4.261   1.654   5.430 -0.1443  0.1422  0.4704
 1454TIP3    H2 4327   4.368   1.681   5.534 -0.3109 -0.3173  0.7660
 1455TIP3   OH2 4328   6.034   6.650   3.293 -0.4325  0.1043  0.1847
 1455TIP3    H1 4329   6.055   6.658   3.200  0.3064 -0.2314  0.3128
 1455TIP3    H2 4330   5.946   6.613   3.295  0.2013 -1.5143 -0.3934
 1456TIP3   OH2 4331   6.462   0.585   4.136 -0.7152  0.3592 -0.3394
 1456TIP3    H1 4332   6.428   0.673   4.151 -1.7244  0.0969 -1.0506
 1456TIP3    H2 4333   6.437   0.564   4.047 -1.1827 -0.9626  0.0841
 1457TIP3   OH2 4334   0.600   2.092   3.732  0.5001 -0.1370 -0.3725
 1457TIP3    H1 4335   0.566   2.027   3.794 -0.3397 -0.2559 -0.9422
 1457TIP3    H2 4336   0.610   2.171   3.785  3.5149 -1.1649  0.8641
 1458TIP3   OH2 4337   4.406   6.008   1.650 -0.1093 -1.1439  0.0038
 1458TIP3    H1 4338   4.482   5.969   1.694 -0.4552  0.1084  1.8039
 1458TIP3    H2 4339   4.428   6.101   1.642 -0.8026 -1.0434 -0.9408
 1459TIP3   OH2 4340   0.617   1.908   3.271  0.1732 -0.8034  0.5434
 1459TIP3    H1 4341   0.568   1.844   3.221  0.5850  1.3125 -2.9090
 1459TIP3    H2 4342   0.551   1.960   3.316 -0.5097 -0.5449 -0.7301
 1460TIP3   OH2 4343   5.712   0.877   4.857  0.1426 -0.0546  0.0281
 1460TIP3    H1 4344   5.701   0.785   4.834  0.9971 -0.6765  1.9133
 1460TIP3    H2 4345   5.777   0.877   4.926  0.0048  1.9657  0.2219
 1461TIP3   OH2 4346   0.831   3.913   1.097 -0.1547 -0.0896 -0.1568
 1461TIP3    H1 4347   0.896   3.975   1.065 -0.9651 -0.3617 -2.6139
 1461TIP3    H2 4348   0.748   3.943   1.059 -0.6502 -2.3377 -1.0504
 1462TIP3   OH2 4349   0.142   6.522   0.768  0.1749 -0.1287  0.8497
 1462TIP3    H1 4350   0.198   6.488   0.838 -0.5393 -2.1749  0.4758
 1462TIP3    H2 4351   0.053   6.502   0.797 -0.1291 -1.1145 -0.6700
 1463TIP3   OH2 4352   4.643   6.589   3.400 -0.4250  0.3883 -0.1824
 1463TIP3    H1 4353   4.712   6.589   3.333  1.1857  0.5589  1.3944
 1463TIP3    H2 4354   4.568   6.630   3.357  0.3822  0.0292 -2.0299
 1464TIP3   OH2 4355   2.374   1.292   1.132  0.2632 -0.1401 -0.0922
 1464TIP3    H1 4356   2.380   1.354   1.060  1.3240 -0.3702 -0.2233
 1464TIP3    H2 4357   2.281   1.291   1.156  0.0056  0.4158 -1.0253
 1465TIP3   OH2 4358   3.737   2.107   1.603  0.2279  0.2364  0.4278
 1465TIP3    H1 4359   3.718   2.027   1.554 -0.3212  0.1967  0.6974
 1465TIP3    H2 4360   3.772   2.076   1.687  1.0152  0.3011  0.1285
 1466TIP3   OH2 4361   6.588   4.791   1.785  0.2292  0.6918  0.7441
 1466TIP3    H1 4362   6.576   4.812   1.878  2.5934 -0.5440  1.4280
 1466TIP3    H2 4363   6.677   4.820   1.766 -0.1309  0.6775 -1.0969
 1467TIP3   OH2 4364   7.007   2.029   1.233 -0.3654 -0.1083  0.1644
 1467TIP3    H1 4365   7.047   2.057   1.151  0.1577 -0.5148  0.2721
 1467TIP3    H2 4366   7.049   1.945   1.253 -1.5337 -0.7227  0.1013
 1468TIP3   OH2 4367   1.626   4.419   4.923  0.3575  0.2880  0.1309
 1468TIP3    H1 4368   1.600   4.504   4.957  1.5994  0.5941  0.3623
 1468TIP3    H2 4369   1.544   4.374   4.905 -0.3348  1.8626 -0.8505
 1469TIP3   OH2 4370   5.960   6.102   1.157  0.2188  0.5462  0.2333
 1469TIP3    H1 4371   6.024   6.033   1.177  0.4382  0.6126 -0.2221
 1469TIP3    H2 4372   5.982   6.130   1.068  1.4180  2.5754  1.0970
 1470TIP3   OH2 4373   5.940   2.039   5.256  0.2438  0.1755 -0.1128
 1470TIP3    H1 4374   5.859   2.007   5.216  0.0812 -0.4885  0.7256
 1470TIP3    H2 4375   6.008   1.985   5.216  0.2229  0.3737 -0.4237
 1471TIP3   OH2 4376   6.597   3.268   5.657 -0.3804 -0.1741  0.4724
 1471TIP3    H1 4377   6.549   3.351   5.658  1.1801  0.7849  0.7702
 1471TIP3    H2 4378   6.651   3.273   5.578 -1.0164 -1.3780 -0.0552
 1472TIP3   OH2 4379   4.534   1.071   4.301  0.2992 -0.3500 -0.3153
 1472TIP3    H1 4380   4.521   1.121   4.381  0.0389 -0.0441 -0.5481
 1472TIP3    H2 4381   4.627   1.082   4.281 -0.0549  1.3174 -1.1979
 1473TIP3   OH2 4382   3.019   1.010   2.391  0.8128  0.0033 -0.0280
 1473TIP3    H1 4383   3.030   1.104   2.403 -1.4269  0.3782 -0.3710
 1473TIP3    H2 4384   2.925   0.996   2.405  1.3197 -2.4064  1.4052
 1474TIP3   OH2 4385   3.167   2.191   0.379 -0.1650 -0.8632  0.2359
 1474TIP3    H1 4386   3.183   2.228   0.466 -3.4365 -2.4643  1.6912
 1474TIP3    H2 4387   3.241   2.131   0.366  1.2698  0.6085  1.0938
 1475TIP3   OH2 4388   2.287   1.559   1.897  0.0074 -0.5811 -0.1334
 1475TIP3    H1 4389   2.284   1.548   1.992 -0.0253  1.4648  0.1455
 1475TIP3    H2 4390   2.344   1.635   1.883  0.4598 -1.1709 -1.7907
 1476TIP3   OH2 4391   0.052   1.439   0.114  0.2665  0.4714 -0.3876
 1476TIP3    H1 4392   0.066   1.533   0.130 -0.3733  0.5080 -0.0035
 1476TIP3    H2 4393   0.017   1.435   0.025 -1.7775  0.8079  0.3627
 1477TIP3   OH2 4394   2.598   1.493   5.821  0.5610  0.5609 -0.6509
 1477TIP3    H1 4395   2.522   1.478   5.764  0.3754 -0.2029 -0.2145
 1477TIP3    H2 4396   2.563   1.544   5.894  0.1771 -0.8024  0.1583
 1478TIP3   OH2 4397   0.210   3.479   5.461  0.6948 -0.0898  0.2236
 1478TIP3    H1 4398   0.214   3.501   5.554  1.2956 -1.6161  0.5852
 1478TIP3    H2 4399   0.187   3.561   5.418 -0.7507  0.3910  1.8141
 1479TIP3   OH2 4400   1.670   1.083   2.056  0.1103 -0.4293  0.3883
 1479TIP3    H1 4401   1.742   1.094   2.118  0.8388 -2.2380 -0.0664
 1479TIP3    H2 4402   1.706   1.114   1.972  0.2390 -0.9839  0.2362
 1480TIP3   OH2 4403   6.206   3.217   4.839  0.0114  0.6445 -0.5704
 1480TIP3    H1 4404   6.180   3.128   4.864  1.4663  0.1361 -0.7913
 1480TIP3    H2 4405   6.143   3.242   4.772 -1.7173  0.6195  0.9804
 1481TIP3   OH2 4406   4.601   2.772   3.093  0.0411  0.1321  1.0691
 1481TIP3    H1 4407   4.567   2.774   3.182 -1.6935 -2.4845  0.5814
 1481TIP3    H2 4408   4.523   2.775   3.037  1.0882  1.9205 -0.4467
 1482TIP3   OH2 4409   4.037   5.607   3.685  0.0173  0.0320  0.2253
 1482TIP3    H1 4410   4.038   5.518   3.719 -0.6744  0.2718  0.9185
 1482TIP3    H2 4411   4.129   5.629   3.671  0.2855 -0.2746  1.4424
 1483TIP3   OH2 4412   0.483   3.802   0.283 -0.6723 -0.2788 -0.0531
 1483TIP3    H1 4413   0.502   3.719   0.239  0.6056 -0.8029  1.3861
 1483TIP3    H2 4414   0.409   3.782   0.341  0.0424 -0.6365  0.7724
 1484TIP3   OH2 4415   0.849   0.091   0.852  0.2543  0.0930 -0.1952
 1484TIP3    H1 4416   0.806   0.027   0.795  1.4408 -0.3550 -0.6249
 1484TIP3    H2 4417   0.899   0.038   0.914 -0.0521  0.5952  0.4948
 1485TIP3   OH2 4418   3.985   0.582   0.287 -0.2597 -0.4285 -0.2928
 1485TIP3    H1 4419   4.060   0.613   0.237 -0.6490 -0.7313 -1.0831
 1485TIP3    H2 4420   3.954   0.505   0.238 -0.7368 -0.6434  0.3347
 1486TIP3   OH2 4421   3.839   5.822   2.236  0.2216 -0.2310  0.0295
 1486TIP3    H1 4422   3.881   5.743   2.200  1.5126  1.2479 -1.9228
 1486TIP3    H2 4423   3.893   5.845   2.311  0.4038 -0.6690  0.0392
 1487TIP3   OH2 4424   6.838   3.943   3.573 -0.0421  0.0837  0.1638
 1487TIP3    H1 4425   6.787   3.862   3.581  0.3911 -0.1120  1.1900
 1487TIP3    H2 4426   6.778   4.005   3.533 -0.8166 -0.3840  0.5599
 1488TIP3   OH2 4427   5.694   4.901   1.736  0.6412  0.6723  0.0556
 1488TIP3    H1 4428   5.773   4.952   1.714  0.7122  0.6511  0.2598
 1488TIP3    H2 4429   5.728   4.817   1.765  0.4924  0.1776 -1.1532
 1489TIP3   OH2 4430   3.865   2.237   2.946  0.7537 -0.1517 -0.0461
 1489TIP3    H1 4431   3.888   2.271   2.860 -1.5122  1.0630 -0.2616
 1489TIP3    H2 4432   3.805   2.165   2.928  0.2339  0.1362  0.5023
 1490TIP3   OH2 4433   1.690   0.064   3.942  0.4313 -0.6759 -0.5344
 1490TIP3    H1 4434   1.744   0.081   4.019 -0.0163 -1.7162  0.0337
 1490TIP3    H2 4435   1.733   0.113   3.872 -0.4849  2.2297  0.8003
 1491TIP3   OH2 4436   0.646   5.862   5.436 -0.0556 -0.4560 -0.2322
 1491TIP3    H1 4437   0.596   5.795   5.483  1.4357 -2.5459 -1.4725
 1491TIP3    H2 4438   0.597   5.877   5.355 -0.7406  0.5037  0.3373
 1492TIP3   OH2 4439   3.601   4.493   4.615  0.3521 -0.0196  0.1492
 1492TIP3    H1 4440   3.553   4.567   4.576  0.0113 -0.1677  0.2869
 1492TIP3    H2 4441   3.649   4.455   4.542 -1.2165 -1.0361 -0.4050
 1493TIP3   OH2 4442   6.402   4.510   4.863 -0.1993 -0.9531 -0.0426
 1493TIP3    H1 4443   6.481   4.490   4.812  0.9790  1.5199  0.6498
 1493TIP3    H2 4444   6.400   4.606   4.867 -1.5931 -1.0052  2.4885
 1494TIP3   OH2 4445   2.678   6.186   4.973 -0.3649  0.8648  0.0041
 1494TIP3    H1 4446   2.706   6.241   5.046 -0.4865  0.6781  0.1935
 1494TIP3    H2 4447   2.636   6.110   5.014 -1.7560  1.4529 -0.2746
 1495TIP3   OH2 4448   3.401   5.079   3.511  0.7856 -0.1570  0.3760
 1495TIP3    H1 4449   3.463   5.030   3.457  0.5727  0.5936 -0.5639
 1495TIP3    H2 4450   3.331   5.105   3.451 -0.9032 -1.6848  1.5697
 1496TIP3   OH2 4451   4.750   0.909   3.064 -0.0223  0.4331  0.2107
 1496TIP3    H1 4452   4.682   0.894   3.130 -1.2835 -1.8551 -1.4745
 1496TIP3    H2 4453   4.705   0.953   2.992  0.1067 -1.3967 -1.0634
 1497TIP3   OH2 4454   6.495   5.627   2.409 -0.8419 -0.0840 -0.2275
 1497TIP3    H1 4455   6.576   5.576   2.416 -0.8354 -0.0322  0.1014
 1497TIP3    H2 4456   6.428   5.572   2.450 -0.6813  0.4961  0.8611
 1498TIP3   OH2 4457   2.539   0.869   4.587 -0.0934  0.6242 -0.9581
 1498TIP3    H1 4458   2.562   0.928   4.658  0.8627 -0.1625 -0.5954
 1498TIP3    H2 4459   2.479   0.806   4.626  1.3448 -0.5273 -0.4828
 1499TIP3   OH2 4460   0.223   5.305   5.466 -0.1983 -0.1492  0.4443
 1499TIP3    H1 4461   0.262   5.218   5.460  1.3515  0.6121 -1.4252
 1499TIP3    H2 4462   0.155   5.296   5.533  2.5188 -1.7944  3.2640
 1500TIP3   OH2 4463   1.717   6.100   4.533  0.0623 -0.2130  0.3475
 1500TIP3    H1 4464   1.776   6.093   4.609  1.0650  0.3665 -0.3503
 1500TIP3    H2 4465   1.735   6.022   4.481  2.1555  1.1539 -1.1574
 1501TIP3   OH2 4466   3.486   3.416   4.539 -0.5454  0.2501 -0.5656
 1501TIP3    H1 4467   3.456   3.454   4.622  1.3942 -0.2054  0.4120
 1501TIP3    H2 4468   3.500   3.491   4.482 -1.2069  0.6294 -0.2421
 1502TIP3   OH2 4469   3.676   2.750   4.064  0.0788 -0.2517  0.2270
 1502TIP3    H1 4470   3.598   2.750   4.009 -0.2762  0.3527  0.7108
 1502TIP3    H2 4471   3.698   2.658   4.075 -1.4642 -0.5268  1.3174
 1503TIP3   OH2 4472   5.543   6.372   3.927 -0.5479 -0.0623  0.7532
 1503TIP3    H1 4473   5.620   6.352   3.980 -0.7377 -1.3733  0.5651
 1503TIP3    H2 4474   5.510   6.287   3.899 -1.1550  0.5434 -0.4749
 1504TIP3   OH2 4475   2.993   4.480   1.037 -0.0255  0.3755  0.5321
 1504TIP3    H1 4476   2.923   4.454   0.977 -0.5501 -1.2102  1.7581
 1504TIP3    H2 4477   2.948   4.531   1.104  0.3862  1.2531  0.1490
 1505TIP3   OH2 4478   2.533   6.070   5.699 -0.1068  0.0843  0.1697
 1505TIP3    H1 4479   2.538   6.080   5.794 -0.0927  0.1735  0.1594
 1505TIP3    H2 4480   2.452   6.113   5.674  0.7625  1.6439 -0.0722
 1506TIP3   OH2 4481   5.440   1.442   1.502 -0.3018  0.1559  0.3233
 1506TIP3    H1 4482   5.357   1.433   1.551 -0.0428  0.5209  0.8411
 1506TIP3    H2 4483   5.487   1.511   1.548  0.0077  0.4154 -0.3827
 1507TIP3   OH2 4484   0.927   4.738   0.418  0.1944  0.1813 -0.3837
 1507TIP3    H1 4485   0.904   4.741   0.511 -0.9811  2.8514 -0.6778
 1507TIP3    H2 4486   0.893   4.654   0.388 -1.7170  0.3565  1.0646
 1508TIP3   OH2 4487   4.785   1.202   2.755 -0.0612 -0.7547  0.3811
 1508TIP3    H1 4488   4.825   1.117   2.736 -0.4470 -0.5744 -1.5195
 1508TIP3    H2 4489   4.691   1.185   2.755 -0.0961 -0.6194  1.7041
 1509TIP3   OH2 4490   5.166   5.497   5.734 -0.2090 -0.9356 -0.2963
 1509TIP3    H1 4491   5.163   5.580   5.782  2.1464 -1.2891  0.6158
 1509TIP3    H2 4492   5.077   5.483   5.703 -1.2600  0.5769  1.8516
 1510TIP3   OH2 4493   1.512   5.560   2.611 -0.2722  0.1071  0.0828
 1510TIP3    H1 4494   1.431   5.513   2.589 -0.9037  1.4365 -0.5742
 1510TIP3    H2 4495   1.482   5.644   2.647  0.8022  0.9719 -0.9605
 1511TIP3   OH2 4496   1.986   0.841   2.890  0.1138  0.0074 -0.3463
 1511TIP3    H1 4497   1.984   0.751   2.922  0.6378 -0.2610 -1.0576
 1511TIP3    H2 4498   1.904   0.879   2.922  0.4406 -0.3535  1.0032
 1512TIP3   OH2 4499   3.430   0.736   4.640  0.2166  0.2303  0.2516
 1512TIP3    H1 4500   3.372   0.793   4.691 -0.2530  0.4731 -0.5473
 1512TIP3    H2 4501   3.483   0.795   4.587 -0.1899 -0.0661 -0.4961
 1513TIP3   OH2 4502   0.249   5.157   1.096  0.6470  0.3060 -0.1458
 1513TIP3    H1 4503   0.192   5.082   1.080  0.6012  0.0961  0.9433
 1513TIP3    H2 4504   0.230   5.217   1.023  0.6315 -0.6931 -0.9735
 1514TIP3   OH2 4505   2.664   4.358   5.170 -0.2113  0.5658  0.7038
 1514TIP3    H1 4506   2.706   4.441   5.191 -0.5423  0.4925  1.7305
 1514TIP3    H2 4507   2.678   4.304   5.248 -0.7362 -0.0419  0.3876
 1515TIP3   OH2 4508   4.641   4.982   0.419 -0.0230 -0.7686 -0.3265
 1515TIP3    H1 4509   4.729   5.016   0.404  0.2879 -0.7616  1.3301
 1515TIP3    H2 4510   4.619   4.938   0.337  0.3005  1.7305 -1.8803
 1516TIP3   OH2 4511   6.209   4.608   2.181  0.3754  0.3364 -0.1447
 1516TIP3    H1 4512   6.288   4.661   2.176 -0.2874  1.3942  0.3305
 1516TIP3    H2 4513   6.168   4.618   2.095  0.1880  0.7097 -0.0149
 1517TIP3   OH2 4514   5.796   6.474   3.302  0.3914  0.6376  0.4210
 1517TIP3    H1 4515   5.714   6.450   3.259 -0.4739  0.6892  1.9832
 1517TIP3    H2 4516   5.852   6.396   3.292 -0.9242 -0.5556  1.8837
 1518TIP3   OH2 4517   5.796   4.908   2.375 -0.0883 -0.9093 -0.2258
 1518TIP3    H1 4518   5.885   4.901   2.340 -0.0531  1.2540 -0.7259
 1518TIP3    H2 4519   5.801   4.868   2.462  1.4588 -0.5680 -0.1312
 1519TIP3   OH2 4520   0.029   0.574   1.934  0.4092  0.1887  0.3009
 1519TIP3    H1 4521   0.090   0.589   2.006 -0.6912  1.1559  1.0588
 1519TIP3    H2 4522  -0.047   0.531   1.975  1.5437 -3.5125 -1.0380
 1520TIP3   OH2 4523   2.875   1.855   2.304  0.1075 -0.0404 -0.3169
 1520TIP3    H1 4524   2.901   1.826   2.392  1.4195  0.2393 -0.5944
 1520TIP3    H2 4525   2.798   1.801   2.283 -0.3572  0.0412  1.0753
 1521TIP3   OH2 4526   1.155   0.746   4.279  0.1027 -0.8589 -0.6571
 1521TIP3    H1 4527   1.094   0.682   4.316  0.4187  0.6747  2.8900
 1521TIP3    H2 4528   1.102   0.824   4.265  0.6758 -0.4230 -0.3984
 1522TIP3   OH2 4529   0.807   6.615   4.612  0.5135  0.2650 -0.1656
 1522TIP3    H1 4530   0.724   6.584   4.576  0.2807 -0.1818  0.7360
 1522TIP3    H2 4531   0.801   6.710   4.605 -0.7048  0.3136  1.2245
 1523TIP3   OH2 4532   2.074   3.524   0.878  0.0924  0.1389  0.4615
 1523TIP3    H1 4533   2.070   3.620   0.879  1.0088  0.2217 -1.0298
 1523TIP3    H2 4534   2.090   3.501   0.787  1.4120 -1.3699  1.0152
 1524TIP3   OH2 4535   3.466   2.430   1.281  0.3128  0.2730  0.2953
 1524TIP3    H1 4536   3.407   2.475   1.220  0.9054  0.5763 -0.0582
 1524TIP3    H2 4537   3.446   2.469   1.367 -1.0827 -0.7097  0.4503
 1525TIP3   OH2 4538   2.892   0.266   3.753  0.5524 -0.1303 -0.0418
 1525TIP3    H1 4539   2.893   0.186   3.700 -0.0652 -0.2873  0.1683
 1525TIP3    H2 4540   2.976   0.308   3.736  0.4225 -0.2582 -1.0270
 1526TIP3   OH2 4541   0.377   3.166   0.419 -0.2075  0.2631  0.2426
 1526TIP3    H1 4542   0.429   3.094   0.382  0.7450  0.0296  1.9491
 1526TIP3    H2 4543   0.287   3.133   0.419 -0.2729  0.2757 -1.7758
 1527TIP3   OH2 4544   6.882   5.158   3.844 -0.6045  0.2446  0.6780
 1527TIP3    H1 4545   6.879   5.253   3.836 -0.9603  0.1460 -0.6246
 1527TIP3    H2 4546   6.841   5.139   3.928 -2.6806  1.1142 -0.0816
 1528TIP3   OH2 4547   4.819   0.210   4.124 -0.8424 -0.0385 -0.4170
 1528TIP3    H1 4548   4.884   0.252   4.180 -0.4731 -0.2971 -0.6509
 1528TIP3    H2 4549   4.774   0.147   4.181 -0.1411 -0.6463 -0.5306
 1529TIP3   OH2 4550   5.031   3.066   0.858  0.0592  0.2249 -0.2626
 1529TIP3    H1 4551   5.002   3.088   0.947  0.2442 -1.0156  0.1275
 1529TIP3    H2 4552   5.107   3.122   0.843  0.7255 -0.3421  0.8319
 1530TIP3   OH2 4553   5.534   3.180   5.212 -0.5884 -0.9811 -0.2046
 1530TIP3    H1 4554   5.553   3.122   5.138  1.1993 -1.6526  0.7078
 1530TIP3    H2 4555   5.471   3.244   5.178  0.1318 -1.3044 -2.2625
 1531TIP3   OH2 4556   4.056   1.713   1.474  0.0989 -0.1987 -0.1251
 1531TIP3    H1 4557   4.038   1.766   1.552  0.7605  1.1980 -0.8871
 1531TIP3    H2 4558   4.004   1.634   1.486  2.0734 -1.2272  2.9683
 1532TIP3   OH2 4559   6.902   0.713   0.643 -0.2150 -0.0030  0.0067
 1532TIP3    H1 4560   6.828   0.663   0.676 -1.0747  0.8565 -0.5770
 1532TIP3    H2 4561   6.870   0.803   0.638  0.3503  0.1382 -1.7547
 1533TIP3   OH2 4562   7.147   1.256   5.234  0.0585  0.1463  0.2528
 1533TIP3    H1 4563   7.188   1.170   5.243  0.9123  0.6134  1.0344
 1533TIP3    H2 4564   7.211   1.308   5.184  0.1265  0.6826  0.8811
 1534TIP3   OH2 4565   5.149   0.027   0.223 -0.6446 -0.5143  0.4177
 1534TIP3    H1 4566   5.153  -0.046   0.285 -1.5044 -0.2217  0.8216
 1534TIP3    H2 4567   5.063   0.066   0.236 -0.0740  0.7838  0.4319
 1535TIP3   OH2 4568   1.635   6.548   1.604  0.0085  0.1191 -0.0573
 1535TIP3    H1 4569   1.631   6.454   1.589 -1.4761  0.3083 -1.0541
 1535TIP3    H2 4570   1.618   6.559   1.697 -0.5395 -0.5629 -0.0757
 1536TIP3   OH2 4571   5.269   6.443   0.207 -0.3975  0.5238  0.4596
 1536TIP3    H1 4572   5.290   6.405   0.121 -2.4076  1.7069 -0.6154
 1536TIP3    H2 4573   5.249   6.367   0.262  2.5737 -0.3848  0.4702
 1537TIP3   OH2 4574   5.162   1.108   0.802  0.2642  0.4153 -0.3621
 1537TIP3    H1 4575   5.082   1.149   0.836  0.3892 -0.1636  0.6794
 1537TIP3    H2 4576   5.230   1.134   0.864  1.1156  1.6801 -1.7406
 1538TIP3   OH2 4577   1.353   5.226   2.114 -0.5178  0.2026 -0.0688
 1538TIP3    H1 4578   1.291   5.154   2.102 -1.9386  0.9335  2.3010
 1538TIP3    H2 4579   1.437   5.183   2.128 -1.1244 -0.9516  0.1633
 1539TIP3   OH2 4580   6.401   1.685   5.517  0.0787 -0.2221  0.2794
 1539TIP3    H1 4581   6.376   1.661   5.428  0.2112  1.2036 -0.1679
 1539TIP3    H2 4582   6.352   1.624   5.572 -0.0840 -1.0639 -0.7512
 1540TIP3   OH2 4583   3.170   4.453   4.425  0.1501 -0.0328 -0.2349
 1540TIP3    H1 4584   3.149   4.507   4.502 -1.6961 -0.3124 -0.5101
 1540TIP3    H2 4585   3.227   4.508   4.372  1.0468  0.3583  1.0696
 1541TIP3   OH2 4586   0.252   1.730   2.456  0.3818  0.1961 -0.4368
 1541TIP3    H1 4587   0.198   1.809   2.451 -1.1199 -0.7404  0.1404
 1541TIP3    H2 4588   0.296   1.726   2.371 -0.4077  1.0337 -0.9077
 1542TIP3   OH2 4589   3.689   1.405   5.282 -0.0625  0.6810 -0.0438
 1542TIP3    H1 4590   3.730   1.472   5.337 -0.7442  1.4633 -0.4524
 1542TIP3    H2 4591   3.600   1.438   5.268 -0.5741 -0.5561  0.1395
 1543TIP3   OH2 4592   5.548   6.108   4.423  0.3755  0.2043  0.0103
 1543TIP3    H1 4593   5.602   6.181   4.395  0.3243  0.4087  0.4352
 1543TIP3    H2 4594   5.571   6.095   4.516  1.4098 -1.2160 -0.4090
 1544TIP3   OH2 4595   5.636   6.308   4.757 -0.5554 -0.1812 -0.0159
 1544TIP3    H1 4596   5.724   6.336   4.728 -0.1935 -0.2196  0.9947
 1544TIP3    H2 4597   5.651   6.224   4.799 -1.4327 -1.2627 -1.7462
 1545TIP3   OH2 4598   6.200   0.573   0.784  0.4532 -0.0165 -0.5917
 1545TIP3    H1 4599   6.223   0.544   0.696  2.4983  0.4014 -0.2406
 1545TIP3    H2 4600   6.279   0.557   0.836  0.4770  2.8360  0.4144
 1546TIP3   OH2 4601   0.678   2.376   1.173 -0.3921 -0.3904  0.4038
 1546TIP3    H1 4602   0.627   2.425   1.108  0.3051 -0.9825 -0.6352
 1546TIP3    H2 4603   0.637   2.290   1.176 -0.1403 -0.5112  0.4037
 1547TIP3   OH2 4604   0.909   0.999   0.213  0.2119  0.1668  0.6290
 1547TIP3    H1 4605   0.941   1.089   0.216 -0.6057  0.4712  0.6583
 1547TIP3    H2 4606   0.881   0.980   0.302  1.9026 -0.7140  1.0007
 1548TIP3   OH2 4607   6.368   4.730   5.661  0.3846 -0.4209  0.2125
 1548TIP3    H1 4608   6.329   4.719   5.574 -0.3930 -0.4494  0.5606
 1548TIP3    H2 4609   6.460   4.749   5.643 -0.0898  1.1863 -0.6850
 1549TIP3   OH2 4610   4.497   4.275   4.978  0.2185 -0.5653 -0.3337
 1549TIP3    H1 4611   4.530   4.338   5.041 -0.4248  0.6076 -1.1288
 1549TIP3    H2 4612   4.405   4.263   5.002 -0.2090  0.3775 -1.3815
 1550TIP3   OH2 4613   0.078   6.235   3.590  0.1016 -0.0070  0.1259
 1550TIP3    H1 4614   0.024   6.158   3.606  1.0565 -0.7031  0.0361
 1550TIP3    H2 4615   0.025   6.289   3.530 -1.1311  0.0517  1.2155
 1551TIP3   OH2 4616   6.097   2.965   4.106 -0.4129  0.0111  0.1083
 1551TIP3    H1 4617   6.020   2.919   4.073  1.2573 -2.0074 -1.2269
 1551TIP3    H2 4618   6.062   3.046   4.143 -3.0679 -0.3728 -1.2882
 1552TIP3   OH2 4619   5.932   2.613   5.735  0.4927 -0.7305  0.1070
 1552TIP3    H1 4620   5.907   2.705   5.724  1.1366 -0.6585 -0.8859
 1552TIP3    H2 4621   6.028   2.614   5.735  0.5070 -1.3658  0.5011
 1553TIP3   OH2 4622   6.269   5.516   2.499  0.7534  0.2883 -0.6519
 1553TIP3    H1 4623   6.220   5.558   2.429 -1.2294  1.3778  1.2785
 1553TIP3    H2 4624   6.241   5.561   2.579  3.0803 -0.7339  0.8515
 1554TIP3   OH2 4625   1.087   2.763   3.701 -0.1704  0.4363  0.1789
 1554TIP3    H1 4626   1.180   2.765   3.680 -0.7933  1.3325 -3.0660
 1554TIP3    H2 4627   1.058   2.676   3.673 -0.2283 -0.1249  1.8759
 1555TIP3   OH2 4628   5.596   2.671   3.289 -0.0371  0.0111  0.8612
 1555TIP3    H1 4629   5.549   2.602   3.243  1.4375 -0.5168  0.0827
 1555TIP3    H2 4630   5.536   2.745   3.290 -0.1142  0.0955 -2.0528
 1556TIP3   OH2 4631   5.668   2.768   1.559  0.8496 -0.4844 -0.1206
 1556TIP3    H1 4632   5.690   2.853   1.522  0.6308  0.7443  2.3509
 1556TIP3    H2 4633   5.596   2.786   1.619 -0.3324 -2.7307 -0.7591
 1557TIP3   OH2 4634   0.997   4.796   4.515  0.4220  0.6658  0.1110
 1557TIP3    H1 4635   0.939   4.772   4.588  1.3713 -0.1122  0.6424
 1557TIP3    H2 4636   1.011   4.890   4.525  0.5803  0.5552  0.9647
 1558TIP3   OH2 4637   4.312   2.120   1.781 -0.3210  0.2415 -0.0692
 1558TIP3    H1 4638   4.376   2.066   1.737  0.6585  0.0799  1.4902
 1558TIP3    H2 4639   4.253   2.058   1.825  0.0380  0.4085  0.6622
 1559TIP3   OH2 4640   1.645   3.371   3.415  0.1308  0.2966  0.4077
 1559TIP3    H1 4641   1.641   3.317   3.494  0.9355 -0.4875 -0.0695
 1559TIP3    H2 4642   1.719   3.336   3.365  0.4502  1.6051 -0.0974
 1560TIP3   OH2 4643   1.437   0.972   0.314 -0.2904  0.2956 -0.2154
 1560TIP3    H1 4644   1.523   0.934   0.332 -0.4400  0.4202  0.8936
 1560TIP3    H2 4645   1.381   0.937   0.384 -1.2290 -0.0554 -1.1137
 1561TIP3   OH2 4646   2.477   3.045   0.856  0.4872  0.2026  0.2243
 1561TIP3    H1 4647   2.455   2.952   0.850 -0.2728  0.2361  1.8513
 1561TIP3    H2 4648   2.399   3.091   0.825 -0.3985  0.2885  2.4275
 1562TIP3   OH2 4649   5.100   4.309   5.621 -0.1006 -0.4130  0.5253
 1562TIP3    H1 4650   5.055   4.235   5.660 -1.0302  0.1623  0.5724
 1562TIP3    H2 4651   5.193   4.290   5.635  0.1432 -4.0777 -3.7922
 1563TIP3   OH2 4652   2.856   0.562   2.935 -0.7340  0.6105 -0.1629
 1563TIP3    H1 4653   2.951   0.560   2.951 -0.5652 -0.3180 -1.1771
 1563TIP3    H2 4654   2.830   0.651   2.958  0.5420  1.1456 -0.6988
 1564TIP3   OH2 4655   0.100   1.698   3.011 -0.0464 -0.6258 -0.1869
 1564TIP3    H1 4656   0.161   1.739   3.072 -2.1929  0.7264  1.1949
 1564TIP3    H2 4657   0.062   1.771   2.962  0.5663 -1.5749 -2.1713
 1565TIP3   OH2 4658   5.336   5.918   2.972 -0.6555 -0.2159 -0.0723
 1565TIP3    H1 4659   5.392   5.975   2.918  1.7608 -0.5049  1.9311
 1565TIP3    H2 4660   5.267   5.975   3.004 -1.2267  0.3288 -2.0806
 1566TIP3   OH2 4661   1.751   3.840   5.192  0.7016 -0.2734  0.5466
 1566TIP3    H1 4662   1.827   3.788   5.166  0.4398 -0.7758  0.7845
 1566TIP3    H2 4663   1.781   3.931   5.186  0.8444 -0.3842 -0.9251
 1567TIP3   OH2 4664   6.328   2.954   3.345 -0.0091  0.4095  0.0163
 1567TIP3    H1 4665   6.354   2.936   3.436 -2.1540  0.4659  0.6932
 1567TIP3    H2 4666   6.237   2.984   3.351 -0.3280  0.0654 -2.2011
 1568TIP3   OH2 4667   6.904   2.776   1.237 -0.1069  0.3456  0.3406
 1568TIP3    H1 4668   6.937   2.714   1.172  1.1567 -0.3747  1.5926
 1568TIP3    H2 4669   6.942   2.746   1.320  0.2364  2.5625  1.0595
 1569TIP3   OH2 4670   4.128   4.102   1.058  0.3815 -0.5773  0.3722
 1569TIP3    H1 4671   4.073   4.031   1.093  0.8063 -1.2803 -0.3560
 1569TIP3    H2 4672   4.074   4.144   0.992  0.0587 -0.0918  0.9394
 1570TIP3   OH2 4673   4.112   5.139   1.984 -0.1342  0.3634  0.3632
 1570TIP3    H1 4674   4.180   5.126   1.919 -0.5137 -0.4876  0.1193
 1570TIP3    H2 4675   4.083   5.229   1.971  0.4567  0.5042  0.0009
 1571TIP3   OH2 4676   5.773   1.774   1.392 -0.6827 -0.4410 -0.5192
 1571TIP3    H1 4677   5.718   1.696   1.403 -0.0408 -0.7681  0.6253
 1571TIP3    H2 4678   5.717   1.847   1.416 -0.2261 -0.9010  2.2869
 1572TIP3   OH2 4679   2.160   2.281   2.969 -0.0457 -0.0079  0.0327
 1572TIP3    H1 4680   2.253   2.295   2.985 -0.0176 -1.6058  1.5695
 1572TIP3    H2 4681   2.157   2.219   2.897  0.0870  0.0660 -0.0360
 1573TIP3   OH2 4682   5.335   0.743   3.875  0.1399 -0.1223  0.1966
 1573TIP3    H1 4683   5.363   0.697   3.954 -0.3701 -1.6358 -0.4512
 1573TIP3    H2 4684   5.388   0.704   3.805 -1.0715 -0.5451 -0.5283
 1574TIP3   OH2 4685   1.745   4.882   2.781  0.3287  0.2061  0.6793
 1574TIP3    H1 4686   1.720   4.974   2.791 -1.2119  0.1498 -1.7517
 1574TIP3    H2 4687   1.662   4.835   2.778  1.0508 -1.0986  0.5523
 1575TIP3   OH2 4688   0.298   6.540   1.666  0.2912  0.3062  0.2416
 1575TIP3    H1 4689   0.245   6.461   1.678 -0.9638  1.2209  0.9476
 1575TIP3    H2 4690   0.345   6.549   1.749  0.4753  0.2724  0.1403
 1576TIP3   OH2 4691   6.018   4.171   3.864 -0.3958  0.0140 -0.0177
 1576TIP3    H1 4692   6.051   4.244   3.812  0.1274  0.1570  0.5056
 1576TIP3    H2 4693   5.959   4.124   3.805  1.2316 -0.6323 -1.1971
 1577TIP3   OH2 4694   1.816   0.730   4.606 -0.7279  0.1077  0.1855
 1577TIP3    H1 4695   1.839   0.737   4.514 -1.8768 -0.3928 -0.1544
 1577TIP3    H2 4696   1.870   0.659   4.639  0.2958  0.8269  0.1202
 1578TIP3   OH2 4697   3.933   4.502   3.931  0.1743  0.0345 -0.9358
 1578TIP3    H1 4698   3.910   4.424   3.981 -0.1391  1.0606  0.6103
 1578TIP3    H2 4699   3.850   4.549   3.921  0.6360  1.0435 -0.2285
 1579TIP3   OH2 4700   3.761   6.440   4.406  0.0232 -0.3399  0.6153
 1579TIP3    H1 4701   3.818   6.396   4.470  2.3526  0.6686 -0.6738
 1579TIP3    H2 4702   3.807   6.432   4.323 -1.8513  0.3583 -0.5546
 1580TIP3   OH2 4703   0.220   4.993   4.837 -0.1755 -0.2401  0.0211
 1580TIP3    H1 4704   0.178   4.912   4.867 -0.0665  0.6897  3.0827
 1580TIP3    H2 4705   0.307   4.966   4.807 -0.1565 -1.2861  0.9604
 1581TIP3   OH2 4706   4.587   3.885   1.207 -0.1786 -0.0637 -0.0063
 1581TIP3    H1 4707   4.562   3.891   1.300 -0.1825 -0.4569  0.0215
 1581TIP3    H2 4708   4.536   3.953   1.164 -0.2325  0.0737  0.2706
 1582TIP3   OH2 4709   5.497   1.788   1.998 -0.2025 -0.0754  0.5641
 1582TIP3    H1 4710   5.558   1.776   2.071 -0.8644 -0.6322  1.0357
 1582TIP3    H2 4711   5.431   1.849   2.033 -1.0085 -1.0308  0.7459
 1583TIP3   OH2 4712   4.333   3.611   0.210  0.6371 -0.3777  0.6915
 1583TIP3    H1 4713   4.340   3.526   0.254 -1.8275 -0.0284  1.9176
 1583TIP3    H2 4714   4.392   3.604   0.135  1.6878 -2.5809  1.6298
 1584TIP3   OH2 4715   3.033   0.717   0.293 -0.3935  0.6570 -0.2317
 1584TIP3    H1 4716   3.019   0.809   0.269 -0.4412  0.1253 -2.3897
 1584TIP3    H2 4717   3.123   0.715   0.326 -0.5504  1.5391  0.2888
 1585TIP3   OH2 4718   2.926   1.440   1.508 -0.1885  0.1637  0.2193
 1585TIP3    H1 4719   2.859   1.397   1.560  0.6819  0.5033  1.6800
 1585TIP3    H2 4720   2.883   1.516   1.471 -1.4145 -1.2437 -1.4064
 1586TIP3   OH2 4721   5.841   5.421   3.353 -0.2040  0.4154  0.1402
 1586TIP3    H1 4722   5.903   5.484   3.315 -0.4280  0.5117 -0.0639
 1586TIP3    H2 4723   5.772   5.412   3.287  0.3042 -0.7752 -0.2497
 1587TIP3   OH2 4724   4.909   5.866   0.585 -0.2288  1.3996 -0.1867
 1587TIP3    H1 4725   4.904   5.779   0.545 -1.3798  1.5057 -0.2970
 1587TIP3    H2 4726   4.982   5.909   0.539  1.5552 -0.1044  1.1278
 1588TIP3   OH2 4727   4.234   0.283   3.712  0.4728 -0.0768 -0.1374
 1588TIP3    H1 4728   4.214   0.362   3.662 -1.8021  0.9530  2.1201
 1588TIP3    H2 4729   4.185   0.213   3.669  1.9164 -0.1487 -1.7260
 1589TIP3   OH2 4730   5.755   4.001   5.048 -0.4769 -0.8663 -0.3738
 1589TIP3    H1 4731   5.694   4.073   5.063 -0.3829 -0.8145 -0.2309
 1589TIP3    H2 4732   5.779   3.971   5.136 -0.4686 -1.0319 -0.4323
 1590TIP3   OH2 4733   2.777   1.170   0.605 -0.3924 -0.0835 -0.5244
 1590TIP3    H1 4734   2.836   1.194   0.533 -0.2925  0.8216 -0.1543
 1590TIP3    H2 4735   2.817   1.093   0.645  0.8840  0.8692  0.0992
 1591TIP3   OH2 4736   6.875   1.189   4.661 -0.3423  0.3010 -0.0327
 1591TIP3    H1 4737   6.932   1.204   4.736 -1.2446 -0.2144  0.7808
 1591TIP3    H2 4738   6.891   1.098   4.636 -0.7664  0.1745  0.1577
 1592TIP3   OH2 4739   6.853   6.791   2.308  0.2253  0.4782 -0.7940
 1592TIP3    H1 4740   6.908   6.744   2.245  1.6700  1.4599 -0.3092
 1592TIP3    H2 4741   6.768   6.798   2.265  0.5670 -0.7151 -1.7379
 1593TIP3   OH2 4742   2.851   3.560   4.250 -0.1524  0.1941 -0.2968
 1593TIP3    H1 4743   2.895   3.532   4.330  1.3023  4.6893  0.7536
 1593TIP3    H2 4744   2.878   3.496   4.184  2.6140 -0.9490  1.7451
 1594TIP3   OH2 4745   4.114   0.333   4.315  1.0690  0.0040  0.1859
 1594TIP3    H1 4746   4.067   0.375   4.387  0.9548 -1.9505  1.3239
 1594TIP3    H2 4747   4.151   0.253   4.354  1.6332 -0.7372 -1.7554
 1595TIP3   OH2 4748   6.739   4.807   4.177 -0.5312 -0.0635  0.0117
 1595TIP3    H1 4749   6.834   4.801   4.187 -0.5865  0.3978  0.8574
 1595TIP3    H2 4750   6.707   4.838   4.262 -1.2336  2.0499 -0.9707
 1596TIP3   OH2 4751   2.844   1.746   1.895  0.2399  0.4117  0.3697
 1596TIP3    H1 4752   2.794   1.691   1.836 -0.4861  0.4829  0.9074
 1596TIP3    H2 4753   2.795   1.744   1.978  1.3062  0.1889  1.0168
 1597TIP3   OH2 4754   6.723   6.478   3.672 -0.1310  0.1354  0.0377
 1597TIP3    H1 4755   6.756   6.567   3.680 -2.1373  1.2579 -2.5004
 1597TIP3    H2 4756   6.628   6.486   3.685 -0.1200 -2.1642  2.4997
 1598TIP3   OH2 4757   7.095   2.169   2.828 -0.2087 -0.1150 -0.1594
 1598TIP3    H1 4758   7.083   2.246   2.883 -0.6313  1.1664 -1.9303
 1598TIP3    H2 4759   7.040   2.185   2.751  0.3489 -1.7927 -0.9707
 1599TIP3   OH2 4760   3.745   4.410   0.086 -0.1217 -0.8192 -0.5118
 1599TIP3    H1 4761   3.792   4.391   0.005  0.4345 -0.1641 -0.3521
 1599TIP3    H2 4762   3.762   4.335   0.142  0.6989 -0.6100 -0.4758
 1600TIP3   OH2 4763   5.117   0.150   1.930  0.7751  0.1055  0.3289
 1600TIP3    H1 4764   5.102   0.190   2.015  0.1787 -0.6591  0.5949
 1600TIP3    H2 4765   5.174   0.075   1.948 -0.6966 -1.0631  0.3310
 1601TIP3   OH2 4766   5.680   6.712   3.205  0.0086 -0.5890 -0.5594
 1601TIP3    H1 4767   5.613   6.729   3.139 -1.1443  0.6006  0.8597
 1601TIP3    H2 4768   5.696   6.618   3.200 -0.2408 -0.5585 -2.3332
 1602TIP3   OH2 4769   0.058   2.247   0.783 -0.3048 -0.2737 -0.0373
 1602TIP3    H1 4770   0.072   2.211   0.696 -0.2889  1.5288 -0.8298
 1602TIP3    H2 4771   0.112   2.327   0.785 -1.0760  0.2501  1.2483
 1603TIP3   OH2 4772   6.126   2.025   5.720  0.9004 -0.3595  0.4964
 1603TIP3    H1 4773   6.049   2.067   5.757  1.3924  1.1360 -0.0884
 1603TIP3    H2 4774   6.179   2.000   5.795 -0.2604 -1.6630  0.9129
 1604TIP3   OH2 4775   1.915   5.981   1.507 -0.2223  0.3172 -0.2521
 1604TIP3    H1 4776   1.830   5.950   1.537 -0.2351  1.1455  0.6277
 1604TIP3    H2 4777   1.904   6.076   1.499  1.0326  0.6467  1.3750
 1605TIP3   OH2 4778   5.918   3.909   3.979 -0.0583 -0.6116  0.2148
 1605TIP3    H1 4779   5.963   3.965   4.043 -0.5230 -0.3345  0.3036
 1605TIP3    H2 4780   5.910   3.964   3.901  2.1818 -1.5535 -0.7619
 1606TIP3   OH2 4781   5.414   4.427   4.043  0.2343 -0.3117  0.0228
 1606TIP3    H1 4782   5.363   4.498   4.082  0.7832 -0.8110  1.6990
 1606TIP3    H2 4783   5.427   4.455   3.952 -1.1695  0.8289  0.1413
 1607TIP3   OH2 4784   2.306   5.127   0.885 -0.3120 -0.6575  0.5906
 1607TIP3    H1 4785   2.243   5.186   0.845  0.5976 -0.2290 -0.2566
 1607TIP3    H2 4786   2.269   5.040   0.874 -0.0346 -0.5586 -1.3083
 1608TIP3   OH2 4787   6.601   4.092   4.340 -0.6894  0.1784  0.4706
 1608TIP3    H1 4788   6.624   4.185   4.331 -0.5622  0.1018 -0.0131
 1608TIP3    H2 4789   6.674   4.045   4.300 -0.6389 -0.1428  0.9344
 1609TIP3   OH2 4790   6.758   2.843   1.957 -0.6537 -0.1427 -0.2091
 1609TIP3    H1 4791   6.722   2.757   1.935 -1.9331  0.7567 -1.8727
 1609TIP3    H2 4792   6.684   2.892   1.992  0.3623 -0.0792  1.9900
 1610TIP3   OH2 4793   6.735   5.184   4.769 -0.2184 -0.1209 -0.4181
 1610TIP3    H1 4794   6.724   5.110   4.829  2.6046 -0.0142  0.3639
 1610TIP3    H2 4795   6.723   5.261   4.824 -1.4903  0.0176 -0.8700
 1611TIP3   OH2 4796   2.059   1.504   3.170 -0.3667 -0.1936  0.2966
 1611TIP3    H1 4797   2.128   1.553   3.215 -1.2748  1.4999 -0.0745
 1611TIP3    H2 4798   2.045   1.426   3.224  2.4828 -1.1188 -0.1203
 1612TIP3   OH2 4799   0.803   4.580   2.552  0.0741 -0.1720  0.1652
 1612TIP3    H1 4800   0.751   4.531   2.616  0.4242  0.7261  1.1657
 1612TIP3    H2 4801   0.749   4.657   2.532  0.2230 -0.1573 -0.1704
 1613TIP3   OH2 4802   0.218   6.486   3.613 -0.0341 -0.1424  0.2711
 1613TIP3    H1 4803   0.285   6.471   3.546 -0.0747  1.1774 -0.0859
 1613TIP3    H2 4804   0.194   6.398   3.642 -0.4482 -0.8124 -1.8689
 1614TIP3   OH2 4805   6.755   5.827   5.596 -0.0188 -0.3796  0.7636
 1614TIP3    H1 4806   6.837   5.806   5.640  0.6229  1.0446  0.3294
 1614TIP3    H2 4807   6.711   5.888   5.655  1.0585  1.9097 -0.6350
 1615TIP3   OH2 4808   6.805   4.409   3.666 -0.1129  0.1026  0.0661
 1615TIP3    H1 4809   6.880   4.349   3.660 -0.6980 -0.6145 -0.2600
 1615TIP3    H2 4810   6.789   4.419   3.759  1.0256  1.0758  0.1736
 1616TIP3   OH2 4811   0.714   6.416   1.965 -0.5869 -0.0867 -0.1115
 1616TIP3    H1 4812   0.762   6.498   1.976 -0.0029 -0.2304 -1.4332
 1616TIP3    H2 4813   0.737   6.364   2.043  0.6887  0.1988 -0.2802
 1617TIP3   OH2 4814   2.119   3.869   0.149  0.5239  0.0275 -0.4474
 1617TIP3    H1 4815   2.186   3.801   0.146  0.7706  0.2125  0.4887
 1617TIP3    H2 4816   2.040   3.824   0.179  1.1360  0.4410  2.0276
 1618TIP3   OH2 4817   3.224   1.786   4.146  0.0947  0.4979 -0.2003
 1618TIP3    H1 4818   3.300   1.831   4.184 -0.6222  2.0903 -0.5686
 1618TIP3    H2 4819   3.171   1.857   4.108 -1.0656 -0.6842 -0.8468
 1619TIP3   OH2 4820   5.959   4.182   1.153  0.1220 -0.0523  0.1967
 1619TIP3    H1 4821   6.033   4.190   1.214  0.1274 -1.7023  0.4583
 1619TIP3    H2 4822   5.904   4.114   1.192 -0.0698 -0.8730 -1.4376
 1620TIP3   OH2 4823   4.482   2.182   0.509  0.9083  0.2059  0.1924
 1620TIP3    H1 4824   4.535   2.164   0.431 -0.1945  1.4858 -0.8970
 1620TIP3    H2 4825   4.546   2.212   0.575  1.6343  1.2553 -0.9338
 1621TIP3   OH2 4826   2.164   4.640   3.838  0.1637  0.4486  0.4700
 1621TIP3    H1 4827   2.183   4.623   3.930 -0.5177 -0.1987  0.4971
 1621TIP3    H2 4828   2.091   4.702   3.839 -0.1282  0.1065  0.3649
 1622TIP3   OH2 4829   2.265   6.262   0.329  0.4831 -0.3370 -0.0696
 1622TIP3    H1 4830   2.233   6.192   0.273 -0.7533 -0.4217  0.7011
 1622TIP3    H2 4831   2.352   6.234   0.355  0.7516 -0.6864 -1.2580
 1623TIP3   OH2 4832   3.106   4.914   1.409 -0.0526  0.0377  0.1394
 1623TIP3    H1 4833   3.145   4.829   1.427 -0.7748 -0.2370  0.4402
 1623TIP3    H2 4834   3.068   4.905   1.322  0.6614  0.3516 -0.2154
 1624TIP3   OH2 4835   6.839   0.339   1.741 -0.8454 -0.1952 -0.0531
 1624TIP3    H1 4836   6.751   0.311   1.765 -1.9012  1.1055 -2.1111
 1624TIP3    H2 4837   6.826   0.418   1.689  1.5774  0.2186 -0.1765
 1625TIP3   OH2 4838   2.568   1.272   5.385  0.0220 -0.1147  0.1007
 1625TIP3    H1 4839   2.602   1.355   5.418 -1.2567  0.7654 -0.6738
 1625TIP3    H2 4840   2.597   1.269   5.294 -3.5877  1.7495 -1.2992
 1626TIP3   OH2 4841   5.395   1.862   0.015  0.4874  0.1510 -0.0776
 1626TIP3    H1 4842   5.326   1.862   0.081  0.7515 -0.4422  0.2099
 1626TIP3    H2 4843   5.355   1.903  -0.061  0.2454  1.0346  0.5139
 1627TIP3   OH2 4844   0.973   4.392   3.831  0.0410 -0.1272 -0.0431
 1627TIP3    H1 4845   0.994   4.404   3.738  0.2530 -0.1104  0.0058
 1627TIP3    H2 4846   0.918   4.467   3.853 -0.9107 -0.6976 -0.4276
 1628TIP3   OH2 4847   1.756   1.601   1.489 -0.7952 -0.5273  0.0142
 1628TIP3    H1 4848   1.781   1.692   1.505  0.7075 -0.7074 -1.0826
 1628TIP3    H2 4849   1.721   1.601   1.400 -4.9645 -0.3056  1.4379
 1629TIP3   OH2 4850   5.388   4.533   5.450 -0.2040 -0.1101  0.1016
 1629TIP3    H1 4851   5.410   4.440   5.444  0.5130 -0.0219  1.0606
 1629TIP3    H2 4852   5.472   4.578   5.456 -0.5429  0.3966  1.8869
 1630TIP3   OH2 4853   2.141   6.504   0.277  0.0252  0.2231  0.1331
 1630TIP3    H1 4854   2.152   6.545   0.191 -0.4463 -0.5866 -0.3264
 1630TIP3    H2 4855   2.208   6.436   0.281  1.3364  1.5114  1.2231
 1631TIP3   OH2 4856   4.023   5.964   1.659  0.1603  0.6521  0.1500
 1631TIP3    H1 4857   4.075   5.883   1.657 -0.2811  0.3153  1.4282
 1631TIP3    H2 4858   3.993   5.971   1.750 -1.0032  1.4920 -0.2737
 1632TIP3   OH2 4859   2.981   2.370   2.503  0.1579  0.3244 -0.4065
 1632TIP3    H1 4860   2.893   2.401   2.524 -1.5342 -2.7924 -2.1172
 1632TIP3    H2 4861   2.981   2.278   2.532  3.6059  0.7093  1.3047
 1633TIP3   OH2 4862   1.089   5.675   1.749  0.1292  0.2665  0.2569
 1633TIP3    H1 4863   1.049   5.664   1.663  0.0768 -0.0297  0.3162
 1633TIP3    H2 4864   1.158   5.608   1.752 -0.5524 -0.4313  0.8395
 1634TIP3   OH2 4865   3.737   2.655   1.794 -0.1328 -0.4243 -0.0625
 1634TIP3    H1 4866   3.795   2.579   1.787 -0.0614 -0.3828  0.0806
 1634TIP3    H2 4867   3.713   2.659   1.887 -0.7445 -0.7247 -0.1968
 1635TIP3   OH2 4868   1.780   1.561   1.835 -0.3490  0.0650  0.6741
 1635TIP3    H1 4869   1.762   1.503   1.909 -0.0568 -1.6841 -0.5507
 1635TIP3    H2 4870   1.844   1.512   1.782 -2.1212  0.2543 -1.8317
 1636TIP3   OH2 4871   7.026   4.894   1.938 -0.5058  0.0453  0.1697
 1636TIP3    H1 4872   6.943   4.939   1.956 -0.3842  0.7726 -0.9472
 1636TIP3    H2 4873   7.004   4.829   1.872 -0.0903  0.6700 -0.6035
 1637TIP3   OH2 4874   6.581   4.165   3.676  0.4532 -0.2120 -0.2818
 1637TIP3    H1 4875   6.668   4.168   3.716  0.8923 -1.0880 -1.1130
 1637TIP3    H2 4876   6.597   4.179   3.583 -0.6440  2.6883 -0.1243
 1638TIP3   OH2 4877   3.321   3.014   1.019 -0.0502 -0.0337  0.4871
 1638TIP3    H1 4878   3.346   2.947   1.082  0.0231  0.4431  0.9701
 1638TIP3    H2 4879   3.259   2.970   0.961  0.6610 -0.7668  0.2609
 1639TIP3   OH2 4880   5.221   6.555   4.975  0.2446 -0.5553 -0.0692
 1639TIP3    H1 4881   5.300   6.505   4.953  0.5685  0.4607 -1.3304
 1639TIP3    H2 4882   5.164   6.492   5.019  1.7736 -1.2996  0.9424
 1640TIP3   OH2 4883   4.893   1.984   0.519 -0.2502 -0.8166 -0.5074
 1640TIP3    H1 4884   4.824   2.041   0.484  1.9780  1.6627 -1.1612
 1640TIP3    H2 4885   4.900   2.010   0.611 -0.3470 -1.2388 -0.3813
 1641TIP3   OH2 4886   6.665   4.250   2.807 -0.9221  0.3996 -0.3350
 1641TIP3    H1 4887   6.606   4.286   2.873 -0.5641  1.5407 -0.6163
 1641TIP3    H2 4888   6.736   4.211   2.858 -1.3449  0.0231 -0.0248
 1642TIP3   OH2 4889   1.046   5.983   5.447 -0.2740 -0.3342 -0.5943
 1642TIP3    H1 4890   0.988   5.938   5.508 -1.1072 -0.7115 -1.6428
 1642TIP3    H2 4891   1.100   5.913   5.409  0.0650 -0.1358 -0.4830
 1643TIP3   OH2 4892   0.574   0.230   0.058 -0.0285 -0.3427 -0.1357
 1643TIP3    H1 4893   0.642   0.196   0.116  1.5401  0.2747 -1.5585
 1643TIP3    H2 4894   0.527   0.153   0.028  0.9068 -0.9053 -0.1826
 1644TIP3   OH2 4895   3.834   3.917   3.987  0.5712  0.0886 -0.1253
 1644TIP3    H1 4896   3.921   3.952   4.005  0.6732  0.3565 -1.0975
 1644TIP3    H2 4897   3.833   3.903   3.893  0.4555 -2.3586  0.1772
 1645TIP3   OH2 4898   6.866   0.776   0.209 -0.0483 -0.1304  0.3464
 1645TIP3    H1 4899   6.826   0.770   0.122 -1.1206  1.8075  0.6563
 1645TIP3    H2 4900   6.949   0.729   0.200 -1.1595 -1.9647 -1.0536
 1646TIP3   OH2 4901   2.251   1.069   4.185 -0.4070  0.0444  0.0982
 1646TIP3    H1 4902   2.315   1.140   4.192 -0.0953 -0.1210 -0.9008
 1646TIP3    H2 4903   2.259   1.021   4.267 -1.5510  1.9089  1.3920
 1647TIP3   OH2 4904   3.744   1.384   2.720 -0.1400  0.7626 -0.5415
 1647TIP3    H1 4905   3.721   1.302   2.676 -0.9749 -0.1369  1.4342
 1647TIP3    H2 4906   3.824   1.363   2.770 -0.0159  1.3250 -0.4973
 1648TIP3   OH2 4907   3.636   0.525   3.476  0.3150  0.4824 -0.3127
 1648TIP3    H1 4908   3.631   0.586   3.403 -0.6953  0.6567 -0.1125
 1648TIP3    H2 4909   3.577   0.563   3.542  1.2908  0.3882  0.6343
 1649TIP3   OH2 4910   3.481   0.374   1.029  0.0469  0.6518  0.4382
 1649TIP3    H1 4911   3.437   0.375   1.114  0.7825 -0.4606  0.8595
 1649TIP3    H2 4912   3.571   0.348   1.049 -0.3005 -1.8658 -0.8758
 1650TIP3   OH2 4913   0.647   5.209   0.683 -0.0790  0.4609  0.5409
 1650TIP3    H1 4914   0.661   5.288   0.735  0.5920  0.8827 -0.2533
 1650TIP3    H2 4915   0.734   5.167   0.681  0.0345  0.7382 -0.6848
 1651TIP3   OH2 4916   3.392   1.334   1.362 -0.4318  0.2145 -0.2564
 1651TIP3    H1 4917   3.309   1.292   1.383 -0.8973  1.3622  0.2527
 1651TIP3    H2 4918   3.401   1.404   1.426 -0.5450  2.0376 -2.1456
 1652TIP3   OH2 4919   3.359   4.485   3.016  0.0508  0.0875  0.5736
 1652TIP3    H1 4920   3.436   4.431   3.038 -0.4762 -1.2612 -0.7067
 1652TIP3    H2 4921   3.308   4.487   3.097  0.6039 -0.4773  0.9502
 1653TIP3   OH2 4922   5.134   3.527   0.109 -0.0256  0.1166 -0.4051
 1653TIP3    H1 4923   5.111   3.486   0.192  3.2086 -2.2360 -0.4939
 1653TIP3    H2 4924   5.196   3.596   0.132 -0.3467  0.5458 -0.7908
 1654TIP3   OH2 4925   5.222   2.661   2.675 -0.7372 -0.2319  0.3257
 1654TIP3    H1 4926   5.203   2.633   2.585  0.3651 -0.7672  0.2381
 1654TIP3    H2 4927   5.148   2.715   2.699 -1.0146  0.0005 -0.9452
 1655TIP3   OH2 4928   3.164   5.175   1.455 -0.0787 -0.1836 -0.3540
 1655TIP3    H1 4929   3.143   5.084   1.433 -0.1040 -0.2880  0.0851
 1655TIP3    H2 4930   3.110   5.194   1.532  0.6912 -0.1318  0.1844
 1656TIP3   OH2 4931   2.890   4.071   4.413 -0.2596  1.0166  0.1527
 1656TIP3    H1 4932   2.911   4.068   4.507  1.0309  1.3928 -0.1006
 1656TIP3    H2 4933   2.935   4.149   4.381  1.2725 -0.3520 -1.2212
 1657TIP3   OH2 4934   0.262   1.830   1.782 -0.2131  0.2695 -0.4475
 1657TIP3    H1 4935   0.224   1.751   1.744 -0.0329  1.1101 -2.5450
 1657TIP3    H2 4936   0.188   1.879   1.816 -0.2835 -0.9537  1.2593
 1658TIP3   OH2 4937   1.806   2.362   4.289 -0.3640 -0.2075  0.1224
 1658TIP3    H1 4938   1.820   2.301   4.216 -1.0571  0.2135 -0.3796
 1658TIP3    H2 4939   1.893   2.377   4.325 -0.0699 -0.7739 -0.3342
 1659TIP3   OH2 4940   4.483   5.140   3.487 -0.2146 -0.1108 -0.0970
 1659TIP3    H1 4941   4.488   5.200   3.413  1.7575 -0.3669 -0.2206
 1659TIP3    H2 4942   4.453   5.194   3.560 -2.0142  0.1771 -1.0122
 1660TIP3   OH2 4943   4.446   2.359   5.607 -0.1800  0.1483  0.0109
 1660TIP3    H1 4944   4.457   2.448   5.642 -0.8013  0.2901 -0.1565
 1660TIP3    H2 4945   4.464   2.368   5.513  2.5720 -0.4234  0.3798
 1661TIP3   OH2 4946   4.593   1.627   4.830 -0.3526 -0.3942 -0.5672
 1661TIP3    H1 4947   4.574   1.721   4.831 -1.2236 -0.5249  1.4893
 1661TIP3    H2 4948   4.508   1.585   4.839  0.2026 -1.2711  1.0235
 1662TIP3   OH2 4949   1.924   0.619   0.530  0.3463 -0.3761 -0.3182
 1662TIP3    H1 4950   1.845   0.654   0.571 -0.3230 -1.4371 -0.6816
 1662TIP3    H2 4951   1.946   0.541   0.581  1.8684  0.5373  0.5190
 1663TIP3   OH2 4952   4.312   0.078   4.276 -0.0088 -0.4952 -0.3620
 1663TIP3    H1 4953   4.363  -0.003   4.273  0.6365 -0.1624  0.9311
 1663TIP3    H2 4954   4.238   0.057   4.335  0.2258 -0.1244  0.0717
 1664TIP3   OH2 4955   0.395   0.418   2.890  0.4591  0.5690  0.1164
 1664TIP3    H1 4956   0.490   0.421   2.883  0.5691 -1.3348  0.2294
 1664TIP3    H2 4957   0.366   0.381   2.806  0.0529 -1.1991  0.9811
 1665TIP3   OH2 4958   6.029   3.171   3.180  0.2095  0.2417 -1.0799
 1665TIP3    H1 4959   6.047   3.083   3.211  1.3206 -0.1916 -2.8318
 1665TIP3    H2 4960   6.038   3.226   3.258 -4.7974 -1.5051  1.1718
 1666TIP3   OH2 4961   5.670   4.748   5.468  0.1294 -0.0548 -0.4600
 1666TIP3    H1 4962   5.746   4.713   5.423  0.9845  1.6197 -0.4048
 1666TIP3    H2 4963   5.680   4.843   5.462 -1.0228  0.2129  1.1254
 1667TIP3   OH2 4964   3.051   6.770   3.727 -0.0329  0.0366  0.2224
 1667TIP3    H1 4965   3.000   6.710   3.673  0.5554  0.0451 -0.3532
 1667TIP3    H2 4966   2.986   6.821   3.775 -0.6075  0.8268 -1.3351
 1668TIP3   OH2 4967   1.609   1.638   4.807 -0.8084  0.2060  0.0855
 1668TIP3    H1 4968   1.539   1.701   4.821 -0.7432  0.1391  0.7668
 1668TIP3    H2 4969   1.634   1.649   4.716 -0.7400  1.2182  0.2215
 1669TIP3   OH2 4970   1.793   0.817   4.860  0.5747  0.5797  0.1844
 1669TIP3    H1 4971   1.770   0.782   4.774 -0.1967  1.0936  0.1758
 1669TIP3    H2 4972   1.887   0.800   4.868  0.6454  0.4816 -0.7301
 1670TIP3   OH2 4973   1.637   5.148   3.708  0.0448 -0.0071 -0.2004
 1670TIP3    H1 4974   1.686   5.142   3.626  1.3078  0.4536  0.5016
 1670TIP3    H2 4975   1.545   5.140   3.681  0.4264  0.2568 -1.6658
 1671TIP3   OH2 4976   0.314   2.440   4.700 -0.1114 -0.0625 -0.7856
 1671TIP3    H1 4977   0.368   2.450   4.778 -0.6352 -1.1536 -0.2519
 1671TIP3    H2 4978   0.374   2.409   4.633  0.1469 -0.1533 -0.5173
 1672TIP3   OH2 4979   2.921   0.619   2.146 -0.4706  0.4753  0.3534
 1672TIP3    H1 4980   2.861   0.575   2.206 -1.6889  1.0869 -0.3909
 1672TIP3    H2 4981   2.986   0.660   2.204 -0.9968  0.1424  1.1978
 1673TIP3   OH2 4982   6.729   3.600   5.839 -0.0089 -0.2796 -0.5203
 1673TIP3    H1 4983   6.789   3.555   5.899 -2.2878 -0.1959  1.9953
 1673TIP3    H2 4984   6.785   3.662   5.793  1.8987 -0.2760  1.5824
 1674TIP3   OH2 4985   0.622   2.911   1.014 -0.0934  0.2091  0.1490
 1674TIP3    H1 4986   0.587   2.872   0.934  0.0523 -0.4104  0.3757
 1674TIP3    H2 4987   0.545   2.928   1.068 -0.2540  1.3002 -0.4041
 1675TIP3   OH2 4988   3.826   1.219   5.832 -0.3116 -0.4420  0.2898
 1675TIP3    H1 4989   3.761   1.281   5.799 -1.0992 -1.7348 -0.7070
 1675TIP3    H2 4990   3.823   1.228   5.927 -1.0232  0.4192  0.1921
 1676TIP3   OH2 4991   4.559   5.930   4.492  0.4921 -0.2251  0.4621
 1676TIP3    H1 4992   4.636   5.944   4.548  0.3066 -1.9090  1.1870
 1676TIP3    H2 4993   4.507   5.864   4.538 -1.7303  1.2956  0.3047
 1677TIP3   OH2 4994   1.290   5.680   0.740  0.1715 -0.1190 -0.3508
 1677TIP3    H1 4995   1.373   5.695   0.696 -0.0667  1.1447 -0.4133
 1677TIP3    H2 4996   1.224   5.700   0.673 -0.1931  1.5705  0.4544
 1678TIP3   OH2 4997   0.560   1.129   0.175 -0.0821 -0.6318 -0.1900
 1678TIP3    H1 4998   0.531   1.137   0.084 -1.2980 -1.1367  0.1234
 1678TIP3    H2 4999   0.637   1.185   0.181 -2.3819  2.9022 -0.4879
 1679TIP3   OH2 5000   6.924   2.450   4.241  0.1314  0.1113  0.3150
 1679TIP3    H1 5001   6.946   2.540   4.217  0.7556  0.0553  0.6660
 1679TIP3    H2 5002   6.838   2.435   4.201  0.2346  0.7024 -0.1445
 1680TIP3   OH2 5003   1.332   3.236   2.191  0.6194  0.4825  0.1381
 1680TIP3    H1 5004   1.400   3.242   2.124  0.0349 -1.2753 -0.6562
 1680TIP3    H2 5005   1.371   3.183   2.260 -0.2390 -1.4399 -0.7839
 1681TIP3   OH2 5006   0.305   2.935   0.792  0.0888  0.4021 -0.2424
 1681TIP3    H1 5007   0.222   2.947   0.745 -0.3868  2.0774  0.9544
 1681TIP3    H2 5008   0.287   2.967   0.881  1.7038 -0.2842  0.3665
 1682TIP3   OH2 5009   3.565   4.042   4.030 -0.1227  0.3598  0.1924
 1682TIP3    H1 5010   3.480   4.030   3.988 -0.8275  2.2252  0.9603
 1682TIP3    H2 5011   3.621   3.975   3.991 -1.9174 -0.8777 -0.3710
 1683TIP3   OH2 5012   0.737   2.836   1.264 -0.1060 -0.1734 -0.5383
 1683TIP3    H1 5013   0.765   2.867   1.178  0.8833  0.5096  0.0101
 1683TIP3    H2 5014   0.642   2.830   1.257  0.0353 -1.1774 -2.0102
 1684TIP3   OH2 5015   3.992   2.255   5.165 -0.4300 -0.4141  0.4094
 1684TIP3    H1 5016   3.932   2.182   5.154 -2.5184  1.1196  1.0102
 1684TIP3    H2 5017   4.067   2.234   5.109 -2.4583 -1.3938 -2.0980
 1685TIP3   OH2 5018   1.971   6.666   2.973  0.1290 -0.1113 -0.3835
 1685TIP3    H1 5019   2.054   6.648   2.929  0.3712  1.1444 -0.4753
 1685TIP3    H2 5020   1.989   6.645   3.065  0.0057 -1.4988 -0.6500
 1686TIP3   OH2 5021   3.816   0.925   4.291 -0.5833  0.6215 -0.1587
 1686TIP3    H1 5022   3.847   0.892   4.375 -0.9480  0.5201 -0.0627
 1686TIP3    H2 5023   3.768   1.005   4.313 -0.3970  0.7725 -0.3048
 1687TIP3   OH2 5024   5.645   2.777   1.276  0.0318  0.2466 -0.3515
 1687TIP3    H1 5025   5.567   2.735   1.313 -0.0113  0.6259 -0.0043
 1687TIP3    H2 5026   5.715   2.714   1.292 -0.0985  0.1490 -0.1507
 1688TIP3   OH2 5027   6.734   5.219   5.726 -0.0144  0.3829  0.3141
 1688TIP3    H1 5028   6.725   5.307   5.688  0.5762  0.2540 -0.1382
 1688TIP3    H2 5029   6.812   5.183   5.685 -0.0151 -0.2030  0.8097
 1689TIP3   OH2 5030   3.353   4.471   3.664 -0.3321  0.0714  0.6337
 1689TIP3    H1 5031   3.385   4.407   3.727 -0.6141 -1.7339 -0.9725
 1689TIP3    H2 5032   3.258   4.458   3.663 -0.7113  2.1867  1.9671
 1690TIP3   OH2 5033   1.430   1.269   4.057 -0.6654 -0.1987  0.2424
 1690TIP3    H1 5034   1.393   1.278   4.145 -2.3935 -0.6971 -0.3909
 1690TIP3    H2 5035   1.429   1.175   4.040 -0.2671 -0.1091 -0.2881
 1691TIP3   OH2 5036   4.087   6.298   2.112  0.4723  0.5173 -0.0125
 1691TIP3    H1 5037   4.117   6.208   2.129 -0.5208  0.1073 -0.3733
 1691TIP3    H2 5038   4.002   6.304   2.156 -0.0426  0.8825 -1.0253
 1692TIP3   OH2 5039   5.485   0.988   1.219  0.4655 -0.5172  0.4140
 1692TIP3    H1 5040   5.404   1.015   1.263  0.8996 -1.9071  2.1651
 1692TIP3    H2 5041   5.466   0.997   1.126 -0.7194  1.9327  0.8129
 1693TIP3   OH2 5042   5.081   5.932   4.573 -0.1476  0.5318  0.1658
 1693TIP3    H1 5043   5.101   5.839   4.564  0.5376  0.6440  0.4361
 1693TIP3    H2 5044   5.112   5.971   4.491 -0.3395  0.5352  0.0954
 1694TIP3   OH2 5045   4.231   6.227   3.410  0.2118 -0.1518  0.9083
 1694TIP3    H1 5046   4.325   6.219   3.393  0.0271 -0.8367  0.1219
 1694TIP3    H2 5047   4.200   6.137   3.413 -0.6612  0.0784 -0.3493
 1695TIP3   OH2 5048   1.436   3.293   2.899 -0.2622 -0.3568 -0.3689
 1695TIP3    H1 5049   1.355   3.307   2.849 -0.8933 -0.8966  0.4584
 1695TIP3    H2 5050   1.505   3.292   2.834 -0.9307  0.0618 -1.1096
 1696TIP3   OH2 5051   2.036   4.518   3.348 -0.1388 -0.7358 -0.2621
 1696TIP3    H1 5052   2.126   4.550   3.343 -0.4794  0.8331  2.0831
 1696TIP3    H2 5053   2.043   4.429   3.381  0.5754 -1.2204 -1.6343
 1697TIP3   OH2 5054   0.271   3.140   1.735 -0.1519 -0.5444  0.2130
 1697TIP3    H1 5055   0.342   3.085   1.768 -0.5670  0.1044  2.3368
 1697TIP3    H2 5056   0.315   3.213   1.692  0.4072 -2.2017 -2.2230
 1698TIP3   OH2 5057   5.267   1.742   5.183 -0.4641 -0.1744  0.5144
 1698TIP3    H1 5058   5.252   1.836   5.191  0.2365 -0.1594  2.0887
 1698TIP3    H2 5059   5.198   1.702   5.237 -1.1546 -0.6248 -0.6571
 1699TIP3   OH2 5060   7.049   4.293   3.589  0.5703  0.1455 -0.1164
 1699TIP3    H1 5061   7.063   4.200   3.607 -0.8741 -0.0001  0.4360
 1699TIP3    H2 5062   7.130   4.322   3.548  0.6596 -1.6260 -1.3461
 1700TIP3   OH2 5063   5.290   3.581   0.953  0.0722 -0.3740 -0.2515
 1700TIP3    H1 5064   5.203   3.620   0.943  0.7953  0.9529 -1.8926
 1700TIP3    H2 5065   5.307   3.583   1.047 -1.2968  0.1830  0.0032
 1701TIP3   OH2 5066   1.464   2.835   1.079  0.5299 -0.3322 -0.3144
 1701TIP3    H1 5067   1.418   2.844   0.996  1.0223 -0.2332 -0.5851
 1701TIP3    H2 5068   1.539   2.779   1.058  0.0711 -1.1943  0.3013
 1702TIP3   OH2 5069   2.373   0.984   2.877  0.4841  0.7838 -0.2815
 1702TIP3    H1 5070   2.366   0.895   2.911  0.9066  1.3346  1.3468
 1702TIP3    H2 5071   2.417   0.974   2.792  1.0658 -0.5136  0.1411
 1703TIP3   OH2 5072   4.417   2.362   1.827  0.0815  0.4938  0.0353
 1703TIP3    H1 5073   4.507   2.333   1.844 -0.3997 -0.1509  1.6480
 1703TIP3    H2 5074   4.373   2.283   1.796  0.3958  1.1518 -2.2883
 1704TIP3   OH2 5075   3.174   1.928   0.095  0.1265  0.1814  0.1912
 1704TIP3    H1 5076   3.176   1.835   0.072  0.4506  0.3252 -0.3741
 1704TIP3    H2 5077   3.267   1.952   0.102  0.0516  0.1341  1.7041
 1705TIP3   OH2 5078   5.625   2.844   0.975  0.5336  0.0363 -0.0835
 1705TIP3    H1 5079   5.558   2.910   0.994  0.6146  0.1803 -0.2884
 1705TIP3    H2 5080   5.652   2.812   1.061 -0.6923 -0.9400 -0.0324
 1706TIP3   OH2 5081   5.625   2.423   0.694 -0.1005  0.7162  0.3852
 1706TIP3    H1 5082   5.596   2.332   0.706  0.6137  0.3496 -0.5988
 1706TIP3    H2 5083   5.544   2.472   0.685 -0.4836 -0.0479 -0.5843
 1707TIP3   OH2 5084   0.025   1.579   5.312  0.3664  0.5483 -0.6046
 1707TIP3    H1 5085   0.101   1.523   5.297  1.1786  1.5170 -0.2050
 1707TIP3    H2 5086  -0.031   1.565   5.235  2.2294  1.8712 -2.3052
 1708TIP3   OH2 5087   5.232   2.274   3.713 -0.0004  0.3282  0.0994
 1708TIP3    H1 5088   5.238   2.297   3.620  1.4322  1.5417  0.4623
 1708TIP3    H2 5089   5.269   2.186   3.718 -1.4440 -0.3472 -0.6732
 1709TIP3   OH2 5090   7.085   6.046   4.992  0.3334 -0.4660  0.2770
 1709TIP3    H1 5091   7.026   6.013   4.924 -2.9785 -0.5341  2.9350
 1709TIP3    H2 5092   7.074   6.142   4.989  0.8350 -0.4089  0.1796
 1710TIP3   OH2 5093   4.893   2.154   2.900  0.7558  0.4682  0.0381
 1710TIP3    H1 5094   4.829   2.190   2.962  0.2380  0.3517 -0.4126
 1710TIP3    H2 5095   4.865   2.063   2.887  1.4878  0.1776  0.4404
 1711TIP3   OH2 5096   6.324   6.779   1.857 -0.1899 -0.4057 -0.0082
 1711TIP3    H1 5097   6.323   6.797   1.763 -1.5160 -0.4708 -0.0217
 1711TIP3    H2 5098   6.247   6.725   1.872  0.4645 -1.1055  0.9995
 1712TIP3   OH2 5099   4.087   1.452   2.606 -0.1000  0.4092  0.0518
 1712TIP3    H1 5100   4.083   1.533   2.555 -0.4643  1.1471  1.2166
 1712TIP3    H2 5101   4.108   1.481   2.695 -0.0245 -0.7977  0.4432
 1713TIP3   OH2 5102   4.241   3.443   5.206 -0.2959  0.3504  0.0539
 1713TIP3    H1 5103   4.204   3.357   5.224  0.5873  0.2380  1.4017
 1713TIP3    H2 5104   4.185   3.478   5.136 -0.2809 -1.5587 -0.9971
 1714TIP3   OH2 5105   5.942   3.546   3.013  0.3728  0.4934  0.1510
 1714TIP3    H1 5106   5.968   3.638   3.009  0.0243  0.5611 -1.2871
 1714TIP3    H2 5107   5.867   3.545   3.074  0.7997  1.0401  0.6957
 1715TIP3   OH2 5108   0.018   1.185   4.224  0.3451 -0.0806 -0.5900
 1715TIP3    H1 5109   0.057   1.099   4.240 -0.9065 -0.6523 -0.5293
 1715TIP3    H2 5110  -0.071   1.178   4.259 -0.0901  0.9309 -1.4389
 1716TIP3   OH2 5111   3.160   3.691   2.542  0.4350  0.4446 -0.1031
 1716TIP3    H1 5112   3.088   3.655   2.593  0.4156  0.8985  0.1950
 1716TIP3    H2 5113   3.212   3.615   2.516  1.1626  0.3007  1.6555
 1717TIP3   OH2 5114   2.557   3.860   0.609 -0.5789 -0.2965  0.0773
 1717TIP3    H1 5115   2.572   3.866   0.703  1.3318 -1.1723 -0.1340
 1717TIP3    H2 5116   2.612   3.788   0.580 -0.3325  0.6067 -1.8797
 1718TIP3   OH2 5117   2.126   5.940   5.213 -0.1028  0.3025 -0.2606
 1718TIP3    H1 5118   2.132   5.919   5.120  0.0928 -0.2972 -0.1216
 1718TIP3    H2 5119   2.068   5.872   5.248 -0.5532  0.8049 -0.0289
 1719TIP3   OH2 5120   4.390   3.437   3.393  0.4744 -0.2888 -0.3484
 1719TIP3    H1 5121   4.389   3.379   3.318 -1.4941 -0.0534 -0.5617
 1719TIP3    H2 5122   4.368   3.381   3.468  0.5433 -0.1847 -0.2489
 1720TIP3   OH2 5123   2.480   2.737   2.154  0.4149  0.5016  0.2588
 1720TIP3    H1 5124   2.529   2.658   2.177  3.1829  1.9826 -0.0552
 1720TIP3    H2 5125   2.426   2.712   2.080  1.7854 -0.9423 -0.3038
 1721TIP3   OH2 5126   5.270   3.770   2.027  0.4660 -0.3969  0.2638
 1721TIP3    H1 5127   5.214   3.710   1.977  0.1391  0.4554 -0.4189
 1721TIP3    H2 5128   5.209   3.831   2.069  0.7880 -0.6099  1.0614
 1722TIP3   OH2 5129   2.710   5.191   5.224 -0.1101 -1.0163  0.5802
 1722TIP3    H1 5130   2.784   5.130   5.213  0.6303  0.2640 -2.9934
 1722TIP3    H2 5131   2.632   5.135   5.216  0.5530 -1.7139 -2.0453
 1723TIP3   OH2 5132   4.445   2.108   4.346 -0.1785  0.2696  0.4872
 1723TIP3    H1 5133   4.486   2.025   4.321  1.4331  1.0445  0.4918
 1723TIP3    H2 5134   4.428   2.153   4.263 -1.7859 -0.3618  0.4341
 1724TIP3   OH2 5135   4.401   1.939   0.831  0.5178  0.3066 -0.1332
 1724TIP3    H1 5136   4.485   1.903   0.802  0.2251 -0.2815 -0.2569
 1724TIP3    H2 5137   4.356   1.866   0.873  0.4842  0.8746  0.8603
 1725TIP3   OH2 5138   6.755   0.819   5.445 -0.5572  0.3116 -0.5808
 1725TIP3    H1 5139   6.746   0.842   5.353  0.5625  0.2409 -0.7226
 1725TIP3    H2 5140   6.767   0.902   5.490  0.1827  0.2546 -0.6680
 1726TIP3   OH2 5141   1.864   2.093   4.154 -0.2969 -0.0534  0.2544
 1726TIP3    H1 5142   1.884   1.999   4.148 -2.8586 -0.6981  0.6304
 1726TIP3    H2 5143   1.839   2.118   4.065 -0.5344  0.0425  0.3481
 1727TIP3   OH2 5144   1.754   5.118   5.300 -0.4407 -0.5936  0.1123
 1727TIP3    H1 5145   1.752   5.163   5.215  1.3645 -0.6068  0.0223
 1727TIP3    H2 5146   1.666   5.081   5.310 -0.8597 -0.1009 -1.4865
 1728TIP3   OH2 5147   6.335   1.923   3.575 -0.0525 -0.7322  0.0885
 1728TIP3    H1 5148   6.346   2.006   3.528 -0.9940 -0.7123 -0.1070
 1728TIP3    H2 5149   6.424   1.889   3.584  0.1941 -0.6005 -1.4838
 1729TIP3   OH2 5150   6.659   3.181   4.605 -0.3408  0.4111  0.0476
 1729TIP3    H1 5151   6.631   3.151   4.518 -1.1582  1.5588 -0.1210
 1729TIP3    H2 5152   6.581   3.174   4.659  0.4582 -1.4059  1.0386
 1730TIP3   OH2 5153   4.853   5.325   1.484 -0.8191  0.1973 -0.3600
 1730TIP3    H1 5154   4.861   5.421   1.483  0.2151  0.1955 -3.4070
 1730TIP3    H2 5155   4.939   5.294   1.512 -0.1131  0.2286 -2.3296
 1731TIP3   OH2 5156   2.389   3.344   4.459 -0.8495 -0.3728 -0.3396
 1731TIP3    H1 5157   2.412   3.251   4.466 -0.6426 -0.2891  0.2075
 1731TIP3    H2 5158   2.308   3.345   4.409  0.1547 -0.7078 -2.0458
 1732TIP3   OH2 5159   6.298   4.678   3.597 -0.3126 -0.5207  0.2500
 1732TIP3    H1 5160   6.365   4.611   3.586 -1.0440 -1.2303 -0.0268
 1732TIP3    H2 5161   6.305   4.704   3.689  0.5806 -0.3162  0.1286
 1733TIP3   OH2 5162   2.129   2.781   5.171  0.8235  0.5277  0.1883
 1733TIP3    H1 5163   2.169   2.768   5.256  0.8074  1.2400  0.3083
 1733TIP3    H2 5164   2.194   2.750   5.108  0.9980  0.3876  0.4416
 1734TIP3   OH2 5165   0.529   1.597   1.112 -0.5113 -0.0282  0.0674
 1734TIP3    H1 5166   0.474   1.526   1.145  0.7557 -1.0282  0.0550
 1734TIP3    H2 5167   0.618   1.575   1.138 -0.1376  1.8609  0.5867
 1735TIP3   OH2 5168   5.349   3.266   2.309 -0.0169  0.2869  0.3492
 1735TIP3    H1 5169   5.334   3.349   2.355  0.5583  0.6843 -0.1592
 1735TIP3    H2 5170   5.326   3.199   2.373 -2.5442  0.8159  0.0828
 1736TIP3   OH2 5171   2.005   0.375   2.826  0.2013 -0.1070  0.5392
 1736TIP3    H1 5172   2.036   0.306   2.884 -1.3714 -0.0077  1.5784
 1736TIP3    H2 5173   1.931   0.336   2.779 -0.8122  0.8516  1.2569
 1737TIP3   OH2 5174   2.715   1.886   3.025  0.6355  0.1298  0.2916
 1737TIP3    H1 5175   2.791   1.853   3.075  1.4909  0.4341 -0.7646
 1737TIP3    H2 5176   2.644   1.889   3.089  1.1690 -1.4188  1.0058
 1738TIP3   OH2 5177   0.707   6.372   4.985  0.4296 -0.0919  0.9547
 1738TIP3    H1 5178   0.613   6.381   5.001  0.4463  0.0870  0.9531
 1738TIP3    H2 5179   0.715   6.292   4.933  0.3312 -0.4164  1.4366
 1739TIP3   OH2 5180   5.572   6.082   5.592  0.1842  0.4315  0.0668
 1739TIP3    H1 5181   5.492   6.123   5.559  0.0620  0.0950 -0.0532
 1739TIP3    H2 5182   5.621   6.058   5.513 -1.0851 -2.3648  0.0080
 1740TIP3   OH2 5183   4.277   1.093   3.686  0.0594  0.5779  0.4669
 1740TIP3    H1 5184   4.373   1.092   3.690  0.0951  0.4509 -0.3161
 1740TIP3    H2 5185   4.254   1.185   3.674  0.0818  0.5931  0.5350
 1741TIP3   OH2 5186   0.170   0.354   0.788  0.3813 -0.0880 -0.3188
 1741TIP3    H1 5187   0.250   0.305   0.806  1.2752  0.6590 -2.0490
 1741TIP3    H2 5188   0.106   0.286   0.766  0.8611 -0.6276 -0.0928
 1742TIP3   OH2 5189   3.591   1.995   2.204 -0.6985  0.0928  0.1989
 1742TIP3    H1 5190   3.641   1.933   2.151 -1.6702 -0.7169  0.1939
 1742TIP3    H2 5191   3.616   1.976   2.294  1.6362  2.0711  0.0608
 1743TIP3   OH2 5192   1.345   4.514   0.990  0.0239 -0.2017  0.1862
 1743TIP3    H1 5193   1.343   4.447   1.058 -0.2441 -0.3307  0.0488
 1743TIP3    H2 5194   1.438   4.538   0.984  0.1676 -0.8018 -0.0047
 1744TIP3   OH2 5195   6.609   5.130   3.392  0.0092 -0.0127  0.9932
 1744TIP3    H1 5196   6.658   5.173   3.462  0.8738  0.5285  0.0763
 1744TIP3    H2 5197   6.675   5.085   3.340 -0.7263 -1.1471  1.0230
 1745TIP3   OH2 5198   5.255   4.429   1.756  0.4323 -0.4808  0.2101
 1745TIP3    H1 5199   5.225   4.338   1.757 -0.0396 -0.3360 -0.4156
 1745TIP3    H2 5200   5.348   4.424   1.779  0.1532 -1.0140  1.3327
 1746TIP3   OH2 5201   0.630   0.505   2.042  0.1163 -0.6564  0.1213
 1746TIP3    H1 5202   0.658   0.562   1.970 -1.5308  0.8358  0.5667
 1746TIP3    H2 5203   0.681   0.535   2.117 -0.2081 -0.2627  0.1882
 1747TIP3   OH2 5204   5.810   5.714   3.468 -0.4120  0.4902 -0.3122
 1747TIP3    H1 5205   5.795   5.736   3.560  0.4577  0.3116 -0.1153
 1747TIP3    H2 5206   5.723   5.716   3.429 -1.1189 -1.5276  0.9755
 1748TIP3   OH2 5207   6.042   5.222   0.791  0.3218 -0.3241 -0.1637
 1748TIP3    H1 5208   5.981   5.292   0.769 -0.2129 -0.3298  1.2248
 1748TIP3    H2 5209   5.997   5.142   0.763  0.1862 -0.2494 -0.1576
 1749TIP3   OH2 5210   1.815   0.268   2.661 -0.1330 -0.0347 -0.1324
 1749TIP3    H1 5211   1.786   0.178   2.644  0.1979 -0.2352  0.3324
 1749TIP3    H2 5212   1.819   0.308   2.574 -0.9328 -0.2640 -0.2854
 1750TIP3   OH2 5213   0.019   0.368   0.519 -0.4292  0.1573 -0.0825
 1750TIP3    H1 5214  -0.047   0.330   0.462 -0.0086 -0.4264 -0.1940
 1750TIP3    H2 5215   0.093   0.388   0.461  0.4498 -1.5021  0.3888
 1751TIP3   OH2 5216   3.019   6.072   5.863  0.0453  0.3963  0.3476
 1751TIP3    H1 5217   2.941   6.105   5.906  0.0192  0.7675  0.0212
 1751TIP3    H2 5218   3.062   6.150   5.828  0.6689  0.2195  0.7005
 1752TIP3   OH2 5219   4.197   2.642   0.559  0.6892  0.5401  0.1170
 1752TIP3    H1 5220   4.293   2.641   0.559  0.7264  1.0201 -1.4458
 1752TIP3    H2 5221   4.172   2.551   0.546  0.9773  0.5565 -0.6179
 1753TIP3   OH2 5222   3.286   1.053   0.171  0.4441 -0.0489 -0.0808
 1753TIP3    H1 5223   3.192   1.035   0.170  0.4046  0.0507  0.7744
 1753TIP3    H2 5224   3.297   1.127   0.111 -0.4340  1.6976  1.7565
 1754TIP3   OH2 5225   5.101   0.548   4.758 -0.1369 -0.2978  0.6440
 1754TIP3    H1 5226   5.182   0.597   4.773  0.6131 -1.7250  1.4488
 1754TIP3    H2 5227   5.128   0.457   4.751 -1.5708 -0.6953 -0.1491
 1755TIP3   OH2 5228   1.630   5.546   0.175  0.2571 -0.0542  0.0803
 1755TIP3    H1 5229   1.670   5.541   0.262  0.8191  1.1292 -0.0985
 1755TIP3    H2 5230   1.538   5.567   0.192  0.2395 -0.3737  0.4019
 1756TIP3   OH2 5231   0.113   6.729   0.463  0.5983  0.3104 -0.1081
 1756TIP3    H1 5232   0.060   6.803   0.493 -0.7440 -1.0822  1.1385
 1756TIP3    H2 5233   0.119   6.671   0.540  0.2641 -1.6244 -1.4674
 1757TIP3   OH2 5234   4.464   0.476   2.034 -0.4593 -0.0046 -0.2789
 1757TIP3    H1 5235   4.528   0.434   1.977  0.0222 -0.4308  0.5528
 1757TIP3    H2 5236   4.421   0.541   1.978 -0.8827 -1.2598 -1.4467
 1758TIP3   OH2 5237   6.315   3.856   0.457  0.1604  0.4406 -0.5208
 1758TIP3    H1 5238   6.352   3.768   0.466  1.0178  0.8699  0.2581
 1758TIP3    H2 5239   6.329   3.897   0.542 -1.1700  0.9881 -0.5427
 1759TIP3   OH2 5240   5.158   1.222   4.632 -0.2135 -0.5501  0.0615
 1759TIP3    H1 5241   5.222   1.276   4.585 -0.2854  0.4798  1.0898
 1759TIP3    H2 5242   5.185   1.228   4.724 -1.2156 -0.9024  0.3902
 1760TIP3   OH2 5243   2.284   1.134   2.000 -0.7518 -0.1305 -0.6669
 1760TIP3    H1 5244   2.315   1.162   1.914  0.5324  0.2443 -0.1091
 1760TIP3    H2 5245   2.193   1.165   2.005  0.0834  2.6027 -0.7126
 1761TIP3   OH2 5246   1.897   0.314   5.153 -0.1735 -0.0484 -0.0220
 1761TIP3    H1 5247   1.984   0.290   5.186 -0.4696  0.5901  1.3117
 1761TIP3    H2 5248   1.872   0.241   5.096  1.1972 -0.2712 -0.3722
 1762TIP3   OH2 5249   6.649   1.979   2.759  0.3759 -0.3140 -0.5492
 1762TIP3    H1 5250   6.701   2.041   2.708  1.4518  0.1663  1.0553
 1762TIP3    H2 5251   6.613   2.031   2.831 -2.3812 -0.6344 -1.5531
 1763TIP3   OH2 5252   5.957   6.642   4.953  0.0514 -0.6913 -0.5258
 1763TIP3    H1 5253   5.918   6.590   5.024 -0.6370  1.6140  0.8937
 1763TIP3    H2 5254   6.047   6.657   4.981 -0.5070  1.1149  0.5062
 1764TIP3   OH2 5255   2.813   4.221   3.701 -0.4234 -0.5209 -0.3559
 1764TIP3    H1 5256   2.846   4.183   3.782 -0.5547 -1.7618 -0.8565
 1764TIP3    H2 5257   2.818   4.149   3.637 -1.4602  0.0777 -1.1410
 1765TIP3   OH2 5258   3.870   6.240   4.569  0.0111 -0.2134  0.5349
 1765TIP3    H1 5259   3.958   6.208   4.591  0.4964 -0.8446 -1.9685
 1765TIP3    H2 5260   3.812   6.169   4.595  0.6085 -1.1843 -0.6533
 1766TIP3   OH2 5261   1.588   1.670   2.291  0.0895 -0.1334 -0.1771
 1766TIP3    H1 5262   1.606   1.726   2.367  0.2311 -1.8799  1.1546
 1766TIP3    H2 5263   1.653   1.695   2.227  0.4104  0.9365  0.5409
 1767TIP3   OH2 5264   4.515   6.621   1.151 -0.8432  0.3531  0.3386
 1767TIP3    H1 5265   4.426   6.592   1.173 -0.9136  0.7693  0.6085
 1767TIP3    H2 5266   4.569   6.543   1.161 -0.9656  0.4045  1.4426
 1768TIP3   OH2 5267   3.018  -0.021   2.582 -0.0425  0.6259  0.4636
 1768TIP3    H1 5268   3.106   0.014   2.591  0.9477 -1.7363  0.6169
 1768TIP3    H2 5269   2.966   0.028   2.646  0.9045  2.6983 -0.2776
 1769TIP3   OH2 5270   6.193   3.137   2.715  0.5458  0.7645  0.0799
 1769TIP3    H1 5271   6.164   3.203   2.778  1.6027  2.0119 -0.6906
 1769TIP3    H2 5272   6.261   3.088   2.762  1.4957  1.8415 -0.1481
 1770TIP3   OH2 5273   2.276   5.795   4.442  0.2501  0.5752 -0.1107
 1770TIP3    H1 5274   2.210   5.823   4.505  1.6464 -0.2616  1.8125
 1770TIP3    H2 5275   2.296   5.875   4.392 -0.4942  1.4124  0.8829
 1771TIP3   OH2 5276   7.139   4.625   1.389  0.0676  0.4539 -0.2679
 1771TIP3    H1 5277   7.164   4.537   1.360 -2.0890  0.6041 -3.0839
 1771TIP3    H2 5278   7.196   4.684   1.339  0.0132  0.6858 -0.0612
 1772TIP3   OH2 5279   1.734   1.841   5.784  0.2949  0.5267  0.1658
 1772TIP3    H1 5280   1.785   1.922   5.773 -0.5064  1.0033 -0.1245
 1772TIP3    H2 5281   1.643   1.869   5.776 -0.0450 -0.2481  1.0807
 1773TIP3   OH2 5282   2.098   2.761   2.839 -0.3910 -0.2468 -0.3027
 1773TIP3    H1 5283   2.163   2.711   2.790  2.7473  1.0665  2.1835
 1773TIP3    H2 5284   2.075   2.706   2.913  0.6821  0.6551  0.7413
 1774TIP3   OH2 5285   6.600   0.546   2.017  0.7603  0.1865  0.1563
 1774TIP3    H1 5286   6.576   0.605   1.946  0.2700  0.2334  0.3537
 1774TIP3    H2 5287   6.629   0.466   1.974 -0.1638 -0.0277 -0.0979
 1775TIP3   OH2 5288   2.507   5.056   5.866  0.1385  0.5204 -0.3590
 1775TIP3    H1 5289   2.512   5.151   5.880 -3.3024  0.7265  0.4964
 1775TIP3    H2 5290   2.480   5.047   5.775  3.7501  0.0703 -1.5294
 1776TIP3   OH2 5291   1.793   3.318   0.265 -0.3537  0.5166 -0.3695
 1776TIP3    H1 5292   1.771   3.400   0.310  0.1120  0.5441 -0.1896
 1776TIP3    H2 5293   1.796   3.253   0.335 -2.3823 -0.0150 -0.6954
 1777TIP3   OH2 5294   4.864   6.440   1.733  0.1245  0.1627  0.2527
 1777TIP3    H1 5295   4.901   6.394   1.657 -1.2317 -0.8165  0.1378
 1777TIP3    H2 5296   4.836   6.369   1.792 -2.4373  0.7577 -0.1225
 1778TIP3   OH2 5297   2.207   0.986   1.303  0.3718  0.2444  0.0533
 1778TIP3    H1 5298   2.133   1.021   1.253  0.1926  0.6494  0.5830
 1778TIP3    H2 5299   2.172   0.976   1.392  0.2911 -1.6903 -0.1620
 1779TIP3   OH2 5300   2.897   1.529   0.485 -0.6292 -0.2539 -0.1261
 1779TIP3    H1 5301   2.880   1.438   0.463  0.1044 -0.2192 -0.8481
 1779TIP3    H2 5302   2.979   1.528   0.534 -1.0633 -0.0683  0.6295
 1780TIP3   OH2 5303   1.537   6.103   0.408 -0.2989  0.0368 -0.0093
 1780TIP3    H1 5304   1.498   6.054   0.335  0.2855  0.3430 -0.5267
 1780TIP3    H2 5305   1.620   6.136   0.374  0.8006 -1.2230  1.3053
 1781TIP3   OH2 5306   0.109   0.716   3.806  0.4999  0.0941 -0.5113
 1781TIP3    H1 5307   0.137   0.670   3.885 -1.2108  0.1674  0.1615
 1781TIP3    H2 5308   0.142   0.662   3.734  3.5189  0.8648  0.1397
 1782TIP3   OH2 5309   4.876   0.167   4.797  0.5432  0.3428 -0.9348
 1782TIP3    H1 5310   4.872   0.225   4.873  0.0473  3.1130 -2.9061
 1782TIP3    H2 5311   4.831   0.088   4.825  0.0638  1.3915  1.5327
 1783TIP3   OH2 5312   0.647   1.247   4.370  0.3194  0.0805 -0.0178
 1783TIP3    H1 5313   0.704   1.195   4.427  0.9806  0.9193  0.1001
 1783TIP3    H2 5314   0.707   1.292   4.311 -0.3526 -0.8804 -1.5072
 1784TIP3   OH2 5315   0.029   6.508   1.377 -0.2825  0.5176 -0.1889
 1784TIP3    H1 5316   0.059   6.599   1.375  0.7887  0.1748 -0.4088
 1784TIP3    H2 5317  -0.035   6.502   1.306 -0.5931  1.1715  0.0293
 1785TIP3   OH2 5318   5.200   4.061   0.898  0.7995  0.2738  0.1285
 1785TIP3    H1 5319   5.266   4.041   0.832 -0.2987 -0.1401 -0.8986
 1785TIP3    H2 5320   5.133   3.993   0.886 -1.5076  2.5703 -1.3009
 1786TIP3   OH2 5321   0.084   1.166   0.865 -0.0936  0.1864 -0.2340
 1786TIP3    H1 5322   0.026   1.240   0.882 -0.1471  0.2522 -0.6887
 1786TIP3    H2 5323   0.172   1.200   0.882 -0.0438  0.6095 -1.2163
 1787TIP3   OH2 5324   3.310   1.447   4.054  0.0312 -0.6322  0.0374
 1787TIP3    H1 5325   3.230   1.480   4.094  0.6521  0.8002  0.1644
 1787TIP3    H2 5326   3.290   1.442   3.960  0.3469  1.6160 -0.2104
 1788TIP3   OH2 5327   2.803   0.321   0.647  0.4741 -0.0322  0.0772
 1788TIP3    H1 5328   2.722   0.308   0.697  0.5257  1.4058  0.5838
 1788TIP3    H2 5329   2.791   0.268   0.568 -1.4975  1.0631 -0.4171
 1789TIP3   OH2 5330   2.499   5.078   5.585  0.2419 -0.3989 -0.2509
 1789TIP3    H1 5331   2.496   5.174   5.590  1.1004 -0.3983  0.4475
 1789TIP3    H2 5332   2.425   5.055   5.529  0.1983  0.6901 -0.6654
 1790TIP3   OH2 5333   0.760   4.313   2.803 -0.3637 -0.4226 -0.0750
 1790TIP3    H1 5334   0.734   4.373   2.873 -0.2854 -0.9719  0.4331
 1790TIP3    H2 5335   0.683   4.259   2.787 -1.0447  0.9533 -1.7864
 1791TIP3   OH2 5336   7.169   1.776   0.582  0.0820  0.1687  0.4184
 1791TIP3    H1 5337   7.195   1.800   0.671  0.9221 -0.2003  0.2763
 1791TIP3    H2 5338   7.079   1.809   0.575 -0.7397 -1.4996  2.0693
 1792TIP3   OH2 5339   2.653   2.493   5.768  0.1040  0.0564 -0.4178
 1792TIP3    H1 5340   2.725   2.458   5.716  1.0446  0.4582  0.5599
 1792TIP3    H2 5341   2.658   2.588   5.755  1.0426  0.2719  1.1798
 1793TIP3   OH2 5342   0.252   1.494   0.368 -0.4015 -0.1400  0.2406
 1793TIP3    H1 5343   0.158   1.496   0.348 -0.0077  1.5658 -1.7919
 1793TIP3    H2 5344   0.274   1.401   0.368 -1.8413 -0.5168 -0.5961
 1794TIP3   OH2 5345   6.866   1.018   1.355  0.3833 -0.0824 -0.1457
 1794TIP3    H1 5346   6.940   0.982   1.405  0.1859 -1.1784 -0.5993
 1794TIP3    H2 5347   6.810   1.058   1.421 -1.0378 -3.4771  0.9770
 1795TIP3   OH2 5348   5.854   4.037   3.683  0.3373  0.4127  0.0229
 1795TIP3    H1 5349   5.865   4.084   3.601 -1.4621 -2.2785 -1.9422
 1795TIP3    H2 5350   5.788   3.971   3.664  1.3151 -1.6700  3.0636
 1796TIP3   OH2 5351   6.479   3.592   0.508  0.5549  0.4564 -0.3710
 1796TIP3    H1 5352   6.450   3.595   0.599 -0.8022 -1.7713 -0.6456
 1796TIP3    H2 5353   6.574   3.599   0.512  0.6468 -1.2206  1.3655
 1797TIP3   OH2 5354   3.350   1.094   1.860  0.0220  0.3121  0.1577
 1797TIP3    H1 5355   3.444   1.105   1.844  0.1928 -0.4279  0.6021
 1797TIP3    H2 5356   3.323   1.175   1.903  0.2893  0.8534 -0.6711
 1798TIP3   OH2 5357   0.970   4.180   4.000 -0.5236 -0.4494  0.2716
 1798TIP3    H1 5358   0.993   4.233   4.077 -0.1279 -0.1726 -0.0356
 1798TIP3    H2 5359   0.961   4.243   3.929  1.4720 -0.9133 -0.4563
 1799TIP3   OH2 5360   3.626   5.853   1.260  0.2036  0.1900  0.2821
 1799TIP3    H1 5361   3.622   5.890   1.349 -0.8839  1.6346 -0.3206
 1799TIP3    H2 5362   3.704   5.892   1.221 -0.1274  0.7229  0.1383
 1800TIP3   OH2 5363   2.745   3.022   4.539 -0.2787 -0.2034  0.5566
 1800TIP3    H1 5364   2.706   2.995   4.456  1.6190  2.6039 -1.4017
 1800TIP3    H2 5365   2.799   2.947   4.565 -1.2539 -1.3036 -0.4811
 1801TIP3   OH2 5366   6.735   0.555   3.070  0.2416  0.9431 -0.4923
 1801TIP3    H1 5367   6.724   0.460   3.069 -0.3572  0.9963  0.2141
 1801TIP3    H2 5368   6.773   0.576   2.985  0.5011  0.0571 -0.6013
 1802TIP3   OH2 5369   0.266   1.029   1.616 -0.4646 -0.5818  0.6375
 1802TIP3    H1 5370   0.191   0.985   1.576 -0.4173 -1.0636  1.0662
 1802TIP3    H2 5371   0.291   0.971   1.688 -0.0638 -0.1152  0.8728
 1803TIP3   OH2 5372   6.953   2.338   2.646 -0.4579  0.6011 -0.1043
 1803TIP3    H1 5373   6.951   2.407   2.712 -0.2392  0.1739  0.3637
 1803TIP3    H2 5374   7.008   2.373   2.576 -0.3265  0.8957  0.1438
 1804TIP3   OH2 5375   4.350   0.294   5.813  0.0727  0.3173  0.0946
 1804TIP3    H1 5376   4.391   0.353   5.750  2.1262 -0.3722  0.7074
 1804TIP3    H2 5377   4.383   0.207   5.789 -0.6889 -0.2088  0.9014
 1805TIP3   OH2 5378   6.331   5.570   5.507 -1.0566  0.1994  0.2194
 1805TIP3    H1 5379   6.382   5.649   5.523 -0.8967  0.2806 -0.6621
 1805TIP3    H2 5380   6.254   5.600   5.458  0.2330 -0.4838 -2.3810
 1806TIP3   OH2 5381   2.005   0.852   0.831  0.2553  0.3891 -0.0708
 1806TIP3    H1 5382   1.933   0.823   0.775 -1.6576  0.4728  2.1630
 1806TIP3    H2 5383   2.052   0.772   0.854 -1.5032 -0.2685  1.4685
 1807TIP3   OH2 5384   3.682   1.388   5.652 -0.5013  0.4038 -0.5752
 1807TIP3    H1 5385   3.727   1.434   5.581 -2.4389  0.8073 -1.6185
 1807TIP3    H2 5386   3.593   1.421   5.649 -1.6903 -2.4814 -0.5574
 1808TIP3   OH2 5387   2.520   1.881   3.247  1.0642  0.4389 -0.1258
 1808TIP3    H1 5388   2.561   1.949   3.301  0.8042  0.1336  0.4738
 1808TIP3    H2 5389   2.459   1.837   3.307 -1.5498  2.0544 -1.4329
 1809TIP3   OH2 5390   0.820   4.291   4.849  0.0622 -0.7208  0.4316
 1809TIP3    H1 5391   0.887   4.353   4.878 -1.1650  0.2451  1.3624
 1809TIP3    H2 5392   0.846   4.267   4.761  2.1200 -1.1029  1.0947
 1810TIP3   OH2 5393   1.421   2.052   2.546 -0.2271 -0.3906 -0.3350
 1810TIP3    H1 5394   1.423   2.147   2.555  1.0706 -0.4089 -0.1701
 1810TIP3    H2 5395   1.455   2.020   2.630  0.2610 -0.9632 -0.7429
 1811TIP3   OH2 5396   3.600   2.059   5.107  0.5617  0.2870  0.3485
 1811TIP3    H1 5397   3.542   2.136   5.107 -0.0047 -0.0961 -1.1805
 1811TIP3    H2 5398   3.668   2.082   5.043  0.8672 -0.1525  0.5168
 1812TIP3   OH2 5399   4.786   2.066   4.881  0.2247 -0.2026 -0.0040
 1812TIP3    H1 5400   4.841   2.137   4.916 -0.0871 -0.3302  0.7564
 1812TIP3    H2 5401   4.729   2.109   4.817  0.0738  0.2214  0.4138
 1813TIP3   OH2 5402   3.626   6.064   3.958 -0.1175  0.3850 -0.0063
 1813TIP3    H1 5403   3.645   6.122   4.032 -0.4911  0.5941 -0.0739
 1813TIP3    H2 5404   3.617   6.122   3.883  2.1385  0.0505 -0.6172
 1814TIP3   OH2 5405   6.705   3.590   4.198  0.5279 -0.3089 -0.6051
 1814TIP3    H1 5406   6.655   3.559   4.274  1.2249 -0.5915 -0.2523
 1814TIP3    H2 5407   6.769   3.521   4.182  1.3530  0.4261 -0.5272
 1815TIP3   OH2 5408   0.907   3.288   4.888 -0.1204 -0.5301 -0.1827
 1815TIP3    H1 5409   0.960   3.224   4.839  0.7666  0.2893 -0.3346
 1815TIP3    H2 5410   0.835   3.310   4.829 -0.5194 -1.4769 -0.0739
 1816TIP3   OH2 5411   1.542   1.064   4.573  0.5955 -0.3954 -0.1139
 1816TIP3    H1 5412   1.565   1.031   4.659  1.1643 -1.3645 -0.6244
 1816TIP3    H2 5413   1.471   1.126   4.589  1.2182  0.0245  1.1205
 1817TIP3   OH2 5414   4.378   4.878   2.822  0.1173 -0.3972  0.6031
 1817TIP3    H1 5415   4.460   4.876   2.774 -0.8786 -0.6018 -1.1952
 1817TIP3    H2 5416   4.396   4.831   2.904  1.8659 -0.0666  0.4347
 1818TIP3   OH2 5417   0.530   6.630   4.711  0.1940 -0.0843  0.1955
 1818TIP3    H1 5418   0.492   6.675   4.787 -0.4751  0.0555 -0.2093
 1818TIP3    H2 5419   0.553   6.543   4.742 -0.1872 -0.0648  0.5327
 1819TIP3   OH2 5420   2.603   2.956   4.315 -0.1214  0.2712 -0.6314
 1819TIP3    H1 5421   2.511   2.938   4.336 -0.0561  1.1400  0.5004
 1819TIP3    H2 5422   2.604   3.049   4.291  0.2222 -0.1156 -2.2412
 1820TIP3   OH2 5423   3.449   1.244   2.151  0.2053 -0.5401  0.2782
 1820TIP3    H1 5424   3.516   1.294   2.195  0.9160 -1.2049 -0.0248
 1820TIP3    H2 5425   3.419   1.300   2.079  2.1793 -1.1488 -1.1020
 1821TIP3   OH2 5426   6.250   2.346   4.407 -0.2167 -0.3427  0.5126
 1821TIP3    H1 5427   6.192   2.366   4.481  0.0034  2.9940 -0.0560
 1821TIP3    H2 5428   6.337   2.373   4.438  0.2795 -1.1276 -0.1771
 1822TIP3   OH2 5429   1.102   4.961   1.330 -0.2332 -0.1856  0.1083
 1822TIP3    H1 5430   1.125   4.878   1.286 -0.2056 -1.0927  1.7747
 1822TIP3    H2 5431   1.138   5.028   1.272 -0.9696 -1.2836 -1.7159
 1823TIP3   OH2 5432   2.551   0.978   3.373 -0.3965 -0.3564 -0.3114
 1823TIP3    H1 5433   2.557   0.990   3.279 -2.0774  0.7004 -0.3174
 1823TIP3    H2 5434   2.531   0.885   3.385 -1.5689 -0.2160 -1.0868
 1824TIP3   OH2 5435   5.420   2.824   5.559  0.4029  0.2936  0.3507
 1824TIP3    H1 5436   5.428   2.885   5.485 -3.3063  1.8304  0.9947
 1824TIP3    H2 5437   5.447   2.876   5.635 -0.0009  0.1696  0.5788
 1825TIP3   OH2 5438   6.812   5.926   3.233  0.1407 -0.1567 -0.0362
 1825TIP3    H1 5439   6.882   5.986   3.206 -1.1643  1.3329 -0.2486
 1825TIP3    H2 5440   6.765   5.973   3.302  0.5925 -2.0136  1.6279
 1826TIP3   OH2 5441   6.712   1.288   1.259 -0.1858 -0.9120 -0.9455
 1826TIP3    H1 5442   6.753   1.203   1.244 -1.6375 -1.7449 -0.4143
 1826TIP3    H2 5443   6.747   1.318   1.343 -0.8661 -1.7658 -0.3357
 1827TIP3   OH2 5444   3.188   3.341   2.746  0.0725  0.4639  0.5118
 1827TIP3    H1 5445   3.099   3.358   2.777  0.0350  0.3398  0.4767
 1827TIP3    H2 5446   3.192   3.381   2.660  0.9983  3.0946  1.6904
 1828TIP3   OH2 5447   1.775   3.856   2.041 -0.0299 -0.5725  0.2758
 1828TIP3    H1 5448   1.783   3.875   2.134 -0.9868  0.1461  0.2332
 1828TIP3    H2 5449   1.767   3.761   2.036  2.3293 -0.8422  0.7137
 1829TIP3   OH2 5450   3.378   3.676   2.009  0.2563  0.5504 -0.6278
 1829TIP3    H1 5451   3.332   3.593   2.019  0.4433  0.4113 -0.9183
 1829TIP3    H2 5452   3.394   3.684   1.915  1.0976  0.4416 -0.5071
 1830TIP3   OH2 5453   2.631   2.249   1.509  0.0409 -0.4933  0.3065
 1830TIP3    H1 5454   2.713   2.279   1.547 -0.5368  0.6873  0.6656
 1830TIP3    H2 5455   2.578   2.328   1.499 -1.3032 -1.3068  0.6795
 1831TIP3   OH2 5456   2.516   4.830   0.878 -0.2759 -0.5465  0.2682
 1831TIP3    H1 5457   2.423   4.806   0.881 -0.8839  1.6565  0.7295
 1831TIP3    H2 5458   2.543   4.836   0.970  0.3714 -1.2979  0.1359
 1832TIP3   OH2 5459   2.699   4.132   5.862  0.1757  0.0444 -0.3152
 1832TIP3    H1 5460   2.781   4.093   5.831  0.4343  0.2530  0.1011
 1832TIP3    H2 5461   2.713   4.226   5.854 -0.8774  0.0828 -2.4390
 1833TIP3   OH2 5462   1.783   5.998   5.076  0.3642  0.1681  0.0333
 1833TIP3    H1 5463   1.780   5.940   5.153 -0.2448 -0.2797 -0.3231
 1833TIP3    H2 5464   1.705   6.053   5.084  0.3798  0.2226 -0.1839
 1834TIP3   OH2 5465   0.829   3.758   3.963 -0.3309 -0.1986  0.4617
 1834TIP3    H1 5466   0.810   3.709   3.884  1.9837  0.8088 -0.8101
 1834TIP3    H2 5467   0.848   3.691   4.029  0.9166 -1.0786 -0.7298
 1835TIP3   OH2 5468   4.857   0.420   4.660  0.4234 -0.6940  0.1947
 1835TIP3    H1 5469   4.937   0.462   4.690  1.0965 -2.8915  1.7681
 1835TIP3    H2 5470   4.864   0.330   4.692 -2.2284 -1.2342 -0.4842
 1836TIP3   OH2 5471   2.370   0.251   1.846  0.0214 -0.0472 -0.4098
 1836TIP3    H1 5472   2.309   0.275   1.776  1.3357  2.2591 -0.8829
 1836TIP3    H2 5473   2.399   0.335   1.882  2.1879 -1.0829  0.4393
 1837TIP3   OH2 5474   5.691   1.734   4.690  1.2464 -0.1349  0.4353
 1837TIP3    H1 5475   5.635   1.726   4.613  1.3812  0.4248  0.2735
 1837TIP3    H2 5476   5.646   1.683   4.758 -0.1782  1.3785  0.7032
 1838TIP3   OH2 5477   6.981   5.844   1.694 -0.3973  0.1070 -0.2522
 1838TIP3    H1 5478   6.983   5.796   1.611  0.5467 -1.5756  0.6828
 1838TIP3    H2 5479   6.943   5.929   1.672  0.7224  0.0814 -2.5964
 1839TIP3   OH2 5480   1.311   5.030   4.736  0.4038 -0.6324  0.0611
 1839TIP3    H1 5481   1.270   5.114   4.715  0.6143 -0.4469  0.3841
 1839TIP3    H2 5482   1.329   4.989   4.651  2.0690  0.5013 -0.1881
 1840TIP3   OH2 5483   6.562   0.761   0.843 -0.2836  0.2802  0.2802
 1840TIP3    H1 5484   6.549   0.749   0.749  0.4092 -0.4254  0.2591
 1840TIP3    H2 5485   6.487   0.719   0.883  0.4020 -1.1926  0.0849
 1841TIP3   OH2 5486   3.496   1.753   1.227  0.0983  0.3233 -0.1407
 1841TIP3    H1 5487   3.492   1.847   1.211 -0.1302  0.3261 -0.0768
 1841TIP3    H2 5488   3.452   1.741   1.311 -2.0318 -0.0867 -1.2263
 1842TIP3   OH2 5489   5.429   5.386   1.231  0.5872  0.2735  0.3952
 1842TIP3    H1 5490   5.496   5.356   1.169  0.7736 -1.3829  1.3408
 1842TIP3    H2 5491   5.476   5.444   1.290  1.0108 -0.1956  0.5308
 1843TIP3   OH2 5492   2.517   5.253   1.654 -0.5505 -0.1135  0.4063
 1843TIP3    H1 5493   2.566   5.285   1.730  0.9941 -0.1940 -0.5189
 1843TIP3    H2 5494   2.480   5.331   1.614 -0.7395  0.0101  0.8216
 1844TIP3   OH2 5495   6.644   5.304   4.313 -0.0802 -0.2695 -0.2528
 1844TIP3    H1 5496   6.550   5.315   4.298 -0.1049  0.6575  0.5276
 1844TIP3    H2 5497   6.652   5.284   4.406  0.7093  3.4985  0.6551
 1845TIP3   OH2 5498   1.327   2.027   4.635 -0.3887 -0.0426  0.6449
 1845TIP3    H1 5499   1.343   2.102   4.692  1.4953 -1.2212  1.7608
 1845TIP3    H2 5500   1.350   1.951   4.688 -4.1234 -1.6879  0.2842
 1846TIP3   OH2 5501   0.580   1.967   5.411  0.4056  0.2205 -0.1522
 1846TIP3    H1 5502   0.506   2.018   5.443  1.3679  0.8884  1.1289
 1846TIP3    H2 5503   0.638   2.031   5.371  0.7770 -0.1290 -0.1801
 1847TIP3   OH2 5504   6.063   4.059   4.674  0.2984 -0.2705  0.1763
 1847TIP3    H1 5505   6.038   4.076   4.765 -0.4423 -1.2868  0.1712
 1847TIP3    H2 5506   6.152   4.095   4.667 -0.0761  0.8854  0.9613
 1848TIP3   OH2 5507   2.977   2.860   4.669  0.0957 -0.1121 -0.3290
 1848TIP3    H1 5508   3.000   2.768   4.684  0.0635 -0.1552 -0.5344
 1848TIP3    H2 5509   3.013   2.907   4.744 -1.0442 -0.4723  0.4802
 1849TIP3   OH2 5510   1.871   0.079   2.108  0.6732 -0.4796 -0.1193
 1849TIP3    H1 5511   1.776   0.071   2.093  0.0692 -0.0708  2.7418
 1849TIP3    H2 5512   1.896   0.157   2.060 -0.2223 -1.0827 -1.6570
 1850TIP3   OH2 5513   0.268   3.766   5.644 -0.4277 -0.5239  0.3022
 1850TIP3    H1 5514   0.196   3.751   5.583 -0.3826 -1.5966  0.4941
 1850TIP3    H2 5515   0.264   3.692   5.704 -0.3136  0.3869  1.4558
 1851TIP3   OH2 5516   0.328   6.522   5.789  0.5244  0.0125  0.1705
 1851TIP3    H1 5517   0.362   6.465   5.719 -0.6312 -0.9436  0.3421
 1851TIP3    H2 5518   0.322   6.608   5.749  0.6699 -0.3521 -0.6688
 1852TIP3   OH2 5519   6.314   6.323   3.801  0.0456 -0.0275  0.0789
 1852TIP3    H1 5520   6.245   6.387   3.819 -1.2204 -0.9842 -1.0847
 1852TIP3    H2 5521   6.289   6.246   3.853  0.1285 -0.4256 -0.4560
 1853TIP3   OH2 5522   0.462   4.698   4.713 -0.0536 -0.0674 -0.8642
 1853TIP3    H1 5523   0.425   4.638   4.778 -1.3865 -0.0159 -1.5421
 1853TIP3    H2 5524   0.553   4.669   4.702 -0.1191 -0.7311  0.2340
 1854TIP3   OH2 5525   3.839   6.321   2.545  0.1908  0.2310  0.3427
 1854TIP3    H1 5526   3.817   6.232   2.517 -1.1515  0.7408 -0.3247
 1854TIP3    H2 5527   3.798   6.331   2.630 -1.0227  0.7024 -0.2693
 1855TIP3   OH2 5528   2.251   1.401   5.032  0.2693  0.1345  0.3677
 1855TIP3    H1 5529   2.189   1.446   5.089  0.9458 -0.7492  1.8651
 1855TIP3    H2 5530   2.197   1.341   4.981 -0.4554  1.5712 -0.6255
 1856TIP3   OH2 5531   6.618  -0.009   2.849  0.5286  0.5181 -0.2939
 1856TIP3    H1 5532   6.592  -0.021   2.758  1.3524  0.4725 -0.5350
 1856TIP3    H2 5533   6.587   0.079   2.871 -1.0577 -0.0646 -0.1115
 1857TIP3   OH2 5534   2.308   2.202   5.851 -0.2189  0.4962 -0.4349
 1857TIP3    H1 5535   2.276   2.157   5.928 -0.3849 -1.7541 -1.7400
 1857TIP3    H2 5536   2.245   2.273   5.836 -0.1339  1.0372  1.4788
 1858TIP3   OH2 5537   0.725   3.991   4.050  0.1319  0.7088 -0.2898
 1858TIP3    H1 5538   0.781   4.032   3.984  1.7015 -0.4451  0.2642
 1858TIP3    H2 5539   0.741   3.897   4.040 -0.7023  0.4441  0.7738
 1859TIP3   OH2 5540   5.092   3.276   2.654 -0.0913 -0.1332 -0.5826
 1859TIP3    H1 5541   5.056   3.348   2.603 -0.0819 -0.5848 -1.2386
 1859TIP3    H2 5542   5.158   3.316   2.710  0.2094  0.3078 -1.2426
 1860TIP3   OH2 5543   3.430   2.807   0.757 -0.2806 -0.2751 -0.3789
 1860TIP3    H1 5544   3.369   2.733   0.754  0.0258 -0.5043 -1.5482
 1860TIP3    H2 5545   3.495   2.781   0.822 -0.1297 -1.0928 -0.8340
 1861TIP3   OH2 5546   5.118   2.892   4.238 -0.1682  0.5701  0.9881
 1861TIP3    H1 5547   5.029   2.925   4.244 -0.2955  0.4720 -0.1496
 1861TIP3    H2 5548   5.119   2.815   4.295 -0.5687  1.0365  1.6448
 1862TIP3   OH2 5549   3.330   3.082   3.784 -0.3016 -0.3569  0.2488
 1862TIP3    H1 5550   3.361   3.168   3.756 -2.9998  0.5162 -0.4251
 1862TIP3    H2 5551   3.380   3.063   3.863  1.2207  1.2523 -0.2552
 1863TIP3   OH2 5552   2.260   2.554   4.725  0.1662 -0.5735  0.1742
 1863TIP3    H1 5553   2.297   2.629   4.680 -0.8703 -0.8544 -1.2138
 1863TIP3    H2 5554   2.234   2.588   4.811 -0.1844  0.6411 -0.3889
 1864TIP3   OH2 5555   1.804   1.824   2.863  0.4913 -0.0606  0.2777
 1864TIP3    H1 5556   1.812   1.744   2.812  2.3128  0.2442  0.0114
 1864TIP3    H2 5557   1.877   1.879   2.833 -0.7319  1.7194  0.4249
 1865TIP3   OH2 5558   6.925   5.239   4.512  0.0931  0.2367  0.2208
 1865TIP3    H1 5559   6.905   5.328   4.540  4.0908  1.3794  0.0814
 1865TIP3    H2 5560   6.923   5.187   4.592 -1.0928  0.6938  0.5023
 1866TIP3   OH2 5561   3.806   1.021   1.594 -0.1206 -0.5561 -0.1357
 1866TIP3    H1 5562   3.849   1.024   1.509  0.7988 -1.7732  0.2579
 1866TIP3    H2 5563   3.878   1.029   1.658 -0.7129 -0.4116  0.5315
 1867TIP3   OH2 5564   2.672   0.281   5.767  0.1833  0.4774  0.6970
 1867TIP3    H1 5565   2.671   0.218   5.839 -0.7098 -0.3944 -0.0474
 1867TIP3    H2 5566   2.586   0.271   5.726  0.2241  1.8249  0.2406
 1868TIP3   OH2 5567   4.718   0.996   4.599 -0.1371  0.1666 -0.2788
 1868TIP3    H1 5568   4.813   1.008   4.602  0.1935 -1.8920  3.6578
 1868TIP3    H2 5569   4.705   0.916   4.548  0.1052  0.8686 -1.4836
 1869TIP3   OH2 5570   3.747   3.067   5.150  0.2590  0.2300  0.9351
 1869TIP3    H1 5571   3.739   2.976   5.178  0.4225  0.3744  1.4708
 1869TIP3    H2 5572   3.839   3.089   5.166 -0.0568  0.8594  1.9946
 1870TIP3   OH2 5573   2.316   3.672   3.496 -0.4765 -0.5153 -0.5748
 1870TIP3    H1 5574   2.310   3.578   3.513 -0.2784 -0.7652 -1.8273
 1870TIP3    H2 5575   2.361   3.679   3.412  1.2745  0.7558  0.3996
 1871TIP3   OH2 5576   4.358   2.077   0.202 -0.4551 -0.0939 -0.7299
 1871TIP3    H1 5577   4.392   2.167   0.195  2.7127 -1.0776  0.4962
 1871TIP3    H2 5578   4.282   2.085   0.259  2.2032  1.4249  3.0633
 1872TIP3   OH2 5579   0.744   5.240   1.847  0.4881  0.0181 -0.1834
 1872TIP3    H1 5580   0.773   5.177   1.781  2.0199  0.9010 -0.4089
 1872TIP3    H2 5581   0.788   5.322   1.823  1.4500  0.2646  2.1601
 1873TIP3   OH2 5582   6.376   3.198   3.178  0.1409  0.3443 -0.7985
 1873TIP3    H1 5583   6.460   3.171   3.143  1.4680  1.2426  1.4927
 1873TIP3    H2 5584   6.355   3.131   3.244 -0.4227  0.7229 -0.5845
 1874TIP3   OH2 5585   5.599   1.072   4.985  0.3802  0.1910 -0.2210
 1874TIP3    H1 5586   5.646   1.009   4.930 -1.1230 -1.0780 -0.1202
 1874TIP3    H2 5587   5.618   1.044   5.074  0.0437  0.1479 -0.1645
 1875TIP3   OH2 5588   3.226   2.781   1.792 -0.0520  0.0871  0.6640
 1875TIP3    H1 5589   3.132   2.766   1.783 -0.7210  1.7072  3.7062
 1875TIP3    H2 5590   3.266   2.697   1.766 -2.1947 -0.3500 -1.5897
 1876TIP3   OH2 5591   3.865   2.041   3.802 -0.1682 -0.3377  0.8195
 1876TIP3    H1 5592   3.788   2.098   3.809  1.1787  1.7009  0.0317
 1876TIP3    H2 5593   3.900   2.037   3.890  0.0901  0.6561  0.7783
 1877TIP3   OH2 5594   5.036   4.133   1.268 -0.2982  0.4018 -0.3147
 1877TIP3    H1 5595   4.970   4.082   1.222 -0.8374  0.1583  0.6984
 1877TIP3    H2 5596   5.094   4.068   1.307 -1.4404  0.4903  1.6404
 1878TIP3   OH2 5597   4.427   4.221   1.408  0.4047  0.2420 -0.0734
 1878TIP3    H1 5598   4.335   4.244   1.424  0.5144  0.9878 -0.4520
 1878TIP3    H2 5599   4.445   4.255   1.321  1.4686  1.4806  0.5950
 1879TIP3   OH2 5600   4.753   0.596   3.960  0.3175 -0.7605 -0.0546
 1879TIP3    H1 5601   4.837   0.564   3.992  1.0029 -0.4421 -1.4485
 1879TIP3    H2 5602   4.767   0.610   3.866 -0.7987  0.8431 -0.0306
 1880TIP3   OH2 5603   0.830   3.718   1.897 -0.3365  0.0846 -0.2487
 1880TIP3    H1 5604   0.772   3.762   1.959 -2.7731 -0.9640 -1.6306
 1880TIP3    H2 5605   0.890   3.668   1.952  1.1954  3.3690  1.2924
 1881TIP3   OH2 5606   0.950   3.633   3.515  0.1399  0.4973  0.3261
 1881TIP3    H1 5607   0.941   3.708   3.572  0.2426  0.4929  0.3475
 1881TIP3    H2 5608   0.861   3.600   3.504  0.1909  0.1199  0.9877
 1882TIP3   OH2 5609   0.650   6.283   1.710  0.0154 -0.1379  0.7127
 1882TIP3    H1 5610   0.721   6.263   1.648 -1.5332 -3.6748 -0.2190
 1882TIP3    H2 5611   0.693   6.289   1.795  1.5099 -2.5091  0.2216
 1883TIP3   OH2 5612   5.893   1.768   0.312  0.0361  0.0202 -0.3084
 1883TIP3    H1 5613   5.811   1.796   0.352  0.0110  1.0518 -1.0434
 1883TIP3    H2 5614   5.878   1.676   0.288  0.4379 -1.0140  2.9429
 1884TIP3   OH2 5615   0.826   4.583   2.198 -0.2391  0.5013  0.1941
 1884TIP3    H1 5616   0.819   4.666   2.246 -0.5317  0.1484  0.7723
 1884TIP3    H2 5617   0.837   4.609   2.106  0.9245  1.2029  0.5085
 1885TIP3   OH2 5618   6.156   0.743   3.636  0.0616 -0.3320  0.1209
 1885TIP3    H1 5619   6.120   0.664   3.595  0.8364 -0.9288  0.5641
 1885TIP3    H2 5620   6.173   0.717   3.726  0.4142  0.3174  0.2400
 1886TIP3   OH2 5621   5.578   4.094   0.216  0.0851 -0.0959 -0.4087
 1886TIP3    H1 5622   5.566   4.014   0.163 -0.0701  0.2295 -0.8713
 1886TIP3    H2 5623   5.655   4.136   0.178 -0.1002  0.2000 -0.4572
 1887TIP3   OH2 5624   4.326   6.308   2.341  0.1912 -0.2518  0.0905
 1887TIP3    H1 5625   4.257   6.273   2.283 -1.2400 -0.4971  1.8627
 1887TIP3    H2 5626   4.314   6.403   2.337 -0.2620 -0.2953  0.4134
 1888TIP3   OH2 5627   4.590   1.581   5.732 -0.4737 -0.5438  0.3035
 1888TIP3    H1 5628   4.642   1.502   5.716  0.5764  0.4315 -1.3711
 1888TIP3    H2 5629   4.538   1.560   5.810  1.2994 -2.1224  1.1523
 1889TIP3   OH2 5630   6.536   4.321   3.047 -0.0494  0.1952  0.3924
 1889TIP3    H1 5631   6.572   4.240   3.083  1.3141  0.9507  0.7916
 1889TIP3    H2 5632   6.471   4.350   3.112 -1.8447 -1.4287 -0.5625
 1890TIP3   OH2 5633   2.748   3.945   0.366 -0.5852 -0.2366  0.0212
 1890TIP3    H1 5634   2.701   3.918   0.445  1.4234  1.1569  1.8273
 1890TIP3    H2 5635   2.806   3.871   0.346  0.5588  0.2730  1.3050
 1891TIP3   OH2 5636   4.380   5.914   1.389  0.0731 -0.1210  0.0679
 1891TIP3    H1 5637   4.464   5.873   1.369  0.2725  0.7259 -0.9306
 1891TIP3    H2 5638   4.374   5.912   1.484 -0.0337 -2.6289  0.0847
 1892TIP3   OH2 5639   3.734   3.996   2.678  0.4157 -0.2177 -0.5067
 1892TIP3    H1 5640   3.772   4.076   2.642  0.0198 -0.1293 -0.7432
 1892TIP3    H2 5641   3.640   4.004   2.659  0.4924 -1.1759 -1.3849
 1893TIP3   OH2 5642   1.544   1.334   3.533 -0.9534 -0.5955  0.3235
 1893TIP3    H1 5643   1.623   1.387   3.545 -1.5731  0.3195  0.4685
 1893TIP3    H2 5644   1.569   1.246   3.563 -0.2379 -0.1153  1.1927
 1894TIP3   OH2 5645   1.733   0.370   3.047  0.0569 -0.3183  0.1078
 1894TIP3    H1 5646   1.711   0.403   2.960  1.7867 -0.3501 -0.3898
 1894TIP3    H2 5647   1.681   0.424   3.107 -1.3819 -0.4939 -0.9338
 1895TIP3   OH2 5648   4.530   1.337   2.567 -0.0381 -0.0381 -0.1153
 1895TIP3    H1 5649   4.486   1.406   2.517 -0.1224 -0.2286 -0.3010
 1895TIP3    H2 5650   4.613   1.325   2.522  0.0640  0.0831  0.0374
 1896TIP3   OH2 5651   1.427   1.686   1.163 -0.3317 -0.2238 -0.1796
 1896TIP3    H1 5652   1.511   1.668   1.204 -0.4734 -1.3942 -0.3834
 1896TIP3    H2 5653   1.375   1.727   1.232  0.2056 -0.0256  0.1114
 1897TIP3   OH2 5654   2.401   1.764   0.258 -0.0106 -0.4714 -0.0989
 1897TIP3    H1 5655   2.355   1.818   0.194  2.1470  2.3775  0.5475
 1897TIP3    H2 5656   2.473   1.724   0.208  0.1072 -0.3905  0.0057
 1898TIP3   OH2 5657   3.481   4.950   2.446  0.2638 -0.0531  0.0871
 1898TIP3    H1 5658   3.569   4.915   2.435  0.5195  0.5789  0.0620
 1898TIP3    H2 5659   3.493   5.031   2.496 -0.0902  0.9797 -1.4060
 1899TIP3   OH2 5660   2.573   5.893   5.368  0.1777 -0.0705 -0.0353
 1899TIP3    H1 5661   2.618   5.963   5.417  0.5645 -0.9732  0.9398
 1899TIP3    H2 5662   2.634   5.820   5.371  0.7448  0.1800 -2.9435
 1900TIP3   OH2 5663   0.994   5.681   1.479 -0.3845 -0.6697  0.4334
 1900TIP3    H1 5664   1.006   5.691   1.385 -0.5105 -0.2549  0.4609
 1900TIP3    H2 5665   0.970   5.589   1.491 -0.1169 -0.7841  0.0875
 1901TIP3   OH2 5666   4.793   2.712   1.691  0.7290  0.9608  0.0441
 1901TIP3    H1 5667   4.784   2.761   1.609  0.7029 -1.5268 -1.5494
 1901TIP3    H2 5668   4.883   2.680   1.691  0.5677  0.4764  0.7196
 1902TIP3   OH2 5669   0.562   1.509   0.184  0.0807 -0.1780  0.0537
 1902TIP3    H1 5670   0.522   1.429   0.149  0.5105 -0.3123 -0.1514
 1902TIP3    H2 5671   0.494   1.576   0.178 -0.6920 -0.7969  1.3368
 1903TIP3   OH2 5672   3.918   5.691   0.849  0.1165  0.7496  0.1449
 1903TIP3    H1 5673   3.857   5.641   0.904 -0.4128  1.7882  0.5292
 1903TIP3    H2 5674   3.896   5.666   0.760  0.4876 -0.3966  0.3501
 1904TIP3   OH2 5675   0.299   1.325   0.870  0.0827  0.2258 -0.3340
 1904TIP3    H1 5676   0.376   1.304   0.923 -0.6966 -0.2799  0.6209
 1904TIP3    H2 5677   0.336   1.351   0.785  1.3467  0.8465  0.3583
 1905TIP3   OH2 5678   3.613   3.123   1.496 -0.0195 -0.3162 -0.1354
 1905TIP3    H1 5679   3.620   3.101   1.403  0.1952  1.0180 -0.4578
 1905TIP3    H2 5680   3.670   3.199   1.507 -1.8702  1.0686  0.5553
 1906TIP3   OH2 5681   1.633   0.286   5.232  0.4858 -0.2463 -0.8065
 1906TIP3    H1 5682   1.594   0.325   5.154  0.9213  1.4732 -0.2149
 1906TIP3    H2 5683   1.719   0.327   5.239  0.3095 -0.0947  0.7746
 1907TIP3   OH2 5684   6.536   5.201   0.183  0.2989  0.4940 -0.2083
 1907TIP3    H1 5685   6.598   5.246   0.126 -0.0112  3.2279  1.4290
 1907TIP3    H2 5686   6.589   5.170   0.257  0.4925 -1.9366 -1.2679
 1908TIP3   OH2 5687   3.694   3.246   0.673 -0.1815  0.3897 -0.0972
 1908TIP3    H1 5688   3.617   3.203   0.711  0.3972 -0.8896 -0.3086
 1908TIP3    H2 5689   3.730   3.299   0.744 -0.1640 -0.5368  0.6060
 1909TIP3   OH2 5690   1.311   2.800   5.830  0.3379  0.1490  0.1055
 1909TIP3    H1 5691   1.372   2.745   5.880  1.0410  1.4639  0.7617
 1909TIP3    H2 5692   1.353   2.811   5.745  0.3353 -0.0944  0.0723
 1910TIP3   OH2 5693   5.226   6.082   5.250  0.2173  0.4283  0.3914
 1910TIP3    H1 5694   5.213   5.987   5.243 -0.3101  0.4391  1.1655
 1910TIP3    H2 5695   5.147   6.114   5.293  0.9068  1.0761  1.1968
 1911TIP3   OH2 5696   1.197   1.790   1.959  0.7117 -0.8149  0.5230
 1911TIP3    H1 5697   1.284   1.774   1.993  2.0944  2.0539 -1.2848
 1911TIP3    H2 5698   1.169   1.871   2.002 -0.1387 -0.5598 -0.4651
 1912TIP3   OH2 5699   5.920   4.799   1.189 -0.6552  0.4976 -0.0416
 1912TIP3    H1 5700   6.003   4.751   1.185 -1.1995 -0.6504  1.5936
 1912TIP3    H2 5701   5.943   4.887   1.157  1.3451  0.3933  0.8941
 1913TIP3   OH2 5702   0.206   3.347   2.036  0.4197  0.3837 -0.1488
 1913TIP3    H1 5703   0.198   3.252   2.041  1.0180  0.2465 -1.3618
 1913TIP3    H2 5704   0.301   3.363   2.035  0.3715  1.1465  2.0541
 1914TIP3   OH2 5705   6.033   6.614   5.636  0.7971  0.4135 -0.1282
 1914TIP3    H1 5706   6.016   6.668   5.714 -0.1105 -0.3792  0.2366
 1914TIP3    H2 5707   6.028   6.524   5.668 -0.7185  0.0433 -1.3064
 1915TIP3   OH2 5708   2.763   5.651   3.915  0.3947 -0.0615 -0.2435
 1915TIP3    H1 5709   2.784   5.727   3.861  2.0458 -1.4512 -1.6849
 1915TIP3    H2 5710   2.727   5.587   3.854  1.5553 -1.3877  0.3896
 1916TIP3   OH2 5711   6.122   1.390   1.747 -0.0725  0.1736  0.3308
 1916TIP3    H1 5712   6.092   1.385   1.656 -0.3482 -0.6266  0.4593
 1916TIP3    H2 5713   6.045   1.367   1.799 -0.0998  1.2580  0.8055
 1917TIP3   OH2 5714   4.278   5.207   4.319 -0.3722  0.8551 -0.2606
 1917TIP3    H1 5715   4.247   5.117   4.304  2.4604 -0.2923  0.1387
 1917TIP3    H2 5716   4.335   5.225   4.244 -0.3798  2.0765  0.0149
 1918TIP3   OH2 5717   4.808   3.876   2.067  0.1660  0.1500  0.5234
 1918TIP3    H1 5718   4.767   3.959   2.092 -0.8857 -0.1964  0.0082
 1918TIP3    H2 5719   4.739   3.827   2.023  1.4858  0.0753 -1.6065
 1919TIP3   OH2 5720   6.843   1.637   0.439  0.1365 -0.4570 -0.1741
 1919TIP3    H1 5721   6.790   1.567   0.403 -0.5526  0.1755 -0.4224
 1919TIP3    H2 5722   6.900   1.664   0.366  1.7363 -1.9871  0.4576
 1920TIP3   OH2 5723   4.118   4.044   4.006  0.3116  0.6027  0.4182
 1920TIP3    H1 5724   4.120   4.126   3.956 -1.9960  1.5978  1.8412
 1920TIP3    H2 5725   4.211   4.020   4.015  1.0128  2.6411 -0.6785
 1921TIP3   OH2 5726   0.986   5.029   2.584  0.0116  0.0271 -0.4958
 1921TIP3    H1 5727   0.892   5.044   2.581  0.0927  0.9267  0.6539
 1921TIP3    H2 5728   1.025   5.107   2.545  0.3115  0.4724  0.6586
 1922TIP3   OH2 5729   0.255   5.662   3.361  0.3475  0.4575 -0.3723
 1922TIP3    H1 5730   0.213   5.577   3.373  0.1874  0.6984  0.8553
 1922TIP3    H2 5731   0.190   5.715   3.314  0.5492 -0.1639 -1.3797
 1923TIP3   OH2 5732   1.868   5.804   3.951 -0.2075 -0.0355 -0.0556
 1923TIP3    H1 5733   1.845   5.762   4.035 -2.8545 -1.8543 -1.5260
 1923TIP3    H2 5734   1.961   5.783   3.939 -0.1502 -1.0664  1.7008
 1924TIP3   OH2 5735   4.387   0.771   3.589  0.2023 -0.0546 -0.4961
 1924TIP3    H1 5736   4.443   0.703   3.551 -3.4410 -2.0033 -2.9751
 1924TIP3    H2 5737   4.341   0.727   3.661 -0.6519  0.4081 -0.7450
 1925TIP3   OH2 5738   1.469   0.342   4.315 -0.3422  0.0176  0.3800
 1925TIP3    H1 5739   1.382   0.342   4.354  0.2461  0.5597  1.7644
 1925TIP3    H2 5740   1.499   0.433   4.323 -0.2034  0.1766 -1.4365
 1926TIP3   OH2 5741   4.439   6.099   2.825  0.0678  0.4061 -0.2697
 1926TIP3    H1 5742   4.506   6.109   2.757 -0.5844  1.1221 -0.8270
 1926TIP3    H2 5743   4.358   6.083   2.776 -0.2460 -0.0471  0.3810
 1927TIP3   OH2 5744   4.843   6.171   4.892  0.1502 -0.1157 -0.0363
 1927TIP3    H1 5745   4.876   6.109   4.956 -1.5733 -1.2827 -0.2111
 1927TIP3    H2 5746   4.749   6.154   4.888 -0.4597  2.6676  0.0694
 1928TIP3   OH2 5747   6.869   0.754   1.828  0.2960 -0.1473  0.0398
 1928TIP3    H1 5748   6.904   0.670   1.860 -1.0616  0.0120  2.1380
 1928TIP3    H2 5749   6.923   0.820   1.871 -0.9923  0.0638  1.3906
 1929TIP3   OH2 5750   3.186   1.149   3.749 -0.0724 -0.2070 -0.4274
 1929TIP3    H1 5751   3.210   1.057   3.753 -4.2033 -1.5597 -1.7438
 1929TIP3    H2 5752   3.159   1.172   3.838  1.0804 -0.1881 -0.0715
 1930TIP3   OH2 5753   5.257   1.271   0.374 -0.3858  0.4869 -0.7045
 1930TIP3    H1 5754   5.216   1.332   0.313 -1.1411 -0.8307 -1.5602
 1930TIP3    H2 5755   5.193   1.261   0.445 -0.4790  0.3047 -0.8144
 1931TIP3   OH2 5756   0.381   0.157   4.105 -0.4199  0.1531 -0.6431
 1931TIP3    H1 5757   0.336   0.081   4.141 -1.3492 -0.8076 -3.5500
 1931TIP3    H2 5758   0.474   0.142   4.125 -0.8331 -0.3860  1.0479
 1932TIP3   OH2 5759   0.266   1.094   0.632 -0.0181 -0.0201 -0.0734
 1932TIP3    H1 5760   0.212   1.073   0.555 -0.3520 -1.0946  0.4288
 1932TIP3    H2 5761   0.294   1.184   0.618 -0.3805 -0.0764 -1.2753
 1933TIP3   OH2 5762   5.692   0.557   4.949  0.5379  0.0168  0.2696
 1933TIP3    H1 5763   5.701   0.465   4.974  0.0400  0.1503  0.9574
 1933TIP3    H2 5764   5.774   0.598   4.977  0.6778 -0.1767  0.1425
 1934TIP3   OH2 5765   3.525   6.026   4.849  0.6615 -0.0386  0.3098
 1934TIP3    H1 5766   3.558   5.937   4.861  1.5362  0.5014  2.3372
 1934TIP3    H2 5767   3.603   6.081   4.856 -0.1850  1.0526  1.6912
 1935TIP3   OH2 5768   5.553   0.068   5.674 -0.1212 -0.0500  0.4077
 1935TIP3    H1 5769   5.600  -0.011   5.646 -1.6148 -0.8707  0.1219
 1935TIP3    H2 5770   5.571   0.131   5.604  0.5932 -0.3236  0.3313
 1936TIP3   OH2 5771   5.628   2.535   4.781  0.0422  0.0831 -0.2407
 1936TIP3    H1 5772   5.671   2.450   4.777  0.4247  0.1878  1.0076
 1936TIP3    H2 5773   5.685   2.593   4.731  0.5799 -0.0981  0.1466
 1937TIP3   OH2 5774   1.310   4.821   5.466 -0.2556 -0.5610  0.0861
 1937TIP3    H1 5775   1.336   4.777   5.385  3.0656 -0.2260  0.8383
 1937TIP3    H2 5776   1.281   4.751   5.524 -3.6754 -0.7248 -1.5581
 1938TIP3   OH2 5777   0.385   0.224   2.641 -0.3568 -0.2839 -0.2111
 1938TIP3    H1 5778   0.325   0.182   2.579 -0.9372  0.0814  0.0898
 1938TIP3    H2 5779   0.370   0.178   2.724  0.8720 -1.1941 -0.4659
 1939TIP3   OH2 5780   2.213   4.010   0.724 -0.0177 -0.3057 -0.1990
 1939TIP3    H1 5781   2.217   3.928   0.772  0.4963  0.8070  1.7882
 1939TIP3    H2 5782   2.137   4.001   0.667 -0.2149 -1.9898  0.2829
 1940TIP3   OH2 5783   1.433   0.914   2.384 -0.5578  0.2669  0.1370
 1940TIP3    H1 5784   1.511   0.949   2.426 -0.6687  0.9836 -0.2299
 1940TIP3    H2 5785   1.461   0.891   2.295 -0.8971  1.1379 -0.2099
 1941TIP3   OH2 5786   2.081   3.455   3.217 -0.2093 -0.5708 -0.4761
 1941TIP3    H1 5787   2.055   3.544   3.242  0.1652 -0.6676  0.2859
 1941TIP3    H2 5788   1.999   3.411   3.196 -0.4676 -0.2610 -0.1400
 1942TIP3   OH2 5789   2.595   5.163   2.091  0.2596  0.1385 -0.0494
 1942TIP3    H1 5790   2.632   5.109   2.022 -0.0687  0.5700 -0.5764
 1942TIP3    H2 5791   2.502   5.141   2.091  0.3725 -0.3423  0.7053
 1943TIP3   OH2 5792   3.751   1.533   2.474  0.5902 -0.0509 -0.5688
 1943TIP3    H1 5793   3.813   1.606   2.479  1.1496 -0.5688  0.1290
 1943TIP3    H2 5794   3.776   1.475   2.546 -0.5158 -0.4184 -0.4735
 1944TIP3   OH2 5795   2.318   3.230   0.721 -0.5079 -0.6661  0.8098
 1944TIP3    H1 5796   2.238   3.232   0.773 -1.0644 -0.1076 -0.0470
 1944TIP3    H2 5797   2.289   3.208   0.633  0.3162 -0.7275  0.5405
 1945TIP3   OH2 5798   0.651   4.813   2.525 -0.0519 -0.0109 -0.0061
 1945TIP3    H1 5799   0.654   4.865   2.605  0.7436  0.3737 -0.2752
 1945TIP3    H2 5800   0.558   4.796   2.511 -0.3409  1.3784  0.0641
 1946TIP3   OH2 5801   2.461   6.077   0.769  0.1323 -0.1786 -0.3439
 1946TIP3    H1 5802   2.483   5.994   0.726  0.2569  1.0872 -2.9310
 1946TIP3    H2 5803   2.397   6.118   0.711 -1.4686  0.7012  1.9127
 1947TIP3   OH2 5804   1.743   3.085   4.394  0.2760  0.3015  0.1091
 1947TIP3    H1 5805   1.784   3.088   4.480 -2.2443  0.5350  1.3997
 1947TIP3    H2 5806   1.651   3.066   4.412 -0.2782  0.0010 -2.5761
 1948TIP3   OH2 5807   2.226   2.823   4.191  0.1574  0.1681  0.3766
 1948TIP3    H1 5808   2.291   2.753   4.194  0.3575  0.3552  0.4342
 1948TIP3    H2 5809   2.211   2.847   4.282 -1.1527 -0.9280  0.4849
 1949TIP3   OH2 5810   7.188   4.808   4.773  0.1658 -0.0578  0.0464
 1949TIP3    H1 5811   7.106   4.856   4.781  0.3608  0.0486  1.8138
 1949TIP3    H2 5812   7.208   4.779   4.862  1.9757 -0.2136 -0.3664
 1950TIP3   OH2 5813   1.355   0.304   1.096  0.4417 -0.2113 -0.1543
 1950TIP3    H1 5814   1.431   0.262   1.056 -0.2227  0.0394 -1.7789
 1950TIP3    H2 5815   1.280   0.274   1.044 -0.5791 -0.3327  1.3081
 1951TIP3   OH2 5816   0.066   6.105   4.676  0.2517 -0.2321 -0.2341
 1951TIP3    H1 5817   0.096   6.157   4.602  0.0976  1.5954  0.9333
 1951TIP3    H2 5818  -0.029   6.117   4.677  0.4950  2.9641  2.3992
 1952TIP3   OH2 5819   3.559   4.816   0.754 -0.1832 -0.2135  0.2668
 1952TIP3    H1 5820   3.630   4.770   0.797 -1.2750 -0.9127  1.4064
 1952TIP3    H2 5821   3.493   4.749   0.737 -1.7182  0.8146  1.7573
 1953TIP3   OH2 5822   4.954   5.724   2.808 -0.2887 -0.5681  0.5874
 1953TIP3    H1 5823   4.962   5.800   2.751  2.3530  0.1706  1.8115
 1953TIP3    H2 5824   4.959   5.649   2.749  0.4051  0.1815 -0.3228
 1954TIP3   OH2 5825   6.207   5.737   4.967  0.4608  0.0814  0.2961
 1954TIP3    H1 5826   6.151   5.664   4.993  0.6126 -0.4006 -0.7075
 1954TIP3    H2 5827   6.254   5.706   4.890  1.9158  0.5627  0.9300
 1955TIP3   OH2 5828   3.283   2.223   1.482 -0.6315  0.1022 -0.0626
 1955TIP3    H1 5829   3.259   2.316   1.478  0.2064  0.3776  0.7006
 1955TIP3    H2 5830   3.272   2.200   1.575  0.3520 -0.2041 -0.0057
 1956TIP3   OH2 5831   1.147   4.801   4.932  0.4251  0.5291  0.7264
 1956TIP3    H1 5832   1.151   4.827   4.840  2.5004  0.2301  0.6714
 1956TIP3    H2 5833   1.066   4.840   4.965 -1.4311 -0.9740 -1.6818
 1957TIP3   OH2 5834   5.593   5.959   2.537  0.2751 -0.3448  0.1888
 1957TIP3    H1 5835   5.684   5.989   2.536  0.2088 -0.1358 -0.6883
 1957TIP3    H2 5836   5.567   5.962   2.629  1.2543 -0.7245  0.4923
 1958TIP3   OH2 5837   0.821   4.804   0.657  0.4538 -0.4066 -0.0374
 1958TIP3    H1 5838   0.757   4.826   0.725  1.3548 -0.9431  1.0209
 1958TIP3    H2 5839   0.864   4.887   0.636  0.0829 -0.2172 -0.0467
 1959TIP3   OH2 5840   0.634   1.888   5.672  0.7160 -0.2982 -0.1007
 1959TIP3    H1 5841   0.659   1.796   5.678 -0.6936 -0.7402 -0.8441
 1959TIP3    H2 5842   0.623   1.905   5.579  0.1229  0.3915  0.0820
 1960TIP3   OH2 5843   3.425   0.929   1.270 -0.0689 -0.7143 -0.1551
 1960TIP3    H1 5844   3.400   0.892   1.355 -3.8094  0.2535 -0.6581
 1960TIP3    H2 5845   3.408   0.859   1.208  2.4293 -1.3367 -0.2134
 1961TIP3   OH2 5846   5.663   6.383   0.907  0.3530  0.3057 -0.3729
 1961TIP3    H1 5847   5.689   6.309   0.852  0.9862 -1.3807  2.0227
 1961TIP3    H2 5848   5.569   6.394   0.889  0.0684 -1.5967 -0.2660
 1962TIP3   OH2 5849   2.272   6.219   2.132  0.9409 -0.5868 -0.0908
 1962TIP3    H1 5850   2.253   6.313   2.138  0.8147 -0.6864  1.4651
 1962TIP3    H2 5851   2.368   6.214   2.127  0.9269 -0.3669 -0.6375
 1963TIP3   OH2 5852   5.634   4.002   1.532  0.5508  0.0476  0.7851
 1963TIP3    H1 5853   5.567   4.067   1.554  1.2619  0.7582  0.9224
 1963TIP3    H2 5854   5.668   3.973   1.617  1.8862  1.2841  0.7119
 1964TIP3   OH2 5855   1.475   3.862   2.341 -0.0043  0.5199  0.9614
 1964TIP3    H1 5856   1.557   3.881   2.386  0.5843 -0.9239  0.5660
 1964TIP3    H2 5857   1.407   3.890   2.401  0.6972  4.0440  0.3272
 1965TIP3   OH2 5858   3.754   1.815   5.793  0.3719  0.0257 -0.0497
 1965TIP3    H1 5859   3.731   1.777   5.878  0.5084  0.3596  0.1383
 1965TIP3    H2 5860   3.771   1.908   5.812 -1.1540  0.4617 -0.7091
 1966TIP3   OH2 5861   5.390   2.045   3.603 -0.1522  0.0166  0.1716
 1966TIP3    H1 5862   5.318   2.058   3.542  0.0078  0.2358  0.0322
 1966TIP3    H2 5863   5.442   1.974   3.564  1.6141  2.1021 -1.4870
 1967TIP3   OH2 5864   6.830   5.006   2.730 -0.0005 -0.0462 -0.5416
 1967TIP3    H1 5865   6.748   4.963   2.754 -0.8010  1.6530 -0.0928
 1967TIP3    H2 5866   6.898   4.955   2.774 -0.9694 -0.5055  0.4514
 1968TIP3   OH2 5867   7.110   0.390   4.608 -0.4067  0.3758  0.1258
 1968TIP3    H1 5868   7.075   0.471   4.645  0.6397  0.7031  0.4141
 1968TIP3    H2 5869   7.166   0.418   4.536 -1.8633 -0.2197 -1.3085
 1969TIP3   OH2 5870   5.414   0.126   4.587 -0.0952 -1.1869 -0.0039
 1969TIP3    H1 5871   5.415   0.132   4.492 -0.7669 -1.9535 -0.0729
 1969TIP3    H2 5872   5.387   0.036   4.605 -0.3740 -0.9376  0.9080
 1970TIP3   OH2 5873   4.128   1.793   5.417  0.3997  0.7147 -0.3974
 1970TIP3    H1 5874   4.058   1.776   5.481  1.0613  1.1208  0.4665
 1970TIP3    H2 5875   4.135   1.889   5.415  0.5297  0.6939 -0.9150
 1971TIP3   OH2 5876   2.914   0.244   3.071 -0.1461 -0.2750  0.3616
 1971TIP3    H1 5877   2.976   0.218   3.002 -1.4552 -1.2190 -0.5136
 1971TIP3    H2 5878   2.903   0.338   3.058  1.0361 -0.1016  0.4905
 1972TIP3   OH2 5879   4.454   2.612   5.732 -0.3075  0.3242 -0.0436
 1972TIP3    H1 5880   4.424   2.586   5.819  0.9835  2.1614  1.0230
 1972TIP3    H2 5881   4.374   2.616   5.680 -1.2398  0.0707  1.3108
 1973TIP3   OH2 5882   0.631   4.264   2.395  0.1718 -0.0061  0.4597
 1973TIP3    H1 5883   0.643   4.176   2.430  0.0775  0.8073  2.7021
 1973TIP3    H2 5884   0.715   4.287   2.356 -0.2129 -1.5612 -1.4919
 1974TIP3   OH2 5885   0.829   4.723   4.704  0.3122  0.4995  0.7630
 1974TIP3    H1 5886   0.783   4.779   4.766  1.3911  0.8470  1.2823
 1974TIP3    H2 5887   0.778   4.642   4.703  0.4541  0.3468  2.3851
 1975TIP3   OH2 5888   2.347   4.651   3.141  0.1519 -0.4608  0.9207
 1975TIP3    H1 5889   2.388   4.716   3.198  1.2653 -1.0972  0.8573
 1975TIP3    H2 5890   2.336   4.573   3.196 -0.3709 -0.5199  0.7444
 1976TIP3   OH2 5891   1.173   1.664   2.260 -0.3599  0.3595  0.1085
 1976TIP3    H1 5892   1.259   1.652   2.299  0.1596  0.4216 -0.9671
 1976TIP3    H2 5893   1.160   1.759   2.259 -0.5468  0.3375  0.4937
 1977TIP3   OH2 5894   6.725   5.022   0.701  0.2562 -0.3041  0.2600
 1977TIP3    H1 5895   6.739   4.964   0.776  0.2277 -0.5022  0.1115
 1977TIP3    H2 5896   6.652   5.079   0.728  0.7992  0.1902  0.7150
 1978TIP3   OH2 5897   3.388   2.268   4.414  0.2076  0.1556  0.0170
 1978TIP3    H1 5898   3.421   2.351   4.380 -0.7554  1.5070  2.1680
 1978TIP3    H2 5899   3.466   2.215   4.428  0.9586  1.1656 -0.2234
 1979TIP3   OH2 5900   6.289   3.840   4.617 -0.1890 -0.3255 -0.3218
 1979TIP3    H1 5901   6.285   3.909   4.551  1.7295  0.8557  0.6990
 1979TIP3    H2 5902   6.245   3.765   4.576 -1.9343  1.3299 -1.6356
 1980TIP3   OH2 5903   2.622   3.501   1.488 -0.0525  0.1839 -0.0431
 1980TIP3    H1 5904   2.631   3.588   1.527 -1.1610  0.6602 -0.7656
 1980TIP3    H2 5905   2.528   3.484   1.490  0.0254 -0.4647 -1.0102
 1981TIP3   OH2 5906   1.735   2.208   5.559  0.0066 -0.4090  0.5283
 1981TIP3    H1 5907   1.653   2.259   5.553 -0.3470 -0.7689  2.0362
 1981TIP3    H2 5908   1.746   2.171   5.472 -0.0802  1.6882 -0.4494
 1982TIP3   OH2 5909   3.941   1.901   4.508 -0.0430 -0.6772  0.2049
 1982TIP3    H1 5910   4.006   1.891   4.578  1.1512  2.4443 -0.3112
 1982TIP3    H2 5911   3.992   1.900   4.427 -0.3004  3.0183 -0.1604
 1983TIP3   OH2 5912   1.264   4.198   4.456 -0.2132  0.4328 -0.2146
 1983TIP3    H1 5913   1.174   4.221   4.434 -0.2114  0.9153  0.2487
 1983TIP3    H2 5914   1.265   4.192   4.551  0.5561  1.8860 -0.0901
 1984TIP3   OH2 5915   0.723   2.611   2.971 -0.0143 -0.2502 -0.5331
 1984TIP3    H1 5916   0.807   2.583   2.936 -0.2615 -1.4844 -0.1924
 1984TIP3    H2 5917   0.713   2.562   3.053  0.9839  3.2215  1.8977
 1985TIP3   OH2 5918   0.133   3.133   5.118  0.5659 -0.2781  0.3973
 1985TIP3    H1 5919   0.156   3.089   5.037 -2.5829 -2.0638  0.3013
 1985TIP3    H2 5920   0.079   3.207   5.090 -0.6942 -1.0116  0.7908
 1986TIP3   OH2 5921   0.001   0.549   4.367 -0.3357  0.4370 -0.0605
 1986TIP3    H1 5922   0.091   0.533   4.397  0.5325  2.3837 -1.4184
 1986TIP3    H2 5923  -0.011   0.643   4.380 -1.5364  0.5161 -1.5282
 1987TIP3   OH2 5924   5.874   5.542   0.154  0.5122 -0.1862  0.3334
 1987TIP3    H1 5925   5.931   5.587   0.091 -0.8918  1.2470  0.0260
 1987TIP3    H2 5926   5.856   5.457   0.114 -0.5327  0.7723 -1.3621
 1988TIP3   OH2 5927   4.508   4.321   1.180  0.3447  0.4326  0.3749
 1988TIP3    H1 5928   4.578   4.314   1.116  0.9903 -1.6859  1.2035
 1988TIP3    H2 5929   4.439   4.369   1.136  1.1135 -0.1717 -1.5757
 1989TIP3   OH2 5930   0.544   2.707   2.075 -0.5183 -0.7975 -0.2429
 1989TIP3    H1 5931   0.535   2.629   2.130 -0.7882 -0.3255  0.4007
 1989TIP3    H2 5932   0.538   2.781   2.136 -2.0347 -0.2185 -1.0188
 1990TIP3   OH2 5933   1.194   4.645   5.655 -0.3543 -0.0076 -0.4385
 1990TIP3    H1 5934   1.275   4.628   5.702 -0.2749 -0.4275 -0.7211
 1990TIP3    H2 5935   1.142   4.698   5.715  0.7337  1.5903 -0.8471
 1991TIP3   OH2 5936   5.449   5.117   0.509  0.0183  0.4210 -0.1334
 1991TIP3    H1 5937   5.542   5.135   0.492  0.4265 -0.6138  0.8456
 1991TIP3    H2 5938   5.447   5.024   0.532 -1.3799  0.2482 -0.8867
 1992TIP3   OH2 5939   5.442   0.717   4.317 -0.6330  0.1086 -0.2779
 1992TIP3    H1 5940   5.484   0.637   4.347 -0.4597  0.9834  1.9930
 1992TIP3    H2 5941   5.498   0.749   4.246  0.8651 -0.3179  0.6807
 1993TIP3   OH2 5942   1.531   3.298   4.475 -0.2700  0.0528 -0.3667
 1993TIP3    H1 5943   1.624   3.314   4.489 -0.1632 -0.6979 -0.1240
 1993TIP3    H2 5944   1.486   3.364   4.528  0.1120  0.9597 -1.1509
 1994TIP3   OH2 5945   4.949   5.975   1.818 -0.4261 -0.3260  0.2450
 1994TIP3    H1 5946   4.927   5.994   1.726  1.2540  0.7603  0.0157
 1994TIP3    H2 5947   4.991   5.889   1.815  1.4945  0.5784 -0.3721
 1995TIP3   OH2 5948   4.703   6.713   1.720  0.1974  0.0553 -0.0756
 1995TIP3    H1 5949   4.712   6.705   1.815  0.9522 -0.0762 -0.1478
 1995TIP3    H2 5950   4.779   6.766   1.694  0.1237 -0.1112 -0.6320
 1996TIP3   OH2 5951   2.654   6.074   3.334 -0.4952 -0.4940  0.0365
 1996TIP3    H1 5952   2.595   6.127   3.387 -1.4948 -0.6971 -0.8424
 1996TIP3    H2 5953   2.597   6.032   3.269  0.7078 -0.0888 -1.3377
 1997TIP3   OH2 5954   6.086   5.921   2.899 -0.1859  0.5944 -0.1050
 1997TIP3    H1 5955   6.114   5.843   2.850  0.4701  1.1072 -0.5650
 1997TIP3    H2 5956   5.990   5.916   2.898 -0.1583 -0.0264 -0.4226
 1998TIP3   OH2 5957   2.314   4.671   2.283 -0.1785  0.3307 -0.0058
 1998TIP3    H1 5958   2.347   4.617   2.354  1.3729 -1.2644 -1.8400
 1998TIP3    H2 5959   2.224   4.693   2.310 -0.2287 -1.6104  1.6680
 1999TIP3   OH2 5960   2.819   2.485   0.722  0.1813  0.5609  0.6700
 1999TIP3    H1 5961   2.811   2.543   0.647 -0.5639  0.3231  0.5481
 1999TIP3    H2 5962   2.806   2.397   0.685  3.2144  0.0751  0.5131
 2000TIP3   OH2 5963   1.602   1.738   3.493 -0.2239 -0.0914  0.0058
 2000TIP3    H1 5964   1.638   1.825   3.512  0.6406 -0.5865  0.6767
 2000TIP3    H2 5965   1.584   1.740   3.399 -0.6781  0.9747  0.0963
 2001TIP3   OH2 5966   7.055   6.543   3.618  0.6964 -0.1576 -0.4833
 2001TIP3    H1 5967   6.975   6.584   3.652  0.8943 -2.4110  3.2166
 2001TIP3    H2 5968   7.126   6.586   3.666  1.4645 -0.3772 -1.3978
 2002TIP3   OH2 5969   4.421   1.202   4.071  0.0722 -0.0367 -0.2341
 2002TIP3    H1 5970   4.495   1.143   4.085  0.0484  0.3261  1.5929
 2002TIP3    H2 5971   4.399   1.235   4.158 -1.7425  0.4780 -0.8380
 2003TIP3   OH2 5972   4.769   6.526   3.881  0.3208 -0.1880 -0.6950
 2003TIP3    H1 5973   4.768   6.575   3.799  1.3155  0.3455 -0.4064
 2003TIP3    H2 5974   4.859   6.536   3.914 -0.2862  0.3424  0.9017
 2004TIP3   OH2 5975   1.787   6.164   0.339  0.3816  0.1136 -0.0070
 2004TIP3    H1 5976   1.843   6.225   0.290 -1.1958  1.7297  0.1199
 2004TIP3    H2 5977   1.814   6.176   0.431  0.0362  0.6673  0.0240
 2005TIP3   OH2 5978   5.231   5.048   2.494 -0.6839 -0.4634 -0.4600
 2005TIP3    H1 5979   5.160   5.104   2.527 -0.2427 -0.5829  0.7688
 2005TIP3    H2 5980   5.296   5.110   2.461 -0.6315 -0.2718 -0.0191
 2006TIP3   OH2 5981   0.973   4.979   0.255  0.3803  0.1266 -0.2019
 2006TIP3    H1 5982   1.004   4.920   0.324  1.9958  0.4862 -0.5878
 2006TIP3    H2 5983   0.973   5.066   0.296 -1.1057  0.0341  0.0791
 2007TIP3   OH2 5984   6.812   1.099   3.721  0.2246  0.5484 -0.3715
 2007TIP3    H1 5985   6.876   1.092   3.650 -0.8013 -0.1371 -1.2536
 2007TIP3    H2 5986   6.864   1.090   3.801  1.1218 -1.0534 -1.0903
 2008TIP3   OH2 5987   1.308   5.782   2.370 -0.3339  0.4278 -0.1208
 2008TIP3    H1 5988   1.402   5.770   2.386 -0.3503  0.0910 -0.2562
 2008TIP3    H2 5989   1.292   5.874   2.390  0.2540  0.7896 -1.1870
 2009TIP3   OH2 5990   5.474   4.160   1.708  0.3602  0.0181  0.0854
 2009TIP3    H1 5991   5.488   4.160   1.803 -0.4223 -0.8017  0.2110
 2009TIP3    H2 5992   5.379   4.159   1.698  0.4166  1.1022 -0.7217
 2010TIP3   OH2 5993   4.656   4.181   3.268 -0.2989 -0.0078 -0.6600
 2010TIP3    H1 5994   4.745   4.149   3.253 -0.0348  0.5164 -0.2613
 2010TIP3    H2 5995   4.661   4.275   3.249 -0.8100 -0.0055 -0.8034
 2011TIP3   OH2 5996   0.166   4.631   5.270  0.0705  0.1893 -0.2144
 2011TIP3    H1 5997   0.134   4.688   5.340  0.7624  2.5672 -1.6800
 2011TIP3    H2 5998   0.243   4.587   5.308 -0.4326  0.2847  0.9512
 2012TIP3   OH2 5999   6.549   4.250   2.432 -0.4926  0.0818  0.1979
 2012TIP3    H1 6000   6.604   4.196   2.489 -0.8760 -0.7727 -0.2212
 2012TIP3    H2 6001   6.609   4.287   2.369 -0.4046 -1.0130 -0.3829
 2013TIP3   OH2 6002   1.101   4.535   0.211  0.0654 -0.0201 -0.2497
 2013TIP3    H1 6003   1.182   4.492   0.181 -0.1880  0.4062 -1.6567
 2013TIP3    H2 6004   1.065   4.475   0.276  1.1658 -0.5466 -0.0864
 2014TIP3   OH2 6005   1.280   2.348   0.297  0.0161 -0.2057 -0.3773
 2014TIP3    H1 6006   1.251   2.267   0.338 -0.8150 -0.0677 -0.6777
 2014TIP3    H2 6007   1.201   2.384   0.256  0.5933  0.2369 -1.1216
 2015TIP3   OH2 6008   0.105   3.675   4.423  0.3803  0.2319 -0.1802
 2015TIP3    H1 6009   0.120   3.605   4.359  1.0022 -0.5267  0.7633
 2015TIP3    H2 6010   0.010   3.673   4.438  0.3297 -0.0736 -0.5281
 2016TIP3   OH2 6011   5.645   5.970   4.198 -0.2731 -0.0864  0.0300
 2016TIP3    H1 6012   5.708   5.910   4.238 -1.4339 -1.0066  0.5574
 2016TIP3    H2 6013   5.627   6.035   4.266  0.6271  0.6211 -0.3782
 2017TIP3   OH2 6014   0.766   2.715   1.510 -0.0204 -0.1955  0.6195
 2017TIP3    H1 6015   0.690   2.755   1.552 -0.2343 -1.7695  1.8023
 2017TIP3    H2 6016   0.769   2.756   1.423 -0.7463  1.6638  1.4178
 2018TIP3   OH2 6017   0.455   2.567   2.517  0.2394  0.3590  0.0737
 2018TIP3    H1 6018   0.469   2.661   2.511  0.7871  0.2517 -0.4661
 2018TIP3    H2 6019   0.462   2.547   2.610 -0.1317  0.8850  0.2176
 2019TIP3   OH2 6020   0.111   1.927   0.807 -0.3518 -0.6764  0.6408
 2019TIP3    H1 6021   0.195   1.966   0.832 -1.0813  1.6444 -0.2470
 2019TIP3    H2 6022   0.074   1.988   0.743 -3.1003 -1.1321  1.6360
 2020TIP3   OH2 6023   5.601   2.256   2.922 -0.4268  1.1463  0.0018
 2020TIP3    H1 6024   5.580   2.173   2.965  0.0287 -0.3623 -2.4849
 2020TIP3    H2 6025   5.669   2.295   2.976  1.0935 -1.3038  0.0001
 2021TIP3   OH2 6026   2.901   6.508   0.541 -0.4911  0.0046 -0.0829
 2021TIP3    H1 6027   2.982   6.531   0.497 -0.7888  1.2727 -0.0171
 2021TIP3    H2 6028   2.926   6.493   0.632 -0.4313  1.1596  0.1019
 2022TIP3   OH2 6029   1.636   6.123   5.506 -0.1008  0.3361  0.1702
 2022TIP3    H1 6030   1.662   6.071   5.430 -1.4148  1.2515 -0.9489
 2022TIP3    H2 6031   1.701   6.193   5.511  0.3593 -0.0955  0.2962
 2023TIP3   OH2 6032   0.760   3.119   0.740  0.0987 -0.1438  0.5778
 2023TIP3    H1 6033   0.797   3.046   0.790  0.5139 -1.7464 -1.8746
 2023TIP3    H2 6034   0.665   3.103   0.743  0.1957 -0.8738 -0.0493
 2024TIP3   OH2 6035   0.523   6.736   0.097  0.0137 -0.5592  0.0025
 2024TIP3    H1 6036   0.596   6.714   0.154  0.6741  0.9859 -0.2025
 2024TIP3    H2 6037   0.554   6.810   0.045 -1.7334  0.2565  0.0194
 2025TIP3   OH2 6038   4.274   6.638   0.730  0.0668  0.8024 -0.3196
 2025TIP3    H1 6039   4.208   6.577   0.699  1.0765 -0.1156 -0.7340
 2025TIP3    H2 6040   4.224   6.712   0.765 -1.1809 -0.1692  0.0316
 2026TIP3   OH2 6041   2.133   0.970   1.571 -0.1706 -0.5175 -0.2500
 2026TIP3    H1 6042   2.172   0.902   1.627 -0.2248 -0.8353 -0.5942
 2026TIP3    H2 6043   2.044   0.979   1.604 -0.5238 -1.4199 -0.9129
 2027TIP3   OH2 6044   0.278   1.422   2.236 -0.4305 -0.2469  0.4254
 2027TIP3    H1 6045   0.210   1.443   2.300  0.1338 -0.1876  1.0071
 2027TIP3    H2 6046   0.229   1.403   2.155 -1.0872  0.8518  0.5373
 2028TIP3   OH2 6047   0.941   5.452   3.839  0.2754 -0.0717 -1.0101
 2028TIP3    H1 6048   1.004   5.433   3.908  1.5779  0.0582 -2.1062
 2028TIP3    H2 6049   0.940   5.548   3.833 -0.0410 -0.0720 -1.0028
 2029TIP3   OH2 6050   4.126   4.687   3.029  0.0603 -0.4775 -0.0359
 2029TIP3    H1 6051   4.103   4.733   3.109 -0.6028 -0.7750 -0.0515
 2029TIP3    H2 6052   4.054   4.626   3.014 -0.6431  0.6835 -1.7236
 2030TIP3   OH2 6053   5.750   3.877   5.328  0.0352 -0.5182 -0.0217
 2030TIP3    H1 6054   5.696   3.807   5.364  0.3591 -1.7484 -1.7563
 2030TIP3    H2 6055   5.819   3.890   5.393 -1.6672  0.3206  1.7089
 2031TIP3   OH2 6056   6.256   4.614   0.236  0.8009  0.7513 -0.1468
 2031TIP3    H1 6057   6.337   4.589   0.282  0.1883  0.0301  0.5909
 2031TIP3    H2 6058   6.202   4.656   0.303 -0.4068 -0.9678  0.0333
 2032TIP3   OH2 6059   5.385   2.146   5.014 -0.7927  0.4269  0.1462
 2032TIP3    H1 6060   5.398   2.240   5.008  1.8234  0.0749 -0.8792
 2032TIP3    H2 6061   5.444   2.109   4.948 -2.2085 -1.9173  0.0847
 2033TIP3   OH2 6062   0.350   5.371   0.126  0.2811 -0.3288 -0.1986
 2033TIP3    H1 6063   0.280   5.331   0.073 -2.0323  0.5992  1.9519
 2033TIP3    H2 6064   0.391   5.434   0.067 -1.0591 -0.4939 -1.3893
 2034TIP3   OH2 6065   1.079   0.790   2.658  0.6024 -0.5549 -0.0585
 2034TIP3    H1 6066   1.103   0.723   2.593  1.1246 -0.7113  0.2851
 2034TIP3    H2 6067   1.093   0.873   2.612  0.3478 -0.6719 -0.3552
 2035TIP3   OH2 6068   4.991   6.156   4.169 -0.3452  0.8102  0.3146
 2035TIP3    H1 6069   4.937   6.199   4.103  0.2657  4.5720  1.9865
 2035TIP3    H2 6070   4.935   6.088   4.205 -1.8177  0.7610 -1.8642
 2036TIP3   OH2 6071   1.008   5.392   3.399 -0.4272  0.1193 -0.0830
 2036TIP3    H1 6072   1.038   5.465   3.343 -0.7468 -1.3097 -2.2532
 2036TIP3    H2 6073   1.081   5.330   3.398 -0.5025  0.0079  0.9885
 2037TIP3   OH2 6074   2.922   2.129   3.478  0.0715 -0.1248  0.6472
 2037TIP3    H1 6075   2.910   2.214   3.437 -1.6125 -0.7167 -0.1852
 2037TIP3    H2 6076   2.982   2.145   3.550  0.9496  1.4740 -0.3800
 2038TIP3   OH2 6077   4.572   4.001   4.934 -0.6163  0.1466 -0.1097
 2038TIP3    H1 6078   4.497   3.987   4.876 -0.7323  0.3793 -0.0204
 2038TIP3    H2 6079   4.547   4.077   4.987  0.6023  1.6477 -1.6002
 2039TIP3   OH2 6080   4.315   2.295   5.857 -0.1192 -0.0943  0.0490
 2039TIP3    H1 6081   4.354   2.314   5.772 -1.2055  0.7033 -0.2861
 2039TIP3    H2 6082   4.344   2.366   5.913 -2.3725  1.4792 -0.6351
 2040TIP3   OH2 6083   1.228   5.776   0.274 -0.1328  0.1358 -0.2535
 2040TIP3    H1 6084   1.251   5.814   0.359  0.8946  1.0948 -0.9455
 2040TIP3    H2 6085   1.232   5.849   0.213  0.1479 -0.7369 -1.3095
 2041TIP3   OH2 6086   6.837   6.201   5.195 -0.4379 -0.2952 -0.4113
 2041TIP3    H1 6087   6.809   6.218   5.105 -0.5538  1.6071 -0.0619
 2041TIP3    H2 6088   6.760   6.219   5.248  0.0825  0.2018  0.1873
 2042TIP3   OH2 6089   4.885   1.669   0.240  0.0181 -0.3947 -0.0733
 2042TIP3    H1 6090   4.906   1.755   0.203 -0.2405  0.0095  0.6897
 2042TIP3    H2 6091   4.817   1.634   0.182  0.5138 -0.3299 -0.7039
 2043TIP3   OH2 6092   1.306   0.548   0.242  0.1862 -0.4821 -0.0450
 2043TIP3    H1 6093   1.295   0.575   0.333 -0.6155 -1.0358  0.0331
 2043TIP3    H2 6094   1.267   0.619   0.191  0.9460 -0.0040  0.0091
 2044TIP3   OH2 6095   2.914   0.180   0.871 -0.5053 -0.6594  0.5713
 2044TIP3    H1 6096   2.889   0.205   0.782 -0.0936 -2.2199 -0.0206
 2044TIP3    H2 6097   2.860   0.235   0.928 -1.6941 -0.5118 -0.6578
 2045TIP3   OH2 6098   1.185   0.683   1.459  0.6050 -0.2277  0.6971
 2045TIP3    H1 6099   1.189   0.682   1.555  0.0887  0.5996  0.7322
 2045TIP3    H2 6100   1.276   0.672   1.432  0.8418  0.2133  1.2894
 2046TIP3   OH2 6101   0.443   2.712   1.260 -0.2663  0.2414 -0.2241
 2046TIP3    H1 6102   0.479   2.651   1.195  0.2228  1.7064 -1.3695
 2046TIP3    H2 6103   0.389   2.656   1.316 -0.0407 -1.2187 -1.3690
 2047TIP3   OH2 6104   6.113   5.397   2.764  0.3044  0.1118  0.2469
 2047TIP3    H1 6105   6.165   5.327   2.804 -0.1484  0.6378  1.8559
 2047TIP3    H2 6106   6.023   5.377   2.791  0.0635  0.8424 -0.0009
 2048TIP3   OH2 6107   4.441   3.703   5.227 -0.0503  0.6305  0.0771
 2048TIP3    H1 6108   4.417   3.623   5.273  0.9911 -0.3127 -0.9396
 2048TIP3    H2 6109   4.366   3.722   5.170  0.3185 -0.5469 -0.8357
 2049TIP3   OH2 6110   3.039   5.507   1.541 -0.4623 -0.5437 -0.2465
 2049TIP3    H1 6111   3.133   5.491   1.542 -0.3417 -0.0938 -1.9701
 2049TIP3    H2 6112   3.030   5.602   1.547 -0.5908 -0.2267 -3.4978
 2050TIP3   OH2 6113   5.900   0.604   1.985 -0.7130 -0.1585 -0.1867
 2050TIP3    H1 6114   5.863   0.518   2.001  0.1689 -0.7772 -1.2997
 2050TIP3    H2 6115   5.824   0.662   1.976 -1.3018 -0.5348  1.8380
 2051TIP3   OH2 6116   0.889   2.850   2.567 -0.1735 -0.0724 -0.9603
 2051TIP3    H1 6117   0.922   2.774   2.519 -1.0715 -0.5679 -0.8329
 2051TIP3    H2 6118   0.933   2.846   2.652  0.1027 -0.2063 -1.1078
 2052TIP3   OH2 6119   0.196   2.304   1.288  0.1296  0.0857  0.1912
 2052TIP3    H1 6120   0.201   2.253   1.369 -0.0557  0.2459  0.3046
 2052TIP3    H2 6121   0.217   2.241   1.219  1.3780  0.2088  0.4456
 2053TIP3   OH2 6122   3.668   2.536   5.838 -0.4567 -0.2629 -0.1333
 2053TIP3    H1 6123   3.698   2.543   5.928  0.3304 -1.2007 -0.3038
 2053TIP3    H2 6124   3.593   2.476   5.843  0.0818 -0.9478 -0.2004
 2054TIP3   OH2 6125   0.426   1.920   1.182  0.1886 -0.3393  0.4847
 2054TIP3    H1 6126   0.423   1.839   1.234 -1.3942 -0.0471  0.9188
 2054TIP3    H2 6127   0.342   1.962   1.200 -0.7786 -0.5564 -2.9026
 2055TIP3   OH2 6128   6.767   2.658   0.766 -0.0738  0.0999 -0.0473
 2055TIP3    H1 6129   6.712   2.700   0.832  0.5245  1.4627 -0.3755
 2055TIP3    H2 6130   6.775   2.723   0.697  2.1303  0.0407  0.0913
 2056TIP3   OH2 6131   6.205   4.955   5.674 -0.3618 -0.4126  0.8085
 2056TIP3    H1 6132   6.254   5.024   5.631 -0.2577 -0.8287  0.2473
 2056TIP3    H2 6133   6.261   4.877   5.668 -0.5105 -0.5747  1.3537
 2057TIP3   OH2 6134   4.025   6.711   0.109  0.1231  0.2331 -0.4775
 2057TIP3    H1 6135   3.934   6.682   0.113 -0.4399  1.9619  0.1559
 2057TIP3    H2 6136   4.054   6.714   0.200  0.5009  0.5767 -0.6044
 2058TIP3   OH2 6137   0.089   1.064   4.838 -0.0693 -0.1518  0.3365
 2058TIP3    H1 6138   0.099   1.117   4.759 -1.2318  0.6937  0.7346
 2058TIP3    H2 6139   0.163   1.089   4.894 -0.7154  1.2226  0.6020
 2059TIP3   OH2 6140   5.220   1.148   4.211 -0.0591 -0.0292 -0.0609
 2059TIP3    H1 6141   5.150   1.085   4.223  0.3584 -0.4183  0.3417
 2059TIP3    H2 6142   5.297   1.108   4.251  0.5674  0.0816 -1.1086
 2060TIP3   OH2 6143   3.134   0.447   0.915  0.5171 -0.6845 -0.4841
 2060TIP3    H1 6144   3.184   0.433   0.996 -1.5640  0.0253  1.0241
 2060TIP3    H2 6145   3.197   0.483   0.853  2.6489 -3.0471  0.1403
 2061TIP3   OH2 6146   4.554   1.859   0.184  0.2450  0.2591 -0.3228
 2061TIP3    H1 6147   4.645   1.853   0.156 -0.0377  0.5612 -1.3569
 2061TIP3    H2 6148   4.517   1.930   0.131 -0.6312  0.0404 -0.0295
 2062TIP3   OH2 6149   6.155   4.361   4.771 -0.2349 -0.0146 -0.2650
 2062TIP3    H1 6150   6.215   4.429   4.803 -0.0235 -0.5110  0.3918
 2062TIP3    H2 6151   6.078   4.368   4.827 -0.2307 -0.2900 -0.2244
 2063TIP3   OH2 6152   5.889   6.375   0.227 -0.0650  0.2499 -0.2719
 2063TIP3    H1 6153   5.811   6.411   0.268 -0.8110 -1.5679  0.0168
 2063TIP3    H2 6154   5.955   6.444   0.235 -1.2718  1.3474  0.5983
 2064TIP3   OH2 6155   0.925   3.860   1.668 -0.2274  0.5010 -0.0285
 2064TIP3    H1 6156   0.844   3.909   1.679 -1.0572 -1.0612  1.1994
 2064TIP3    H2 6157   0.914   3.782   1.722  2.1571  0.2879  0.2615
 2065TIP3   OH2 6158   3.651   5.797   4.886 -0.5733 -0.4848 -0.3924
 2065TIP3    H1 6159   3.584   5.733   4.866 -1.1467  0.0451 -0.1843
 2065TIP3    H2 6160   3.734   5.748   4.879 -0.8727 -0.8292 -1.9115
 2066TIP3   OH2 6161   3.325   6.650   5.622 -0.2390  0.1623  0.1690
 2066TIP3    H1 6162   3.419   6.647   5.641 -0.0429 -0.4226 -0.8009
 2066TIP3    H2 6163   3.321   6.671   5.528 -1.0952  0.8379  0.3463
 2067TIP3   OH2 6164   0.463   2.908   2.261 -0.3657 -0.7914  0.7596
 2067TIP3    H1 6165   0.529   2.916   2.330  1.5847 -0.0270 -1.0688
 2067TIP3    H2 6166   0.412   2.989   2.268 -1.2078 -1.4172  2.2351
 2068TIP3   OH2 6167   6.326   4.715   4.158 -0.1641 -0.4178 -0.3888
 2068TIP3    H1 6168   6.268   4.642   4.181  0.1157 -0.8791 -1.1166
 2068TIP3    H2 6169   6.413   4.676   4.154  0.3365  0.4190  1.4180
 2069TIP3   OH2 6170   4.153   3.164   2.747 -0.1585  0.1518  0.3130
 2069TIP3    H1 6171   4.197   3.159   2.832  0.6851 -1.1193 -0.1610
 2069TIP3    H2 6172   4.061   3.179   2.767  0.2019  0.9739  1.4058
 2070TIP3   OH2 6173   3.224   0.798   5.072  0.2309 -0.1342 -0.5152
 2070TIP3    H1 6174   3.192   0.824   4.986  0.0183  1.8800  0.1414
 2070TIP3    H2 6175   3.317   0.821   5.071  0.5753 -1.4350 -0.6766
 2071TIP3   OH2 6176   6.252   5.282   1.202  0.6044  0.1513 -0.3445
 2071TIP3    H1 6177   6.234   5.362   1.252 -1.8051  0.2498 -1.2265
 2071TIP3    H2 6178   6.342   5.259   1.225  1.2412  2.8710  0.2552
 2072TIP3   OH2 6179   2.468   1.022   1.489  0.1260  1.1415 -0.2024
 2072TIP3    H1 6180   2.406   0.968   1.441  1.5576 -2.3766  1.4825
 2072TIP3    H2 6181   2.415   1.071   1.551 -1.1688 -0.0657 -0.3064
 2073TIP3   OH2 6182   0.793   2.086   4.459 -0.0418  0.0677  0.6585
 2073TIP3    H1 6183   0.862   2.087   4.524  0.4712 -0.6895  0.1465
 2073TIP3    H2 6184   0.787   1.994   4.432 -0.6947  0.2574  0.1170
 2074TIP3   OH2 6185   1.010   6.170   1.121 -0.0345  0.2160 -0.5878
 2074TIP3    H1 6186   1.100   6.144   1.140  0.1791  0.1759 -1.6099
 2074TIP3    H2 6187   1.017   6.262   1.094 -0.4701  0.6087  0.5776
 2075TIP3   OH2 6188   1.000   3.374   3.984 -0.4232  0.1079  0.0758
 2075TIP3    H1 6189   1.061   3.301   3.990  0.7812  1.0734 -0.0708
 2075TIP3    H2 6190   0.977   3.393   4.075  0.0142  0.1547  0.1781
 2076TIP3   OH2 6191   0.959   3.233   1.600  0.1614  0.1424  0.1755
 2076TIP3    H1 6192   0.896   3.168   1.568  0.9517 -0.9212  0.7067
 2076TIP3    H2 6193   1.042   3.185   1.605  0.2240  0.3676  3.2269
 2077TIP3   OH2 6194   6.218   1.140   1.096 -0.5813  0.3147  0.1820
 2077TIP3    H1 6195   6.294   1.190   1.125 -1.3941  1.2263  0.8043
 2077TIP3    H2 6196   6.227   1.135   1.001  0.5195 -0.0575  0.2878
 2078TIP3   OH2 6197   5.688   6.062   1.867 -0.2126 -0.6886  0.1332
 2078TIP3    H1 6198   5.612   6.091   1.918 -0.2230 -0.3085 -0.0903
 2078TIP3    H2 6199   5.694   6.126   1.796 -0.6733 -1.6367 -0.7944
 2079TIP3   OH2 6200   5.936   2.713   0.481  0.1874  0.2519  0.0629
 2079TIP3    H1 6201   5.938   2.737   0.573 -0.0114 -0.2586  0.2037
 2079TIP3    H2 6202   6.018   2.665   0.467 -0.2555 -0.5813  0.2357
 2080TIP3   OH2 6203   5.949   2.916   0.963 -0.2458  0.0103  0.5510
 2080TIP3    H1 6204   5.992   2.955   1.039  0.3845 -1.9527  1.2747
 2080TIP3    H2 6205   5.905   2.838   0.997 -0.0959 -0.8309 -1.0621
 2081TIP3   OH2 6206   4.390   3.434   4.699  0.3321 -0.4315 -0.4768
 2081TIP3    H1 6207   4.311   3.381   4.691  1.1537 -1.6180 -1.0588
 2081TIP3    H2 6208   4.397   3.453   4.793 -0.5372 -0.4566 -0.3979
 2082TIP3   OH2 6209   5.821   3.956   4.240  0.5903 -0.4598  0.7064
 2082TIP3    H1 6210   5.821   3.981   4.332 -1.8616 -0.1840  0.7000
 2082TIP3    H2 6211   5.749   4.007   4.201  0.2356 -2.0703 -0.8885
 2083TIP3   OH2 6212   2.740   2.662   0.016  0.3776  0.2687 -0.0360
 2083TIP3    H1 6213   2.711   2.651   0.106  0.1926  1.4068  0.0602
 2083TIP3    H2 6214   2.660   2.670  -0.035  0.4835 -0.2347 -0.2875
 2084TIP3   OH2 6215   6.671   5.499   2.691  0.1684  0.0323  0.1006
 2084TIP3    H1 6216   6.746   5.542   2.652 -0.3888 -0.9213 -2.1730
 2084TIP3    H2 6217   6.696   5.407   2.697  0.1201  0.0860  1.8343
 2085TIP3   OH2 6218   0.621   2.531   3.618  0.8832 -0.3171 -0.1277
 2085TIP3    H1 6219   0.653   2.597   3.556 -0.5044  0.8974  0.3876
 2085TIP3    H2 6220   0.639   2.568   3.704  1.1861 -1.1807  0.1876
 2086TIP3   OH2 6221   1.889   2.940   3.925  0.0384  0.0902 -0.4708
 2086TIP3    H1 6222   1.838   2.923   4.004 -0.9442 -1.2301 -1.3540
 2086TIP3    H2 6223   1.857   3.024   3.894  0.8370  0.9080  0.8022
 2087TIP3   OH2 6224   4.555   2.079   5.617  0.3739 -0.2962  0.2835
 2087TIP3    H1 6225   4.525   2.169   5.630  1.8706  0.2797 -0.0258
 2087TIP3    H2 6226   4.616   2.084   5.544  1.1034 -1.4198  0.7859
 2088TIP3   OH2 6227   6.890   5.367   1.102 -0.1193  0.1106 -0.4745
 2088TIP3    H1 6228   6.903   5.273   1.094 -1.8168 -0.0977 -1.1651
 2088TIP3    H2 6229   6.796   5.378   1.110  0.1558  1.6690  1.1850
 2089TIP3   OH2 6230   2.401   1.892   4.526  0.0974 -0.3314  0.6902
 2089TIP3    H1 6231   2.407   1.845   4.443  1.3226 -0.4153  0.8065
 2089TIP3    H2 6232   2.307   1.902   4.541 -0.1817  0.9977 -1.4346
 2090TIP3   OH2 6233   6.737   6.453   2.893 -0.1121 -0.4707 -0.3578
 2090TIP3    H1 6234   6.786   6.521   2.939  1.2272 -1.3915 -0.3925
 2090TIP3    H2 6235   6.801   6.408   2.839 -0.0582 -4.1715  2.3621
 2091TIP3   OH2 6236   0.517   2.731   5.133 -0.0722  0.1241  0.0673
 2091TIP3    H1 6237   0.551   2.661   5.188  0.5185 -1.4161 -2.1309
 2091TIP3    H2 6238   0.578   2.736   5.060 -1.9216  0.6473 -1.5151
 2092TIP3   OH2 6239   0.342   3.675   0.486 -0.1701 -0.0532  0.2742
 2092TIP3    H1 6240   0.404   3.683   0.558  1.7042  1.6030 -1.4197
 2092TIP3    H2 6241   0.269   3.626   0.524  0.6390  0.8499  3.3138
 2093TIP3   OH2 6242   1.686   5.846   1.608  0.2013 -0.2052 -0.1091
 2093TIP3    H1 6243   1.630   5.845   1.686  0.9313 -2.1441  0.4544
 2093TIP3    H2 6244   1.639   5.901   1.546 -0.3834  1.4233  1.6926
 2094TIP3   OH2 6245   2.988   5.875   4.861 -0.1831 -0.0545  0.2649
 2094TIP3    H1 6246   3.007   5.956   4.908 -0.5517 -0.7505  1.6589
 2094TIP3    H2 6247   2.900   5.887   4.826 -1.6003 -0.9988  3.1843
 2095TIP3   OH2 6248   5.953   3.220   4.310  0.3442 -0.3111 -0.1826
 2095TIP3    H1 6249   6.004   3.180   4.379  2.5762  3.2210  0.4798
 2095TIP3    H2 6250   6.010   3.288   4.273 -2.7159  1.7298 -1.6610
 2096TIP3   OH2 6251   4.497   4.009   0.257  0.4023  0.3634  0.1343
 2096TIP3    H1 6252   4.496   4.067   0.333  2.1819 -0.2973  0.7096
 2096TIP3    H2 6253   4.528   3.925   0.290  2.5435  0.4132 -1.5195
 2097TIP3   OH2 6254   4.050   6.184   3.844 -0.1850 -0.5128 -0.0771
 2097TIP3    H1 6255   3.960   6.187   3.810 -0.9328  0.7502  1.8728
 2097TIP3    H2 6256   4.095   6.255   3.798 -1.0236  0.7900  1.0326
 2098TIP3   OH2 6257   3.608   4.929   4.202 -0.0738  0.1187  0.6977
 2098TIP3    H1 6258   3.530   4.910   4.150  1.9270 -2.0594 -1.7611
 2098TIP3    H2 6259   3.657   4.992   4.149  0.2948  0.7377  1.7555
 2099TIP3   OH2 6260   5.465   1.593   4.528 -0.8065 -0.7719  0.1314
 2099TIP3    H1 6261   5.536   1.585   4.465 -1.0689  0.6196 -0.3902
 2099TIP3    H2 6262   5.407   1.660   4.490 -0.8754  0.2454  1.9191
 2100TIP3   OH2 6263   4.436   6.490   4.809  0.3875 -0.9452  0.6769
 2100TIP3    H1 6264   4.502   6.558   4.799  0.0729 -0.8523 -1.3257
 2100TIP3    H2 6265   4.398   6.481   4.721 -3.7557  0.5215  2.0893
 2101TIP3   OH2 6266   0.654   0.697   0.724  0.1881 -0.3372  0.2155
 2101TIP3    H1 6267   0.565   0.700   0.758 -0.2278 -2.6862 -0.4550
 2101TIP3    H2 6268   0.643   0.691   0.629  0.9865 -1.4370  0.1705
 2102TIP3   OH2 6269   5.141   6.156   2.060  0.3207  0.2524 -0.4367
 2102TIP3    H1 6270   5.168   6.216   2.130 -0.3684  0.1069 -0.0307
 2102TIP3    H2 6271   5.101   6.082   2.107  0.9279 -0.4057 -0.9414
 2103TIP3   OH2 6272   5.290   2.109   4.130  0.3127 -0.0243 -0.3342
 2103TIP3    H1 6273   5.284   2.094   4.224  2.2088  2.8145  0.3675
 2103TIP3    H2 6274   5.199   2.123   4.102 -0.2792 -0.9232  1.0205
 2104TIP3   OH2 6275   4.144   3.024   1.100 -0.3904  0.2965  0.1632
 2104TIP3    H1 6276   4.065   2.999   1.052 -1.6112 -1.5392  2.8382
 2104TIP3    H2 6277   4.207   2.956   1.077 -1.1004 -0.8106  1.3629
 2105TIP3   OH2 6278   3.913   6.436   5.314  0.1319 -0.3017  0.2026
 2105TIP3    H1 6279   3.861   6.355   5.311 -0.2677 -0.0613 -2.7743
 2105TIP3    H2 6280   3.987   6.415   5.371  0.0369 -2.7890 -0.4575
 2106TIP3   OH2 6281   5.146   4.272   4.071 -0.5323  0.1621  0.2407
 2106TIP3    H1 6282   5.190   4.195   4.105  0.3666  0.4756 -0.1816
 2106TIP3    H2 6283   5.212   4.341   4.073 -0.8791  0.5530 -0.7290
 2107TIP3   OH2 6284   7.003   4.150   5.129 -0.2934 -0.2001 -0.2877
 2107TIP3    H1 6285   7.018   4.178   5.039  0.0061 -0.9510 -0.4798
 2107TIP3    H2 6286   6.955   4.067   5.121 -0.0327 -0.4094  0.2283
 2108TIP3   OH2 6287   6.209   5.790   3.268  0.1680  0.2332  0.0163
 2108TIP3    H1 6288   6.245   5.870   3.228  0.0413 -0.1136 -0.8193
 2108TIP3    H2 6289   6.273   5.766   3.335  1.4509 -0.2894 -1.3434
 2109TIP3   OH2 6290   6.467   2.415   5.172 -0.8481  0.0300  0.3792
 2109TIP3    H1 6291   6.414   2.383   5.244  0.1174  0.0401  1.1054
 2109TIP3    H2 6292   6.551   2.370   5.181 -0.6961  0.0533 -0.7188
 2110TIP3   OH2 6293   2.558  -0.027   2.072 -0.0658  0.5401  0.1946
 2110TIP3    H1 6294   2.539   0.060   2.108  0.3175  0.6613  0.1137
 2110TIP3    H2 6295   2.646  -0.018   2.034  0.8345 -0.4116  1.9207
 2111TIP3   OH2 6296   3.034   4.493   3.447 -0.0056  0.3825  0.4514
 2111TIP3    H1 6297   3.091   4.421   3.475  0.9040  1.5693  1.7900
 2111TIP3    H2 6298   2.987   4.519   3.526 -0.6141  1.0029 -0.1038
 2112TIP3   OH2 6299   1.824   3.413   2.949  0.2230  0.5160 -0.2800
 2112TIP3    H1 6300   1.843   3.505   2.969  0.0711  0.5202 -0.1480
 2112TIP3    H2 6301   1.848   3.366   3.028 -0.9134  0.6010  0.1452
 2113TIP3   OH2 6302   0.055   0.410   3.394 -0.2082  0.0430 -0.1405
 2113TIP3    H1 6303  -0.024   0.404   3.340  1.1716 -2.4621 -2.1040
 2113TIP3    H2 6304   0.068   0.321   3.427  2.3477  0.0948 -0.7941
 2114TIP3   OH2 6305   5.310   5.843   2.595  0.6364 -0.9869 -0.1877
 2114TIP3    H1 6306   5.335   5.842   2.503  0.2456  0.7394 -0.3541
 2114TIP3    H2 6307   5.391   5.863   2.642  0.4846  0.0096 -0.3331
 2115TIP3   OH2 6308   1.960   2.392   2.515  0.0331  1.0232  0.3560
 2115TIP3    H1 6309   1.926   2.481   2.528 -0.8396  0.8793 -0.7721
 2115TIP3    H2 6310   2.025   2.402   2.445 -2.0082  0.4274 -1.7780
 2116TIP3   OH2 6311   2.897   4.278   0.401 -0.0626  0.5571  0.6495
 2116TIP3    H1 6312   2.926   4.350   0.345  0.0726  0.2367  0.3055
 2116TIP3    H2 6313   2.909   4.310   0.490 -1.3517  1.5093  0.5117
 2117TIP3   OH2 6314   6.681   4.614   3.024 -0.4637 -0.1763 -0.0813
 2117TIP3    H1 6315   6.585   4.616   3.025 -0.5811  2.2811 -3.2872
 2117TIP3    H2 6316   6.703   4.562   2.947  0.8547 -1.1008  0.8744
 2118TIP3   OH2 6317   0.255   5.043   5.098 -0.1650 -0.5332  0.1463
 2118TIP3    H1 6318   0.300   4.959   5.105  0.6321 -0.0420  1.2230
 2118TIP3    H2 6319   0.224   5.046   5.007  2.2234 -0.7923 -0.7544
 2119TIP3   OH2 6320   1.628   2.869   1.653  0.4994 -0.5295  0.4616
 2119TIP3    H1 6321   1.645   2.881   1.560 -0.8363  2.0321  0.4485
 2119TIP3    H2 6322   1.547   2.817   1.656  0.4790 -0.5146  0.1920
 2120TIP3   OH2 6323   6.939   2.847   4.279 -0.1095  0.2208 -0.1341
 2120TIP3    H1 6324   6.993   2.812   4.209  1.9607 -0.2362  1.5743
 2120TIP3    H2 6325   6.871   2.781   4.293 -1.0110  0.6678 -2.1299
 2121TIP3   OH2 6326   6.200   5.591   2.242  0.2151 -0.2954  0.8679
 2121TIP3    H1 6327   6.217   5.531   2.170 -0.1731  0.6331 -0.0356
 2121TIP3    H2 6328   6.234   5.675   2.211 -1.9624  0.6334  0.7993
 2122TIP3   OH2 6329   0.149   3.622   2.886  0.1236  0.2083 -0.5246
 2122TIP3    H1 6330   0.118   3.535   2.911 -0.7252  0.7410  0.3199
 2122TIP3    H2 6331   0.239   3.608   2.856  0.5702 -0.7302  1.1526
 2123TIP3   OH2 6332   5.565   4.052   2.854 -0.0823  0.1226 -0.2778
 2123TIP3    H1 6333   5.500   4.053   2.784 -0.7193 -1.0177  0.2609
 2123TIP3    H2 6334   5.649   4.054   2.808 -0.4793  1.2640 -0.9978
 2124TIP3   OH2 6335   5.182   1.719   0.369 -0.2894 -0.4925 -0.6802
 2124TIP3    H1 6336   5.230   1.639   0.387 -0.5712 -0.4378  0.3839
 2124TIP3    H2 6337   5.103   1.713   0.423 -1.0191 -0.1568 -1.6894
 2125TIP3   OH2 6338   0.110   0.973   2.459 -0.2689 -0.7519  0.0301
 2125TIP3    H1 6339   0.183   0.947   2.516  0.3519 -0.5026 -0.6297
 2125TIP3    H2 6340   0.071   1.049   2.503 -0.5930 -1.3304  0.7529
 2126TIP3   OH2 6341   7.147   2.771   5.235  0.1981  1.0939  0.6503
 2126TIP3    H1 6342   7.108   2.848   5.194  0.4363  1.3428  0.8909
 2126TIP3    H2 6343   7.241   2.784   5.226  0.2382  0.3833 -0.1330
 2127TIP3   OH2 6344   7.062   4.008   1.273 -0.0267  0.3753 -0.1639
 2127TIP3    H1 6345   7.077   4.062   1.196 -2.4019 -0.7095 -1.5026
 2127TIP3    H2 6346   6.967   4.005   1.282  0.0979 -1.7919  1.1447
 2128TIP3   OH2 6347   3.101   6.805   4.053 -0.0722  0.5207  0.6577
 2128TIP3    H1 6348   3.161   6.822   3.979  0.4835 -0.3781  0.8822
 2128TIP3    H2 6349   3.033   6.750   4.015 -1.1789  2.1026  0.2350
 2129TIP3   OH2 6350   4.358   3.355   4.052  0.2612  0.5176  0.3271
 2129TIP3    H1 6351   4.413   3.370   4.129 -0.5954  3.1694  0.4909
 2129TIP3    H2 6352   4.269   3.346   4.086  0.0694  0.1240 -0.2527
 2130TIP3   OH2 6353   7.079   1.054   5.909  0.3696 -0.5835 -1.0395
 2130TIP3    H1 6354   7.039   1.114   5.846 -1.7780 -1.2254 -0.3852
 2130TIP3    H2 6355   7.035   0.971   5.894  1.4317 -1.3291 -0.1920
 2131TIP3   OH2 6356   6.157   0.428   5.256 -0.1293 -0.0342 -0.4882
 2131TIP3    H1 6357   6.140   0.522   5.262 -2.4992 -0.4269 -0.0290
 2131TIP3    H2 6358   6.190   0.405   5.343 -3.0593 -0.1531  0.7295
 2132TIP3   OH2 6359   1.985   5.260   2.916  0.3536  0.5363  0.1272
 2132TIP3    H1 6360   1.897   5.244   2.881  0.6730 -0.3100 -0.3058
 2132TIP3    H2 6361   1.982   5.222   3.004  0.5685 -0.3284 -0.2369
 2133TIP3   OH2 6362   5.030   3.933   2.402  0.1150  0.2404 -0.1036
 2133TIP3    H1 6363   5.072   3.911   2.486  0.3652  0.1326 -0.2566
 2133TIP3    H2 6364   4.981   4.013   2.420 -1.6188 -0.9526  0.7403
 2134TIP3   OH2 6365   4.814   3.131   3.191 -0.8816 -0.1733 -0.0446
 2134TIP3    H1 6366   4.770   3.061   3.239 -0.1770  0.3246  1.3947
 2134TIP3    H2 6367   4.749   3.164   3.129 -3.2072  1.6626  3.0958
 2135TIP3   OH2 6368   5.846   2.464   4.487  0.2051  0.2275  0.3951
 2135TIP3    H1 6369   5.759   2.424   4.491  0.9125 -1.4256  0.2113
 2135TIP3    H2 6370   5.862   2.477   4.393  0.1961  0.4567  0.4242
 2136TIP3   OH2 6371   4.819   3.420   1.662  0.5032  0.4548  0.2624
 2136TIP3    H1 6372   4.840   3.427   1.756 -1.9343 -0.5811  0.9602
 2136TIP3    H2 6373   4.800   3.327   1.649  1.4994  0.4612 -1.4670
 2137TIP3   OH2 6374   2.124   4.409   2.152  0.4375 -0.3043 -0.4081
 2137TIP3    H1 6375   2.218   4.416   2.166  0.6514  1.4649 -2.3069
 2137TIP3    H2 6376   2.106   4.315   2.157  2.6469 -0.8719 -1.8535
 2138TIP3   OH2 6377   4.785   2.270   1.050  0.4585  0.5549  0.0071
 2138TIP3    H1 6378   4.877   2.273   1.076  0.2799 -0.4252  0.8198
 2138TIP3    H2 6379   4.788   2.254   0.955  1.1205  0.0768  0.1009
 2139TIP3   OH2 6380   5.406   5.851   1.096  0.2686  0.2550  0.4150
 2139TIP3    H1 6381   5.441   5.875   1.182  1.4337  1.3098 -0.3167
 2139TIP3    H2 6382   5.484   5.835   1.043 -0.4233  0.2548 -0.6107
 2140TIP3   OH2 6383   7.084   1.191   0.549  0.1278  0.3113 -0.1256
 2140TIP3    H1 6384   7.018   1.177   0.617 -0.7225  0.8229 -0.8391
 2140TIP3    H2 6385   7.124   1.275   0.571 -0.8475  0.9699 -0.8158
 2141TIP3   OH2 6386   0.900   5.925   1.788  0.0040 -0.3931  0.2085
 2141TIP3    H1 6387   0.915   5.877   1.870 -0.2318 -1.1529 -0.1832
 2141TIP3    H2 6388   0.806   5.915   1.771  0.0804 -0.3771 -0.2361
 2142TIP3   OH2 6389   2.117   0.882   0.475 -0.4149 -0.3117 -0.1423
 2142TIP3    H1 6390   2.024   0.859   0.477 -0.2582 -0.9492  0.7896
 2142TIP3    H2 6391   2.160   0.803   0.442 -0.2065  0.0079 -0.6420
 2143TIP3   OH2 6392   2.599   0.574   3.969  0.3456 -0.0747  0.2097
 2143TIP3    H1 6393   2.550   0.643   3.923 -1.2394 -0.2983  1.4771
 2143TIP3    H2 6394   2.561   0.573   4.057  1.9506 -0.9974  0.9230
 2144TIP3   OH2 6395   5.516   6.566   5.158 -0.4970  0.2163  0.0859
 2144TIP3    H1 6396   5.504   6.505   5.085  1.1479 -0.5028  0.3682
 2144TIP3    H2 6397   5.430   6.571   5.200 -1.2908  0.0824 -1.4500
 2145TIP3   OH2 6398   1.810   0.458   4.125  0.0884 -0.1311  0.3308
 2145TIP3    H1 6399   1.809   0.543   4.082 -2.4121 -0.5575 -0.6591
 2145TIP3    H2 6400   1.760   0.470   4.206  0.4220 -0.4751  0.5953
 2146TIP3   OH2 6401   1.390   1.716   5.275 -0.1346 -0.3858  0.4438
 2146TIP3    H1 6402   1.436   1.635   5.252 -0.3989 -0.4527  0.1454
 2146TIP3    H2 6403   1.310   1.686   5.318 -0.7832 -0.3159 -0.6807
 2147TIP3   OH2 6404   2.996   2.644   3.393  0.2770  0.3276  0.2902
 2147TIP3    H1 6405   2.980   2.693   3.473  0.4352  1.1652 -0.1809
 2147TIP3    H2 6406   3.068   2.690   3.350  1.7266 -1.4059  0.7349
 2148TIP3   OH2 6407   1.008   2.026   5.323 -0.1045  0.7010 -0.3191
 2148TIP3    H1 6408   1.102   2.022   5.344 -0.0684  1.2373 -0.3729
 2148TIP3    H2 6409   0.976   1.937   5.341  0.5393  0.3435 -0.9064
 2149TIP3   OH2 6410   3.315   0.888   3.854  0.1530  1.0160  0.4624
 2149TIP3    H1 6411   3.253   0.816   3.858  0.8433  0.2144 -1.7945
 2149TIP3    H2 6412   3.391   0.858   3.903  0.0232  0.6500  0.4398
 2150TIP3   OH2 6413   5.832   4.039   4.505 -0.4821 -0.0472 -0.1297
 2150TIP3    H1 6414   5.796   4.125   4.527 -2.2197 -1.3161  2.5001
 2150TIP3    H2 6415   5.913   4.033   4.557 -0.0960  0.1613 -0.6974
 2151TIP3   OH2 6416   5.693   3.619   0.732 -0.4305 -0.7691 -0.4950
 2151TIP3    H1 6417   5.740   3.692   0.693 -1.0265  0.6719  1.3516
 2151TIP3    H2 6418   5.621   3.659   0.781 -0.0102 -2.4573  1.6664
 2152TIP3   OH2 6419   0.159   6.282   5.678  0.6673  0.5443  0.0790
 2152TIP3    H1 6420   0.133   6.253   5.590  0.5168 -0.1926  0.3531
 2152TIP3    H2 6421   0.205   6.206   5.715  0.8661  0.9042  0.5786
 2153TIP3   OH2 6422   4.284   6.610   0.007  0.2773 -0.4897 -0.1948
 2153TIP3    H1 6423   4.298   6.688  -0.047 -1.1842 -1.1675 -1.6429
 2153TIP3    H2 6424   4.213   6.633   0.066  1.5127  0.0663  1.1380
 2154TIP3   OH2 6425   0.315   0.290   5.182 -0.2952  0.0341 -0.6003
 2154TIP3    H1 6426   0.287   0.200   5.199  0.4347  0.1442  1.4315
 2154TIP3    H2 6427   0.397   0.280   5.134  0.6170 -0.4497  0.9981
 2155TIP3   OH2 6428   2.973   1.654   0.242 -0.1677  0.0098 -0.1671
 2155TIP3    H1 6429   2.922   1.599   0.303  0.2996 -2.7608 -2.0962
 2155TIP3    H2 6430   3.009   1.723   0.298 -2.8799 -0.0992  1.9654
 2156TIP3   OH2 6431   5.079   2.720   0.034  0.7167 -0.0072 -0.2180
 2156TIP3    H1 6432   5.090   2.698   0.126 -1.8500  2.9208  0.9611
 2156TIP3    H2 6433   5.142   2.790   0.017  1.6702 -1.0004 -0.9732
 2157TIP3   OH2 6434   7.070   3.859   5.039 -0.5493  0.4710  0.2361
 2157TIP3    H1 6435   7.070   3.849   4.944 -0.5099 -1.3550  0.3915
 2157TIP3    H2 6436   7.146   3.914   5.057 -0.2861  0.4540 -0.7567
 2158TIP3   OH2 6437   2.001   4.113   1.691  0.4453  0.9429  0.3908
 2158TIP3    H1 6438   1.923   4.146   1.647 -0.1105 -0.6364  0.1099
 2158TIP3    H2 6439   1.975   4.105   1.783  0.0178 -0.2102  0.1913
 2159TIP3   OH2 6440   6.476   3.808   2.819 -0.0627  0.0615  0.3276
 2159TIP3    H1 6441   6.389   3.772   2.835  1.0966 -2.5465  1.1973
 2159TIP3    H2 6442   6.462   3.903   2.818 -3.1025 -0.2748 -0.9194
 2160TIP3   OH2 6443   3.136   0.497   1.229  0.1689  0.5004 -0.5462
 2160TIP3    H1 6444   3.055   0.519   1.275  1.4756  1.3680  1.5061
 2160TIP3    H2 6445   3.188   0.578   1.231  1.1598 -0.0740 -1.6462
 2161TIP3   OH2 6446   5.816   2.125   4.411 -0.6673  0.1158 -0.2357
 2161TIP3    H1 6447   5.753   2.062   4.376 -1.4937  1.0326 -0.4494
 2161TIP3    H2 6448   5.763   2.192   4.454  0.1171  1.1979 -0.8851
 2162TIP3   OH2 6449   3.233   2.618   0.760 -0.4165  0.8082 -0.1821
 2162TIP3    H1 6450   3.216   2.545   0.701  1.2959  0.7246 -0.6169
 2162TIP3    H2 6451   3.189   2.592   0.842 -1.4623  0.2043 -0.9037
 2163TIP3   OH2 6452   2.548   2.469   5.035  0.1344  0.2714  0.2236
 2163TIP3    H1 6453   2.620   2.479   5.098 -0.4919  0.6208  0.8912
 2163TIP3    H2 6454   2.533   2.375   5.031  1.6386  0.0285 -1.0922
 2164TIP3   OH2 6455   6.614   5.546   4.121 -0.3107  0.6037 -0.5987
 2164TIP3    H1 6456   6.548   5.494   4.074 -0.6341  0.4770 -0.0199
 2164TIP3    H2 6457   6.668   5.482   4.165 -1.0858  0.7497  0.6184
 2165TIP3   OH2 6458   4.939   2.047   3.301 -0.2139 -0.2475 -0.0888
 2165TIP3    H1 6459   4.950   2.130   3.254 -0.2143 -0.9168 -1.3243
 2165TIP3    H2 6460   4.848   2.022   3.283 -0.2248 -0.4988  0.3094
 2166TIP3   OH2 6461   4.677   2.197   0.089 -0.5947  0.2365 -0.4373
 2166TIP3    H1 6462   4.587   2.177   0.062 -0.2844 -0.3973 -1.0385
 2166TIP3    H2 6463   4.731   2.150   0.026  0.1883 -1.6100  1.5083
 2167TIP3   OH2 6464   1.012   4.908   3.121 -0.1535  0.5778  0.7174
 2167TIP3    H1 6465   0.967   4.831   3.156  0.3380  0.5032  1.1965
 2167TIP3    H2 6466   0.944   4.976   3.119 -0.2225  0.5512  1.7266
 2168TIP3   OH2 6467   0.915   6.518   5.420 -0.1274  0.0786 -0.2768
 2168TIP3    H1 6468   0.891   6.607   5.447  0.8396  0.1049  0.5357
 2168TIP3    H2 6469   0.835   6.483   5.379 -0.4493  1.3883 -0.8055
 2169TIP3   OH2 6470   3.043   4.398   5.035 -0.7353  0.1327  0.2880
 2169TIP3    H1 6471   3.061   4.482   5.077 -0.7387  0.2949 -0.0288
 2169TIP3    H2 6472   2.958   4.411   4.992 -0.0267  0.4898 -1.0738
 2170TIP3   OH2 6473   5.387   1.517   2.194  0.0556 -0.1756  0.1915
 2170TIP3    H1 6474   5.384   1.499   2.288  0.0299  0.5319  0.3310
 2170TIP3    H2 6475   5.481   1.516   2.173  0.0140 -1.5939 -0.0400
 2171TIP3   OH2 6476   4.595   4.705   2.450  0.5042 -0.1210  0.8190
 2171TIP3    H1 6477   4.691   4.699   2.454  0.6209 -3.6733 -1.7933
 2171TIP3    H2 6478   4.565   4.650   2.522  0.3790  0.9000  1.5660
 2172TIP3   OH2 6479   0.261   6.145   4.191  0.1551  0.0917  0.1433
 2172TIP3    H1 6480   0.225   6.145   4.102  1.7499  1.5614 -0.5633
 2172TIP3    H2 6481   0.291   6.234   4.205 -2.4000  0.6776  3.2356
 2173TIP3   OH2 6482   4.221   4.488   3.562 -0.4303 -0.7129  0.3136
 2173TIP3    H1 6483   4.298   4.545   3.553 -0.4219 -0.8817 -0.6989
 2173TIP3    H2 6484   4.154   4.530   3.508 -0.7885 -1.0349  0.5085
 2174TIP3   OH2 6485   0.723   1.468   3.508 -0.2235 -0.6021 -0.1876
 2174TIP3    H1 6486   0.693   1.554   3.480 -0.2043 -0.1161  1.2347
 2174TIP3    H2 6487   0.653   1.435   3.564  0.5161 -0.7750  0.6608
 2175TIP3   OH2 6488   1.124   4.481   1.339  0.3209 -0.0701  0.1728
 2175TIP3    H1 6489   1.080   4.533   1.406 -0.1948  1.3406 -1.2028
 2175TIP3    H2 6490   1.165   4.545   1.281 -1.3442 -1.0595 -2.2963
 2176TIP3   OH2 6491   2.476   6.093   3.635  0.1596  0.1332 -0.5427
 2176TIP3    H1 6492   2.445   6.020   3.582  1.4394 -1.0912  0.3157
 2176TIP3    H2 6493   2.411   6.162   3.621 -0.6739 -0.8827 -1.9840
 2177TIP3   OH2 6494   0.165   4.883   5.763  0.2711  0.1415 -0.0955
 2177TIP3    H1 6495   0.084   4.895   5.813  1.0098  0.4683  1.0557
 2177TIP3    H2 6496   0.185   4.971   5.729 -0.1120 -0.0377 -0.8172
 2178TIP3   OH2 6497   2.971   1.258   3.893  0.3025 -0.0224 -0.1004
 2178TIP3    H1 6498   2.928   1.338   3.922  0.6701  0.7693 -1.6131
 2178TIP3    H2 6499   3.000   1.215   3.974 -1.1580  0.6350  0.8078
 2179TIP3   OH2 6500   7.026   5.187   1.436 -0.1904 -0.1743 -0.5433
 2179TIP3    H1 6501   7.061   5.184   1.525 -0.3224  0.0349 -0.4838
 2179TIP3    H2 6502   7.050   5.103   1.398 -0.7775 -0.5595 -0.0706
 2180TIP3   OH2 6503   7.017   6.097   3.911 -0.4771  0.3635 -0.2869
 2180TIP3    H1 6504   7.078   6.079   3.840  0.2821  0.5426  0.3056
 2180TIP3    H2 6505   6.952   6.026   3.906  1.0039 -1.1010  0.4119
 2181TIP3   OH2 6506   1.921   2.060   4.424 -0.1219 -0.0126  0.4718
 2181TIP3    H1 6507   1.943   2.144   4.464  1.3553  0.3552 -1.0185
 2181TIP3    H2 6508   1.899   2.081   4.334 -4.5595 -0.6695  1.1644
 2182TIP3   OH2 6509   2.875   0.380   4.177 -0.0472 -0.3909  0.1881
 2182TIP3    H1 6510   2.824   0.401   4.255  0.0984 -0.6807  0.3643
 2182TIP3    H2 6511   2.811   0.359   4.110 -0.1450 -1.5977  0.6488
 2183TIP3   OH2 6512   0.719   1.993   2.481 -0.1003 -0.4468 -0.3966
 2183TIP3    H1 6513   0.781   1.954   2.419 -0.4392 -0.3408 -0.8117
 2183TIP3    H2 6514   0.681   1.918   2.527  0.1040 -0.5317 -0.3648
 2184TIP3   OH2 6515   6.765   4.011   5.417 -0.0564  0.0160 -0.2113
 2184TIP3    H1 6516   6.777   4.000   5.322 -0.1257 -3.3661  0.0685
 2184TIP3    H2 6517   6.853   4.005   5.453 -0.1810 -0.4216  0.0339
 2185TIP3   OH2 6518   3.045   6.508   2.066  0.2173 -0.3785  0.3404
 2185TIP3    H1 6519   3.022   6.569   1.996  0.0835 -2.1245 -1.2243
 2185TIP3    H2 6520   3.098   6.441   2.023 -0.0054 -1.6102  1.8827
 2186TIP3   OH2 6521   5.899   3.193   1.950  0.3916 -0.1575 -0.4657
 2186TIP3    H1 6522   5.858   3.169   2.033 -0.2210  0.1024 -0.6886
 2186TIP3    H2 6523   5.962   3.261   1.973 -0.9544  1.1170 -0.4296
 2187TIP3   OH2 6524   0.629   5.836   5.892 -0.0719  0.4586  0.6362
 2187TIP3    H1 6525   0.604   5.746   5.873 -0.1762  0.7870 -0.9787
 2187TIP3    H2 6526   0.563   5.889   5.847  2.0085  1.3371 -1.6669
 2188TIP3   OH2 6527   6.524   0.989   0.996  0.1732 -0.0931  0.4294
 2188TIP3    H1 6528   6.563   0.906   0.966  1.4118  0.0550  1.5390
 2188TIP3    H2 6529   6.443   0.996   0.946  2.4105  0.5765 -3.6207
 2189TIP3   OH2 6530   1.222   3.890   4.946 -0.4605  0.0606  0.2627
 2189TIP3    H1 6531   1.255   3.886   5.035 -0.0412 -1.3154  0.0593
 2189TIP3    H2 6532   1.161   3.817   4.939 -0.6620  0.2888 -0.5216
 2190TIP3   OH2 6533   4.782   5.945   2.039 -0.2097  0.4542  0.4406
 2190TIP3    H1 6534   4.842   5.971   1.969  0.3307 -2.3509 -0.2431
 2190TIP3    H2 6535   4.717   5.890   1.995 -0.6676 -0.2263  1.9294
 2191TIP3   OH2 6536   6.171   5.683   2.797 -0.0072  0.8008 -0.1829
 2191TIP3    H1 6537   6.138   5.594   2.785 -0.5178  0.9882 -0.1963
 2191TIP3    H2 6538   6.262   5.672   2.825 -0.7112  0.1981  2.1381
 2192TIP3   OH2 6539   6.848   6.763   1.782 -0.3279 -0.2839 -0.2677
 2192TIP3    H1 6540   6.763   6.758   1.738 -1.0535  1.1028  0.9078
 2192TIP3    H2 6541   6.852   6.684   1.836 -0.4923 -0.7680 -0.9416
 2193TIP3   OH2 6542   3.795   2.355   3.228  0.3775 -0.0098  0.6773
 2193TIP3    H1 6543   3.821   2.445   3.248  3.4802 -0.6302 -0.0143
 2193TIP3    H2 6544   3.809   2.347   3.133  2.9403 -1.8959  1.0961
 2194TIP3   OH2 6545   3.106   5.836   2.451 -0.4410 -0.2749 -0.3894
 2194TIP3    H1 6546   3.201   5.828   2.444 -0.5105 -0.5877 -1.1913
 2194TIP3    H2 6547   3.086   5.819   2.543  0.3421  0.5752 -0.0441
 2195TIP3   OH2 6548   0.789   6.354   3.588  0.1569 -0.6068 -0.4577
 2195TIP3    H1 6549   0.878   6.334   3.558  0.9171 -0.3149  1.4730
 2195TIP3    H2 6550   0.778   6.301   3.667 -2.3662 -2.5687 -1.9844
 2196TIP3   OH2 6551   3.676   0.700   3.250 -0.3712  0.0863 -0.2565
 2196TIP3    H1 6552   3.641   0.739   3.170  1.3965  2.4802  0.0197
 2196TIP3    H2 6553   3.726   0.770   3.291 -0.3694 -1.3453  2.4714
 2197TIP3   OH2 6554   6.802   1.648   3.472  0.6044 -0.1536 -0.3221
 2197TIP3    H1 6555   6.813   1.553   3.465  0.4623 -0.0814 -1.7857
 2197TIP3    H2 6556   6.889   1.680   3.495  1.1279 -0.4983 -1.6920
 2198TIP3   OH2 6557   4.359   3.897   4.801 -0.7698  0.2093  0.1788
 2198TIP3    H1 6558   4.345   3.840   4.877 -1.2325 -1.5402 -1.1530
 2198TIP3    H2 6559   4.297   3.865   4.736 -0.2449  1.5334 -1.0161
 2199TIP3   OH2 6560   2.325   3.396   3.295 -0.8034 -0.1210  0.2530
 2199TIP3    H1 6561   2.231   3.403   3.283 -0.9267 -0.5494  0.9206
 2199TIP3    H2 6562   2.339   3.418   3.387 -0.3151 -0.6119  0.3022
 2200TIP3   OH2 6563   0.509   0.699   3.409 -0.2197  0.4048 -0.2722
 2200TIP3    H1 6564   0.603   0.686   3.400 -0.0828 -1.1663  2.3929
 2200TIP3    H2 6565   0.498   0.741   3.494 -1.9943 -1.3762  0.4530
 2201TIP3   OH2 6566   3.246   5.119   1.087  0.2868  0.6002 -0.1482
 2201TIP3    H1 6567   3.187   5.111   1.162  0.2495  0.5223 -0.1866
 2201TIP3    H2 6568   3.193   5.094   1.012  0.6101 -0.2838 -0.0870
 2202TIP3   OH2 6569   7.074   5.290   3.063  0.2842  0.0240  0.7242
 2202TIP3    H1 6570   7.128   5.333   2.998  2.1393  0.3933  2.4250
 2202TIP3    H2 6571   7.061   5.201   3.029 -0.0954  0.6565 -0.8353
 2203TIP3   OH2 6572   6.175   6.031   4.194  0.5677  0.3451 -0.1597
 2203TIP3    H1 6573   6.135   6.089   4.258 -0.9700 -1.5135  0.6532
 2203TIP3    H2 6574   6.239   5.981   4.244  0.5945  0.0854 -0.4527
 2204TIP3   OH2 6575   1.419   2.932   5.619  0.0193  0.0669  0.4097
 2204TIP3    H1 6576   1.407   3.005   5.558  0.3043  0.6550  1.0412
 2204TIP3    H2 6577   1.443   2.858   5.564  0.7223  0.6967 -0.1586
 2205TIP3   OH2 6578   0.220   6.165   2.567  0.0094 -0.2309 -0.1915
 2205TIP3    H1 6579   0.312   6.142   2.551 -0.1103  0.1896 -1.6113
 2205TIP3    H2 6580   0.195   6.113   2.643  1.2702 -0.7563 -0.1111
 2206TIP3   OH2 6581   3.045   4.125   2.725  0.1515 -0.0797 -0.2254
 2206TIP3    H1 6582   3.109   4.191   2.750  0.7101 -1.2772  1.6607
 2206TIP3    H2 6583   3.096   4.056   2.683 -0.2042 -0.0932 -0.6474
 2207TIP3   OH2 6584   3.150   5.477   4.495  0.6545 -0.6833  0.5497
 2207TIP3    H1 6585   3.093   5.410   4.533 -1.5584  0.0784 -1.2342
 2207TIP3    H2 6586   3.143   5.552   4.554 -0.5334 -0.4729  0.1697
 2208TIP3   OH2 6587   6.537   0.723   1.801 -0.3427 -0.4642  0.0786
 2208TIP3    H1 6588   6.600   0.762   1.740  0.9748 -1.1135  0.9835
 2208TIP3    H2 6589   6.515   0.794   1.861  0.9167 -0.6461  0.8173
 2209TIP3   OH2 6590   1.530   0.052   1.238 -0.3240 -0.1418  0.1596
 2209TIP3    H1 6591   1.528  -0.041   1.262 -1.4862 -0.2436 -0.2439
 2209TIP3    H2 6592   1.620   0.080   1.256 -0.5019 -0.7891  2.3503
 2210TIP3   OH2 6593   1.502   6.613   2.800  0.3228  0.0096  0.3363
 2210TIP3    H1 6594   1.596   6.595   2.797  0.4310  0.4940  0.7132
 2210TIP3    H2 6595   1.482   6.618   2.893 -0.3025 -1.1961  0.2908
 2211TIP3   OH2 6596   4.395   4.728   1.620  0.3374  0.4625  0.0716
 2211TIP3    H1 6597   4.487   4.711   1.642  0.5488  1.5421  0.0747
 2211TIP3    H2 6598   4.369   4.653   1.566  1.2061  0.1320  0.0958
 2212TIP3   OH2 6599   3.378   4.893   2.095 -0.2528 -0.1374  0.0767
 2212TIP3    H1 6600   3.320   4.946   2.150  1.5784 -0.5792  2.6171
 2212TIP3    H2 6601   3.356   4.802   2.117 -0.2271 -0.3668 -0.7900
 2213TIP3   OH2 6602   2.056   2.187   5.062 -0.0248 -0.8840  0.0660
 2213TIP3    H1 6603   2.056   2.275   5.100 -2.7180 -1.0077  0.5677
 2213TIP3    H2 6604   2.029   2.201   4.971 -2.0756 -1.2361  0.5635
 2214TIP3   OH2 6605   1.304   5.419   3.350  0.0474 -0.3404 -0.6000
 2214TIP3    H1 6606   1.254   5.501   3.353  0.8394  0.2138 -1.6942
 2214TIP3    H2 6607   1.272   5.369   3.424  1.0425  1.8125  1.4297
 2215TIP3   OH2 6608   5.831   4.768   3.129  0.6153 -0.7075 -0.0760
 2215TIP3    H1 6609   5.736   4.769   3.116  0.3298 -2.6016  1.4534
 2215TIP3    H2 6610   5.842   4.746   3.221  2.5370 -2.3300 -0.6425
 2216TIP3   OH2 6611   0.632   1.557   5.458 -0.0566 -0.4273  0.5386
 2216TIP3    H1 6612   0.693   1.500   5.506  0.3248 -1.1431 -0.7424
 2216TIP3    H2 6613   0.545   1.532   5.491 -0.0323 -2.8371 -0.9825
 2217TIP3   OH2 6614   5.379   0.425   4.986 -0.0123  0.2012  0.2267
 2217TIP3    H1 6615   5.306   0.363   4.994 -1.2222  1.3533 -1.2503
 2217TIP3    H2 6616   5.337   0.511   4.990  1.3546  0.8985 -0.0630
 2218TIP3   OH2 6617   2.204   4.758   1.657  0.4207  0.3902  0.3476
 2218TIP3    H1 6618   2.224   4.828   1.718  0.1423  1.9804 -1.3144
 2218TIP3    H2 6619   2.289   4.724   1.630  0.5455 -0.5475  1.7932
 2219TIP3   OH2 6620   5.761   3.317   1.404  0.6634  0.0122 -0.2076
 2219TIP3    H1 6621   5.699   3.389   1.387 -1.1483 -1.5740 -0.6125
 2219TIP3    H2 6622   5.783   3.283   1.318  0.4134 -0.8010  0.0452
 2220TIP3   OH2 6623   1.594   4.324   4.596 -0.1537 -0.0042  0.4392
 2220TIP3    H1 6624   1.656   4.378   4.645  0.3167 -0.3681  0.2590
 2220TIP3    H2 6625   1.613   4.234   4.625 -1.9558  0.0190  1.8863
 2221TIP3   OH2 6626   6.643   3.891   0.614  0.5352  0.2029 -0.0600
 2221TIP3    H1 6627   6.563   3.941   0.630 -0.2760 -1.1035  0.0652
 2221TIP3    H2 6628   6.656   3.841   0.695  1.1356 -0.0752 -0.3235
 2222TIP3   OH2 6629   0.565   6.530   2.979 -0.0852  0.0658 -0.1258
 2222TIP3    H1 6630   0.616   6.457   2.944 -2.1624 -1.0078 -1.0792
 2222TIP3    H2 6631   0.474   6.508   2.958 -0.9400  2.0400  1.2263
 2223TIP3   OH2 6632   4.252   2.036   0.611 -0.2391 -0.3674  0.3175
 2223TIP3    H1 6633   4.283   1.989   0.689  0.5177  0.7472  0.7128
 2223TIP3    H2 6634   4.332   2.068   0.569 -0.7421  0.9952  0.3494
 2224TIP3   OH2 6635   5.855   1.523   2.636 -0.3965  0.1597  0.1819
 2224TIP3    H1 6636   5.795   1.513   2.710 -0.4339 -0.9956  0.0080
 2224TIP3    H2 6637   5.855   1.617   2.618  1.8393  0.9409  3.4410
 2225TIP3   OH2 6638   3.048   5.065   0.891  0.0041  0.3049 -0.0844
 2225TIP3    H1 6639   2.997   5.009   0.833  3.0062 -4.2523  1.2072
 2225TIP3    H2 6640   2.992   5.075   0.969 -0.5297 -1.1605 -0.2485
 2226TIP3   OH2 6641   6.650   6.676   0.284 -0.3700 -0.2148 -0.0139
 2226TIP3    H1 6642   6.558   6.656   0.268 -0.3493 -0.7636  0.4905
 2226TIP3    H2 6643   6.666   6.758   0.237 -0.5976 -1.1267 -1.7763
 2227TIP3   OH2 6644   5.753   2.535   5.090  0.0815  0.4925  0.3788
 2227TIP3    H1 6645   5.847   2.530   5.074  0.0216  2.0321 -0.6533
 2227TIP3    H2 6646   5.726   2.444   5.103  1.6478  0.0001  0.3375
 2228TIP3   OH2 6647   3.166   3.140   5.787 -0.1894  0.0807 -0.4822
 2228TIP3    H1 6648   3.223   3.188   5.847 -1.3675  0.3327  0.4730
 2228TIP3    H2 6649   3.225   3.080   5.741  0.8404  0.3155  0.4846
 2229TIP3   OH2 6650   2.441   6.668   5.783  0.0735 -0.0497 -0.5887
 2229TIP3    H1 6651   2.430   6.607   5.710 -0.9378 -0.3797 -0.1800
 2229TIP3    H2 6652   2.518   6.636   5.829  0.1147 -0.4471 -0.9270
 2230TIP3   OH2 6653   2.750   5.906   4.732 -0.1292 -0.5146 -0.6556
 2230TIP3    H1 6654   2.768   5.892   4.639  0.4405 -2.3563 -0.3002
 2230TIP3    H2 6655   2.688   5.837   4.755 -2.9995  1.9498 -0.3805
 2231TIP3   OH2 6656   6.154   4.007   3.506 -0.3075  0.3071  0.0335
 2231TIP3    H1 6657   6.094   3.995   3.433  1.5509 -1.2687 -1.3046
 2231TIP3    H2 6658   6.106   4.064   3.567 -2.1830  1.0964 -2.0525
 2232TIP3   OH2 6659   2.775   6.687   1.358 -0.2455 -0.3414 -0.4283
 2232TIP3    H1 6660   2.793   6.626   1.430 -0.4006  1.3415  1.1160
 2232TIP3    H2 6661   2.679   6.688   1.352 -0.3129  0.7280  0.4885
 2233TIP3   OH2 6662   1.090   6.425   1.083  0.0799  0.0029 -0.3337
 2233TIP3    H1 6663   1.089   6.516   1.111 -1.2781  0.2431 -1.0846
 2233TIP3    H2 6664   1.164   6.419   1.022 -1.3030  1.2524 -2.2385
 2234TIP3   OH2 6665   5.155   3.378   4.685  0.6845 -0.3402 -0.6713
 2234TIP3    H1 6666   5.193   3.369   4.598  1.8765 -0.1979 -0.1868
 2234TIP3    H2 6667   5.063   3.397   4.670  0.9125 -0.1631 -1.8986
 2235TIP3   OH2 6668   0.057   5.611   0.211  0.1589  0.0627  0.4210
 2235TIP3    H1 6669  -0.016   5.552   0.229 -0.0356  0.5912  1.4310
 2235TIP3    H2 6670   0.112   5.563   0.150 -0.7287 -0.5815  0.1050
 2236TIP3   OH2 6671   5.679   0.534   4.039  0.1088  0.1795 -0.2677
 2236TIP3    H1 6672   5.736   0.457   4.039 -1.4857 -1.1025 -1.9404
 2236TIP3    H2 6673   5.734   0.605   4.070  2.0983 -1.3343 -0.1643
 2237TIP3   OH2 6674   2.161   1.763   5.184  0.4133  0.4953  0.5968
 2237TIP3    H1 6675   2.106   1.685   5.177 -0.2460  0.8062  1.9929
 2237TIP3    H2 6676   2.236   1.744   5.128 -1.2999  0.2551 -1.7696
 2238TIP3   OH2 6677   2.076   4.686   4.843  0.2088 -0.7327  0.3028
 2238TIP3    H1 6678   2.075   4.614   4.780 -0.6195 -1.5491  1.2289
 2238TIP3    H2 6679   2.035   4.651   4.922 -0.5461  0.8443  0.6687
 2239TIP3   OH2 6680   1.471   2.564   2.886  0.3231 -0.0058  0.1570
 2239TIP3    H1 6681   1.529   2.536   2.815 -0.3451  1.0388 -0.8301
 2239TIP3    H2 6682   1.417   2.488   2.905  0.8865 -0.4680 -0.0517
 2240TIP3   OH2 6683   1.500   5.249   0.833  0.0673 -0.4759 -0.9577
 2240TIP3    H1 6684   1.463   5.163   0.813 -0.2089 -0.2481 -1.4445
 2240TIP3    H2 6685   1.437   5.311   0.796  0.3815 -0.0682 -0.8125
 2241TIP3   OH2 6686   3.824   3.488   1.247 -1.1189  0.2655 -0.0194
 2241TIP3    H1 6687   3.758   3.420   1.236 -0.4087 -0.9972  2.6057
 2241TIP3    H2 6688   3.773   3.566   1.269 -1.8242 -0.6036  1.6277
 2242TIP3   OH2 6689   0.220   2.793   5.144  0.0185  0.1001  0.5381
 2242TIP3    H1 6690   0.202   2.699   5.139 -0.5804  0.1962  0.7363
 2242TIP3    H2 6691   0.312   2.799   5.170  0.6450 -0.4104 -1.3935
 2243TIP3   OH2 6692   2.218   3.359   2.106 -0.7601 -0.5705 -0.0324
 2243TIP3    H1 6693   2.269   3.422   2.055 -2.3483  0.8771  0.0669
 2243TIP3    H2 6694   2.241   3.273   2.069  2.0939 -0.0865  0.3692
 2244TIP3   OH2 6695   5.826   1.967   2.945 -0.5542  0.0561  0.0733
 2244TIP3    H1 6696   5.767   1.975   2.870 -0.7879 -0.8340  0.1487
 2244TIP3    H2 6697   5.900   2.024   2.923 -0.8724  0.2221 -0.5860
 2245TIP3   OH2 6698   3.044   3.851   0.874  0.1152 -0.2724 -0.6782
 2245TIP3    H1 6699   3.024   3.881   0.962  0.9620  1.3683 -1.0132
 2245TIP3    H2 6700   3.010   3.761   0.871  0.7317 -0.6457  1.5554
 2246TIP3   OH2 6701   6.733   1.737   2.813 -0.5701  0.2248 -0.1767
 2246TIP3    H1 6702   6.798   1.730   2.883 -2.3799  0.2826  1.6212
 2246TIP3    H2 6703   6.721   1.831   2.802  0.4257  0.2349 -1.3071
 2247TIP3   OH2 6704   7.013   5.479   3.424  0.0178  0.6920  0.4688
 2247TIP3    H1 6705   7.086   5.509   3.369 -0.2968 -1.3537 -1.1642
 2247TIP3    H2 6706   6.935   5.518   3.385 -0.2076 -0.7712 -0.6132
 2248TIP3   OH2 6707   0.575   5.076   5.042 -0.2003  0.5703 -0.3608
 2248TIP3    H1 6708   0.572   4.994   4.993  0.7614  0.2274  0.1161
 2248TIP3    H2 6709   0.543   5.142   4.981 -2.4984 -0.3597 -0.2612
 2249TIP3   OH2 6710   4.340   0.611   1.824  0.0115  0.0073  0.6320
 2249TIP3    H1 6711   4.288   0.565   1.758 -0.2318  0.3977  0.5474
 2249TIP3    H2 6712   4.423   0.630   1.781  0.1424 -0.4287  0.6955
 2250TIP3   OH2 6713   0.980   5.279   1.035  0.1024 -0.2592 -0.0131
 2250TIP3    H1 6714   1.009   5.367   1.009  0.0194 -0.7399 -1.9288
 2250TIP3    H2 6715   1.004   5.271   1.127 -0.2114  1.8926  0.2903
 2251TIP3   OH2 6716   1.836   2.848   5.189 -0.0726 -0.0925  0.7631
 2251TIP3    H1 6717   1.912   2.803   5.227  0.0681  0.7682  1.5132
 2251TIP3    H2 6718   1.863   2.940   5.183 -0.4715 -0.0315 -0.4816
 2252TIP3   OH2 6719   5.068   3.908   2.123  0.1360 -0.1982  0.5934
 2252TIP3    H1 6720   4.974   3.908   2.107  0.4260  0.6029 -1.3632
 2252TIP3    H2 6721   5.076   3.920   2.218 -1.7113  0.1082  0.7512
 2253TIP3   OH2 6722   6.562   2.842   0.150  0.5846  0.2747  0.0821
 2253TIP3    H1 6723   6.573   2.918   0.093 -1.1546  1.5648  1.3794
 2253TIP3    H2 6724   6.572   2.877   0.238 -1.8166 -0.6610  0.7839
 2254TIP3   OH2 6725   4.325   3.384   4.407 -0.5623 -0.9292  0.7102
 2254TIP3    H1 6726   4.346   3.340   4.490 -1.5989 -0.2355  1.3566
 2254TIP3    H2 6727   4.233   3.364   4.392 -0.2309 -1.5547 -0.6127
 2255TIP3   OH2 6728   2.653   4.979   4.321  0.4236 -0.4710  0.5993
 2255TIP3    H1 6729   2.671   5.042   4.392 -0.2327  0.2942  0.0943
 2255TIP3    H2 6730   2.685   5.023   4.242 -0.5960 -0.5108  0.1605
 2256TIP3   OH2 6731   2.082   0.755   2.491  0.7845  0.1198 -0.0033
 2256TIP3    H1 6732   2.093   0.676   2.437  0.7173 -0.4888  0.8564
 2256TIP3    H2 6733   2.018   0.730   2.557 -0.5382  1.4472 -0.7385
 2257TIP3   OH2 6734   2.468   1.829   2.585  0.0667 -0.4573 -0.0995
 2257TIP3    H1 6735   2.380   1.865   2.588  0.3900  0.4517 -0.9216
 2257TIP3    H2 6736   2.497   1.826   2.676 -0.0393  1.2309  0.0202
 2258TIP3   OH2 6737   1.678   0.219   4.165  0.0087  0.0562 -0.6695
 2258TIP3    H1 6738   1.735   0.287   4.130  0.7364  0.1334  0.5911
 2258TIP3    H2 6739   1.619   0.266   4.224  0.6002 -0.3922  0.3088
 2259TIP3   OH2 6740   2.222   6.297   2.912  0.0187  0.1875  0.6485
 2259TIP3    H1 6741   2.205   6.390   2.895  0.5641  0.3359  0.9080
 2259TIP3    H2 6742   2.227   6.258   2.824 -1.5124  0.1501  0.5510
 2260TIP3   OH2 6743   0.764   2.272   4.714  0.4165 -0.3809  0.4010
 2260TIP3    H1 6744   0.842   2.225   4.684  0.2235 -1.3078  1.2880
 2260TIP3    H2 6745   0.750   2.241   4.804 -0.9970 -0.2725  0.2425
 2261TIP3   OH2 6746   1.628   3.431   0.868 -0.4912 -0.0761 -0.0349
 2261TIP3    H1 6747   1.678   3.445   0.787  0.9113 -1.1987  0.5831
 2261TIP3    H2 6748   1.683   3.469   0.937 -0.5944 -1.1003  0.6310
 2262TIP3   OH2 6749   5.292   2.152   5.771 -0.1300 -0.2584 -0.1148
 2262TIP3    H1 6750   5.336   2.221   5.819 -0.9984 -0.3076  0.7820
 2262TIP3    H2 6751   5.340   2.072   5.794  0.0584 -0.1398 -0.0989
 2263TIP3   OH2 6752   6.949   1.436   2.321 -0.1360 -0.3722 -0.3766
 2263TIP3    H1 6753   6.918   1.350   2.348 -0.7947  0.0779  0.3497
 2263TIP3    H2 6754   6.978   1.424   2.230 -0.1990 -1.3530 -0.2756
 2264TIP3   OH2 6755   1.829   3.214   3.861 -0.3947 -0.0564  0.1232
 2264TIP3    H1 6756   1.902   3.231   3.920 -0.6740 -2.3279  1.2175
 2264TIP3    H2 6757   1.762   3.277   3.887  1.0982  2.0714 -0.9083
 2265TIP3   OH2 6758   4.767   1.217   5.256 -0.5551  0.3091 -1.0081
 2265TIP3    H1 6759   4.719   1.169   5.324  1.1732  0.2638  0.2463
 2265TIP3    H2 6760   4.786   1.152   5.189 -1.2885  0.0852 -1.0072
 2266TIP3   OH2 6761   3.674   1.170   2.422 -0.4428  0.2449  0.2929
 2266TIP3    H1 6762   3.662   1.110   2.496  1.0827  0.2838  0.6063
 2266TIP3    H2 6763   3.720   1.119   2.356  0.6214  0.9610  0.4503
 2267TIP3   OH2 6764   3.947   5.575   3.243 -0.2303 -0.2608 -0.0898
 2267TIP3    H1 6765   3.900   5.537   3.317  0.8359  0.0242  0.7677
 2267TIP3    H2 6766   3.891   5.645   3.210  0.7464  2.0371  2.7247
 2268TIP3   OH2 6767   2.624   1.542   1.106  0.0970 -0.2019  0.1176
 2268TIP3    H1 6768   2.700   1.483   1.102 -0.4935 -0.9231 -0.9227
 2268TIP3    H2 6769   2.661   1.630   1.097  1.0109 -0.3600  1.8584
 2269TIP3   OH2 6770   6.022   6.142   5.200 -0.0216  0.6054 -0.4394
 2269TIP3    H1 6771   5.991   6.216   5.147 -0.5616 -0.2465 -1.3300
 2269TIP3    H2 6772   5.996   6.064   5.151  1.2238 -0.1796  0.0938
 2270TIP3   OH2 6773   2.869   0.438   5.052  0.3290 -0.3519  0.0091
 2270TIP3    H1 6774   2.876   0.369   5.118 -0.0691 -1.5538 -1.1688
 2270TIP3    H2 6775   2.951   0.487   5.061  0.1740 -0.3169  1.5550
 2271TIP3   OH2 6776   3.116   3.273   3.290 -0.2279  0.0086 -0.5693
 2271TIP3    H1 6777   3.167   3.255   3.211 -0.8986  1.2704 -1.3245
 2271TIP3    H2 6778   3.091   3.187   3.322  1.0814 -0.5782 -1.0332
 2272TIP3   OH2 6779   3.390   2.357   1.997 -0.0381  0.0368  0.6573
 2272TIP3    H1 6780   3.346   2.307   2.066 -0.6144 -1.4087 -0.6954
 2272TIP3    H2 6781   3.451   2.295   1.958  0.3095  0.8380 -0.1009
 2273TIP3   OH2 6782   5.194   4.409   4.338  0.0710  0.2228  0.1433
 2273TIP3    H1 6783   5.157   4.485   4.381 -0.2488 -0.2815  0.7709
 2273TIP3    H2 6784   5.287   4.411   4.362 -0.3467 -0.8200  2.0632
 2274TIP3   OH2 6785   2.434   4.076   5.822  0.0570 -0.2306 -0.2965
 2274TIP3    H1 6786   2.399   4.061   5.909  0.0527 -2.1812 -0.5912
 2274TIP3    H2 6787   2.524   4.104   5.836  0.5586 -2.0535  0.3373
 2275TIP3   OH2 6788   2.943   6.088   1.133  0.3948 -0.5660  0.0447
 2275TIP3    H1 6789   2.940   6.085   1.229  1.6136 -0.5741  0.1018
 2275TIP3    H2 6790   2.890   6.013   1.105  0.2391 -0.7104  0.7133
 2276TIP3   OH2 6791   1.431   2.319   2.544  0.1700  0.4755  0.1153
 2276TIP3    H1 6792   1.498   2.385   2.559 -0.4139  1.1058  0.0122
 2276TIP3    H2 6793   1.365   2.364   2.491 -0.1943 -0.2150 -0.0232
 2277TIP3   OH2 6794   6.440   4.971   1.648  0.0722 -0.5007 -0.2485
 2277TIP3    H1 6795   6.427   5.061   1.678  0.9852 -0.1454 -0.8685
 2277TIP3    H2 6796   6.466   4.923   1.726 -1.3343 -0.4472  0.2788
 2278TIP3   OH2 6797   0.512   5.153   5.531  0.7732  0.2981  0.4217
 2278TIP3    H1 6798   0.569   5.124   5.461  2.6811  2.8094  0.7772
 2278TIP3    H2 6799   0.524   5.088   5.601 -0.3514 -1.6467 -1.0963
 2279TIP3   OH2 6800   4.750   5.993   0.117  0.4604 -0.0361 -0.1875
 2279TIP3    H1 6801   4.657   6.010   0.105  0.1835  0.1987  1.9409
 2279TIP3    H2 6802   4.793   6.048   0.052 -0.8719 -0.4726 -1.4979
 2280TIP3   OH2 6803   2.070   3.556   0.572 -0.4091 -0.1995 -0.5704
 2280TIP3    H1 6804   1.994   3.612   0.554  0.0553  0.8119  0.4652
 2280TIP3    H2 6805   2.145   3.616   0.568  0.3722 -1.2074 -1.7466
 2281TIP3   OH2 6806   5.857   3.229   2.519 -0.4845  0.3450 -0.0484
 2281TIP3    H1 6807   5.895   3.316   2.531 -1.8530  0.9437  0.1590
 2281TIP3    H2 6808   5.775   3.245   2.472  0.1289 -1.0363 -1.7108
 2282TIP3   OH2 6809   4.579   2.755   2.759 -0.1941  0.0330  0.3232
 2282TIP3    H1 6810   4.569   2.665   2.728 -0.0120 -0.0382  0.4728
 2282TIP3    H2 6811   4.590   2.806   2.678  0.9433 -0.2381  0.2879
 2283TIP3   OH2 6812   1.176   6.577   2.078  0.3390 -0.2735  0.2935
 2283TIP3    H1 6813   1.257   6.561   2.029  1.0597  0.5779  1.1308
 2283TIP3    H2 6814   1.183   6.519   2.154 -0.0563 -0.5231  0.1377
 2284TIP3   OH2 6815   4.047   6.501   3.214 -0.6512 -0.0504 -0.4206
 2284TIP3    H1 6816   4.118   6.500   3.278 -0.4669  0.3614 -0.6086
 2284TIP3    H2 6817   4.052   6.416   3.171 -0.9956 -0.4611  0.3454
 2285TIP3   OH2 6818   3.056   3.017   3.347  0.6896 -0.6844 -0.4628
 2285TIP3    H1 6819   3.019   2.953   3.408 -0.7399  1.4229  0.9849
 2285TIP3    H2 6820   2.993   3.022   3.276 -1.9967  2.6597  1.8448
 2286TIP3   OH2 6821   0.761   5.289   4.399  0.2742  0.2722  0.0808
 2286TIP3    H1 6822   0.745   5.373   4.357 -2.2579  0.0872  0.5028
 2286TIP3    H2 6823   0.856   5.288   4.416  0.4014  2.9542 -0.0517
 2287TIP3   OH2 6824   0.499   2.159   4.239  0.5085  0.1166  0.2802
 2287TIP3    H1 6825   0.418   2.110   4.254 -1.4251  2.4850 -1.7543
 2287TIP3    H2 6826   0.504   2.219   4.314  0.5317 -0.2041  0.5399
 2288TIP3   OH2 6827   4.987   4.905   1.454 -0.0335  0.2383 -0.3877
 2288TIP3    H1 6828   5.070   4.858   1.458  0.0468  0.3327 -0.8411
 2288TIP3    H2 6829   4.970   4.917   1.360  0.1967  1.5381 -0.2925
 2289TIP3   OH2 6830   6.290   1.067   0.263 -0.2030 -0.0343 -0.2045
 2289TIP3    H1 6831   6.364   1.056   0.202 -2.1288 -1.7049 -2.4330
 2289TIP3    H2 6832   6.270   1.160   0.260  1.2033  0.2836 -0.3053
 2290TIP3   OH2 6833   4.796   5.311   4.359 -0.3414  0.4083 -0.0939
 2290TIP3    H1 6834   4.840   5.394   4.375  0.4449  0.4109 -2.0217
 2290TIP3    H2 6835   4.710   5.336   4.324 -0.0245  0.4340 -0.8759
 2291TIP3   OH2 6836   2.020   1.511   5.102 -0.0189  0.2161  0.1209
 2291TIP3    H1 6837   1.946   1.474   5.151 -1.5797  1.5508 -1.0928
 2291TIP3    H2 6838   1.979   1.564   5.034  2.0792  2.8107  0.7196
 2292TIP3   OH2 6839   6.662   5.810   0.398 -0.1866 -0.0835  0.1606
 2292TIP3    H1 6840   6.742   5.778   0.357  0.4772  0.3077  1.1116
 2292TIP3    H2 6841   6.692   5.866   0.469 -1.3105 -0.1631  0.7245
 2293TIP3   OH2 6842   0.781   5.159   4.733 -0.5932  0.2714 -1.0383
 2293TIP3    H1 6843   0.745   5.111   4.658  0.1936  1.8296 -2.4895
 2293TIP3    H2 6844   0.805   5.245   4.697 -0.6214  1.2395  1.1285
 2294TIP3   OH2 6845   4.140   2.147   3.136  0.3202 -0.5049  0.3819
 2294TIP3    H1 6846   4.159   2.168   3.228  0.5180  0.4844  0.1337
 2294TIP3    H2 6847   4.045   2.153   3.130  0.2653 -1.0817  0.6355
 2295TIP3   OH2 6848   5.654   4.102   0.786  0.2637  0.9022  0.1857
 2295TIP3    H1 6849   5.653   4.071   0.877  0.4840  0.8349  0.1662
 2295TIP3    H2 6850   5.562   4.100   0.759  0.4381 -2.0637 -0.5795
 2296TIP3   OH2 6851   4.471   4.489   5.454  0.4803  0.1112  0.1043
 2296TIP3    H1 6852   4.480   4.416   5.516  1.3374  1.2323  1.3435
 2296TIP3    H2 6853   4.390   4.532   5.478  0.9385  0.6973  0.6346
 2297TIP3   OH2 6854   3.390   3.973   5.160  0.0246  0.4618  0.4533
 2297TIP3    H1 6855   3.470   3.968   5.213 -0.5416 -1.7257  1.1948
 2297TIP3    H2 6856   3.421   3.998   5.072  1.4961 -0.1522  0.7692
 2298TIP3   OH2 6857   6.760   2.826   2.748  0.7028 -0.3413 -0.1523
 2298TIP3    H1 6858   6.692   2.764   2.723  0.1757  0.2035 -0.0905
 2298TIP3    H2 6859   6.795   2.859   2.665 -0.0801  0.4200 -0.1930
 2299TIP3   OH2 6860   3.345   4.657   5.696  0.3961 -0.3496 -0.1932
 2299TIP3    H1 6861   3.412   4.599   5.661  0.0527 -1.6559  1.1906
 2299TIP3    H2 6862   3.394   4.726   5.742  0.8860 -2.2136  2.2681
 2300TIP3   OH2 6863   4.426   0.835  -0.002 -0.0883 -0.1834 -0.4392
 2300TIP3    H1 6864   4.481   0.864   0.071 -0.3488  0.0903 -0.3514
 2300TIP3    H2 6865   4.435   0.904  -0.068 -0.4965 -0.0318 -0.3373
 2301TIP3   OH2 6866   5.457   3.317   2.934 -0.5150  0.4295 -0.1165
 2301TIP3    H1 6867   5.473   3.231   2.973 -0.9334  0.8496  1.0167
 2301TIP3    H2 6868   5.416   3.368   3.004  2.2128  2.4212  0.2082
 2302TIP3   OH2 6869   6.140   2.814   2.468  0.7148  0.2347 -0.3165
 2302TIP3    H1 6870   6.227   2.834   2.503  1.2334 -0.0420 -1.3810
 2302TIP3    H2 6871   6.090   2.895   2.479  1.0713  0.3552  0.4213
 2303TIP3   OH2 6872   5.189   0.688   2.900 -0.5387  0.3689 -0.0859
 2303TIP3    H1 6873   5.282   0.684   2.877 -0.9455  0.1663 -1.8735
 2303TIP3    H2 6874   5.161   0.596   2.903 -0.9098  0.4504 -0.6996
 2304TIP3   OH2 6875   2.429   1.283   4.208 -0.3228  0.2352  0.7794
 2304TIP3    H1 6876   2.487   1.326   4.145 -0.1754 -2.5877 -1.2152
 2304TIP3    H2 6877   2.488   1.249   4.275 -0.3807  2.3473  2.0099
 2305TIP3   OH2 6878   3.482   1.050   1.531 -0.4433 -0.3189 -0.1376
 2305TIP3    H1 6879   3.387   1.061   1.539 -0.3016  1.4110 -0.4363
 2305TIP3    H2 6880   3.499   1.057   1.438  0.2566  2.5628  0.1187
 2306TIP3   OH2 6881   2.624   3.448   3.380  0.9757  0.2010  0.0189
 2306TIP3    H1 6882   2.693   3.390   3.347  0.4159 -0.9263  0.7602
 2306TIP3    H2 6883   2.549   3.390   3.394  0.4205  1.0926  0.8744
 2307TIP3   OH2 6884   1.535   3.737   3.847 -0.3891 -0.1021 -0.6061
 2307TIP3    H1 6885   1.494   3.807   3.797 -1.9148 -1.1215 -0.8745
 2307TIP3    H2 6886   1.521   3.658   3.794 -1.5442 -1.1182  1.0876
 2308TIP3   OH2 6887   1.503   6.142   2.033  0.4384  0.3259 -0.3844
 2308TIP3    H1 6888   1.439   6.150   2.104  0.8956  0.8485 -0.0211
 2308TIP3    H2 6889   1.576   6.197   2.061  0.2512  1.2711 -1.6900
 2309TIP3   OH2 6890   4.863   3.963   5.250 -0.7324  0.6855 -0.0366
 2309TIP3    H1 6891   4.930   3.907   5.288 -1.8577 -0.8240 -0.1735
 2309TIP3    H2 6892   4.906   4.048   5.238  1.9599 -0.8454 -2.4586
 2310TIP3   OH2 6893   5.323   1.849   4.801  0.6918 -0.4077 -0.0355
 2310TIP3    H1 6894   5.278   1.875   4.881  1.7666 -0.6233  0.6695
 2310TIP3    H2 6895   5.262   1.791   4.755 -1.1081  1.9819 -0.8374
 2311TIP3   OH2 6896   4.680   3.236   4.356  0.5824 -0.5591 -0.1247
 2311TIP3    H1 6897   4.767   3.211   4.325  0.9456 -0.4736  0.7977
 2311TIP3    H2 6898   4.693   3.321   4.398  0.2700 -1.0365  0.9709
 2312TIP3   OH2 6899   2.123   1.372   4.504  0.0925 -0.1583  0.1314
 2312TIP3    H1 6900   2.209   1.407   4.525 -0.2328  0.0871  1.0918
 2312TIP3    H2 6901   2.103   1.406   4.417  1.1488 -0.5839 -0.2916
 2313TIP3   OH2 6902   5.942   0.025   3.775  0.2850  0.4807  0.6606
 2313TIP3    H1 6903   5.962  -0.038   3.706 -0.7344  1.4857 -0.6138
 2313TIP3    H2 6904   6.025   0.070   3.792  0.3161  1.0107 -0.7700
 2314TIP3   OH2 6905   5.463   5.830   2.108  0.2125  0.3124 -0.4665
 2314TIP3    H1 6906   5.556   5.818   2.130  0.5197  2.0294 -0.6421
 2314TIP3    H2 6907   5.464   5.898   2.041 -1.2964  2.9157  1.9146
 2315TIP3   OH2 6908   4.171   0.087   5.077  0.5100 -0.3760 -0.4599
 2315TIP3    H1 6909   4.221   0.138   5.141 -1.5942 -0.0799  1.0609
 2315TIP3    H2 6910   4.178   0.137   4.996  0.6975  0.9268  0.3266
 2316TIP3   OH2 6911   6.139   3.541   2.650 -0.2485  0.8509  0.5169
 2316TIP3    H1 6912   6.162   3.459   2.607 -0.4317  1.4749 -0.8379
 2316TIP3    H2 6913   6.046   3.531   2.672  0.2840 -0.1620  2.4384
 2317TIP3   OH2 6914   1.900   0.433   0.746  0.4140 -0.4128 -0.0009
 2317TIP3    H1 6915   1.850   0.490   0.805  0.7709 -1.5267  1.4446
 2317TIP3    H2 6916   1.849   0.352   0.742  0.6503 -0.5264 -0.8406
 2318TIP3   OH2 6917   6.236   6.553   5.174 -0.4357 -0.4664  0.5642
 2318TIP3    H1 6918   6.279   6.633   5.142  1.4138 -1.7606 -0.3338
 2318TIP3    H2 6919   6.240   6.560   5.269  0.0235  0.3335  0.4932
 2319TIP3   OH2 6920   5.999   3.350   0.353  0.5250  0.0917 -0.8763
 2319TIP3    H1 6921   5.952   3.342   0.436  2.8039 -0.3695  0.4815
 2319TIP3    H2 6922   5.939   3.315   0.287 -2.3404  2.6702  0.1167
 2320TIP3   OH2 6923   4.762   1.308   0.407 -0.2449  0.6817  0.1538
 2320TIP3    H1 6924   4.802   1.306   0.320  0.3165 -0.6950  0.4120
 2320TIP3    H2 6925   4.779   1.221   0.443 -0.6453  1.1591  1.5648
 2321TIP3   OH2 6926   4.445   4.586   4.947 -0.0139  0.0139 -0.0854
 2321TIP3    H1 6927   4.504   4.545   5.011  1.0097 -1.3658 -1.8055
 2321TIP3    H2 6928   4.361   4.544   4.961  0.4071 -0.8820 -0.1650
 2322TIP3   OH2 6929   3.872   4.724   3.480  0.5062  0.0462  0.0299
 2322TIP3    H1 6930   3.790   4.703   3.525  0.4527  0.6942  0.2348
 2322TIP3    H2 6931   3.939   4.707   3.546  0.6312 -1.4705 -0.4501
 2323TIP3   OH2 6932   1.556   4.963   5.495  0.3083 -0.7170  0.0087
 2323TIP3    H1 6933   1.473   4.918   5.484  0.7799 -1.1934 -1.7908
 2323TIP3    H2 6934   1.570   4.964   5.590 -1.7896 -0.5091  0.3566
 2324TIP3   OH2 6935   4.265   1.462   1.322 -0.6356 -0.6124 -0.5981
 2324TIP3    H1 6936   4.244   1.415   1.241 -0.2830 -3.0820  0.6506
 2324TIP3    H2 6937   4.212   1.419   1.389  1.2431 -0.6529  0.9608
 2325TIP3   OH2 6938   6.667   3.609   0.806 -0.3387  0.2174  0.6615
 2325TIP3    H1 6939   6.667   3.693   0.853  2.5592  0.5757  0.2055
 2325TIP3    H2 6940   6.700   3.631   0.719  0.4951 -1.3808  0.5475
 2326TIP3   OH2 6941   7.005   0.441   1.418 -0.2552 -0.3770 -0.6029
 2326TIP3    H1 6942   6.972   0.480   1.499 -0.2613  0.1187 -0.8401
 2326TIP3    H2 6943   6.940   0.464   1.352  0.7865  1.0266 -1.1773
 2327TIP3   OH2 6944   0.664   1.608   4.403 -0.5202 -0.1802 -0.0514
 2327TIP3    H1 6945   0.575   1.613   4.437 -0.9531 -2.2834 -0.7339
 2327TIP3    H2 6946   0.653   1.595   4.309  0.3126 -3.7999  0.2085
 2328TIP3   OH2 6947   4.446   3.533   1.005 -0.1847 -0.4933  0.3046
 2328TIP3    H1 6948   4.416   3.556   1.093 -2.5459  1.1108 -0.8317
 2328TIP3    H2 6949   4.537   3.564   1.002 -0.8596  1.8157  1.3596
 2329TIP3   OH2 6950   4.376   5.929   5.744  0.4240 -0.2579 -0.4630
 2329TIP3    H1 6951   4.336   5.876   5.814  0.4032 -0.2661 -0.4810
 2329TIP3    H2 6952   4.469   5.908   5.748  0.5013  0.1641 -0.0757
 2330TIP3   OH2 6953   4.912   5.918   3.786  0.1538  0.0127  0.1074
 2330TIP3    H1 6954   4.836   5.862   3.803 -0.2793  0.0755 -1.4486
 2330TIP3    H2 6955   4.880   5.981   3.721  1.9841 -1.0156 -1.8846
 2331TIP3   OH2 6956   1.113   6.622   0.401  0.3466 -0.2119  0.6134
 2331TIP3    H1 6957   1.139   6.682   0.471 -0.4418 -0.3400  1.0214
 2331TIP3    H2 6958   1.034   6.579   0.434 -0.7414  0.5836 -0.8275
 2332TIP3   OH2 6959   2.418   6.422   5.642  0.5765 -1.1319 -0.3671
 2332TIP3    H1 6960   2.491   6.397   5.584  0.7545 -0.7222 -0.3208
 2332TIP3    H2 6961   2.342   6.380   5.603  0.7144 -0.9433 -0.8461
 2333TIP3   OH2 6962   5.743   2.588   5.355 -0.0020 -0.2370  0.0305
 2333TIP3    H1 6963   5.819   2.644   5.373  0.4859 -0.9129  0.1231
 2333TIP3    H2 6964   5.741   2.582   5.259 -0.7271  0.8251 -0.0427
 2334TIP3   OH2 6965   6.170   0.158   3.750 -0.1631 -0.4791  0.1535
 2334TIP3    H1 6966   6.169   0.162   3.655  2.2385 -4.4381 -0.2670
 2334TIP3    H2 6967   6.259   0.181   3.775 -0.6974  0.2839  1.4448
 2335TIP3   OH2 6968   0.001   2.419   5.348  0.2662 -0.1485  0.1572
 2335TIP3    H1 6969   0.021   2.329   5.321  2.4885  0.6068 -0.9228
 2335TIP3    H2 6970   0.086   2.457   5.372 -0.4977  1.9207 -0.2152
 2336TIP3   OH2 6971   2.455   5.016   0.649  0.3843 -0.5387  0.0264
 2336TIP3    H1 6972   2.475   4.967   0.728 -0.2050  1.7453  1.7024
 2336TIP3    H2 6973   2.504   4.972   0.580  0.4682 -2.9515  1.5159
 2337TIP3   OH2 6974   3.496   2.516   4.546  0.0208  0.5025 -0.4776
 2337TIP3    H1 6975   3.545   2.465   4.482 -0.4251  0.1323 -0.5314
 2337TIP3    H2 6976   3.501   2.464   4.627 -1.9365 -0.5684 -0.9768
 2338TIP3   OH2 6977   5.406   6.719   5.705 -0.4461  0.1518 -0.1318
 2338TIP3    H1 6978   5.451   6.671   5.774  0.4143  0.3549 -0.5421
 2338TIP3    H2 6979   5.341   6.657   5.672 -0.6397 -0.0620  0.6266
 2339TIP3   OH2 6980   0.210   2.713   0.365 -0.5628  0.4552  0.3734
 2339TIP3    H1 6981   0.293   2.714   0.413 -0.0588  0.3545 -0.4750
 2339TIP3    H2 6982   0.143   2.731   0.432 -0.0347 -1.1451  1.4175
 2340TIP3   OH2 6983   0.799   1.677   5.682  0.1792 -0.1282 -0.0933
 2340TIP3    H1 6984   0.894   1.676   5.682  0.1963  0.4121  0.9043
 2340TIP3    H2 6985   0.774   1.607   5.742 -0.0571 -0.4421 -0.5572
 2341TIP3   OH2 6986   5.163   3.121   0.413  0.1529  0.4205  0.3022
 2341TIP3    H1 6987   5.248   3.094   0.448  0.1259 -0.7275 -0.4461
 2341TIP3    H2 6988   5.116   3.038   0.399 -0.4453  0.9367 -0.8792
 2342TIP3   OH2 6989   5.984   5.579   5.032 -0.2012  0.1144 -0.3589
 2342TIP3    H1 6990   5.897   5.619   5.032  0.4199  1.5343  0.1018
 2342TIP3    H2 6991   6.003   5.562   5.124  0.3926  0.7073 -0.3629
 2343TIP3   OH2 6992   4.364   4.058   5.146  0.2219  0.1101 -0.0668
 2343TIP3    H1 6993   4.301   3.987   5.161  0.3025 -0.1334 -0.8194
 2343TIP3    H2 6994   4.351   4.118   5.219 -0.5347 -0.1925  0.0561
 2344TIP3   OH2 6995   5.449   3.288   4.032 -0.0844 -0.3872 -0.2733
 2344TIP3    H1 6996   5.521   3.350   4.037 -1.1380  0.7970  1.3831
 2344TIP3    H2 6997   5.483   3.209   4.074  0.6317 -0.2376 -0.5633
 2345TIP3   OH2 6998   3.864   4.811   4.052 -0.1215 -0.0661  0.2753
 2345TIP3    H1 6999   3.864   4.730   4.103 -0.1847 -0.3777 -0.2199
 2345TIP3    H2 7000   3.954   4.820   4.022 -0.1255  0.0287  0.2906
 2346TIP3   OH2 7001   3.188   6.486   0.127 -0.4540 -0.3692  0.2964
 2346TIP3    H1 7002   3.099   6.499   0.094 -0.6555  2.1863  1.6022
 2346TIP3    H2 7003   3.244   6.506   0.053 -0.9260 -0.9047 -0.2221
 2347TIP3   OH2 7004   4.182   6.560   2.043 -0.2565 -0.0439 -0.1545
 2347TIP3    H1 7005   4.090   6.538   2.031  0.0465 -1.8409  0.5100
 2347TIP3    H2 7006   4.227   6.476   2.045  1.3648  0.7804 -0.1288
 2348TIP3   OH2 7007   6.759   4.909   4.443  0.0096 -0.3290 -0.1068
 2348TIP3    H1 7008   6.675   4.931   4.483 -0.6753 -0.8120 -1.2574
 2348TIP3    H2 7009   6.807   4.863   4.512 -0.9344 -0.6703  0.3418
 2349TIP3   OH2 7010   5.308   3.382   5.218  0.3387 -0.1177 -0.0817
 2349TIP3    H1 7011   5.351   3.444   5.159 -2.0886  1.3240 -0.4487
 2349TIP3    H2 7012   5.300   3.429   5.301  0.0405 -0.6167  0.1776
 2350TIP3   OH2 7013   0.605   2.298   1.919  0.0511  0.1538 -0.3345
 2350TIP3    H1 7014   0.554   2.378   1.907  1.0514  0.6128 -1.7215
 2350TIP3    H2 7015   0.550   2.228   1.883 -0.8977  0.1442  1.0343
 2351TIP3   OH2 7016   0.743   5.419   0.456 -0.7867 -0.0040  0.0959
 2351TIP3    H1 7017   0.667   5.381   0.412 -0.2435 -0.9122 -0.0923
 2351TIP3    H2 7018   0.725   5.409   0.549 -0.4529 -1.1807  0.0533
 2352TIP3   OH2 7019   3.468   1.662   2.201  0.3236 -0.1749 -0.5245
 2352TIP3    H1 7020   3.462   1.597   2.131  0.1310 -2.3491  1.3840
 2352TIP3    H2 7021   3.545   1.714   2.179  1.3077 -1.9254 -1.4708
 2353TIP3   OH2 7022   3.444   1.493   0.541  0.0588  0.2343  0.2091
 2353TIP3    H1 7023   3.385   1.489   0.466  0.2538  0.8001  0.0189
 2353TIP3    H2 7024   3.442   1.585   0.568  0.1430  0.0740  0.7754
 2354TIP3   OH2 7025   3.631   0.044   5.066 -0.0890  0.2255 -0.0683
 2354TIP3    H1 7026   3.609   0.068   4.976 -1.8244 -0.8973  0.0135
 2354TIP3    H2 7027   3.665  -0.045   5.059  1.4634  0.7634  0.2179
 2355TIP3   OH2 7028   0.849   5.418   3.191 -0.2708 -0.2101  0.8185
 2355TIP3    H1 7029   0.896   5.485   3.140 -1.3515 -0.1288 -0.1052
 2355TIP3    H2 7030   0.896   5.414   3.274  2.0253 -0.8754 -0.4317
 2356TIP3   OH2 7031   2.596   2.937   3.300 -0.3525 -0.5803 -0.4604
 2356TIP3    H1 7032   2.608   2.879   3.225 -0.1442 -0.5660 -0.4384
 2356TIP3    H2 7033   2.592   2.879   3.376  0.8219 -0.5060 -0.3323
 2357TIP3   OH2 7034   1.064   3.188   2.076 -0.6149 -0.0549  0.9225
 2357TIP3    H1 7035   1.079   3.237   1.996  0.6951 -2.9294 -0.7457
 2357TIP3    H2 7036   1.145   3.199   2.126 -0.5693 -0.0151  0.8403
 2358TIP3   OH2 7037   0.933   0.534   0.125  1.1221 -0.5823  0.0129
 2358TIP3    H1 7038   0.983   0.582   0.059 -2.3087 -0.3592 -2.6726
 2358TIP3    H2 7039   0.846   0.573   0.123 -0.5569 -3.8790  1.0326
 2359TIP3   OH2 7040   0.576   2.001   4.917 -0.1351  0.2890  0.3036
 2359TIP3    H1 7041   0.610   1.957   4.840  0.0841 -1.5924  1.4178
 2359TIP3    H2 7042   0.651   2.005   4.977 -0.7168  0.2434  1.0399
 2360TIP3   OH2 7043   1.843   1.171   2.337  0.2969 -0.1004 -0.3651
 2360TIP3    H1 7044   1.898   1.114   2.392  1.6005  1.0003 -0.4572
 2360TIP3    H2 7045   1.765   1.187   2.390  0.6729 -0.6043  0.3677
 2361TIP3   OH2 7046   6.676   1.463   2.649 -0.0605  0.0983  0.1287
 2361TIP3    H1 7047   6.758   1.472   2.697 -1.3795 -0.0814  2.5515
 2361TIP3    H2 7048   6.638   1.551   2.650 -1.5248 -0.4943  2.2255
 2362TIP3   OH2 7049   4.221   3.437   3.822  0.4599  0.6882  0.0939
 2362TIP3    H1 7050   4.268   3.409   3.900  0.2790 -0.8821 -0.3200
 2362TIP3    H2 7051   4.248   3.375   3.754 -0.5744  1.0519 -0.6791
 2363TIP3   OH2 7052   5.193   2.219   0.142  0.0471  0.3656 -0.4081
 2363TIP3    H1 7053   5.131   2.244   0.074  0.1957 -0.4880 -0.8783
 2363TIP3    H2 7054   5.275   2.202   0.095  0.0118 -0.7538 -0.0974
 2364TIP3   OH2 7055   1.581   1.997   2.767  0.0807 -0.0970 -0.1075
 2364TIP3    H1 7056   1.623   1.911   2.761 -0.5219 -0.4629  0.7435
 2364TIP3    H2 7057   1.641   2.050   2.820  0.5923  0.1121 -0.8725
 2365TIP3   OH2 7058   2.062   6.551   3.246 -0.1541  0.1595  0.0054
 2365TIP3    H1 7059   2.084   6.485   3.312  0.6524  0.1849 -0.2352
 2365TIP3    H2 7060   2.144   6.570   3.202 -0.2028  1.8970  0.5716
 2366TIP3   OH2 7061   5.830   1.962   5.616  0.1484 -0.1708 -0.4833
 2366TIP3    H1 7062   5.822   1.876   5.656  2.0290 -0.5094 -0.7389
 2366TIP3    H2 7063   5.919   1.964   5.581  0.6096  2.3672  0.6474
 2367TIP3   OH2 7064   6.553   3.226   2.625  0.2981 -0.6962 -0.3633
 2367TIP3    H1 7065   6.632   3.280   2.624 -0.0206 -0.2310 -0.5704
 2367TIP3    H2 7066   6.520   3.234   2.715 -1.3268  1.7925 -1.0936
 2368TIP3   OH2 7067   6.111   4.705   0.447 -0.0202 -0.4669 -0.3249
 2368TIP3    H1 7068   6.152   4.633   0.495 -0.1037 -0.9495 -0.9686
 2368TIP3    H2 7069   6.019   4.702   0.472  0.0400 -0.3780 -0.0966
 2369TIP3   OH2 7070   0.119   6.298   4.431 -0.1040 -0.1377  0.4848
 2369TIP3    H1 7071   0.207   6.265   4.443  0.0363 -0.0805 -0.3290
 2369TIP3    H2 7072   0.122   6.346   4.348 -0.7027  0.5252  0.8314
 2370TIP3   OH2 7073   6.753   4.332   0.211  0.4092 -0.4749 -0.0299
 2370TIP3    H1 7074   6.709   4.402   0.259  1.9928 -0.8075  2.0729
 2370TIP3    H2 7075   6.688   4.262   0.206 -1.1172  0.9566 -1.9584
 2371TIP3   OH2 7076   3.595   2.931   3.586 -0.1096 -0.1386  0.4599
 2371TIP3    H1 7077   3.663   2.969   3.640 -0.1180 -0.9953  1.0986
 2371TIP3    H2 7078   3.567   3.002   3.528  1.5449  0.1271 -0.0450
 2372TIP3   OH2 7079   6.990   5.133   0.700 -0.2857 -0.3784 -0.2191
 2372TIP3    H1 7080   6.971   5.215   0.745 -0.5511 -0.8419  0.5396
 2372TIP3    H2 7081   6.905   5.096   0.680 -0.1817 -0.9792  0.4139
 2373TIP3   OH2 7082   1.036   1.630   5.047  0.3944 -0.4438  0.0020
 2373TIP3    H1 7083   0.948   1.640   5.012  0.1130 -0.1130  0.8102
 2373TIP3    H2 7084   1.044   1.536   5.065  1.3250 -1.0635 -2.9767
 2374TIP3   OH2 7085   6.260   0.712   1.370 -0.4822 -0.2400  0.1400
 2374TIP3    H1 7086   6.192   0.764   1.327 -0.6120 -2.1792 -2.2731
 2374TIP3    H2 7087   6.212   0.643   1.416 -0.2315  0.2884  1.2227
 2375TIP3   OH2 7088   3.729   6.751   1.262  0.1918 -0.5316  0.0069
 2375TIP3    H1 7089   3.803   6.691   1.275  0.5887  0.1635  1.0949
 2375TIP3    H2 7090   3.652   6.694   1.264  0.6049 -1.0948  0.2967
 2376TIP3   OH2 7091   0.830   2.272   4.071 -0.2519 -0.2412 -0.1225
 2376TIP3    H1 7092   0.791   2.185   4.076 -0.0036 -0.3638 -0.3222
 2376TIP3    H2 7093   0.901   2.263   4.007 -0.2915  0.1310 -0.2195
 2377TIP3   OH2 7094   2.258   5.979   0.931 -0.3615  0.2410 -0.0937
 2377TIP3    H1 7095   2.340   6.023   0.910  1.4620 -0.3396  4.5719
 2377TIP3    H2 7096   2.200   6.050   0.959 -0.7454  0.4346 -1.3147
 2378TIP3   OH2 7097   1.688   1.129   3.618 -0.4536  0.0864  0.1254
 2378TIP3    H1 7098   1.655   1.055   3.669 -0.5061  0.1849  0.2353
 2378TIP3    H2 7099   1.737   1.089   3.547 -0.6930 -0.0580  0.0408
 2379TIP3   OH2 7100   1.985   6.557   0.846 -0.0171  0.2076 -0.4751
 2379TIP3    H1 7101   2.052   6.586   0.785  0.3637  0.4482  0.0477
 2379TIP3    H2 7102   1.939   6.638   0.871 -0.9198 -0.0308 -1.3097
 2380TIP3   OH2 7103   1.402   1.873   3.658  0.0226  0.0761  0.1263
 2380TIP3    H1 7104   1.477   1.820   3.631  0.1436  0.4239 -0.2247
 2380TIP3    H2 7105   1.328   1.836   3.611 -0.1284 -0.6019  0.8702
 2381TIP3   OH2 7106   6.988   3.359   5.249  0.2359 -0.1109  0.0237
 2381TIP3    H1 7107   7.027   3.405   5.323  1.5580 -0.5637 -0.3585
 2381TIP3    H2 7108   7.062   3.341   5.190 -0.2882 -2.3160 -0.0592
 2382TIP3   OH2 7109   1.314   2.153   1.070  0.1850 -0.6521 -0.3771
 2382TIP3    H1 7110   1.270   2.235   1.092 -0.7081 -1.0368 -0.6856
 2382TIP3    H2 7111   1.407   2.174   1.072 -0.0531  0.5993 -1.3092
 2383TIP3   OH2 7112   2.810   2.265   5.467  0.5120 -0.4167 -0.0494
 2383TIP3    H1 7113   2.732   2.226   5.505 -0.0247 -0.3830 -1.0935
 2383TIP3    H2 7114   2.777   2.335   5.410  1.2150 -1.1211 -1.3626
 2384TIP3   OH2 7115   1.792   2.723   0.536 -0.2077 -0.9779 -0.4230
 2384TIP3    H1 7116   1.855   2.775   0.486 -1.3839 -0.0037 -0.9135
 2384TIP3    H2 7117   1.847   2.660   0.584  1.3880  1.3971  1.0908
 2385TIP3   OH2 7118   3.826   6.697   4.650 -0.5420 -0.4019 -0.5271
 2385TIP3    H1 7119   3.808   6.632   4.718  0.7780  0.1266  0.3615
 2385TIP3    H2 7120   3.910   6.669   4.612  0.8675  1.5602  0.9172
 2386TIP3   OH2 7121   3.572   2.935   3.022  0.1747 -0.0528 -0.1991
 2386TIP3    H1 7122   3.633   2.872   2.984  0.6136 -0.3827  1.0048
 2386TIP3    H2 7123   3.590   3.017   2.976 -0.7814 -0.8746 -2.1864
 2387TIP3   OH2 7124   6.343   2.666   0.088 -0.0009 -0.4364  0.1075
 2387TIP3    H1 7125   6.248   2.675   0.096 -0.2653 -2.4854 -0.2763
 2387TIP3    H2 7126   6.378   2.721   0.158 -1.5762 -1.8963  2.1866
 2388TIP3   OH2 7127   3.173   3.748   4.343  0.3725 -0.5181  0.1396
 2388TIP3    H1 7128   3.113   3.814   4.308  0.5603 -0.5868 -0.3183
 2388TIP3    H2 7129   3.203   3.784   4.426 -0.9355 -0.8445  0.7810
 2389TIP3   OH2 7130   2.321   5.242   0.238 -0.3445  0.2399  0.0046
 2389TIP3    H1 7131   2.325   5.233   0.143 -0.8312 -3.6391  0.2181
 2389TIP3    H2 7132   2.308   5.336   0.252 -1.8729  0.7775 -3.7995
 2390TIP3   OH2 7133   0.197   0.104   4.789 -0.7749 -0.2641  0.0802
 2390TIP3    H1 7134   0.188   0.181   4.845  0.3513 -0.5487  0.6671
 2390TIP3    H2 7135   0.114   0.058   4.800 -1.5682  0.9717 -0.4695
 2391TIP3   OH2 7136   0.877   3.356   3.680 -0.7566  0.7238  0.1893
 2391TIP3    H1 7137   0.956   3.360   3.626  1.2167 -2.3304  2.5654
 2391TIP3    H2 7138   0.897   3.408   3.757 -1.3718  0.4804  0.5227
 2392TIP3   OH2 7139   5.573   5.500   2.698  0.2661 -0.0989 -0.2401
 2392TIP3    H1 7140   5.649   5.539   2.654  0.7773 -0.9575 -0.1407
 2392TIP3    H2 7141   5.583   5.406   2.685 -1.0627 -0.2072 -0.6588
 2393TIP3   OH2 7142   2.293   2.228   2.110  0.1214  0.3171  0.5907
 2393TIP3    H1 7143   2.263   2.142   2.082 -2.2669  0.8612  1.2444
 2393TIP3    H2 7144   2.354   2.210   2.182  0.2804 -0.8293  0.1900
 2394TIP3   OH2 7145   5.680   3.313   5.805  0.6476  0.3027  0.4865
 2394TIP3    H1 7146   5.679   3.234   5.752 -0.2663  1.4373 -1.3165
 2394TIP3    H2 7147   5.747   3.298   5.871 -0.0222 -2.2444  0.6732
 2395TIP3   OH2 7148   4.930   4.356   4.236 -0.2943 -0.2520 -0.4568
 2395TIP3    H1 7149   5.021   4.380   4.253 -0.4308 -0.2122  0.2532
 2395TIP3    H2 7150   4.934   4.297   4.161  0.2936 -0.0571 -0.5803
 2396TIP3   OH2 7151   1.985   2.059   2.693 -0.0215  0.4100 -0.4102
 2396TIP3    H1 7152   2.009   2.148   2.717  0.8001  0.3884 -1.1050
 2396TIP3    H2 7153   1.910   2.069   2.634 -1.2459  0.5189  1.1009
 2397TIP3   OH2 7154   4.802   2.807   2.453 -0.4668  0.3683 -0.2743
 2397TIP3    H1 7155   4.830   2.895   2.429  0.2693  0.7342  1.7411
 2397TIP3    H2 7156   4.799   2.808   2.549 -1.4487 -1.5011 -0.2404
 2398TIP3   OH2 7157   0.851   1.323   4.684  0.7504 -0.4851  0.0528
 2398TIP3    H1 7158   0.851   1.319   4.780 -0.9202  0.2247  0.1160
 2398TIP3    H2 7159   0.805   1.244   4.657 -0.8747  0.4520 -0.0426
 2399TIP3   OH2 7160   0.505   0.367   5.533 -0.2870 -0.2836 -0.0070
 2399TIP3    H1 7161   0.592   0.362   5.573  1.2145  2.0921 -2.6435
 2399TIP3    H2 7162   0.516   0.328   5.446 -1.7089  0.5161 -0.5800
 2400TIP3   OH2 7163   0.175   0.084   2.536  0.1203  0.3413 -0.0222
 2400TIP3    H1 7164   0.238   0.019   2.506  0.7039  0.5819  0.6495
 2400TIP3    H2 7165   0.119   0.036   2.598  0.1895  0.3343  0.0357
 2401TIP3   OH2 7166   1.929   3.690   5.753 -0.3375 -1.1525 -0.2861
 2401TIP3    H1 7167   1.878   3.689   5.672 -0.2319 -0.3110 -0.3781
 2401TIP3    H2 7168   1.930   3.782   5.779  1.3866 -1.1002 -0.4535
 2402TIP3   OH2 7169   5.392   0.334   3.678 -0.3053 -0.4929 -0.1095
 2402TIP3    H1 7170   5.325   0.314   3.612 -2.2530 -0.2097  1.6768
 2402TIP3    H2 7171   5.384   0.428   3.692 -0.9428 -0.7709  1.5468
 2403TIP3   OH2 7172   6.281   5.845   1.459 -0.5992  0.3045 -0.1222
 2403TIP3    H1 7173   6.281   5.930   1.504 -1.9180  0.0696  0.3692
 2403TIP3    H2 7174   6.370   5.812   1.471 -0.4386  1.0204  0.8453
 2404TIP3   OH2 7175   6.031   0.410   4.998 -0.5329 -0.2090  0.4249
 2404TIP3    H1 7176   6.093   0.385   5.066 -1.1307 -0.1747  0.9796
 2404TIP3    H2 7177   5.986   0.487   5.033  0.6605  1.1752 -0.8803
 2405TIP3   OH2 7178   1.581   6.270   1.601  0.4024  0.7515 -0.1445
 2405TIP3    H1 7179   1.661   6.225   1.626  0.2127  0.1120 -0.6444
 2405TIP3    H2 7180   1.526   6.268   1.680  0.7578  0.9285  0.1078
 2406TIP3   OH2 7181   4.973   5.982   5.686  0.0393  0.7082 -0.3775
 2406TIP3    H1 7182   5.015   5.910   5.639 -0.5324 -0.1069  0.3229
 2406TIP3    H2 7183   4.879   5.967   5.674 -0.1504  0.1933  1.3813
 2407TIP3   OH2 7184   6.079   4.733   1.971 -0.1979 -0.5470 -0.1519
 2407TIP3    H1 7185   6.114   4.764   1.888 -2.3071 -0.6480 -1.1172
 2407TIP3    H2 7186   5.986   4.719   1.955 -0.4366 -1.7028  1.9068
 2408TIP3   OH2 7187   5.314   0.104   2.717  0.2277 -0.0268  0.2854
 2408TIP3    H1 7188   5.238   0.131   2.665  0.0887  0.2980  0.6513
 2408TIP3    H2 7189   5.366   0.184   2.727 -0.0082  0.0357  1.0804
 2409TIP3   OH2 7190   3.928   4.535   5.296  0.3592 -0.8255 -0.4406
 2409TIP3    H1 7191   3.870   4.472   5.254 -1.2953  0.5426 -0.3312
 2409TIP3    H2 7192   3.937   4.505   5.386 -0.2084 -1.0636 -0.4589
 2410TIP3   OH2 7193   4.272   1.265   5.463 -0.0222 -0.0146  0.1310
 2410TIP3    H1 7194   4.196   1.319   5.440  0.2063  0.2423 -0.0330
 2410TIP3    H2 7195   4.319   1.317   5.528  1.7575  1.3497 -2.1154
 2411TIP3   OH2 7196   6.118   1.709   3.177 -0.0310 -0.2905 -0.1945
 2411TIP3    H1 7197   6.119   1.765   3.255 -0.4001  0.3290 -0.6334
 2411TIP3    H2 7198   6.030   1.718   3.141 -0.1811 -1.3530 -0.1392
 2412TIP3   OH2 7199   2.757   5.786   1.878 -0.3380  0.4749  0.2401
 2412TIP3    H1 7200   2.715   5.872   1.874 -1.6314 -0.1546 -0.4401
 2412TIP3    H2 7201   2.799   5.776   1.793  1.5954  1.2614  1.0550
 2413TIP3   OH2 7202   1.248   6.568   4.799 -0.0372 -0.3944 -0.3826
 2413TIP3    H1 7203   1.268   6.651   4.755 -2.9187 -0.3210 -1.7907
 2413TIP3    H2 7204   1.154   6.571   4.813  0.0510 -2.6806  1.2688
 2414TIP3   OH2 7205   4.227   0.614   2.203 -0.2774  0.0113 -0.4794
 2414TIP3    H1 7206   4.251   0.591   2.293  2.0810 -0.4232 -1.1405
 2414TIP3    H2 7207   4.291   0.567   2.149 -2.4229 -0.7929 -2.4892
 2415TIP3   OH2 7208   5.594   3.848   4.537  0.1875 -0.1771 -0.1048
 2415TIP3    H1 7209   5.604   3.825   4.629 -1.1759  0.0060  0.1117
 2415TIP3    H2 7210   5.683   3.861   4.506  0.7021 -0.8646  1.0218
 2416TIP3   OH2 7211   1.164   2.885   0.100 -0.7215 -0.0171 -0.4234
 2416TIP3    H1 7212   1.101   2.817   0.124 -0.1573 -0.0717  0.9633
 2416TIP3    H2 7213   1.172   2.876   0.005 -1.7419 -0.9311 -0.4512
 2417TIP3   OH2 7214   1.248   5.218   4.461 -0.1353  0.5679 -0.2321
 2417TIP3    H1 7215   1.250   5.261   4.376  0.3618  0.4072 -0.3044
 2417TIP3    H2 7216   1.304   5.141   4.450 -0.6975  0.1182  0.0106
 2418TIP3   OH2 7217   1.886   2.012   0.052  0.2945  0.5566 -0.1836
 2418TIP3    H1 7218   1.818   1.967   0.003 -0.4942 -0.3899  1.6773
 2418TIP3    H2 7219   1.951   1.944   0.071  1.0839  1.1369 -0.7769
 2419TIP3   OH2 7220   2.382   3.043   0.384 -0.1528 -0.4317  0.2610
 2419TIP3    H1 7221   2.322   3.107   0.424 -0.0753  0.5321 -1.1141
 2419TIP3    H2 7222   2.441   3.095   0.330 -0.5132 -1.7032 -1.4424
 2420TIP3   OH2 7223   5.628   0.684   2.067  0.0510  0.4190 -0.2960
 2420TIP3    H1 7224   5.580   0.707   2.146  1.7458  0.0215  0.9189
 2420TIP3    H2 7225   5.690   0.756   2.054 -1.0363  1.0891 -2.0176
 2421TIP3   OH2 7226   3.373   0.212   2.461  0.7300  0.2602  0.0561
 2421TIP3    H1 7227   3.338   0.221   2.373  0.8804  0.1047 -0.0232
 2421TIP3    H2 7228   3.406   0.121   2.464  3.7460  1.1876 -0.8671
 2422TIP3   OH2 7229   3.777   6.628   2.661  0.4543 -0.1105 -0.3852
 2422TIP3    H1 7230   3.830   6.549   2.657 -0.1050 -0.7651  2.7092
 2422TIP3    H2 7231   3.822   6.690   2.604  2.9477 -1.5271 -0.0772
 2423TIP3   OH2 7232   0.595   0.129   0.982 -0.2798 -0.3904  0.2808
 2423TIP3    H1 7233   0.671   0.109   0.928 -0.3180 -2.1637  0.8125
 2423TIP3    H2 7234   0.632   0.156   1.066 -0.2074 -1.6807  0.6831
 2424TIP3   OH2 7235   6.479   6.471   1.920 -0.4078 -0.5714  0.0299
 2424TIP3    H1 7236   6.553   6.443   1.975 -0.6137 -0.3966  0.4039
 2424TIP3    H2 7237   6.486   6.566   1.919  1.6204 -0.6023 -3.0688
 2425TIP3   OH2 7238   1.369   6.400   2.405 -0.1273  0.0550  0.7104
 2425TIP3    H1 7239   1.281   6.408   2.369 -0.4644  0.9140  1.6706
 2425TIP3    H2 7240   1.409   6.329   2.356 -1.6932 -1.0240  0.9403
 2426TIP3   OH2 7241   1.171   4.224   2.839  0.0225 -0.0217 -0.1221
 2426TIP3    H1 7242   1.255   4.249   2.877  0.0273  0.4787 -0.4629
 2426TIP3    H2 7243   1.150   4.293   2.777 -0.4764 -0.3204 -0.2969
 2427TIP3   OH2 7244   6.813   5.866   3.849  0.3187 -0.1831  1.0960
 2427TIP3    H1 7245   6.782   5.850   3.938  0.7855 -1.0685  1.1163
 2427TIP3    H2 7246   6.844   5.780   3.819 -0.3584 -0.0150 -0.1280
 2428TIP3   OH2 7247   2.961   1.206   1.762 -0.1488  0.0587  0.2678
 2428TIP3    H1 7248   2.974   1.220   1.855 -0.2153  0.6862  0.1880
 2428TIP3    H2 7249   2.870   1.228   1.746 -0.0402  0.3187 -0.0111
 2429TIP3   OH2 7250   4.677   3.748   2.941  0.4481  0.2506 -0.2858
 2429TIP3    H1 7251   4.678   3.676   3.004 -0.2203  0.0650 -0.4780
 2429TIP3    H2 7252   4.763   3.789   2.949  0.1334  0.6454  1.2109
 2430TIP3   OH2 7253   1.023   0.313   3.737  0.4549 -0.2703 -0.0986
 2430TIP3    H1 7254   1.030   0.357   3.652  2.8648  0.0477  0.2075
 2430TIP3    H2 7255   0.996   0.224   3.716  0.4335 -0.0309 -1.1351
 2431TIP3   OH2 7256   7.049   4.846   4.095  0.6661  0.0732 -0.2110
 2431TIP3    H1 7257   7.096   4.867   4.176  1.3561  0.6305 -0.7484
 2431TIP3    H2 7258   7.117   4.821   4.033  0.2856  0.9748 -1.0281
 2432TIP3   OH2 7259   6.415   6.799   3.614  0.1110 -0.0257  0.6141
 2432TIP3    H1 7260   6.369   6.763   3.538 -0.6610  0.5633  0.7951
 2432TIP3    H2 7261   6.451   6.722   3.658  0.9189 -0.3490 -0.5573
 2433TIP3   OH2 7262   6.435   3.880   1.805 -0.4857 -0.1093 -0.4658
 2433TIP3    H1 7263   6.373   3.908   1.873 -0.4141  0.8398 -0.7796
 2433TIP3    H2 7264   6.495   3.953   1.796 -0.0894 -0.5041 -1.0875
 2434TIP3   OH2 7265   1.953   6.222   5.655 -0.6237  0.2164  0.1402
 2434TIP3    H1 7266   1.983   6.182   5.573 -1.7772  1.4202 -0.9177
 2434TIP3    H2 7267   2.033   6.240   5.704  0.1079 -0.3259 -0.8256
 2435TIP3   OH2 7268   3.259   6.420   3.329  0.0480  0.1293 -0.4341
 2435TIP3    H1 7269   3.244   6.326   3.323 -2.2271  0.5397 -2.5667
 2435TIP3    H2 7270   3.202   6.449   3.400 -0.4132  0.0868 -0.7831
 2436TIP3   OH2 7271   4.979   2.930   5.318 -0.3567  0.2208 -0.1673
 2436TIP3    H1 7272   5.031   3.009   5.306 -0.9311  0.6862  0.3776
 2436TIP3    H2 7273   4.951   2.932   5.409 -2.2411  0.5487 -0.7094
 2437TIP3   OH2 7274   6.455   4.081   2.837 -0.3446  0.2034  0.6626
 2437TIP3    H1 7275   6.533   4.135   2.823  0.1105 -0.7710 -0.7369
 2437TIP3    H2 7276   6.382   4.141   2.823  0.1600  0.7598  0.3500
 2438TIP3   OH2 7277   6.013   1.302   1.143 -0.2397  0.2652 -0.0185
 2438TIP3    H1 7278   5.954   1.279   1.072  0.5398  1.5475 -1.1386
 2438TIP3    H2 7279   6.075   1.230   1.147 -0.0112  0.3866 -0.9927
 2439TIP3   OH2 7280   5.757   6.265   1.676 -0.0223  0.5528  0.0507
 2439TIP3    H1 7281   5.821   6.336   1.682  0.0285  0.5058  0.0691
 2439TIP3    H2 7282   5.679   6.306   1.638  0.6773  0.1806 -1.9314
 2440TIP3   OH2 7283   1.888   2.626   2.633  0.4309 -0.0525  0.2698
 2440TIP3    H1 7284   1.920   2.554   2.688  0.5050 -0.7309 -0.6460
 2440TIP3    H2 7285   1.903   2.705   2.686  1.6488 -0.5638  0.7200
 2441TIP3   OH2 7286   3.472   3.245   2.422 -0.3077 -0.5569 -0.1908
 2441TIP3    H1 7287   3.515   3.300   2.357 -0.1330 -2.8770 -2.1714
 2441TIP3    H2 7288   3.537   3.232   2.491  0.4782 -0.2131 -0.8579
 2442TIP3   OH2 7289   4.910   4.613   3.475 -0.9831  0.5516 -0.1901
 2442TIP3    H1 7290   4.925   4.653   3.561 -0.1086  0.5367 -0.3274
 2442TIP3    H2 7291   4.910   4.519   3.493  0.8446  0.4829 -0.4353
 2443TIP3   OH2 7292   4.063   2.300   3.673 -0.3587 -0.0197  0.7065
 2443TIP3    H1 7293   4.151   2.262   3.673  1.2134  3.2690  0.6909
 2443TIP3    H2 7294   4.040   2.306   3.580 -0.9398 -1.4944  0.7344
 2444TIP3   OH2 7295   6.512   3.888   4.009  0.0225  0.0108  0.5670
 2444TIP3    H1 7296   6.446   3.897   3.940 -1.6434 -1.3352  1.8738
 2444TIP3    H2 7297   6.461   3.883   4.090  1.8314  0.2161  1.7845
 2445TIP3   OH2 7298   2.545   5.076   0.188 -0.2058 -0.1101  0.2532
 2445TIP3    H1 7299   2.517   5.000   0.137  1.3120 -1.3156  1.1607
 2445TIP3    H2 7300   2.463   5.122   0.208 -1.0178 -0.6624 -1.5640
 2446TIP3   OH2 7301   3.516   1.414   2.458 -0.1147 -0.1959  0.4167
 2446TIP3    H1 7302   3.599   1.460   2.464 -1.0254  1.5878  0.0500
 2446TIP3    H2 7303   3.540   1.321   2.451  1.8673  0.3420 -0.6907
 2447TIP3   OH2 7304   1.955   4.234   5.521  0.1408 -0.1776 -0.9949
 2447TIP3    H1 7305   2.021   4.287   5.567  1.6688 -2.5082 -0.3328
 2447TIP3    H2 7306   1.872   4.259   5.561  0.7893  1.6162 -0.6631
 2448TIP3   OH2 7307   3.272   3.066   2.809  0.0303 -0.1278 -0.9788
 2448TIP3    H1 7308   3.214   3.134   2.776 -0.0844  0.1327 -0.2641
 2448TIP3    H2 7309   3.351   3.073   2.755  0.3806  1.1721 -0.3347
 2449TIP3   OH2 7310   7.157   6.578   5.091  0.2110 -0.1020  0.6014
 2449TIP3    H1 7311   7.089   6.562   5.156  0.2196  1.5892  1.0682
 2449TIP3    H2 7312   7.111   6.614   5.015  0.2231 -1.9030 -0.3208
 2450TIP3   OH2 7313   0.878   1.586   4.610  0.1010 -0.2786 -0.2142
 2450TIP3    H1 7314   0.797   1.594   4.559 -1.2947  1.2404  2.0660
 2450TIP3    H2 7315   0.873   1.499   4.650 -0.7656  0.0650  0.4496
 2451TIP3   OH2 7316   6.630   0.446   0.711  0.0233  0.1084 -0.5989
 2451TIP3    H1 7317   6.633   0.420   0.619  0.3364  1.1277 -0.8834
 2451TIP3    H2 7318   6.568   0.519   0.713  0.3159  0.3472 -0.0719
 2452TIP3   OH2 7319   1.899   4.926   1.867  0.2968  0.5044  0.1176
 2452TIP3    H1 7320   1.881   4.890   1.780 -0.3963  0.2201  0.3776
 2452TIP3    H2 7321   1.919   5.018   1.851  0.7118  0.3343 -0.3968
 2453TIP3   OH2 7322   1.299   1.885   1.673 -0.2910 -0.2739 -0.4914
 2453TIP3    H1 7323   1.363   1.897   1.603  0.0109  1.2502  0.0094
 2453TIP3    H2 7324   1.351   1.880   1.753 -0.6767 -1.3244 -0.2822
 2454TIP3   OH2 7325   3.875   1.500   1.617 -0.4819 -0.4563  0.2966
 2454TIP3    H1 7326   3.801   1.462   1.571  0.6022 -1.1175 -0.9655
 2454TIP3    H2 7327   3.945   1.435   1.609  0.9278  1.0778 -0.5254
 2455TIP3   OH2 7328   6.474   4.924   2.441  0.0979 -0.2193  0.0321
 2455TIP3    H1 7329   6.434   4.900   2.525 -0.2739 -0.2542 -0.1538
 2455TIP3    H2 7330   6.448   5.015   2.427  2.1302  0.5939  1.1008
 2456TIP3   OH2 7331   4.413   4.737   3.840 -0.1614  0.3489 -0.2961
 2456TIP3    H1 7332   4.387   4.717   3.750  1.1498  1.0407 -0.8440
 2456TIP3    H2 7333   4.488   4.796   3.831  0.5321 -0.2593  1.2383
 2457TIP3   OH2 7334   6.453   4.956   3.564  0.0625  0.1225 -0.2903
 2457TIP3    H1 7335   6.496   5.000   3.491 -1.1748  0.6593 -0.7125
 2457TIP3    H2 7336   6.365   4.992   3.566 -0.2234 -0.5770  0.8860
 2458TIP3   OH2 7337   5.873   1.154   4.910  0.1230 -0.2272  0.3461
 2458TIP3    H1 7338   5.901   1.159   5.002  4.4150  0.7877 -0.7803
 2458TIP3    H2 7339   5.926   1.084   4.872  0.0353  0.7820 -1.7974
 2459TIP3   OH2 7340   3.891   4.323   2.192 -0.3384 -0.4562  0.1901
 2459TIP3    H1 7341   3.893   4.407   2.146 -0.1081 -0.0456  0.9405
 2459TIP3    H2 7342   3.974   4.320   2.240 -1.0257 -0.3860  1.4277
 2460TIP3   OH2 7343   5.565   1.631   5.863 -0.6640 -0.1771  0.1071
 2460TIP3    H1 7344   5.510   1.688   5.809 -1.3584  0.1111  1.0873
 2460TIP3    H2 7345   5.535   1.647   5.952 -1.7177 -2.9238  0.3484
 2461TIP3   OH2 7346   4.683   5.158   5.578 -0.3639  0.2525 -0.8051
 2461TIP3    H1 7347   4.671   5.063   5.580 -1.7948  0.4038 -1.2632
 2461TIP3    H2 7348   4.777   5.170   5.563  0.3587 -1.0673  1.9058
 2462TIP3   OH2 7349   1.607   0.907   0.899 -0.0459  0.7016 -0.1825
 2462TIP3    H1 7350   1.524   0.909   0.947 -0.6887  0.6724 -1.2634
 2462TIP3    H2 7351   1.672   0.939   0.962 -1.0686  1.8968  0.3017
 2463TIP3   OH2 7352   3.463   3.896   4.521 -0.4683  0.0950  0.0495
 2463TIP3    H1 7353   3.446   3.928   4.433  0.2442  1.4270  0.3645
 2463TIP3    H2 7354   3.398   3.942   4.575 -1.7995 -1.7171  0.0862
 2464TIP3   OH2 7355   2.701   5.825   5.081  0.3865 -0.0569 -0.6091
 2464TIP3    H1 7356   2.632   5.886   5.106  1.2194  1.0026 -0.8304
 2464TIP3    H2 7357   2.782   5.875   5.090  1.1600 -1.3402 -0.1312
 2465TIP3   OH2 7358   4.873   5.012   5.412 -1.0690 -0.2426  0.2182
 2465TIP3    H1 7359   4.887   4.924   5.377  1.2302  0.9826 -2.3225
 2465TIP3    H2 7360   4.958   5.037   5.449 -1.1009  1.5890 -0.8395
 2466TIP3   OH2 7361   0.023   4.704   5.037 -0.2385 -0.3060  0.3965
 2466TIP3    H1 7362   0.094   4.676   5.096 -0.1314 -1.1382 -0.1068
 2466TIP3    H2 7363  -0.056   4.698   5.091 -0.0012  0.0999  0.8010
 2467TIP3   OH2 7364   6.765   3.611   0.506 -0.3682 -0.0703  0.0401
 2467TIP3    H1 7365   6.846   3.626   0.555 -1.7413  1.3435  2.0386
 2467TIP3    H2 7366   6.781   3.650   0.420  0.7706  0.9841  0.6978
 2468TIP3   OH2 7367   0.039   0.899   1.488 -0.1284 -0.1705 -0.2475
 2468TIP3    H1 7368   0.032   0.804   1.495 -0.7027 -0.3063 -2.1123
 2468TIP3    H2 7369  -0.043   0.931   1.525  0.3098 -0.3523  0.9076
 2469TIP3   OH2 7370   3.962   4.390   1.263 -0.4552 -0.1148  0.0790
 2469TIP3    H1 7371   3.912   4.457   1.310 -2.1821 -0.3782 -1.2952
 2469TIP3    H2 7372   3.985   4.432   1.180  0.2665 -0.5423  0.0545
 2470TIP3   OH2 7373   2.657   5.491   3.148 -0.8235 -0.2634 -0.3092
 2470TIP3    H1 7374   2.574   5.463   3.187 -0.2926 -0.5786  0.6270
 2470TIP3    H2 7375   2.639   5.494   3.054 -1.1528 -3.0828 -0.4362
 2471TIP3   OH2 7376   2.003   1.394   0.144 -0.4285  0.6955  0.2433
 2471TIP3    H1 7377   1.966   1.365   0.061 -0.2912  1.3675 -0.0573
 2471TIP3    H2 7378   2.096   1.407   0.125 -0.6770  2.4234  0.0534
 2472TIP3   OH2 7379   5.569   2.225   1.565  0.3590 -0.0255 -0.3899
 2472TIP3    H1 7380   5.601   2.314   1.579  0.5042 -0.0540 -0.5326
 2472TIP3    H2 7381   5.476   2.230   1.583  0.3367  0.1941 -0.5563
 2473TIP3   OH2 7382   0.469   3.670   5.416  0.1292  0.1714  0.7501
 2473TIP3    H1 7383   0.406   3.600   5.398  0.6052 -0.3882  1.2116
 2473TIP3    H2 7384   0.481   3.668   5.511 -0.9879  1.8936  0.9513
 2474TIP3   OH2 7385   1.038   2.316   1.741 -0.0654  0.5189  0.2918
 2474TIP3    H1 7386   1.066   2.404   1.717  1.8599  0.4000  1.8562
 2474TIP3    H2 7387   1.074   2.260   1.673 -0.1472  0.8005  0.0157
 2475TIP3   OH2 7388   5.114   4.848   3.161 -0.3932  0.2429  0.3338
 2475TIP3    H1 7389   5.180   4.790   3.122 -0.3220 -0.6339  1.7094
 2475TIP3    H2 7390   5.044   4.789   3.190 -0.0153  0.7328  2.3724
 2476TIP3   OH2 7391   6.196   3.998   0.251  0.1440 -0.0266 -0.0551
 2476TIP3    H1 7392   6.200   4.084   0.293 -0.4825 -0.3126  0.6169
 2476TIP3    H2 7393   6.241   3.939   0.312  0.7863 -0.1433 -0.6273
 2477TIP3   OH2 7394   2.448   2.415   0.159 -0.1898 -0.8117 -0.2125
 2477TIP3    H1 7395   2.362   2.415   0.115  0.4179 -0.4845 -1.4535
 2477TIP3    H2 7396   2.502   2.359   0.104  0.8489  0.3210 -0.3823
 2478TIP3   OH2 7397   0.332   2.535   0.620 -0.4083 -0.2847 -0.0469
 2478TIP3    H1 7398   0.277   2.483   0.560  0.2781 -0.9535 -0.1092
 2478TIP3    H2 7399   0.400   2.474   0.648  0.5514  0.6577 -0.3009
 2479TIP3   OH2 7400   0.926   1.593   1.152  0.0306  0.1001  0.3373
 2479TIP3    H1 7401   0.939   1.654   1.225 -0.1481  0.0593  0.4037
 2479TIP3    H2 7402   0.946   1.644   1.074  2.5192 -0.4760  0.5197
 2480TIP3   OH2 7403   0.486   2.912   0.328  0.3787 -0.5905  0.3103
 2480TIP3    H1 7404   0.473   2.865   0.410  1.3175 -1.5376 -0.0525
 2480TIP3    H2 7405   0.575   2.888   0.301  0.6002  0.8007 -0.2860
 2481TIP3   OH2 7406   1.587   5.687   5.551 -0.1405  0.0289 -0.2757
 2481TIP3    H1 7407   1.643   5.742   5.607 -0.3834 -0.0985  0.0884
 2481TIP3    H2 7408   1.630   5.602   5.550 -0.1046  0.0476 -0.3291
 2482TIP3   OH2 7409   5.741   3.633   1.914  0.1216 -0.2803 -0.7962
 2482TIP3    H1 7410   5.835   3.633   1.929 -0.0345 -1.0455  0.2387
 2482TIP3    H2 7411   5.706   3.569   1.975 -1.0535 -0.1881 -1.3354
 2483TIP3   OH2 7412   0.960   3.187   4.414 -0.3165  0.0153 -0.0980
 2483TIP3    H1 7413   1.034   3.172   4.356 -0.8103  1.6563 -1.2026
 2483TIP3    H2 7414   0.896   3.119   4.390  0.6976 -1.2793  0.7268
 2484TIP3   OH2 7415   2.396   4.637   2.585 -0.1426 -0.2151  0.2710
 2484TIP3    H1 7416   2.307   4.604   2.570  0.3586 -0.9229 -1.4312
 2484TIP3    H2 7417   2.384   4.728   2.610 -1.3608 -0.3434  0.2140
 2485TIP3   OH2 7418   5.172   1.947   3.199 -0.0131 -0.7471 -0.1931
 2485TIP3    H1 7419   5.104   1.998   3.243 -0.3452 -1.7786  0.5584
 2485TIP3    H2 7420   5.173   1.864   3.247  1.1308 -1.1014 -0.7950
 2486TIP3   OH2 7421   2.910   5.373   4.245 -0.0669  0.2895  0.3466
 2486TIP3    H1 7422   2.864   5.373   4.161  0.7267  3.2550 -0.2047
 2486TIP3    H2 7423   2.845   5.403   4.309  0.0922  0.8036  0.2668
 2487TIP3   OH2 7424   2.182   3.668   4.105  0.4629 -0.0999  0.4416
 2487TIP3    H1 7425   2.250   3.724   4.067  0.2954 -0.0127  0.2667
 2487TIP3    H2 7426   2.108   3.675   4.043  0.7295 -1.1576 -0.0066
 2488TIP3   OH2 7427   7.024   3.714   4.057 -0.7142  1.1318  0.7256
 2488TIP3    H1 7428   7.007   3.663   3.977  0.8813  0.2263  0.9226
 2488TIP3    H2 7429   7.076   3.788   4.027  1.7847 -0.3589  1.1520
 2489TIP3   OH2 7430   3.574   1.022   4.128 -0.1249 -0.1670  0.2753
 2489TIP3    H1 7431   3.578   0.929   4.104 -0.5014 -1.1415  3.4360
 2489TIP3    H2 7432   3.666   1.050   4.126  0.0319 -0.6943 -0.4070
 2490TIP3   OH2 7433   3.340   6.311   1.822 -0.3635  0.2929 -0.0953
 2490TIP3    H1 7434   3.273   6.259   1.867  0.1984 -0.4255 -0.0702
 2490TIP3    H2 7435   3.376   6.252   1.756  3.2764 -0.9802  2.6628
 2491TIP3   OH2 7436   1.550   4.963   4.832 -0.2448 -0.1455 -1.1997
 2491TIP3    H1 7437   1.597   4.964   4.749 -1.0085  0.8514 -1.6388
 2491TIP3    H2 7438   1.465   5.002   4.812 -0.5560 -0.1779 -0.0173
 2492TIP3   OH2 7439   7.159   1.489   4.331  0.0701 -0.1574 -0.2938
 2492TIP3    H1 7440   7.148   1.514   4.239 -0.8498  0.2574 -0.0776
 2492TIP3    H2 7441   7.253   1.489   4.344  0.1596  2.3220 -0.5499
 2493TIP3   OH2 7442   5.305   1.355   5.203  0.1676 -0.5634  0.3280
 2493TIP3    H1 7443   5.222   1.354   5.250 -0.1297 -1.0841 -0.1837
 2493TIP3    H2 7444   5.356   1.424   5.245 -0.3124 -0.6085  1.0094
 2494TIP3   OH2 7445   1.869   2.079   5.751 -0.7566  0.5842  0.0077
 2494TIP3    H1 7446   1.963   2.097   5.746 -0.4524 -0.7489  0.5844
 2494TIP3    H2 7447   1.828   2.154   5.708  0.5235  1.6626  0.5942
 2495TIP3   OH2 7448   1.250   2.330   2.281  0.1513 -0.0270 -0.2781
 2495TIP3    H1 7449   1.166   2.377   2.272 -0.6560 -1.4167 -0.2523
 2495TIP3    H2 7450   1.294   2.344   2.197 -0.4024  0.1792 -0.5434
 2496TIP3   OH2 7451   5.611   3.119   2.624 -0.2357  0.4714  0.1414
 2496TIP3    H1 7452   5.618   3.130   2.529  1.0182  4.2953  0.5253
 2496TIP3    H2 7453   5.660   3.039   2.642 -1.3830 -0.9673 -2.4658
 2497TIP3   OH2 7454   1.550   5.950   1.829 -0.1289  0.3504 -0.8927
 2497TIP3    H1 7455   1.461   5.925   1.803  0.3323 -0.9607 -1.2647
 2497TIP3    H2 7456   1.538   6.004   1.907 -1.3146  1.1130 -1.5684
 2498TIP3   OH2 7457   4.640   3.219   2.978 -0.2634  0.4427 -0.2623
 2498TIP3    H1 7458   4.608   3.270   2.903 -2.3437 -0.8827 -0.3551
 2498TIP3    H2 7459   4.654   3.131   2.942  0.7424  0.2937  0.4651
 2499TIP3   OH2 7460   4.904   5.514   0.836  0.6039 -0.0322  0.6647
 2499TIP3    H1 7461   4.962   5.474   0.771 -2.1199 -3.3197 -0.0059
 2499TIP3    H2 7462   4.869   5.440   0.886 -1.7753  1.8937  2.0576
 2500TIP3   OH2 7463   5.422   2.696   2.870 -0.2225  0.2964  0.1590
 2500TIP3    H1 7464   5.366   2.749   2.927  0.4799  0.3296  0.8281
 2500TIP3    H2 7465   5.367   2.678   2.793 -1.3381 -0.1039  1.0129
 2501TIP3   OH2 7466   0.963   0.805   3.483  0.0856 -0.5153  0.4960
 2501TIP3    H1 7467   1.047   0.770   3.514 -0.3847 -1.4654  0.7440
 2501TIP3    H2 7468   0.897   0.756   3.534 -0.6580 -0.8068 -0.7091
 2502TIP3   OH2 7469   4.781   5.928   2.318  0.6557  0.2428 -0.4227
 2502TIP3    H1 7470   4.774   5.929   2.222  1.1102  0.5861 -0.4566
 2502TIP3    H2 7471   4.706   5.979   2.348  0.6300  0.3131 -0.6045
 2503TIP3   OH2 7472   6.843   2.967   5.075  0.1379 -0.6028 -0.0035
 2503TIP3    H1 7473   6.927   2.995   5.039 -0.3311 -1.0768 -1.5163
 2503TIP3    H2 7474   6.778   3.003   5.016 -0.7865  0.2081  1.4467
 2504TIP3   OH2 7475   2.583   4.347   2.038 -0.0722 -0.2786  0.0058
 2504TIP3    H1 7476   2.559   4.434   2.071 -0.2969  0.1186 -1.1482
 2504TIP3    H2 7477   2.533   4.286   2.092 -2.0034  0.4352 -0.8889
 2505TIP3   OH2 7478   3.817   0.500   4.118 -0.3230  0.2925 -0.4922
 2505TIP3    H1 7479   3.807   0.447   4.197  1.0824  0.9331  0.1415
 2505TIP3    H2 7480   3.764   0.578   4.135  1.5252  1.3457  0.6962
 2506TIP3   OH2 7481   0.956   3.926   0.628  0.2377 -0.2219 -0.0660
 2506TIP3    H1 7482   0.903   3.860   0.673  1.2451 -1.3064 -0.4113
 2506TIP3    H2 7483   1.028   3.876   0.589  0.1970  0.8689 -1.6435
 2507TIP3   OH2 7484   2.609   4.116   1.222 -0.5558 -0.4794  0.6299
 2507TIP3    H1 7485   2.547   4.057   1.265  0.3010 -1.6769  0.2649
 2507TIP3    H2 7486   2.695   4.087   1.252 -0.1688  2.6419  3.0041
 2508TIP3   OH2 7487   2.191   3.316   1.789 -0.1278 -0.2731  0.4166
 2508TIP3    H1 7488   2.118   3.311   1.728 -0.8520 -1.6821  1.3614
 2508TIP3    H2 7489   2.231   3.229   1.786  0.7950  0.1252  0.7971
 2509TIP3   OH2 7490   4.868  -0.007   1.615 -0.5361  0.3264 -0.1424
 2509TIP3    H1 7491   4.928   0.043   1.671 -2.7436  1.8798  0.9974
 2509TIP3    H2 7492   4.886   0.025   1.526 -0.4361  1.5692  0.3130
 2510TIP3   OH2 7493   5.555   2.028   4.006  0.1395  0.4865 -0.6222
 2510TIP3    H1 7494   5.476   2.024   4.060  0.4119 -0.2870 -0.2622
 2510TIP3    H2 7495   5.528   1.992   3.922  0.6237 -1.9140  0.1817
 2511TIP3   OH2 7496   3.982   0.248   1.140 -0.8153 -0.1324 -0.1421
 2511TIP3    H1 7497   4.013   0.262   1.230 -0.6443  0.5199 -0.2980
 2511TIP3    H2 7498   4.054   0.201   1.097  0.2505  1.8402 -0.6540
 2512TIP3   OH2 7499   1.259   6.080   1.156 -0.0242 -0.0929 -0.1748
 2512TIP3    H1 7500   1.292   6.066   1.245 -1.8858 -3.2055  0.1703
 2512TIP3    H2 7501   1.296   6.008   1.105 -1.1317  0.0768 -1.2655
 2513TIP3   OH2 7502   3.755   6.506   0.952  0.5286  0.5116  0.2801
 2513TIP3    H1 7503   3.775   6.471   0.865 -1.8503 -0.2848 -0.0061
 2513TIP3    H2 7504   3.819   6.463   1.010  0.6088 -0.8198 -0.7313
 2514TIP3   OH2 7505   2.923   3.608   1.703 -0.3723  0.4461  0.2332
 2514TIP3    H1 7506   2.839   3.641   1.735 -0.6661  1.3982 -1.3717
 2514TIP3    H2 7507   2.943   3.664   1.628  0.9215 -0.7809 -0.3804
 2515TIP3   OH2 7508   6.222   1.325   0.263  0.6244 -0.3160  0.7940
 2515TIP3    H1 7509   6.216   1.317   0.358  2.3745  0.1028  0.9757
 2515TIP3    H2 7510   6.244   1.417   0.248  1.0955 -0.5420  0.0298
 2516TIP3   OH2 7511   5.381   3.529   4.968 -0.5320  0.5246  0.2052
 2516TIP3    H1 7512   5.381   3.542   4.873  2.8595 -0.2325 -0.0530
 2516TIP3    H2 7513   5.395   3.616   5.004  1.2451  0.4908 -0.2675
 2517TIP3   OH2 7514   1.875   2.104   1.683  0.5186  0.9497  0.2539
 2517TIP3    H1 7515   1.807   2.158   1.642 -0.0966 -0.4073 -0.6300
 2517TIP3    H2 7516   1.956   2.130   1.640  0.4311  1.9487  0.6648
 2518TIP3   OH2 7517   2.916   6.143   3.270  0.0000  0.0898  0.2125
 2518TIP3    H1 7518   2.826   6.120   3.295 -0.6829  1.6818 -0.6247
 2518TIP3    H2 7519   2.971   6.093   3.330 -1.4091 -1.5246  0.2519
 2519TIP3   OH2 7520   1.981   3.652   2.744 -0.7691 -0.2580 -0.1326
 2519TIP3    H1 7521   1.920   3.664   2.817 -0.9230  0.2342 -0.3385
 2519TIP3    H2 7522   1.926   3.650   2.666 -0.6503 -1.2733 -0.2092
 2520TIP3   OH2 7523   5.421   1.459   3.363 -0.2259  0.1636 -0.0993
 2520TIP3    H1 7524   5.445   1.498   3.447 -0.3521  1.6751 -0.7371
 2520TIP3    H2 7525   5.402   1.367   3.384  0.5761  0.3017  1.3633
 2521TIP3   OH2 7526   2.039   5.470   5.212 -0.1062 -0.4394 -0.1159
 2521TIP3    H1 7527   2.020   5.386   5.170 -0.4387 -0.6375  0.4265
 2521TIP3    H2 7528   2.127   5.493   5.182  1.0905 -2.2595  1.7620
 2522TIP3   OH2 7529   0.169   1.994   5.474 -0.0024  0.0276  0.2088
 2522TIP3    H1 7530   0.242   2.054   5.456  2.1387 -2.6646 -0.6673
 2522TIP3    H2 7531   0.173   1.980   5.568 -0.2066  0.8403  0.3490
 2523TIP3   OH2 7532   3.575   0.140   3.004 -0.0823  0.0614 -0.3755
 2523TIP3    H1 7533   3.504   0.107   3.059 -0.4666 -0.8946 -1.4230
 2523TIP3    H2 7534   3.559   0.101   2.918  1.6470 -0.0699 -0.6582
 2524TIP3   OH2 7535   6.106   2.220   1.904 -0.1627  0.2099  0.0586
 2524TIP3    H1 7536   6.124   2.309   1.935  0.9123 -0.2469  0.7814
 2524TIP3    H2 7537   6.049   2.182   1.971 -1.5869  0.7244 -0.8320
 2525TIP3   OH2 7538   4.410   4.317   2.224 -0.3201 -0.3246  0.1614
 2525TIP3    H1 7539   4.478   4.320   2.292  0.5505 -0.6835 -0.6707
 2525TIP3    H2 7540   4.418   4.230   2.186 -1.9410 -0.7429  0.7205
 2526TIP3   OH2 7541   3.847   5.867   1.915 -0.5897  0.0008  0.0756
 2526TIP3    H1 7542   3.814   5.943   1.963 -1.8797  0.1300 -0.9789
 2526TIP3    H2 7543   3.794   5.863   1.836  1.0933 -0.5572 -1.0860
 2527TIP3   OH2 7544   5.839   3.909   2.345 -1.1454 -0.5640  0.6244
 2527TIP3    H1 7545   5.860   3.916   2.438  0.0183 -0.8898  0.3994
 2527TIP3    H2 7546   5.886   3.831   2.315 -0.3658  0.3085 -0.5309
 2528TIP3   OH2 7547   5.642   1.332   4.866  0.1447 -0.5488 -0.5290
 2528TIP3    H1 7548   5.679   1.325   4.778  1.2005 -1.0209 -0.0562
 2528TIP3    H2 7549   5.620   1.242   4.891 -0.9201 -0.3350 -0.6090
 2529TIP3   OH2 7550   2.022   5.289   4.941  0.7044 -0.0444 -0.3172
 2529TIP3    H1 7551   1.999   5.202   4.907  1.7395 -1.0179  1.3517
 2529TIP3    H2 7552   2.112   5.302   4.912  1.7032 -1.0112  2.1510
 2530TIP3   OH2 7553   1.614   2.100   0.201  0.2104 -0.0062 -0.6478
 2530TIP3    H1 7554   1.539   2.056   0.240 -0.7669  0.2282 -2.1960
 2530TIP3    H2 7555   1.636   2.047   0.124  0.9536  0.5338 -0.8186
 2531TIP3   OH2 7556   3.077   4.021   0.383 -0.0078 -0.3611 -0.1388
 2531TIP3    H1 7557   3.057   3.963   0.310 -0.2338  0.1687 -0.5000
 2531TIP3    H2 7558   3.001   4.078   0.391  0.0381 -0.3716  0.4759
 2532TIP3   OH2 7559   0.022   4.247   1.380  0.5574  0.1255  0.8246
 2532TIP3    H1 7560   0.021   4.153   1.362 -1.1344  0.3522 -0.4516
 2532TIP3    H2 7561   0.090   4.258   1.446  2.8381 -1.6143 -1.0470
 2533TIP3   OH2 7562   6.608   5.810   4.069 -0.3163  0.1436 -0.1792
 2533TIP3    H1 7563   6.614   5.850   4.156  0.9058  1.3776 -0.7917
 2533TIP3    H2 7564   6.614   5.716   4.086  1.0674  0.4043  1.0081
 2534TIP3   OH2 7565   3.197   1.991   5.856  0.0243 -0.5875 -0.0194
 2534TIP3    H1 7566   3.283   1.955   5.880  0.3037  0.0267 -0.0771
 2534TIP3    H2 7567   3.218   2.067   5.801 -0.5124  0.3385  1.0041
 2535TIP3   OH2 7568   2.134   1.056   2.781 -0.0556 -0.1168  0.5148
 2535TIP3    H1 7569   2.089   0.984   2.826  0.2211 -0.3219  0.4645
 2535TIP3    H2 7570   2.227   1.043   2.802  0.0820 -0.2262 -0.1325
 2536TIP3   OH2 7571   0.292   5.572   4.105 -0.5799  0.4561  0.3077
 2536TIP3    H1 7572   0.357   5.582   4.035  0.2901  0.4320  1.0873
 2536TIP3    H2 7573   0.331   5.616   4.180  1.7059 -4.9803  2.8565
 2537TIP3   OH2 7574   0.085   3.997   4.860  0.1005 -0.4298  0.5218
 2537TIP3    H1 7575   0.126   4.016   4.944 -1.1246 -1.8833  1.4827
 2537TIP3    H2 7576   0.111   3.907   4.840  0.2712 -0.1525 -0.6190
 2538TIP3   OH2 7577   4.372   3.654   3.012  0.4047  0.2543 -0.7135
 2538TIP3    H1 7578   4.453   3.622   3.051 -0.8073 -0.1500  1.6563
 2538TIP3    H2 7579   4.326   3.574   2.984  1.6149  0.5575 -3.9974
 2539TIP3   OH2 7580   5.315   5.730   0.678 -0.2621 -0.0436 -0.3220
 2539TIP3    H1 7581   5.244   5.699   0.735  0.6246 -1.4344  0.0922
 2539TIP3    H2 7582   5.292   5.697   0.591 -0.6764  0.4886 -0.4232
 2540TIP3   OH2 7583   1.377   4.474   3.194 -0.2292 -0.8303  0.0639
 2540TIP3    H1 7584   1.466   4.506   3.181  0.1235 -1.9700 -0.3631
 2540TIP3    H2 7585   1.363   4.411   3.124 -1.3180 -0.7897  0.2244
 2541TIP3   OH2 7586   3.366   0.607   0.421 -0.5141  0.0112 -0.4812
 2541TIP3    H1 7587   3.337   0.563   0.340 -2.5804  0.4519 -0.0430
 2541TIP3    H2 7588   3.337   0.698   0.410 -0.8586  0.0616  0.7688
 2542TIP3   OH2 7589   5.575   4.225   0.498 -0.4080  0.0809 -0.1065
 2542TIP3    H1 7590   5.499   4.174   0.527  0.9860 -2.2193 -0.2997
 2542TIP3    H2 7591   5.596   4.190   0.411 -0.0857  1.8351 -0.7809
 2543TIP3   OH2 7592   5.769   4.582   1.809  0.0298 -0.0768  0.8331
 2543TIP3    H1 7593   5.787   4.509   1.869 -2.0863 -1.9110 -0.6295
 2543TIP3    H2 7594   5.839   4.578   1.744 -0.5654 -1.4617  0.2379
 2544TIP3   OH2 7595   3.424   5.861   5.446  0.4385 -0.1278  0.0145
 2544TIP3    H1 7596   3.517   5.860   5.424  0.5084 -0.2894  0.3250
 2544TIP3    H2 7597   3.419   5.903   5.531  0.0549  1.5176 -0.7799
 2545TIP3   OH2 7598   5.971   1.803   1.608 -0.2066 -0.4619  0.2803
 2545TIP3    H1 7599   6.013   1.749   1.674  0.4590 -0.5407 -0.1917
 2545TIP3    H2 7600   5.881   1.814   1.638  0.5858  1.2299  2.2935
 2546TIP3   OH2 7601   5.064   1.465   0.173 -0.0577  0.1084 -0.0905
 2546TIP3    H1 7602   5.144   1.497   0.132 -0.2195  1.3071  0.4942
 2546TIP3    H2 7603   5.012   1.544   0.189 -1.4040 -0.6463 -0.5547
 2547TIP3   OH2 7604   2.824   6.256   4.410 -0.5471 -0.3797  0.8171
 2547TIP3    H1 7605   2.853   6.329   4.464 -0.7781 -0.7465  1.4487
 2547TIP3    H2 7606   2.905   6.215   4.380 -0.2189  2.4814 -2.9505
 2548TIP3   OH2 7607   2.592   4.125   2.281  1.2324 -0.1866 -0.4131
 2548TIP3    H1 7608   2.515   4.095   2.233  2.6639  0.2471 -3.1200
 2548TIP3    H2 7609   2.625   4.047   2.325 -1.6285 -0.0691  2.3461
 2549TIP3   OH2 7610   2.594   3.243   5.837 -0.2829 -0.1511  0.1563
 2549TIP3    H1 7611   2.603   3.223   5.930  1.6085 -2.2227 -0.3933
 2549TIP3    H2 7612   2.576   3.158   5.796 -1.6811  0.8021 -1.3488
 2550TIP3   OH2 7613   5.657   5.892   1.519  0.4956 -0.2831  0.0629
 2550TIP3    H1 7614   5.695   5.806   1.533 -1.1661 -1.4058 -1.8060
 2550TIP3    H2 7615   5.732   5.951   1.515  1.6475 -1.5749  1.6441
 2551TIP3   OH2 7616   3.958   1.671   0.815 -0.0885  0.7059 -0.5033
 2551TIP3    H1 7617   3.949   1.658   0.720 -0.0732  1.8733 -0.6840
 2551TIP3    H2 7618   3.870   1.659   0.849 -0.2921  1.2723 -0.8109
 2552TIP3   OH2 7619   3.901   2.057   0.573 -0.1623  0.4473 -0.3866
 2552TIP3    H1 7620   3.932   2.145   0.594  1.7307  0.2088 -1.7969
 2552TIP3    H2 7621   3.929   2.003   0.646  1.0635  0.6050 -0.7134
 2553TIP3   OH2 7622   5.165   4.789   2.498  0.1344 -0.2771 -0.0558
 2553TIP3    H1 7623   5.190   4.751   2.413  1.1818 -2.4190  1.1370
 2553TIP3    H2 7624   5.204   4.876   2.497  1.3768 -0.8037 -1.2146
 2554TIP3   OH2 7625   0.069   6.477   1.976  0.3097 -0.0973  0.5476
 2554TIP3    H1 7626   0.087   6.436   1.891 -0.6757 -1.1104  0.8023
 2554TIP3    H2 7627   0.017   6.555   1.954 -0.6020 -0.7740  0.2540
 2555TIP3   OH2 7628   5.387   3.007   1.874 -0.1113 -0.0206 -0.1037
 2555TIP3    H1 7629   5.387   3.102   1.871 -0.3588  0.0331  0.9802
 2555TIP3    H2 7630   5.357   2.986   1.963 -0.7687 -1.1160 -0.5575
 2556TIP3   OH2 7631   4.022   2.329   5.761  0.2909  0.6602  0.2202
 2556TIP3    H1 7632   4.100   2.280   5.734 -0.9127 -3.1004  2.8322
 2556TIP3    H2 7633   4.056   2.402   5.813  2.0894  0.5910 -0.7747
 2557TIP3   OH2 7634   2.372   2.971   3.704 -0.2287 -0.7346  0.4145
 2557TIP3    H1 7635   2.423   3.045   3.669  1.0057 -1.0008  1.5680
 2557TIP3    H2 7636   2.281   3.000   3.698  0.2323  0.9813  1.0218
 2558TIP3   OH2 7637   6.394   0.916   4.824  0.2410  0.3221 -0.2878
 2558TIP3    H1 7638   6.352   0.963   4.897 -0.3160 -0.2263 -0.2507
 2558TIP3    H2 7639   6.453   0.981   4.785 -0.1018  0.8825  0.1124
 2559TIP3   OH2 7640   1.215   5.021   3.337  0.4077  0.3304 -0.3281
 2559TIP3    H1 7641   1.156   5.039   3.264  0.9204 -1.5627 -1.2721
 2559TIP3    H2 7642   1.173   4.950   3.386  1.5028 -0.5322 -0.5826
 2560TIP3   OH2 7643   6.191   5.881   4.559  0.6174 -0.1380 -0.5223
 2560TIP3    H1 7644   6.191   5.877   4.655  2.0570  0.9880 -0.4348
 2560TIP3    H2 7645   6.164   5.971   4.539 -3.5927 -1.3554 -1.3714
 2561TIP3   OH2 7646   3.239   2.535   0.413 -0.3044  0.2102  0.2924
 2561TIP3    H1 7647   3.211   2.489   0.492 -0.0638  0.8276  0.7438
 2561TIP3    H2 7648   3.202   2.483   0.341 -0.1363 -0.6129  0.7856
 2562TIP3   OH2 7649   4.335   6.073   3.963  0.1304 -0.0825  0.4571
 2562TIP3    H1 7650   4.292   5.999   4.005  2.1562 -0.9263  1.1745
 2562TIP3    H2 7651   4.281   6.149   3.986 -1.1732 -1.1196  0.9259
 2563TIP3   OH2 7652   3.832   4.145   1.820 -0.7147  0.0421  0.3711
 2563TIP3    H1 7653   3.892   4.216   1.799 -1.1988  0.6263  0.9160
 2563TIP3    H2 7654   3.748   4.188   1.837 -1.1444 -0.7050  0.2001
 2564TIP3   OH2 7655   1.995   5.836   0.101  0.2661 -0.3317 -0.3441
 2564TIP3    H1 7656   2.008   5.760   0.157 -0.8420 -0.7832 -0.6892
 2564TIP3    H2 7657   1.967   5.801   0.017 -1.3807  0.4855 -0.1750
 2565TIP3   OH2 7658   2.869   1.730   0.769 -0.5519 -0.5013  0.2733
 2565TIP3    H1 7659   2.778   1.717   0.794 -0.2589 -2.6791  0.4141
 2565TIP3    H2 7660   2.919   1.698   0.844  0.3222 -1.1476 -0.5631
 2566TIP3   OH2 7661   5.434   0.342   1.043  0.4459 -0.3897 -0.3998
 2566TIP3    H1 7662   5.523   0.367   1.020  0.7915  1.0359  2.0835
 2566TIP3    H2 7663   5.396   0.309   0.962  2.7251  0.4321 -1.8933
 2567TIP3   OH2 7664   5.560   1.637   0.179  0.1181  0.2309 -0.1488
 2567TIP3    H1 7665   5.471   1.600   0.179 -0.9415  2.5939  0.2755
 2567TIP3    H2 7666   5.564   1.691   0.100  1.3173 -0.1141 -0.3458
 2568TIP3   OH2 7667   2.244   2.578   2.717  0.4717 -0.2418  0.4303
 2568TIP3    H1 7668   2.338   2.565   2.728  0.4819 -1.7825 -0.9388
 2568TIP3    H2 7669   2.212   2.493   2.685 -1.4127  0.2074  0.9579
 2569TIP3   OH2 7670   0.817   0.654   2.172 -0.4586 -0.1383  0.2379
 2569TIP3    H1 7671   0.836   0.647   2.265  1.2428  1.3054  0.0515
 2569TIP3    H2 7672   0.763   0.733   2.164 -0.9353 -0.4771  0.0271
 2570TIP3   OH2 7673   2.884   5.201   4.735 -0.1367 -0.0058 -0.7541
 2570TIP3    H1 7674   2.890   5.116   4.777  1.1331  0.7410  0.6659
 2570TIP3    H2 7675   2.966   5.246   4.759  0.0553  0.9592 -2.9380
 2571TIP3   OH2 7676   5.578   6.359   1.271 -0.5759 -0.2459 -0.0163
 2571TIP3    H1 7677   5.616   6.277   1.239  0.3519  0.5613 -1.0675
 2571TIP3    H2 7678   5.545   6.337   1.358  0.3198 -1.5519  0.0339
 2572TIP3   OH2 7679   0.449   6.627   1.199  0.3193 -0.1863  0.3687
 2572TIP3    H1 7680   0.522   6.683   1.174  0.0486 -0.3169 -0.7749
 2572TIP3    H2 7681   0.447   6.631   1.295  1.0342  0.8053  0.3543
 2573TIP3   OH2 7682   4.642   1.061   2.164 -0.3731  0.2559 -0.3047
 2573TIP3    H1 7683   4.713   1.055   2.100 -0.7619  0.3609 -0.7480
 2573TIP3    H2 7684   4.579   1.120   2.124 -0.3198  0.8395  0.4673
 2574TIP3   OH2 7685   4.481   3.350   2.449  0.5035 -0.3149  0.3073
 2574TIP3    H1 7686   4.466   3.345   2.355  0.6872  0.6480  0.2174
 2574TIP3    H2 7687   4.421   3.286   2.487  0.4490 -0.7272 -0.4598
 2575TIP3   OH2 7688   4.988   2.937   3.369 -0.0273  0.2086 -0.3196
 2575TIP3    H1 7689   5.022   3.019   3.405 -0.0494 -0.2539  0.7943
 2575TIP3    H2 7690   4.905   2.923   3.414 -1.5757  1.0949 -2.7045
 2576TIP3   OH2 7691   1.547   3.965   1.286  0.0165  0.9436 -0.1057
 2576TIP3    H1 7692   1.583   3.917   1.361 -0.4140  0.0877 -0.4341
 2576TIP3    H2 7693   1.586   3.922   1.210  0.3257  1.7042 -0.3911
 2577TIP3   OH2 7694   6.230   4.749   4.518  0.4423 -0.0925  0.0018
 2577TIP3    H1 7695   6.241   4.844   4.519  0.4655 -0.0752  1.5320
 2577TIP3    H2 7696   6.153   4.734   4.574 -0.4491 -0.8971 -1.3825
 2578TIP3   OH2 7697   2.819   4.544   4.209 -0.0406  0.4550 -0.1490
 2578TIP3    H1 7698   2.873   4.618   4.235  0.9119 -0.6266  1.0894
 2578TIP3    H2 7699   2.818   4.547   4.113  1.9279  0.7051 -0.1938
 2579TIP3   OH2 7700   1.138   2.716   3.069  0.2050 -0.5734  0.0823
 2579TIP3    H1 7701   1.072   2.726   3.000  0.0751 -1.4818  0.0660
 2579TIP3    H2 7702   1.194   2.793   3.059 -1.2550  0.5979  0.5551
 2580TIP3   OH2 7703   4.279   3.002   3.930 -0.3332  0.1856  0.2072
 2580TIP3    H1 7704   4.356   3.058   3.939  0.1553 -0.7461  2.4253
 2580TIP3    H2 7705   4.261   2.971   4.019 -1.8519 -1.4837 -0.6125
 2581TIP3   OH2 7706   5.053   2.689   3.989 -0.1514 -0.6101 -0.1149
 2581TIP3    H1 7707   5.046   2.765   4.046 -0.1537  0.2585 -1.2517
 2581TIP3    H2 7708   5.063   2.615   4.050  0.4738  0.3468  0.9903
 2582TIP3   OH2 7709   4.946   0.886   1.562  0.2850  0.2641 -0.0569
 2582TIP3    H1 7710   5.020   0.938   1.594  0.3918  1.5854 -2.2895
 2582TIP3    H2 7711   4.947   0.807   1.617  2.3505  0.9689  1.0160
 2583TIP3   OH2 7712   5.825   1.731   1.127  0.2259  0.5172  0.7284
 2583TIP3    H1 7713   5.745   1.740   1.076 -0.2622 -0.9170  1.1940
 2583TIP3    H2 7714   5.801   1.760   1.215  0.1968  0.0623  0.8743
 2584TIP3   OH2 7715   2.871   0.966   4.222 -0.7586 -0.0619  0.2717
 2584TIP3    H1 7716   2.855   1.056   4.251 -2.5020 -0.2156 -0.1321
 2584TIP3    H2 7717   2.868   0.914   4.302 -0.1604  0.1745  0.4543
 2585TIP3   OH2 7718   5.985   0.114   2.058  0.2025  0.1818 -0.2443
 2585TIP3    H1 7719   5.903   0.067   2.046  1.4649 -2.1925 -0.2411
 2585TIP3    H2 7720   6.040   0.085   1.985  1.3671  0.9391  0.3014
 2586TIP3   OH2 7721   1.457   2.633   3.982 -0.1681 -0.9524  0.3954
 2586TIP3    H1 7722   1.512   2.675   3.916  0.4942 -1.7541  0.4288
 2586TIP3    H2 7723   1.497   2.547   3.996 -0.2468 -0.7638  1.9034
 2587TIP3   OH2 7724   0.934   1.233   3.072  0.3474  0.3783 -0.2658
 2587TIP3    H1 7725   0.927   1.262   3.163  0.8337 -0.2264 -0.0287
 2587TIP3    H2 7726   0.991   1.298   3.031  0.6562  0.2901  0.0216
 2588TIP3   OH2 7727   3.537   4.045   2.989  0.0287 -0.4028  0.3559
 2588TIP3    H1 7728   3.505   4.118   2.935 -1.5151 -0.9159  0.5293
 2588TIP3    H2 7729   3.596   4.087   3.052  2.4849  0.1143 -2.1304
 2589TIP3   OH2 7730   3.586   6.185   3.736 -0.2064 -0.2641 -0.1501
 2589TIP3    H1 7731   3.545   6.141   3.662 -2.3164  0.5736  0.4307
 2589TIP3    H2 7732   3.557   6.276   3.729  0.6932  0.1343  0.9422
 2590TIP3   OH2 7733   0.368   1.189   5.154  0.4085  0.3660  0.3852
 2590TIP3    H1 7734   0.369   1.118   5.218 -0.2989  0.5148  0.5674
 2590TIP3    H2 7735   0.410   1.151   5.076 -1.1183 -0.7047  0.0297
 2591TIP3   OH2 7736   0.686   2.859   5.827  0.1099 -0.6547  0.6726
 2591TIP3    H1 7737   0.592   2.843   5.825  0.0893 -0.4789 -0.2273
 2591TIP3    H2 7738   0.713   2.833   5.915 -0.9330  0.1807  1.2600
 2592TIP3   OH2 7739   2.851   3.132   2.718  0.1655 -0.1895  0.5175
 2592TIP3    H1 7740   2.924   3.122   2.657  0.7447  0.7608  1.0269
 2592TIP3    H2 7741   2.798   3.203   2.680  0.3821  0.2200  0.9804
 2593TIP3   OH2 7742   7.197   1.213   1.317  0.5352 -0.0272  0.1759
 2593TIP3    H1 7743   7.243   1.159   1.253 -0.4511 -1.4965  0.6458
 2593TIP3    H2 7744   7.111   1.229   1.277  0.8929  1.4375 -0.0599
 2594TIP3   OH2 7745   6.873   1.640   3.035 -0.5636  0.0398 -0.0748
 2594TIP3    H1 7746   6.847   1.728   3.062 -0.9318 -0.3984  1.0607
 2594TIP3    H2 7747   6.918   1.604   3.112 -0.3202 -0.7266 -0.5660
 2595TIP3   OH2 7748   4.780   4.181   2.701  0.2302  0.3377 -0.5780
 2595TIP3    H1 7749   4.843   4.119   2.666  0.6616 -0.1736  1.0348
 2595TIP3    H2 7750   4.821   4.267   2.689  0.0313  0.2606 -1.9659
 2596TIP3   OH2 7751   4.608   3.800   4.370  0.2649  0.0397 -0.5240
 2596TIP3    H1 7752   4.564   3.879   4.402  0.3929  0.1317 -0.5773
 2596TIP3    H2 7753   4.696   3.805   4.406  0.6777  0.5661 -1.5720
 2597TIP3   OH2 7754   6.068   6.466   2.480 -0.2361  0.4886 -0.4054
 2597TIP3    H1 7755   6.144   6.488   2.425  0.5020 -1.2420 -0.1790
 2597TIP3    H2 7756   6.102   6.470   2.569 -0.8281  1.1485 -0.2076
 2598TIP3   OH2 7757   4.136   1.346   3.594  0.0186  0.2216  0.1341
 2598TIP3    H1 7758   4.123   1.332   3.688 -1.1404  0.3887  0.0193
 2598TIP3    H2 7759   4.073   1.287   3.552  0.3757  0.3073 -0.5318
 2599TIP3   OH2 7760   0.339   0.558   5.280  0.7274  0.5025  0.1482
 2599TIP3    H1 7761   0.343   0.463   5.273  1.0321  0.6036 -1.2204
 2599TIP3    H2 7762   0.282   0.586   5.209  0.7533  1.3601  0.4444
 2600TIP3   OH2 7763   2.750   1.018   2.422  0.2231 -0.2763 -0.6610
 2600TIP3    H1 7764   2.723   1.046   2.335 -1.8473 -0.7301 -0.2143
 2600TIP3    H2 7765   2.684   1.056   2.481  0.6802 -1.2802  0.5328
 2601TIP3   OH2 7766   6.202   6.250   3.155  0.3398  0.2181  1.0234
 2601TIP3    H1 7767   6.280   6.293   3.120 -0.7169  1.3141 -0.0840
 2601TIP3    H2 7768   6.177   6.303   3.230  0.7369 -0.2132  1.4613
 2602TIP3   OH2 7769   2.257   0.468   5.658  0.0673  0.1940  0.0104
 2602TIP3    H1 7770   2.250   0.457   5.753  0.9643  0.0064  0.0658
 2602TIP3    H2 7771   2.348   0.493   5.644  0.0657 -0.2507 -0.8409
 2603TIP3   OH2 7772   3.380   6.601   4.393 -0.6789 -0.3032 -0.5410
 2603TIP3    H1 7773   3.287   6.582   4.383 -1.0075 -1.3760  3.2433
 2603TIP3    H2 7774   3.409   6.624   4.304 -4.6037  0.6688 -1.7741
 2604TIP3   OH2 7775   1.346   5.816   1.286  0.4877 -0.5010 -0.0527
 2604TIP3    H1 7776   1.358   5.839   1.379  1.0123  2.4183 -0.7306
 2604TIP3    H2 7777   1.252   5.804   1.276  0.3620 -0.2472  0.7473
 2605TIP3   OH2 7778   2.567   3.851   1.720 -0.0997  0.2960 -0.3688
 2605TIP3    H1 7779   2.480   3.813   1.719 -0.2182  0.5548 -0.0865
 2605TIP3    H2 7780   2.626   3.777   1.707 -0.3894  0.2147 -1.2950
 2606TIP3   OH2 7781   1.182   1.616   3.031  0.3260 -0.5316 -0.3755
 2606TIP3    H1 7782   1.191   1.688   3.093 -2.2791  0.6315 -1.2394
 2606TIP3    H2 7783   1.235   1.546   3.069 -1.4233 -0.0414  3.4545
 2607TIP3   OH2 7784   4.107   1.810   4.246  0.3607  0.0760  0.1369
 2607TIP3    H1 7785   4.149   1.841   4.166  2.2661  0.1227  1.0912
 2607TIP3    H2 7786   4.178   1.809   4.311 -1.0821 -0.1233  1.7756
 2608TIP3   OH2 7787   3.568   6.084   4.417 -0.1905 -0.2025  0.5179
 2608TIP3    H1 7788   3.572   6.153   4.484  0.1729  0.8929 -0.6000
 2608TIP3    H2 7789   3.522   6.012   4.460  0.0345  0.4678  1.9506
 2609TIP3   OH2 7790   1.864   1.241   0.906 -0.2414  0.2736  0.7564
 2609TIP3    H1 7791   1.788   1.294   0.881  0.0600 -0.1093 -1.0852
 2609TIP3    H2 7792   1.931   1.261   0.841  1.6735  1.3570  2.8924
 2610TIP3   OH2 7793   0.512   0.068   3.292 -0.2077  0.2162  0.5129
 2610TIP3    H1 7794   0.546   0.035   3.209  2.3104  2.0219  0.7155
 2610TIP3    H2 7795   0.457   0.142   3.269  0.2414  0.5226  0.4042
 2611TIP3   OH2 7796   4.857   3.403   1.950 -0.1113 -0.2152  0.2060
 2611TIP3    H1 7797   4.908   3.475   1.987 -0.4698  0.2260 -0.1473
 2611TIP3    H2 7798   4.922   3.335   1.932  0.3719  0.3751 -0.3204
 2612TIP3   OH2 7799   0.223   3.335   4.478 -0.6488 -0.0579  0.2231
 2612TIP3    H1 7800   0.237   3.387   4.398  0.6655  0.1452  0.5737
 2612TIP3    H2 7801   0.262   3.386   4.548 -3.7294  0.8508  1.4415
 2613TIP3   OH2 7802   5.564   4.944   4.331  0.1263 -0.8234  0.2319
 2613TIP3    H1 7803   5.537   4.857   4.303  0.2388 -0.8930  0.3414
 2613TIP3    H2 7804   5.524   4.956   4.417 -0.6212 -0.4196 -0.1527
 2614TIP3   OH2 7805   2.217   0.549   1.859  0.4924  0.0717  0.3815
 2614TIP3    H1 7806   2.133   0.505   1.876 -0.2204  2.0031  2.3644
 2614TIP3    H2 7807   2.218   0.560   1.764 -0.4531 -1.8896  0.0761
 2615TIP3   OH2 7808   2.004   0.268   4.403  0.0266  0.1631 -0.3458
 2615TIP3    H1 7809   1.970   0.180   4.390  0.8710  0.1182 -2.8413
 2615TIP3    H2 7810   1.931   0.317   4.440 -0.3344 -1.6261  1.4430
 2616TIP3   OH2 7811   1.102   1.106   1.597  0.0628  0.1652 -0.3360
 2616TIP3    H1 7812   1.137   1.081   1.511  0.8955  0.2110 -0.0156
 2616TIP3    H2 7813   1.122   1.199   1.604  0.5975  0.0117  0.1927
 2617TIP3   OH2 7814   6.072   1.860   3.418  0.0688 -0.2200  0.4019
 2617TIP3    H1 7815   5.995   1.915   3.406  0.7391  0.8466  0.8920
 2617TIP3    H2 7816   6.141   1.920   3.446  1.4549 -0.9152 -1.2956
 2618TIP3   OH2 7817   5.877   3.591   2.717 -0.1611 -0.1639  0.3376
 2618TIP3    H1 7818   5.831   3.530   2.776 -0.2570  0.1785  0.6202
 2618TIP3    H2 7819   5.863   3.677   2.756  1.2892 -0.1110  0.8089
 2619TIP3   OH2 7820   2.654   6.790   5.079 -0.4984  0.0340  0.5143
 2619TIP3    H1 7821   2.587   6.722   5.084 -0.8627  0.1818 -1.4976
 2619TIP3    H2 7822   2.717   6.756   5.016 -0.4071  1.3161 -0.1103
 2620TIP3   OH2 7823   0.871   3.821   0.198 -0.0611 -0.6514 -0.1858
 2620TIP3    H1 7824   0.828   3.906   0.205  0.2534 -0.5777  1.1765
 2620TIP3    H2 7825   0.841   3.785   0.115  0.8669  1.3712 -1.4597
 2621TIP3   OH2 7826   1.858   6.584   2.118 -0.1800 -0.2018 -0.2502
 2621TIP3    H1 7827   1.802   6.649   2.160 -1.1480 -1.6964  0.8627
 2621TIP3    H2 7828   1.944   6.598   2.158 -0.8130 -0.8090  1.4457
 2622TIP3   OH2 7829   3.113   4.522   4.699  0.2648 -0.4618 -0.4724
 2622TIP3    H1 7830   3.161   4.587   4.751  0.2072  0.0246 -1.0195
 2622TIP3    H2 7831   3.027   4.516   4.741 -0.4412  1.2856 -1.5678
 2623TIP3   OH2 7832   0.047   4.000   4.227 -0.1924  0.0596  0.1685
 2623TIP3    H1 7833   0.103   4.074   4.203 -0.4055  0.6868  1.5084
 2623TIP3    H2 7834   0.108   3.929   4.249  0.0134 -0.1439 -1.0165
 2624TIP3   OH2 7835   3.433   2.189   2.809 -0.0819 -0.2517 -0.0202
 2624TIP3    H1 7836   3.514   2.156   2.849  0.7906  1.9362  0.1565
 2624TIP3    H2 7837   3.409   2.122   2.746  1.7477 -1.0821  0.0826
 2625TIP3   OH2 7838   4.824   4.521   5.793  0.2638  0.3841 -0.5214
 2625TIP3    H1 7839   4.820   4.597   5.850 -0.5657  1.3790 -1.8320
 2625TIP3    H2 7840   4.917   4.508   5.775  0.8819 -1.7835  3.2880
 2626TIP3   OH2 7841   4.175   4.610   5.148 -0.2958  0.1621  0.1413
 2626TIP3    H1 7842   4.093   4.574   5.183 -0.8155  2.2348  1.2164
 2626TIP3    H2 7843   4.209   4.665   5.219  0.4395  1.7583 -1.3825
 2627TIP3   OH2 7844   4.653   0.274   1.879  0.2292 -0.3998  0.3263
 2627TIP3    H1 7845   4.665   0.264   1.785 -0.6559  1.3613 -0.0236
 2627TIP3    H2 7846   4.734   0.313   1.910 -0.2413  0.9778 -0.0978
 2628TIP3   OH2 7847   0.735   3.614   4.940  0.5030 -0.5191 -0.3516
 2628TIP3    H1 7848   0.804   3.570   4.990 -0.1342 -0.0143  1.0328
 2628TIP3    H2 7849   0.782   3.660   4.870  1.3274 -2.0434 -0.8462
 2629TIP3   OH2 7850   2.071   3.290   3.980  0.5541  0.3724  0.0117
 2629TIP3    H1 7851   2.115   3.206   3.970 -0.6526 -0.4102  0.9004
 2629TIP3    H2 7852   2.099   3.322   4.066 -1.5982 -0.8384  1.2748
 2630TIP3   OH2 7853   5.903   0.386   5.461 -0.6853  0.4483 -0.2407
 2630TIP3    H1 7854   5.894   0.479   5.439 -1.1506  0.1772 -1.2465
 2630TIP3    H2 7855   5.996   0.376   5.482 -0.9336  1.4704  1.5383
 2631TIP3   OH2 7856   4.465   3.768   2.656  0.1767 -0.5829 -0.9457
 2631TIP3    H1 7857   4.505   3.683   2.642  2.9204  0.6919 -1.5399
 2631TIP3    H2 7858   4.515   3.807   2.728 -0.6624  0.7469 -1.0292
 2632TIP3   OH2 7859   0.732   3.419   2.161  0.3472  0.1645  0.0904
 2632TIP3    H1 7860   0.775   3.449   2.081 -2.1598 -1.0421 -1.8905
 2632TIP3    H2 7861   0.729   3.496   2.217  0.2316  1.7429 -1.9435
 2633TIP3   OH2 7862   0.406   5.568   1.286  0.1618 -0.3754  0.7036
 2633TIP3    H1 7863   0.347   5.624   1.236  0.5630 -0.3452  0.2624
 2633TIP3    H2 7864   0.385   5.588   1.378 -0.6708 -0.5361  0.5605
 2634TIP3   OH2 7865   7.152   4.462   2.315  0.4297  0.0118  0.0065
 2634TIP3    H1 7866   7.220   4.497   2.371  0.4668  0.6356 -0.4239
 2634TIP3    H2 7867   7.175   4.491   2.227 -0.9233  1.0939 -0.0206
 2635TIP3   OH2 7868   6.395   3.474   3.670 -0.5890  0.4049 -0.3130
 2635TIP3    H1 7869   6.373   3.456   3.579  0.8027  0.6685 -0.7241
 2635TIP3    H2 7870   6.395   3.388   3.712 -0.8689  0.2397 -0.6488
 2636TIP3   OH2 7871   3.852   3.470   2.500 -0.1487 -0.0694  0.0837
 2636TIP3    H1 7872   3.852   3.565   2.507  0.6923  0.0279 -0.9414
 2636TIP3    H2 7873   3.944   3.445   2.514 -0.2350 -0.6548 -0.3412
 2637TIP3   OH2 7874   2.026   3.921   0.456 -0.3823 -0.4074  0.3288
 2637TIP3    H1 7875   2.070   3.921   0.371  0.2585  0.6972  0.6337
 2637TIP3    H2 7876   1.933   3.925   0.434 -0.1962  0.8137 -0.3445
 2638TIP3   OH2 7877   5.105   1.981   3.542 -0.2131  0.1822  0.1107
 2638TIP3    H1 7878   5.035   1.980   3.607 -0.6938 -1.0849 -0.3967
 2638TIP3    H2 7879   5.063   2.012   3.462  0.3644  1.6832  0.3530
 2639TIP3   OH2 7880   2.280   2.488   3.466 -0.0279  0.6520  0.3977
 2639TIP3    H1 7881   2.229   2.510   3.544 -0.0064  0.5656  0.4364
 2639TIP3    H2 7882   2.269   2.564   3.408 -0.2883  0.5859  0.3586
 2640TIP3   OH2 7883   2.626   2.544   3.578 -0.1976 -0.7612  0.2935
 2640TIP3    H1 7884   2.618   2.520   3.670 -0.6432 -2.7055 -0.1852
 2640TIP3    H2 7885   2.606   2.462   3.531  0.8603 -0.0407 -1.5043
 2641TIP3   OH2 7886   2.002   6.649   2.563  0.7042 -0.6825  0.1481
 2641TIP3    H1 7887   2.074   6.603   2.606  1.1977 -0.6027 -0.5779
 2641TIP3    H2 7888   1.973   6.714   2.628  0.2174 -1.7677  1.0555
 2642TIP3   OH2 7889   2.888   6.453   1.506 -0.1331 -0.1513  0.1294
 2642TIP3    H1 7890   2.808   6.449   1.559  0.1531 -1.4792  0.5022
 2642TIP3    H2 7891   2.956   6.416   1.563  0.5997  0.2632 -0.4551
 2643TIP3   OH2 7892   6.509   3.466   4.359  0.3477 -0.6443  0.2689
 2643TIP3    H1 7893   6.534   3.378   4.332 -1.2609 -1.9879  2.7433
 2643TIP3    H2 7894   6.419   3.476   4.326 -0.2254 -0.7968  1.7217
 2644TIP3   OH2 7895   1.482   5.515   3.156 -0.4080 -0.0802 -0.5985
 2644TIP3    H1 7896   1.435   5.562   3.088 -0.1003  0.1620 -0.6439
 2644TIP3    H2 7897   1.414   5.471   3.206 -0.6041 -0.6766 -1.3716
 2645TIP3   OH2 7898   5.152   0.808   1.217 -0.3226  0.4027  0.4077
 2645TIP3    H1 7899   5.205   0.781   1.142 -1.4013 -0.7069  0.0238
 2645TIP3    H2 7900   5.197   0.772   1.293  1.2354  2.2169  0.4385
 2646TIP3   OH2 7901   1.327   5.717   5.698 -0.2327 -0.0249 -0.1736
 2646TIP3    H1 7902   1.270   5.678   5.632 -0.0763  0.5982 -0.6850
 2646TIP3    H2 7903   1.416   5.698   5.668 -0.1538 -0.6306  0.4040
 2647TIP3   OH2 7904   1.551   0.936   1.457 -0.3541 -0.2882  0.1994
 2647TIP3    H1 7905   1.529   0.885   1.379  1.2306  1.1659 -1.2734
 2647TIP3    H2 7906   1.638   0.972   1.439 -0.7507  1.6700  1.8241
 2648TIP3   OH2 7907   5.452   2.470   4.345 -0.5465 -0.4440  0.6855
 2648TIP3    H1 7908   5.543   2.442   4.339  0.0035  1.1280  1.1982
 2648TIP3    H2 7909   5.457   2.564   4.360 -2.3089  0.4882 -3.4210
 2649TIP3   OH2 7910   3.051   0.534   4.353 -0.1986  0.2134  0.3233
 2649TIP3    H1 7911   3.004   0.504   4.275 -0.1253 -0.2828  0.4642
 2649TIP3    H2 7912   3.128   0.579   4.319 -0.3233  0.2609  0.1036
 2650TIP3   OH2 7913   0.273   0.284   1.336  0.5631  0.0441 -0.2533
 2650TIP3    H1 7914   0.343   0.235   1.293 -0.3899 -0.9893 -0.6835
 2650TIP3    H2 7915   0.240   0.344   1.270  1.4719  1.0139  0.1550
 2651TIP3   OH2 7916   6.656   2.205   4.071 -0.2186  0.0516 -0.1582
 2651TIP3    H1 7917   6.657   2.229   4.163 -2.6969  0.4144 -0.1511
 2651TIP3    H2 7918   6.563   2.200   4.048  0.2858 -1.3667 -2.2979
 2652TIP3   OH2 7919   2.247   1.532   0.072  0.0351 -0.6356  0.7868
 2652TIP3    H1 7920   2.205   1.599   0.018  2.0585  0.0872 -0.0040
 2652TIP3    H2 7921   2.334   1.521   0.033  1.5862 -0.1110  3.8126
 2653TIP3   OH2 7922   2.751   4.815   5.133  0.0853 -0.4051 -0.3282
 2653TIP3    H1 7923   2.823   4.767   5.094 -0.2000  1.3140 -3.2801
 2653TIP3    H2 7924   2.780   4.906   5.133 -0.4650 -0.1545  2.4760
 2654TIP3   OH2 7925   2.633   5.922   1.599 -0.0874  0.1064  0.0058
 2654TIP3    H1 7926   2.612   6.003   1.552  0.2005 -0.9804 -2.1504
 2654TIP3    H2 7927   2.554   5.869   1.591 -0.9670  0.7910  3.0339
 2655TIP3   OH2 7928   0.360   0.043   3.539 -0.0392  0.0261 -0.2838
 2655TIP3    H1 7929   0.382   0.066   3.449  1.4300 -0.5364 -0.0981
 2655TIP3    H2 7930   0.437   0.071   3.590  0.7237 -2.8092  0.2898
 2656TIP3   OH2 7931   2.521   0.382   4.792  0.6039  0.5593  0.1937
 2656TIP3    H1 7932   2.446   0.369   4.734 -0.7166 -2.5583  2.2912
 2656TIP3    H2 7933   2.591   0.331   4.752  0.1519 -0.3271  0.4914
 2657TIP3   OH2 7934   2.874   3.453   0.363 -1.2189  0.2860  0.2751
 2657TIP3    H1 7935   2.828   3.499   0.293 -0.2050  0.8198 -0.0615
 2657TIP3    H2 7936   2.805   3.405   0.410 -1.8241 -0.5873 -1.4460
 2658TIP3   OH2 7937   7.145   0.896   0.736  0.4764  0.0305 -0.8435
 2658TIP3    H1 7938   7.073   0.924   0.793  0.6534 -0.4748 -0.3571
 2658TIP3    H2 7939   7.113   0.816   0.693  0.9146 -0.4858 -0.2417
 2659TIP3   OH2 7940   5.852   3.580   4.212 -0.5343  0.6489  0.0763
 2659TIP3    H1 7941   5.941   3.617   4.206 -0.2381 -0.0414  0.1048
 2659TIP3    H2 7942   5.796   3.647   4.174  0.2081  0.3515 -1.6217
 2660TIP3   OH2 7943   5.308   3.080   2.778  0.2880 -0.2303 -0.1159
 2660TIP3    H1 7944   5.363   3.158   2.784  0.8410 -0.5312 -0.9565
 2660TIP3    H2 7945   5.348   3.017   2.838 -0.5029  0.3217  1.0007
 2661TIP3   OH2 7946   5.258   5.271   3.128 -0.2780 -0.5523  0.0892
 2661TIP3    H1 7947   5.189   5.222   3.083  0.0938 -0.7885 -0.2257
 2661TIP3    H2 7948   5.292   5.331   3.063 -0.0853 -0.5377  0.2029
 2662TIP3   OH2 7949   1.466   3.935   2.943  0.1555 -0.4941  0.4404
 2662TIP3    H1 7950   1.439   3.843   2.939 -2.8713  0.2682  1.4041
 2662TIP3    H2 7951   1.412   3.974   3.011  0.7901  2.1974 -0.4622
 2663TIP3   OH2 7952   0.448   6.550   0.687 -0.0443 -0.2950  0.0916
 2663TIP3    H1 7953   0.438   6.500   0.768  1.1420  0.1520  0.5509
 2663TIP3    H2 7954   0.414   6.493   0.619 -1.7600 -0.3818  0.9803
 2664TIP3   OH2 7955   5.420   5.989   4.745  0.0257 -0.1140  0.2408
 2664TIP3    H1 7956   5.338   6.007   4.790  0.4057  2.9212 -0.0220
 2664TIP3    H2 7957   5.482   6.050   4.785  1.0883  0.6279 -2.3620
 2665TIP3   OH2 7958   1.745   0.802   5.481  0.4245  0.2039  0.1938
 2665TIP3    H1 7959   1.804   0.856   5.428  0.7335 -0.1969  0.1257
 2665TIP3    H2 7960   1.800   0.765   5.549  0.8249 -2.1632 -1.3116
 2666TIP3   OH2 7961   1.413   4.400   4.348  0.0515  0.1934 -0.6728
 2666TIP3    H1 7962   1.359   4.322   4.364  0.6508 -0.4907 -1.7988
 2666TIP3    H2 7963   1.472   4.404   4.423 -0.9904  0.4650  0.1520
 2667TIP3   OH2 7964   7.010   2.607   4.632 -0.2700 -0.1938 -0.3542
 2667TIP3    H1 7965   7.084   2.589   4.689 -0.4857  1.2290  0.4044
 2667TIP3    H2 7966   6.973   2.520   4.613  1.0716 -0.8497 -0.0745
 2668TIP3   OH2 7967   5.267   5.272   1.618  0.0409 -0.6086 -0.4097
 2668TIP3    H1 7968   5.312   5.210   1.561 -0.3429 -1.9501  0.6859
 2668TIP3    H2 7969   5.183   5.230   1.637  0.1864 -0.2211  1.1876
 2669TIP3   OH2 7970   2.872   6.161   4.746 -0.2389  0.1128  0.8038
 2669TIP3    H1 7971   2.814   6.194   4.813 -1.8029  1.5998 -1.1588
 2669TIP3    H2 7972   2.829   6.081   4.714 -0.5899  0.5405  0.1889
 2670TIP3   OH2 7973   5.920   3.068   4.849 -0.0663  0.2599 -0.2734
 2670TIP3    H1 7974   5.886   3.090   4.936 -1.4167 -1.4294 -0.3164
 2670TIP3    H2 7975   5.938   3.153   4.808  0.6283  1.0927  1.6323
 2671TIP3   OH2 7976   1.266   1.251   2.386  0.1781  0.5836 -0.2603
 2671TIP3    H1 7977   1.222   1.332   2.359  0.6160  0.3646 -1.6606
 2671TIP3    H2 7978   1.311   1.221   2.308  3.5319  1.2205  1.2709
 2672TIP3   OH2 7979   4.741   3.108   4.037 -0.0927 -0.0685 -0.2680
 2672TIP3    H1 7980   4.745   3.202   4.019 -0.7260 -0.0826 -0.4781
 2672TIP3    H2 7981   4.649   3.090   4.055  0.3871 -0.0803  2.9068
 2673TIP3   OH2 7982   6.056   4.855   2.244  0.1619  0.1539  0.7828
 2673TIP3    H1 7983   6.090   4.767   2.228  0.8379  0.1514  2.0935
 2673TIP3    H2 7984   6.128   4.913   2.220 -0.7441  0.4765 -1.3994
 2674TIP3   OH2 7985   5.699   4.938   0.002  0.7701  0.0705 -0.4019
 2674TIP3    H1 7986   5.784   4.929   0.046  0.9076  1.8965 -0.2185
 2674TIP3    H2 7987   5.639   4.885   0.054  1.5525 -0.2514  0.1906
 2675TIP3   OH2 7988   7.090   4.092   3.197  0.4022 -0.0696  0.1991
 2675TIP3    H1 7989   7.061   4.004   3.171  0.5663 -0.3695  0.9885
 2675TIP3    H2 7990   7.029   4.117   3.266  1.9946 -0.7260  1.9140
 2676TIP3   OH2 7991   2.002   2.604   3.054  0.5578 -0.6238 -0.5519
 2676TIP3    H1 7992   1.998   2.561   3.139  1.1897 -0.4515 -0.4303
 2676TIP3    H2 7993   1.968   2.692   3.070 -1.4481 -1.2782 -0.9563
 2677TIP3   OH2 7994   3.365   0.070   3.178 -0.1621  0.5052 -0.1439
 2677TIP3    H1 7995   3.304   0.008   3.216  0.2721 -0.7382 -1.3588
 2677TIP3    H2 7996   3.317   0.152   3.174 -1.0267  0.0625  0.8052
 2678TIP3   OH2 7997   3.687   3.484   0.527  0.2695  0.5975  0.1751
 2678TIP3    H1 7998   3.689   3.390   0.545 -3.8372 -0.0904 -1.7482
 2678TIP3    H2 7999   3.746   3.522   0.592  0.5647 -3.0989  2.3900
 2679TIP3   OH2 8000   0.766   1.841   0.030  0.0411 -0.3290  0.3817
 2679TIP3    H1 8001   0.674   1.841   0.057 -0.3685  0.3953 -0.9329
 2679TIP3    H2 8002   0.782   1.930  -0.002  1.2064 -0.4478  0.5871
 2680TIP3   OH2 8003   0.489   2.499   4.919 -0.0979  0.3400 -0.4465
 2680TIP3    H1 8004   0.567   2.555   4.912  0.4043 -0.4329 -1.2829
 2680TIP3    H2 8005   0.449   2.524   5.002  1.8748 -0.2707  0.7778
 2681TIP3   OH2 8006   0.178   0.539   0.158 -0.0514 -0.2448  0.4599
 2681TIP3    H1 8007   0.194   0.601   0.087 -0.4969 -2.6455 -1.8728
 2681TIP3    H2 8008   0.261   0.492   0.168 -0.6670 -1.5085 -0.1544
 2682TIP3   OH2 8009   2.471   3.845   0.176 -0.1430 -0.1544  0.3309
 2682TIP3    H1 8010   2.482   3.871   0.085 -1.5024 -0.2495  0.1200
 2682TIP3    H2 8011   2.522   3.909   0.226 -0.2423  0.5335 -0.4352
 2683TIP3   OH2 8012   4.208   5.755   1.550  0.0943 -0.2375 -0.2476
 2683TIP3    H1 8013   4.265   5.678   1.552  3.6303  2.1665  0.4678
 2683TIP3    H2 8014   4.211   5.784   1.459  0.0268 -0.0455 -0.1881
 2684TIP3   OH2 8015   0.010   6.514   2.384  0.1253 -0.1047  0.1329
 2684TIP3    H1 8016  -0.028   6.508   2.471  0.3330  0.8153  0.2920
 2684TIP3    H2 8017   0.055   6.598   2.382 -0.1469  0.0409 -0.9645
 2685TIP3   OH2 8018   6.107   6.210   2.364 -0.0080 -0.4014 -0.2974
 2685TIP3    H1 8019   6.087   6.296   2.399 -1.6097 -0.4249 -1.0411
 2685TIP3    H2 8020   6.166   6.170   2.428 -0.8171  0.4959  1.0525
 2686TIP3   OH2 8021   5.262   0.175   0.850 -0.4677 -0.2197 -0.0821
 2686TIP3    H1 8022   5.241   0.099   0.795  0.9067 -0.6633 -0.0252
 2686TIP3    H2 8023   5.188   0.235   0.837 -0.6269 -0.7182 -1.6611
 2687TIP3   OH2 8024   6.743   4.147   4.727  0.1828 -0.1953 -0.2669
 2687TIP3    H1 8025   6.709   4.064   4.695 -1.3006  0.2693  0.0425
 2687TIP3    H2 8026   6.818   4.166   4.670  0.5556 -1.7275 -0.3318
 2688TIP3   OH2 8027   2.278   3.063   5.886 -0.0222 -0.4579 -0.1786
 2688TIP3    H1 8028   2.243   3.112   5.812 -0.6312  1.4422  1.3001
 2688TIP3    H2 8029   2.214   2.993   5.902  0.2991 -1.1141 -1.6223
 2689TIP3   OH2 8030   0.110   0.108   1.751 -0.0573  0.1030 -0.3649
 2689TIP3    H1 8031   0.054   0.170   1.798  0.1737 -0.0938  0.1783
 2689TIP3    H2 8032   0.183   0.091   1.811 -1.0878 -2.2002  0.3605
 2690TIP3   OH2 8033   6.646   1.404   3.229 -0.2499 -0.2466 -0.0882
 2690TIP3    H1 8034   6.606   1.479   3.185 -0.1602 -1.1421 -1.7778
 2690TIP3    H2 8035   6.571   1.351   3.257 -0.3012  0.1689  0.5804
 2691TIP3   OH2 8036   0.366   3.167   2.285 -0.8985  0.3856 -0.1352
 2691TIP3    H1 8037   0.305   3.163   2.212 -0.3347  1.0884 -0.6698
 2691TIP3    H2 8038   0.351   3.254   2.324  0.5626  1.0673 -1.0203
 2692TIP3   OH2 8039   1.071   2.658   1.941 -0.6328  0.1560  0.0774
 2692TIP3    H1 8040   0.990   2.611   1.959 -0.4279  0.1808  1.1642
 2692TIP3    H2 8041   1.049   2.750   1.955 -0.9747  0.3976 -1.8189
 2693TIP3   OH2 8042   2.393   4.412   1.074  0.6071 -0.6121 -0.2009
 2693TIP3    H1 8043   2.364   4.372   0.992  0.9515 -1.5694  0.1257
 2693TIP3    H2 8044   2.348   4.496   1.077  0.6831 -0.5135 -1.4212
 2694TIP3   OH2 8045   0.364   0.419   1.785  0.2116  0.2502  0.3428
 2694TIP3    H1 8046   0.325   0.434   1.699 -0.8945  0.2200  0.8280
 2694TIP3    H2 8047   0.437   0.359   1.768 -0.8233 -0.8415 -0.3964
 2695TIP3   OH2 8048   5.159   0.433   1.241  0.7410  0.1553 -0.3216
 2695TIP3    H1 8049   5.159   0.343   1.207  0.5385  0.0163  0.0527
 2695TIP3    H2 8050   5.196   0.485   1.169 -0.0906 -0.0749 -0.9277
 2696TIP3   OH2 8051   5.260   4.420   0.283 -0.3125 -0.1478  0.0452
 2696TIP3    H1 8052   5.173   4.386   0.262 -0.1337 -1.7225  1.6082
 2696TIP3    H2 8053   5.256   4.443   0.376  0.5426  1.1472 -0.2019
 2697TIP3   OH2 8054   6.212   3.417   3.141  0.1955 -0.3854 -0.5103
 2697TIP3    H1 8055   6.165   3.403   3.059 -0.8672 -1.0627  0.1793
 2697TIP3    H2 8056   6.277   3.347   3.144  0.4230 -0.1905 -0.9068
 2698TIP3   OH2 8057   3.844   2.567   2.658 -0.4688  0.5670 -0.0509
 2698TIP3    H1 8058   3.813   2.509   2.588  1.0305  1.2285 -1.3123
 2698TIP3    H2 8059   3.803   2.652   2.638  0.7968  1.0260 -0.7715
 2699TIP3   OH2 8060   1.684   4.592   3.066 -0.2126 -0.6143 -0.1954
 2699TIP3    H1 8061   1.619   4.543   3.015 -1.8209  0.7413  0.4400
 2699TIP3    H2 8062   1.768   4.555   3.040 -1.1554 -1.7327 -1.8458
 2700TIP3   OH2 8063   1.191   2.563   2.716 -0.1377 -0.3352 -0.4554
 2700TIP3    H1 8064   1.262   2.586   2.656  0.6316 -0.6670  0.2966
 2700TIP3    H2 8065   1.213   2.474   2.745  1.4604  1.0099  2.9702
 2701TIP3   OH2 8066   5.962   3.307   2.218  0.1460 -0.1863  0.2853
 2701TIP3    H1 8067   6.006   3.230   2.254 -0.8728 -0.5277  0.8320
 2701TIP3    H2 8068   5.887   3.321   2.275 -0.4106  0.4398 -0.5677
 2702TIP3   OH2 8069   6.975   1.220   5.708  0.7584  0.1899 -0.7109
 2702TIP3    H1 8070   7.042   1.259   5.652 -0.7685  0.8268 -2.1847
 2702TIP3    H2 8071   6.944   1.293   5.762  1.4559 -0.1818  0.2253
 2703TIP3   OH2 8072   5.778   3.304   5.196  0.0978  0.0744 -0.1004
 2703TIP3    H1 8073   5.789   3.398   5.213 -0.7337  0.2765 -0.6288
 2703TIP3    H2 8074   5.689   3.285   5.226  0.7944 -0.9087  1.4868
 2704TIP3   OH2 8075   0.233   3.560   1.862 -0.2934 -0.0441 -0.2594
 2704TIP3    H1 8076   0.255   3.630   1.801 -0.1789  0.8451  0.7736
 2704TIP3    H2 8077   0.276   3.482   1.826  1.6460  0.9255 -0.1637
 2705TIP3   OH2 8078   5.829   5.929   3.002 -1.2277  0.1200 -0.0425
 2705TIP3    H1 8079   5.747   5.901   3.043  0.0574 -1.1563  1.8397
 2705TIP3    H2 8080   5.895   5.916   3.070  0.7396 -0.0805 -1.8915
 2706TIP3   OH2 8081   7.078   1.896   3.132 -0.3923 -0.2992 -0.1607
 2706TIP3    H1 8082   7.007   1.959   3.145 -1.2095 -0.8942 -1.5336
 2706TIP3    H2 8083   7.114   1.917   3.046  0.9917 -0.1395  0.4267
 2707TIP3   OH2 8084   5.391   3.819   1.766 -0.2161 -0.3879  0.0014
 2707TIP3    H1 8085   5.342   3.800   1.846 -1.1197  1.8942  0.0763
 2707TIP3    H2 8086   5.464   3.874   1.796 -0.7369  0.7422 -0.7477
 2708TIP3   OH2 8087   6.737   6.657   5.566  0.4988  0.4450 -0.4678
 2708TIP3    H1 8088   6.810   6.660   5.628  0.1697  1.3565 -0.1051
 2708TIP3    H2 8089   6.698   6.744   5.571  0.9966  0.8624 -2.6248
 2709TIP3   OH2 8090   6.817   0.105   3.568 -0.8981 -0.1471 -0.1039
 2709TIP3    H1 8091   6.853   0.184   3.609  0.7797 -0.2194 -1.3754
 2709TIP3    H2 8092   6.892   0.059   3.532 -1.9157 -2.0193  0.0072
 2710TIP3   OH2 8093   1.308   3.940   2.540  0.3884  0.0862 -0.5981
 2710TIP3    H1 8094   1.369   4.014   2.547  1.0761 -0.5525  0.4948
 2710TIP3    H2 8095   1.257   3.944   2.620 -1.1887  0.7204 -1.5865
 2711TIP3   OH2 8096   0.581   3.042   3.493  0.5074 -0.0818 -0.6302
 2711TIP3    H1 8097   0.676   3.036   3.481  0.3641  0.2713 -2.1150
 2711TIP3    H2 8098   0.544   3.010   3.411 -0.7038 -1.0605  0.2543
 2712TIP3   OH2 8099   5.403   2.031   1.258  0.2804 -0.3846  0.1910
 2712TIP3    H1 8100   5.388   1.964   1.191  0.2638  2.0252 -2.3812
 2712TIP3    H2 8101   5.481   2.001   1.305 -0.1828 -2.5573 -0.3181
 2713TIP3   OH2 8102   5.726   5.386   1.510 -0.1545 -0.1103  0.3649
 2713TIP3    H1 8103   5.787   5.313   1.499 -0.7867 -0.5877 -0.0957
 2713TIP3    H2 8104   5.687   5.370   1.596  0.5121  0.3117  0.7506
 2714TIP3   OH2 8105   5.828   4.005   2.087  0.0201 -0.7493  0.4321
 2714TIP3    H1 8106   5.882   3.954   2.027 -1.3367 -1.2954 -0.3775
 2714TIP3    H2 8107   5.827   3.953   2.167  1.6599 -0.1300  0.8867
 2715TIP3   OH2 8108   6.570   5.680   1.903  0.0213  0.2604  0.0948
 2715TIP3    H1 8109   6.602   5.656   1.989  1.3706 -1.2132 -0.7638
 2715TIP3    H2 8110   6.499   5.619   1.885  1.1209 -0.8521 -0.6465
 2716TIP3   OH2 8111   0.483   6.774   3.639 -0.5716 -0.5530  0.1544
 2716TIP3    H1 8112   0.411   6.759   3.578 -0.6719  1.3051 -0.2327
 2716TIP3    H2 8113   0.533   6.692   3.638 -1.7490 -1.2803 -0.8187
 2717TIP3   OH2 8114   3.548   3.181   0.219 -0.2419 -0.3969  0.2449
 2717TIP3    H1 8115   3.554   3.089   0.243  0.1541 -0.7449 -1.1203
 2717TIP3    H2 8116   3.478   3.216   0.276  1.0648 -0.9855  2.3243
 2718TIP3   OH2 8117   0.175   2.345   4.116  0.4578  0.5677  0.1337
 2718TIP3    H1 8118   0.269   2.336   4.099  1.0602 -1.2229  3.4896
 2718TIP3    H2 8119   0.140   2.257   4.099 -0.4953  1.0338 -0.3762
 2719TIP3   OH2 8120   4.270   0.515   1.293  0.1845  0.0928 -0.5410
 2719TIP3    H1 8121   4.229   0.481   1.372  1.3709  0.7416  0.3880
 2719TIP3    H2 8122   4.263   0.443   1.230  1.1388 -1.2810  0.8411
 2720TIP3   OH2 8123   1.830   1.402   5.277 -0.4110 -0.1050  0.1986
 2720TIP3    H1 8124   1.843   1.410   5.371 -0.5407  0.5843  0.1634
 2720TIP3    H2 8125   1.842   1.309   5.259  1.2505 -0.0097  0.6505
 2721TIP3   OH2 8126   7.174   1.335   4.550  0.3493 -0.5212  0.0726
 2721TIP3    H1 8127   7.119   1.378   4.616  0.7823  0.3959 -0.1514
 2721TIP3    H2 8128   7.153   1.381   4.468  1.8526  0.2299  0.0847
 2722TIP3   OH2 8129   4.110   4.118   2.759 -0.3043 -0.2634  0.2752
 2722TIP3    H1 8130   4.141   4.036   2.796  1.7261  0.4075  0.1913
 2722TIP3    H2 8131   4.100   4.176   2.835  0.3159  0.0257  0.1407
 2723TIP3   OH2 8132   2.035   1.932   0.923 -0.7659  0.8286 -0.1006
 2723TIP3    H1 8133   2.018   1.899   1.012 -1.1181  1.4284  0.0590
 2723TIP3    H2 8134   2.015   1.857   0.866  0.6979  0.0214  0.3846
 2724TIP3   OH2 8135   4.361   6.783   4.697  0.0097 -0.1934  0.0538
 2724TIP3    H1 8136   4.432   6.847   4.698 -0.5484  0.4966 -1.4261
 2724TIP3    H2 8137   4.388   6.718   4.632 -1.4745  1.1022 -2.0415
 2725TIP3   OH2 8138   0.472   0.275   4.840 -0.5199 -0.5820  0.6742
 2725TIP3    H1 8139   0.461   0.199   4.782  0.3778 -0.5042  0.3827
 2725TIP3    H2 8140   0.567   0.287   4.845 -0.6434  0.2631  1.0670
 2726TIP3   OH2 8141   0.856   6.187   5.585 -0.5180  0.0891  0.1923
 2726TIP3    H1 8142   0.846   6.105   5.538  0.0808 -1.1035  2.0393
 2726TIP3    H2 8143   0.919   6.237   5.534  1.4496 -1.8680  0.5577
 2727TIP3   OH2 8144   2.919   1.305   0.103 -0.0577  0.2903 -0.2981
 2727TIP3    H1 8145   2.909   1.311   0.008  2.3245  2.6413 -0.5238
 2727TIP3    H2 8146   2.835   1.339   0.137 -0.6146  0.2516 -1.5610
 2728TIP3   OH2 8147   5.865   5.454   4.701 -0.1024 -0.1992  0.1331
 2728TIP3    H1 8148   5.827   5.368   4.683 -1.2636 -0.1072  1.9592
 2728TIP3    H2 8149   5.944   5.435   4.751 -0.7338 -0.2012  1.1499
 2729TIP3   OH2 8150   2.414   0.228   5.606 -0.4852 -0.2529  0.7623
 2729TIP3    H1 8151   2.404   0.272   5.522 -1.1728 -3.0477 -0.7077
 2729TIP3    H2 8152   2.378   0.290   5.670  0.5053  2.1360 -0.8703
 2730TIP3   OH2 8153   5.381   3.906   2.997 -0.0882  0.0753 -0.2480
 2730TIP3    H1 8154   5.442   3.962   2.949 -0.2280  0.9408  0.5499
 2730TIP3    H2 8155   5.434   3.832   3.028 -0.1898 -1.0181 -2.5120
 2731TIP3   OH2 8156   2.065   3.575   1.528  0.0759  0.5332  0.3011
 2731TIP3    H1 8157   1.983   3.571   1.478  0.1262 -0.5935  0.2819
 2731TIP3    H2 8158   2.041   3.618   1.610 -0.8250 -0.8124  0.7811
 2732TIP3   OH2 8159   3.866   5.144   3.030 -0.0091  0.2569  0.3522
 2732TIP3    H1 8160   3.879   5.237   3.015 -0.3431  0.1134 -0.9714
 2732TIP3    H2 8161   3.773   5.129   3.010  0.7658 -0.9366 -2.9855
 2733TIP3   OH2 8162   0.010   0.497   5.294  0.0407  0.0973  0.0853
 2733TIP3    H1 8163   0.077   0.513   5.228 -0.8443 -0.7688 -1.0614
 2733TIP3    H2 8164   0.050   0.435   5.355 -0.3081 -2.0261 -1.7020
 2734TIP3   OH2 8165   0.576   4.906   3.548  0.4380 -0.4150  0.3980
 2734TIP3    H1 8166   0.494   4.936   3.587 -0.2339  0.0740 -1.3048
 2734TIP3    H2 8167   0.638   4.977   3.567  0.0833 -0.1131  0.4480
 2735TIP3   OH2 8168   0.689   1.162   3.959 -0.1496  0.3512  0.0895
 2735TIP3    H1 8169   0.622   1.230   3.959  0.5433  1.0605 -0.4056
 2735TIP3    H2 8170   0.771   1.209   3.943  0.9564 -0.0350  3.6980
 2736TIP3   OH2 8171   0.355   4.375   2.916 -0.3103  0.2028 -0.1129
 2736TIP3    H1 8172   0.315   4.444   2.969  0.2252  0.7689 -0.4252
 2736TIP3    H2 8173   0.419   4.334   2.974  0.1270  0.6844 -0.2417
 2737TIP3   OH2 8174   4.600   3.873   1.489  0.1511  0.4861  0.6926
 2737TIP3    H1 8175   4.693   3.861   1.471 -0.0458 -1.8293  0.9148
 2737TIP3    H2 8176   4.598   3.938   1.559  1.6031  0.6788  0.5840
 2738TIP3   OH2 8177   2.551   4.515   0.458 -0.1334  0.4141  0.6314
 2738TIP3    H1 8178   2.578   4.578   0.391  1.5344 -0.4461  0.4356
 2738TIP3    H2 8179   2.494   4.454   0.411 -0.2888  0.7334  0.3936
 2739TIP3   OH2 8180   4.824   0.438   2.829  0.6095 -0.3307 -0.3633
 2739TIP3    H1 8181   4.773   0.440   2.748  0.8867  1.2905 -0.5272
 2739TIP3    H2 8182   4.778   0.498   2.888  1.4166 -0.1031  0.0539
 2740TIP3   OH2 8183   2.794   4.086   2.581  0.3653  0.2568 -0.1521
 2740TIP3    H1 8184   2.860   4.147   2.614  1.0925 -0.4898 -0.1907
 2740TIP3    H2 8185   2.753   4.131   2.508  1.9931  0.1092 -1.2102
 2741TIP3   OH2 8186   0.397   1.309   5.767  0.3544  0.0744  0.2089
 2741TIP3    H1 8187   0.306   1.303   5.798  0.7972 -1.9528  1.3351
 2741TIP3    H2 8188   0.390   1.348   5.680 -1.2870  2.6746  1.3895
 2742TIP3   OH2 8189   4.013   2.606   4.100  0.7092 -0.5087  0.4065
 2742TIP3    H1 8190   3.981   2.681   4.050  0.6587 -0.8520 -0.0843
 2742TIP3    H2 8191   4.018   2.535   4.036 -0.3097 -1.2265  1.0808
 2743TIP3   OH2 8192   3.110   0.165   2.900  0.8895 -0.6520  0.4212
 2743TIP3    H1 8193   3.140   0.108   2.829  0.3495 -1.1613  0.5918
 2743TIP3    H2 8194   3.184   0.223   2.918  0.6956  0.1487 -1.2266
 2744TIP3   OH2 8195   6.590   2.707   4.631 -0.3177  0.3841  0.2739
 2744TIP3    H1 8196   6.529   2.731   4.700 -0.8297 -1.2476  0.4433
 2744TIP3    H2 8197   6.677   2.729   4.666 -0.7018  1.5450  0.5371
 2745TIP3   OH2 8198   6.723   1.878   3.107  0.1816 -0.4060 -0.2893
 2745TIP3    H1 8199   6.647   1.882   3.165  0.1177 -1.9460 -0.2236
 2745TIP3    H2 8200   6.771   1.959   3.124 -1.0127  0.2120  0.2580
 2746TIP3   OH2 8201   4.812   2.528   1.404  0.0892  0.5932 -0.9523
 2746TIP3    H1 8202   4.831   2.529   1.310 -1.4862  1.2115 -1.2913
 2746TIP3    H2 8203   4.896   2.508   1.445  0.4650 -1.4300 -2.5605
 2747TIP3   OH2 8204   4.796   6.703   1.984  0.6768  0.2457 -0.2052
 2747TIP3    H1 8205   4.769   6.724   2.074 -0.5417 -0.3552 -0.4086
 2747TIP3    H2 8206   4.884   6.665   1.994 -0.9028 -3.5534  1.2813
 2748TIP3   OH2 8207   2.692   2.060   1.056  0.0346 -0.5438  0.1207
 2748TIP3    H1 8208   2.765   2.119   1.033  0.9088 -2.2613 -1.8695
 2748TIP3    H2 8209   2.616   2.098   1.013 -0.1061  0.7630  1.4440
 2749TIP3   OH2 8210   6.808   3.280   1.009 -0.5277 -0.4461 -0.2738
 2749TIP3    H1 8211   6.853   3.203   0.975 -0.8060 -0.5027 -0.5107
 2749TIP3    H2 8212   6.742   3.301   0.944 -2.3953 -1.7243  1.1259
 2750TIP3   OH2 8213   3.369   3.924   0.485  0.4383  0.2639 -0.1548
 2750TIP3    H1 8214   3.299   3.988   0.471  0.7129  0.5269 -0.3410
 2750TIP3    H2 8215   3.336   3.867   0.554 -0.0828  0.2017 -0.4597
 2751TIP3   OH2 8216   4.117   3.310   4.111 -0.4208 -0.4442 -0.6641
 2751TIP3    H1 8217   4.086   3.346   4.194 -1.0397 -0.0697 -1.0481
 2751TIP3    H2 8218   4.116   3.215   4.125  0.4496 -0.3501  0.0869
 2752TIP3   OH2 8219   5.749   6.026   4.601  0.5510 -0.2607 -0.1230
 2752TIP3    H1 8220   5.836   6.042   4.638 -0.0122  3.6970 -0.1844
 2752TIP3    H2 8221   5.689   6.038   4.674 -0.2124  2.3592 -1.0942
 2753TIP3   OH2 8222   0.551   4.917   1.711  0.1146  0.4779  0.2198
 2753TIP3    H1 8223   0.493   4.841   1.714 -0.6344  0.9919 -0.7949
 2753TIP3    H2 8224   0.499   4.988   1.749  0.2909  0.8096 -0.1590
 2754TIP3   OH2 8225   4.197   4.798   0.197  0.1527  0.3219  0.1107
 2754TIP3    H1 8226   4.236   4.870   0.147  0.8387  0.1946  0.4431
 2754TIP3    H2 8227   4.257   4.725   0.184 -0.4079 -0.1217 -0.0182
 2755TIP3   OH2 8228   0.625   5.585   4.676 -0.0323  0.2164 -0.3688
 2755TIP3    H1 8229   0.712   5.544   4.671  0.1111  0.6334 -1.9300
 2755TIP3    H2 8230   0.565   5.517   4.643 -0.3106 -0.0590  0.6752
 2756TIP3   OH2 8231   2.317   3.895   3.636 -0.4108  0.5865  0.2696
 2756TIP3    H1 8232   2.340   3.822   3.578  1.7827  1.8830 -0.6314
 2756TIP3    H2 8233   2.278   3.960   3.578  0.7031  1.4230  0.4380
 2757TIP3   OH2 8234   3.848   2.375   0.783  0.5084 -0.3018 -0.2231
 2757TIP3    H1 8235   3.813   2.287   0.771 -2.5205  0.5858  1.2273
 2757TIP3    H2 8236   3.904   2.369   0.860 -0.9986 -0.6961  0.8833
 2758TIP3   OH2 8237   3.545   2.112   1.902 -0.1645  0.0850 -0.2034
 2758TIP3    H1 8238   3.600   2.042   1.867 -0.9700  0.3439 -2.1111
 2758TIP3    H2 8239   3.606   2.182   1.925  0.3996 -0.0666 -1.2154
 2759TIP3   OH2 8240   2.234   2.566   0.895 -0.1794 -0.5746  0.0401
 2759TIP3    H1 8241   2.245   2.506   0.969 -1.5445 -1.3169 -0.3293
 2759TIP3    H2 8242   2.197   2.512   0.826 -0.4891  0.4776 -0.6375
 2760TIP3   OH2 8243   1.038   0.061   2.473  0.1816  0.5511 -0.0154
 2760TIP3    H1 8244   1.118   0.093   2.432  1.2498 -0.0140  1.5453
 2760TIP3    H2 8245   1.037  -0.033   2.453 -0.3330  0.6320 -0.3945
 2761TIP3   OH2 8246   0.748   6.274   2.517  0.0244 -0.2595  0.1674
 2761TIP3    H1 8247   0.750   6.268   2.422 -1.3660 -1.3821  0.1857
 2761TIP3    H2 8248   0.717   6.363   2.534 -1.0402 -0.4856 -0.4695
 2762TIP3   OH2 8249   3.427   5.706   0.020 -0.2903 -0.6930  0.4590
 2762TIP3    H1 8250   3.401   5.671   0.105  0.7092 -0.8733  0.7040
 2762TIP3    H2 8251   3.413   5.801   0.028 -1.5062 -0.8479  0.3351
 2763TIP3   OH2 8252   2.507   1.625   2.411  0.1000 -0.2191  0.9697
 2763TIP3    H1 8253   2.478   1.706   2.452 -0.5855  0.0099  0.0834
 2763TIP3    H2 8254   2.603   1.626   2.419  0.1103  0.7627  0.8188
 2764TIP3   OH2 8255   2.227   5.303   3.081 -0.2777  0.3415 -0.4159
 2764TIP3    H1 8256   2.161   5.294   3.013 -0.4456 -2.1183 -0.0145
 2764TIP3    H2 8257   2.269   5.217   3.085  1.0063  0.9940  1.3003
 2765TIP3   OH2 8258   1.304   1.455   3.625  0.4133 -0.0395  0.7667
 2765TIP3    H1 8259   1.322   1.450   3.718  2.2598  2.7374  0.6868
 2765TIP3    H2 8260   1.384   1.426   3.582  0.5091  1.0643  0.1401
 2766TIP3   OH2 8261   5.101   3.308   1.809  0.5116  0.0033  0.7858
 2766TIP3    H1 8262   5.050   3.228   1.818  0.8418 -0.1723  1.1413
 2766TIP3    H2 8263   5.128   3.309   1.717  3.3581 -2.0985  1.4305
 2767TIP3   OH2 8264   2.812   2.614   1.316  0.4945 -0.6375 -0.1705
 2767TIP3    H1 8265   2.851   2.701   1.317  2.5704 -1.4922  1.4173
 2767TIP3    H2 8266   2.735   2.622   1.259  1.6598  1.7530 -1.5532
 2768TIP3   OH2 8267   6.686   5.024   5.450 -0.6291  0.2641  0.3424
 2768TIP3    H1 8268   6.705   4.936   5.480  1.1732  0.7745  0.8208
 2768TIP3    H2 8269   6.667   5.073   5.530  0.2886  0.7279  0.2919
 2769TIP3   OH2 8270   3.833   5.974   4.609 -0.0996 -0.0673 -0.7029
 2769TIP3    H1 8271   3.758   5.915   4.619 -1.0364  0.5683 -3.1821
 2769TIP3    H2 8272   3.906   5.927   4.650 -1.0136 -2.4837 -1.6471
 2770TIP3   OH2 8273   5.916   4.540   4.526 -0.5246 -0.2495 -0.1130
 2770TIP3    H1 8274   6.004   4.509   4.546 -0.1523  1.0220  0.2730
 2770TIP3    H2 8275   5.858   4.475   4.566  0.2317 -0.2696  0.9709
 2771TIP3   OH2 8276   5.831   0.284   4.026 -0.0120  0.1163  0.2639
 2771TIP3    H1 8277   5.815   0.190   4.034  2.0384 -0.1358  3.2153
 2771TIP3    H2 8278   5.886   0.293   3.948  0.9994 -1.3628  0.7682
 2772TIP3   OH2 8279   1.124   6.454   5.841 -0.0291  0.4660  0.0211
 2772TIP3    H1 8280   1.206   6.460   5.892 -0.0543 -0.3885  0.1828
 2772TIP3    H2 8281   1.129   6.368   5.798  0.8723  1.8968 -2.9962
 2773TIP3   OH2 8282   3.362   6.814   3.960 -0.3254  0.2927 -0.2000
 2773TIP3    H1 8283   3.398   6.745   4.016 -0.1348  1.2952  0.9474
 2773TIP3    H2 8284   3.422   6.819   3.886  0.2124 -0.0919  0.2048
 2774TIP3   OH2 8285   1.063   5.884   4.635  0.4842  0.0100  0.4011
 2774TIP3    H1 8286   1.064   5.960   4.692  2.0805 -0.4917  1.0950
 2774TIP3    H2 8287   0.988   5.832   4.665 -0.0894  0.8728  0.4887
 2775TIP3   OH2 8288   4.115   4.435   2.870  0.2457  0.0906 -0.4473
 2775TIP3    H1 8289   4.095   4.506   2.809  1.3126  1.0866  0.3201
 2775TIP3    H2 8290   4.210   4.430   2.871  0.1998 -1.7905 -0.9306
 2776TIP3   OH2 8291   6.796   6.066   2.165  0.1759  0.5180  0.2620
 2776TIP3    H1 8292   6.775   6.020   2.247 -0.5385 -0.7101 -0.5704
 2776TIP3    H2 8293   6.890   6.078   2.168  0.1893  0.3169  1.1793
 2777TIP3   OH2 8294   6.626   6.456   4.465  0.3393  0.1507 -0.2627
 2777TIP3    H1 8295   6.666   6.543   4.457  2.3576 -0.8729 -3.0640
 2777TIP3    H2 8296   6.605   6.431   4.375 -1.0980 -1.8815  0.5704
 2778TIP3   OH2 8297   5.377   0.319   4.175 -0.6165  0.2359  0.5500
 2778TIP3    H1 8298   5.354   0.373   4.251 -1.0537 -0.4369  0.9079
 2778TIP3    H2 8299   5.461   0.280   4.197 -1.4055 -1.0937  1.3337
 2779TIP3   OH2 8300   6.391   3.985   0.684 -0.0423  0.1920 -0.1628
 2779TIP3    H1 8301   6.326   4.013   0.749  0.1834  0.4184 -0.0308
 2779TIP3    H2 8302   6.426   4.066   0.648  2.1704  0.1950  1.7652
 2780TIP3   OH2 8303   3.652   5.559   3.818 -0.5560 -0.6918 -0.0894
 2780TIP3    H1 8304   3.623   5.508   3.742  3.1506 -1.0791 -1.4356
 2780TIP3    H2 8305   3.644   5.650   3.789 -0.8835 -0.7645 -0.2392
 2781TIP3   OH2 8306   2.037   5.993   3.667 -0.2111 -0.1393 -0.4147
 2781TIP3    H1 8307   2.078   5.908   3.682  1.1092  0.5772  0.1825
 2781TIP3    H2 8308   1.961   5.973   3.612  0.4599 -1.6161 -0.8658
 2782TIP3   OH2 8309   0.195   3.084   2.090  0.4302  0.3384 -0.0335
 2782TIP3    H1 8310   0.105   3.059   2.067  0.7551  0.3043 -1.3216
 2782TIP3    H2 8311   0.249   3.012   2.056  0.9037 -0.0903  1.5135
 2783TIP3   OH2 8312   5.886   3.226   1.155  0.0131  0.1961 -0.4941
 2783TIP3    H1 8313   5.810   3.261   1.107 -0.6068 -0.4576 -0.0151
 2783TIP3    H2 8314   5.960   3.279   1.125 -0.2353 -0.6136 -2.6369
 2784TIP3   OH2 8315   4.284   3.697   3.721 -0.4388 -0.1273 -0.2192
 2784TIP3    H1 8316   4.276   3.603   3.739  2.8623 -0.4341  0.2956
 2784TIP3    H2 8317   4.306   3.735   3.806 -0.2129  0.8862 -0.7223
 2785TIP3   OH2 8318   6.444   6.008   2.020 -0.4426 -0.1188 -0.4346
 2785TIP3    H1 8319   6.361   6.029   2.064 -0.0461  1.2403 -0.2785
 2785TIP3    H2 8320   6.508   6.008   2.090  0.0874  1.3837 -0.8928
 2786TIP3   OH2 8321   3.962   4.700   0.732 -0.3713  0.6477  0.1880
 2786TIP3    H1 8322   3.970   4.771   0.668  0.0690  0.6074  0.1914
 2786TIP3    H2 8323   4.003   4.735   0.812 -0.6141  0.5772  0.3445
 2787TIP3   OH2 8324   0.703   4.541   5.121 -0.4627 -0.1065  0.2548
 2787TIP3    H1 8325   0.641   4.470   5.137  0.6149 -0.7975  1.5985
 2787TIP3    H2 8326   0.775   4.499   5.074  0.4453 -0.0605  1.5689
 2788TIP3   OH2 8327   2.248   6.502   2.179  0.4355 -0.0670 -1.1598
 2788TIP3    H1 8328   2.191   6.572   2.211  0.9565 -1.0119  2.2676
 2788TIP3    H2 8329   2.330   6.545   2.158 -0.3645  0.8002 -2.6524
 2789TIP3   OH2 8330   3.708   4.155   4.224  0.5235 -0.2158  0.2367
 2789TIP3    H1 8331   3.737   4.095   4.293 -0.2071  0.3353  1.0528
 2789TIP3    H2 8332   3.664   4.100   4.160  1.0570 -0.7132  0.2889
 2790TIP3   OH2 8333   1.718   1.918   3.963 -0.3829 -0.5472 -0.2612
 2790TIP3    H1 8334   1.641   1.966   3.934 -1.3288 -1.9826 -0.2137
 2790TIP3    H2 8335   1.683   1.841   4.007  1.0687 -0.3236  1.3695
 2791TIP3   OH2 8336   1.270   0.104   1.293  0.0902 -0.0732  0.0137
 2791TIP3    H1 8337   1.355   0.134   1.259  0.4998 -1.1317  0.0616
 2791TIP3    H2 8338   1.238   0.044   1.226  0.4292 -1.3935  0.9986
 2792TIP3   OH2 8339   2.125   0.572   1.606  0.2140  0.1241 -0.7238
 2792TIP3    H1 8340   2.045   0.613   1.637 -0.4282 -2.1386  0.8235
 2792TIP3    H2 8341   2.127   0.591   1.512 -0.5053  2.7547 -0.2725
 2793TIP3   OH2 8342   1.811   0.324   1.717  0.1912  0.2334  0.3762
 2793TIP3    H1 8343   1.823   0.418   1.702 -3.4925  0.6318 -1.1929
 2793TIP3    H2 8344   1.841   0.283   1.636 -1.1381  0.4094 -0.2222
 2794TIP3   OH2 8345   4.748   2.857   1.947  0.5224  0.1682 -0.0603
 2794TIP3    H1 8346   4.762   2.807   1.866 -0.9053  0.6246 -0.6251
 2794TIP3    H2 8347   4.734   2.947   1.917  1.9950  0.7493  0.8694
 2795TIP3   OH2 8348   0.496   6.536   1.867  0.2801  0.2611  0.1721
 2795TIP3    H1 8349   0.573   6.480   1.862  0.9368  0.9467  1.7214
 2795TIP3    H2 8350   0.498   6.571   1.957 -1.3579  0.9696 -0.0290
 2796TIP3   OH2 8351   4.960   4.069   0.293  0.2310 -0.1713 -0.4059
 2796TIP3    H1 8352   4.967   4.145   0.351 -0.5871 -0.3845 -0.0198
 2796TIP3    H2 8353   5.028   4.009   0.324  0.8264  0.3629 -0.6610
 2797TIP3   OH2 8354   3.659   6.612   3.645  0.0982  0.1877 -0.1486
 2797TIP3    H1 8355   3.751   6.597   3.622  0.1112 -1.7953  1.0076
 2797TIP3    H2 8356   3.611   6.597   3.563  0.6637 -0.3905 -0.3812
 2798TIP3   OH2 8357   5.490   5.815   4.444 -0.0029  0.0462  0.3985
 2798TIP3    H1 8358   5.483   5.837   4.537 -1.3470 -0.8971  0.5557
 2798TIP3    H2 8359   5.473   5.897   4.399 -2.5616 -0.0549  0.9948
 2799TIP3   OH2 8360   0.458   1.278   2.967  0.1088  0.3558 -0.5611
 2799TIP3    H1 8361   0.440   1.361   2.924 -1.1551  1.4384  1.8396
 2799TIP3    H2 8362   0.535   1.296   3.022  2.0651 -1.1534 -2.6169
 2800TIP3   OH2 8363   4.797   4.718   4.773  0.2115 -0.0787  0.4185
 2800TIP3    H1 8364   4.794   4.642   4.831  0.3921 -1.0378 -0.7835
 2800TIP3    H2 8365   4.802   4.680   4.685 -0.3857  1.3288 -0.2452
 2801TIP3   OH2 8366   0.077   5.940   5.752 -0.1004  0.0840  0.1949
 2801TIP3    H1 8367   0.144   5.969   5.814 -0.3568  3.7456 -0.9824
 2801TIP3    H2 8368   0.121   5.875   5.698  1.6307  0.3757  1.1813
 2802TIP3   OH2 8369   4.732   0.413   5.360 -0.3851 -0.4315  0.4399
 2802TIP3    H1 8370   4.743   0.440   5.269  2.5607  1.5344  1.2440
 2802TIP3    H2 8371   4.688   0.487   5.402  1.2723  0.1426  1.2353
 2803TIP3   OH2 8372   3.910   0.917   4.961 -0.0166  0.3203  0.1873
 2803TIP3    H1 8373   3.938   0.942   4.873  1.0629 -0.5934  0.2497
 2803TIP3    H2 8374   3.833   0.862   4.947  2.3063 -3.0439 -0.5310
 2804TIP3   OH2 8375   6.379   4.671   1.264 -0.5470 -0.2280  0.0006
 2804TIP3    H1 8376   6.456   4.700   1.313  0.3802 -1.0653 -0.9041
 2804TIP3    H2 8377   6.328   4.751   1.250  0.2607  0.3786  0.4395
 2805TIP3   OH2 8378   0.863   3.098   5.384  0.3921  0.2019 -0.4909
 2805TIP3    H1 8379   0.811   3.035   5.435 -0.0795  1.2069  0.3219
 2805TIP3    H2 8380   0.952   3.064   5.387  0.1589 -0.3825  0.0308
 2806TIP3   OH2 8381   1.737   5.183   2.788  0.1557 -0.5441  0.0653
 2806TIP3    H1 8382   1.655   5.139   2.766  0.0956 -0.9893  1.1564
 2806TIP3    H2 8383   1.740   5.257   2.728 -1.4412 -0.0554  0.5399
 2807TIP3   OH2 8384   2.762   3.983   1.902  0.3093  0.0776 -0.4644
 2807TIP3    H1 8385   2.744   3.926   1.977  1.5214 -0.2635 -0.4060
 2807TIP3    H2 8386   2.749   3.926   1.826  1.0618 -0.1613 -0.4235
 2808TIP3   OH2 8387   5.613   5.376   0.685  0.4674 -0.0433  0.3209
 2808TIP3    H1 8388   5.551   5.411   0.621  0.3506 -1.3568 -0.3137
 2808TIP3    H2 8389   5.691   5.429   0.675  0.7476 -0.7387 -1.5203
 2809TIP3   OH2 8390   6.784   5.941   0.096 -0.4681  0.4241  0.4893
 2809TIP3    H1 8391   6.828   5.884   0.158  1.2821  1.4099  0.2291
 2809TIP3    H2 8392   6.761   6.019   0.148 -0.0011  0.7831  0.1653
 2810TIP3   OH2 8393   1.190   4.790   0.654 -0.4819  0.8130  0.6500
 2810TIP3    H1 8394   1.239   4.781   0.572  0.2105  2.3937  0.8466
 2810TIP3    H2 8395   1.104   4.754   0.635 -0.6309  1.9528 -1.0905
 2811TIP3   OH2 8396   3.378   0.580   2.609 -0.0181  0.1548 -0.9052
 2811TIP3    H1 8397   3.330   0.648   2.656  1.2157 -0.1092  0.8161
 2811TIP3    H2 8398   3.310   0.522   2.574 -1.0624  1.8439 -1.8361
 2812TIP3   OH2 8399   5.895   1.447   5.758  0.6758  0.3458 -0.0896
 2812TIP3    H1 8400   5.934   1.498   5.829 -0.7285  0.4477  0.6388
 2812TIP3    H2 8401   5.851   1.374   5.803 -1.3461  1.1222 -0.6897
 2813TIP3   OH2 8402   4.761   4.453   5.539 -0.1235  0.0493  0.1470
 2813TIP3    H1 8403   4.754   4.455   5.634 -0.9318  1.5752  0.0925
 2813TIP3    H2 8404   4.710   4.529   5.510 -0.3517 -0.7086 -1.5328
 2814TIP3   OH2 8405   6.483   4.437   0.304 -0.3658 -0.3482  0.0360
 2814TIP3    H1 8406   6.445   4.363   0.352  1.7622 -1.5696 -0.0221
 2814TIP3    H2 8407   6.473   4.413   0.212  0.3293 -0.5715  0.0168
 2815TIP3   OH2 8408   2.041   5.855   5.566 -0.5474  0.0837 -0.4988
 2815TIP3    H1 8409   2.115   5.812   5.610  0.5870  1.3729 -1.0715
 2815TIP3    H2 8410   2.022   5.798   5.491 -0.6271 -0.6540  0.0770
 2816TIP3   OH2 8411   5.467   5.440   2.943  0.3493  0.0004  0.3074
 2816TIP3    H1 8412   5.500   5.452   2.854  1.0780  0.7604  0.6566
 2816TIP3    H2 8413   5.392   5.499   2.949 -0.9265 -1.4799 -0.3833
 2817TIP3   OH2 8414   0.346   5.318   5.102 -0.4347  0.0397  0.1161
 2817TIP3    H1 8415   0.329   5.224   5.102  0.3615 -0.1152 -0.4097
 2817TIP3    H2 8416   0.394   5.334   5.021  0.8127  0.6355  0.9282
 2818TIP3   OH2 8417   2.223   1.225   1.622 -0.1716 -0.1348  0.5352
 2818TIP3    H1 8418   2.173   1.144   1.619  0.1641 -0.3243 -0.0660
 2818TIP3    H2 8419   2.169   1.289   1.575 -0.6385  0.1103  1.3898
 2819TIP3   OH2 8420   1.207   6.643   0.708 -0.1351 -0.4844 -0.1484
 2819TIP3    H1 8421   1.120   6.603   0.710 -1.4752  1.9738 -1.9994
 2819TIP3    H2 8422   1.205   6.709   0.777 -0.2601  0.4382 -1.0090
 2820TIP3   OH2 8423   3.293   1.188   2.401  0.0604  0.0032 -0.4716
 2820TIP3    H1 8424   3.203   1.183   2.435  0.5413 -0.7128  0.7922
 2820TIP3    H2 8425   3.291   1.259   2.338 -1.4646 -0.1787 -0.6784
 2821TIP3   OH2 8426   5.164   3.954   1.393 -0.0238 -0.4363  0.1092
 2821TIP3    H1 8427   5.251   3.915   1.382  0.4403  0.3120  0.9372
 2821TIP3    H2 8428   5.121   3.899   1.458 -0.2778 -0.9577 -0.4881
 2822TIP3   OH2 8429   0.285   1.461   3.134  0.4917  0.0808  0.1522
 2822TIP3    H1 8430   0.216   1.501   3.081 -0.9039 -0.7868  1.2423
 2822TIP3    H2 8431   0.297   1.374   3.096  1.3086  0.3677 -0.2812
 2823TIP3   OH2 8432   0.357   6.400   2.633 -0.2017  0.6451 -0.0737
 2823TIP3    H1 8433   0.285   6.341   2.611  1.4183 -1.5994  0.3486
 2823TIP3    H2 8434   0.355   6.407   2.728  0.2961  0.3549 -0.0387
 2824TIP3   OH2 8435   4.135   5.701   2.798 -0.8823  0.6235  0.8706
 2824TIP3    H1 8436   4.223   5.732   2.776 -0.7382  0.4699  1.2264
 2824TIP3    H2 8437   4.137   5.686   2.892 -0.8560 -0.7045  0.6901
 2825TIP3   OH2 8438   2.568   3.601   4.217  0.6689  0.0959 -0.2616
 2825TIP3    H1 8439   2.547   3.519   4.171  2.2123 -1.2208  1.2554
 2825TIP3    H2 8440   2.663   3.605   4.218  0.6608  0.7945  1.5829
 2826TIP3   OH2 8441   2.705   5.460   2.705  1.0806  0.6089 -0.2604
 2826TIP3    H1 8442   2.644   5.466   2.631  0.0184  1.6808  0.6501
 2826TIP3    H2 8443   2.792   5.460   2.665  0.5443 -1.9655 -1.6835
 2827TIP3   OH2 8444   3.989   6.051   0.844  0.2130 -0.1180 -0.3188
 2827TIP3    H1 8445   3.914   6.107   0.862  0.7347  2.0562 -3.9954
 2827TIP3    H2 8446   3.953   5.975   0.799  0.0441  0.1783 -0.6896
 2828TIP3   OH2 8447   0.719   2.035   4.136  0.3036  0.4955  0.0726
 2828TIP3    H1 8448   0.714   1.956   4.188 -0.1517 -0.0171 -0.7246
 2828TIP3    H2 8449   0.644   2.087   4.163  0.5906  0.6498  0.5813
 2829TIP3   OH2 8450   7.098   6.049   0.117 -0.4789  0.3362 -0.2478
 2829TIP3    H1 8451   7.071   6.108   0.046 -1.8825 -0.1257 -0.1195
 2829TIP3    H2 8452   7.096   5.962   0.078  0.8485  0.2804 -0.2204
 2830TIP3   OH2 8453   6.926   3.330   1.276 -0.5183 -0.3049  0.2428
 2830TIP3    H1 8454   6.849   3.348   1.222  0.8247 -0.6984 -1.9601
 2830TIP3    H2 8455   6.920   3.237   1.297  0.5551 -0.9923 -2.1393
 2831TIP3   OH2 8456   3.478   5.952   2.948 -0.0863  0.3038  0.2435
 2831TIP3    H1 8457   3.476   5.941   3.043  0.8788 -1.4713  0.1106
 2831TIP3    H2 8458   3.568   5.929   2.924 -0.2405  1.0163 -1.0782
 2832TIP3   OH2 8459   5.874   6.048   1.499  0.1582 -0.0798 -0.9267
 2832TIP3    H1 8460   5.930   6.115   1.461  2.7447 -0.7074  1.4994
 2832TIP3    H2 8461   5.861   6.075   1.590 -0.4691 -1.8115 -0.4491
 2833TIP3   OH2 8462   1.775   6.704   1.165  0.4460  0.2784  0.1677
 2833TIP3    H1 8463   1.767   6.780   1.223 -1.2474  0.3642 -0.1226
 2833TIP3    H2 8464   1.825   6.736   1.090 -0.8724  1.3524 -0.2897
 2834TIP3   OH2 8465   4.809   1.849   2.637 -0.2762 -0.8553  0.1365
 2834TIP3    H1 8466   4.723   1.889   2.647  1.0769  2.0870  1.0887
 2834TIP3    H2 8467   4.805   1.769   2.689 -1.6339  0.6096  2.4574
 2835TIP3   OH2 8468   6.528   2.567   2.268  0.0549  0.4160 -0.3604
 2835TIP3    H1 8469   6.609   2.549   2.316  0.8971  0.7220 -1.6149
 2835TIP3    H2 8470   6.514   2.661   2.277 -0.0609  0.3936 -0.3022
 2836TIP3   OH2 8471   5.848   2.928   4.018 -0.1315  0.2241  0.2436
 2836TIP3    H1 8472   5.834   3.005   3.963 -0.0181  0.3897  0.4439
 2836TIP3    H2 8473   5.815   2.855   3.966  0.1710  0.3520 -0.1332
 2837TIP3   OH2 8474   4.585   0.485   0.493  0.3190 -0.2456  0.0035
 2837TIP3    H1 8475   4.609   0.566   0.537  1.0207 -1.3987  1.8816
 2837TIP3    H2 8476   4.556   0.512   0.406 -0.4110  2.0908  0.9046
 2838TIP3   OH2 8477   5.113   5.120   2.173  0.0532 -0.6566 -0.2603
 2838TIP3    H1 8478   5.198   5.134   2.131 -0.0291  1.2016  0.1210
 2838TIP3    H2 8479   5.091   5.029   2.153  0.3511 -0.0903 -3.6345
 2839TIP3   OH2 8480   6.579   2.948   2.526 -0.5253  0.1812  1.1334
 2839TIP3    H1 8481   6.668   2.942   2.491 -0.1914 -0.7873  2.1130
 2839TIP3    H2 8482   6.571   3.038   2.556  0.6492 -0.0787  2.3426
 2840TIP3   OH2 8483   4.157   5.332   2.883 -0.7440  0.6228 -0.3199
 2840TIP3    H1 8484   4.235   5.386   2.899 -0.9975  0.6760  0.8660
 2840TIP3    H2 8485   4.159   5.266   2.953 -0.8579 -0.4343 -1.2905
 2841TIP3   OH2 8486   3.689   4.580   1.945 -0.0932  0.4691  0.2080
 2841TIP3    H1 8487   3.775   4.542   1.930 -0.9544 -2.0963  1.1646
 2841TIP3    H2 8488   3.663   4.547   2.031 -2.4797  0.1765 -0.5430
 2842TIP3   OH2 8489   5.856   2.581   1.388 -0.9127  0.0360  0.2980
 2842TIP3    H1 8490   5.881   2.499   1.346 -0.6381 -0.2774  1.0504
 2842TIP3    H2 8491   5.807   2.555   1.466  1.5857  0.4304  2.1384
 2843TIP3   OH2 8492   4.685   3.683   5.847 -0.6006 -0.7003 -0.2145
 2843TIP3    H1 8493   4.676   3.592   5.817  0.8390 -0.9674  0.1126
 2843TIP3    H2 8494   4.696   3.733   5.766 -1.7154 -0.7522 -0.4202
 2844TIP3   OH2 8495   0.606   6.735   1.663  0.1607 -0.2018  0.4199
 2844TIP3    H1 8496   0.688   6.686   1.657 -0.7478 -1.6917 -0.5920
 2844TIP3    H2 8497   0.557   6.692   1.732 -1.1301 -1.5920 -1.2611
 2845TIP3   OH2 8498   5.737   0.196   2.205 -0.1808  0.0809  0.5009
 2845TIP3    H1 8499   5.823   0.180   2.243  0.5231 -0.2915 -1.1611
 2845TIP3    H2 8500   5.687   0.118   2.225  0.1439 -0.0751  0.7214
 2846TIP3   OH2 8501   2.516   0.709   1.938 -0.6804  0.1259 -0.4375
 2846TIP3    H1 8502   2.492   0.688   1.848 -0.7461 -0.3956 -0.3066
 2846TIP3    H2 8503   2.610   0.727   1.934 -0.5350 -0.6189 -0.4962
 2847TIP3   OH2 8504   5.773   4.929   3.859 -0.1319  0.7144 -0.5734
 2847TIP3    H1 8505   5.727   4.959   3.938 -3.3021  1.5676 -2.5467
 2847TIP3    H2 8506   5.768   4.833   3.863  1.1448  0.6786  0.9537
 2848TIP3   OH2 8507   6.807   6.727   3.696  0.0521  0.0409 -0.0526
 2848TIP3    H1 8508   6.794   6.775   3.614 -1.0325  1.0531  0.6892
 2848TIP3    H2 8509   6.846   6.791   3.755 -0.6911 -0.1994  0.7136
 2849TIP3   OH2 8510   4.859   5.075   2.660  0.2478 -0.0733 -0.1148
 2849TIP3    H1 8511   4.935   5.134   2.662  0.0650  0.2219 -1.0775
 2849TIP3    H2 8512   4.853   5.047   2.569 -1.2786  0.5597 -0.2529
 2850TIP3   OH2 8513   5.946   1.296   0.049  0.2882 -0.0933  0.1193
 2850TIP3    H1 8514   5.996   1.236   0.104  1.8354  0.8188 -0.2486
 2850TIP3    H2 8515   5.889   1.343   0.110 -1.4473 -2.2930  0.3555
 2851TIP3   OH2 8516   6.225   1.467   2.420  0.1712 -0.0847 -0.1657
 2851TIP3    H1 8517   6.235   1.396   2.484 -0.4562  0.4524  0.5421
 2851TIP3    H2 8518   6.187   1.425   2.344 -0.2957 -0.4943  0.2884
 2852TIP3   OH2 8519   0.052   3.804   3.068 -0.3471  0.1879 -0.4676
 2852TIP3    H1 8520   0.099   3.756   3.000  0.2933 -0.1497  0.1954
 2852TIP3    H2 8521   0.119   3.825   3.133 -0.8206  1.0856 -0.2544
 2853TIP3   OH2 8522   4.339   1.565   4.624 -0.3655 -0.1229 -0.1293
 2853TIP3    H1 8523   4.408   1.499   4.614  1.7928  2.2002 -1.7850
 2853TIP3    H2 8524   4.330   1.574   4.719  2.7874  0.5164  0.2302
 2854TIP3   OH2 8525   0.461   0.801   5.880 -0.2559  0.0613 -0.0309
 2854TIP3    H1 8526   0.547   0.835   5.902  0.1646 -1.1884  0.3651
 2854TIP3    H2 8527   0.460   0.797   5.785 -1.1414  3.1494 -0.2557
 2855TIP3   OH2 8528   4.679   2.096   1.242 -0.8255 -0.3745  0.3343
 2855TIP3    H1 8529   4.696   2.143   1.160 -0.3913  0.0476  0.6641
 2855TIP3    H2 8530   4.746   2.028   1.245 -0.7573 -0.3030  0.4109
 2856TIP3   OH2 8531   6.543   1.954   5.323 -0.1014 -0.8832  0.2621
 2856TIP3    H1 8532   6.472   1.926   5.382 -1.2450 -0.8391 -1.0299
 2856TIP3    H2 8533   6.598   1.876   5.313 -0.2268 -1.0594  0.9301
 2857TIP3   OH2 8534   3.692   5.623   2.502 -0.4792  0.3547  0.3531
 2857TIP3    H1 8535   3.687   5.598   2.410  1.2194  1.3124 -0.0506
 2857TIP3    H2 8536   3.648   5.552   2.549 -0.9606 -0.3763 -1.1511
 2858TIP3   OH2 8537   2.783   0.753   1.955  0.6607  0.0354 -0.5027
 2858TIP3    H1 8538   2.820   0.692   2.019  0.0915 -0.4773 -0.6516
 2858TIP3    H2 8539   2.851   0.819   1.944  0.3986  0.6871  1.3742
 2859TIP3   OH2 8540   0.129   5.435   3.469  0.0536 -0.1760 -0.1118
 2859TIP3    H1 8541   0.135   5.378   3.545 -1.2669 -0.2192 -0.0199
 2859TIP3    H2 8542   0.124   5.375   3.394 -1.1459 -0.2047 -0.0288
 2860TIP3   OH2 8543   3.306   6.283   4.688 -0.0495  0.4350 -0.3452
 2860TIP3    H1 8544   3.254   6.361   4.704  1.7996  1.8267 -0.6780
 2860TIP3    H2 8545   3.345   6.297   4.602  0.1343 -0.9828 -0.5235
 2861TIP3   OH2 8546   2.714   4.734   0.733  0.0548  0.0821 -0.3981
 2861TIP3    H1 8547   2.679   4.646   0.736  0.4471 -0.1597 -1.9952
 2861TIP3    H2 8548   2.646   4.789   0.771 -1.5732 -0.5193 -2.3049
 2862TIP3   OH2 8549   2.284   6.671   5.252 -0.5326 -0.4038  0.2708
 2862TIP3    H1 8550   2.303   6.599   5.191 -0.8659 -0.8879  0.7269
 2862TIP3    H2 8551   2.320   6.749   5.209 -0.5471 -0.7733 -0.4336
 2863TIP3   OH2 8552   5.887   5.898   1.788  0.5409  0.8952  0.3401
 2863TIP3    H1 8553   5.817   5.947   1.830 -0.9907 -1.2936  0.4981
 2863TIP3    H2 8554   5.843   5.823   1.747  2.7428 -0.4646  0.2823
 2864TIP3   OH2 8555   1.696   5.561   0.444 -0.1204 -0.3875  0.4389
 2864TIP3    H1 8556   1.651   5.518   0.518 -0.7742 -2.5684 -1.1184
 2864TIP3    H2 8557   1.693   5.654   0.465 -3.0936 -0.6525  1.6694
 2865TIP3   OH2 8558   6.013   1.519   1.319  0.3851 -0.2413  0.0959
 2865TIP3    H1 8559   6.010   1.608   1.283  0.7377 -0.1440  0.3004
 2865TIP3    H2 8560   6.000   1.462   1.243 -3.0807  0.0116  0.3653
 2866TIP3   OH2 8561   5.935   0.739   0.106  0.1483  0.1344 -0.3365
 2866TIP3    H1 8562   5.858   0.761   0.158 -0.3472  0.5205 -1.2150
 2866TIP3    H2 8563   5.930   0.645   0.093 -0.6642  0.2727 -1.1250
 2867TIP3   OH2 8564   1.482   1.908   1.467 -0.1547 -0.4274 -0.2845
 2867TIP3    H1 8565   1.531   1.965   1.408  0.6066 -0.1962  0.5579
 2867TIP3    H2 8566   1.446   1.840   1.410  0.4766 -0.1454 -1.0321
 2868TIP3   OH2 8567   4.593   1.476   0.291  0.1912  0.0791 -0.0104
 2868TIP3    H1 8568   4.547   1.424   0.225 -0.7317  1.0251 -0.1319
 2868TIP3    H2 8569   4.650   1.413   0.335 -2.2108 -1.4615  1.0793
 2869TIP3   OH2 8570   1.316   6.335   5.405  0.3010 -0.6188  0.1543
 2869TIP3    H1 8571   1.290   6.427   5.405  0.5868 -0.5353 -0.2631
 2869TIP3    H2 8572   1.340   6.318   5.496  1.8621  0.2035 -0.0517
 2870TIP3   OH2 8573   5.474   1.918   3.354  0.1557 -0.0271 -0.1723
 2870TIP3    H1 8574   5.413   1.941   3.284  0.3558  1.4034  0.0914
 2870TIP3    H2 8575   5.497   1.827   3.337 -1.8602 -0.5214 -0.4204
 2871TIP3   OH2 8576   5.143   2.169   2.963 -0.0804 -0.1088 -0.1526
 2871TIP3    H1 8577   5.058   2.155   2.920 -0.8374  0.3252  1.1494
 2871TIP3    H2 8578   5.121   2.180   3.055  1.5762 -1.9539  0.5329
 2872TIP3   OH2 8579   4.637   3.560   2.336  0.1286 -0.1368  0.0702
 2872TIP3    H1 8580   4.623   3.547   2.430  0.0654 -0.6066 -0.0023
 2872TIP3    H2 8581   4.685   3.482   2.308  0.3417  0.1091 -0.2454
 2873TIP3   OH2 8582   6.374   3.148   4.052 -0.5340  0.1152  0.2886
 2873TIP3    H1 8583   6.443   3.181   3.995 -0.8838 -0.5337 -0.5200
 2873TIP3    H2 8584   6.336   3.074   4.005  0.5566 -1.8330  2.2585
 2874TIP3   OH2 8585   0.798   2.843   3.699 -0.1273  0.1973 -0.1292
 2874TIP3    H1 8586   0.890   2.858   3.718 -0.4784 -1.0136  3.1684
 2874TIP3    H2 8587   0.779   2.756   3.736 -2.5704  0.3552 -0.8000
 2875TIP3   OH2 8588   3.510   6.701   3.148  0.4023 -0.1689 -0.3088
 2875TIP3    H1 8589   3.603   6.701   3.123  0.4185  2.3659 -0.4624
 2875TIP3    H2 8590   3.510   6.658   3.234  1.7072 -0.3087 -0.3458
 2876TIP3   OH2 8591   3.490   5.540   4.112  0.7639  0.5779 -0.2457
 2876TIP3    H1 8592   3.533   5.518   4.029  1.3685  2.6084 -0.5301
 2876TIP3    H2 8593   3.513   5.469   4.171  0.4348 -0.8445 -1.7676
 2877TIP3   OH2 8594   2.068   5.731   3.362 -0.3058  0.2230 -0.0783
 2877TIP3    H1 8595   2.042   5.687   3.443 -0.1031  0.0355 -0.1169
 2877TIP3    H2 8596   2.117   5.666   3.312  2.4652  1.2605  1.0771
 2878TIP3   OH2 8597   6.827   4.051   0.542 -0.7290  0.0130 -0.5725
 2878TIP3    H1 8598   6.756   3.997   0.578 -0.9904  0.9235  0.3476
 2878TIP3    H2 8599   6.792   4.141   0.545 -0.0580  0.3123 -1.4347
 2879TIP3   OH2 8600   4.724   6.698   0.471  1.2858 -0.3500  0.3965
 2879TIP3    H1 8601   4.709   6.664   0.383 -0.5046 -0.7983  0.8138
 2879TIP3    H2 8602   4.819   6.700   0.481  1.5056 -0.9624 -1.2822
 2880TIP3   OH2 8603   0.691   1.063   5.136  0.5672  0.7871 -0.2339
 2880TIP3    H1 8604   0.725   0.989   5.187 -0.0235  1.6372  1.4896
 2880TIP3    H2 8605   0.636   1.022   5.069  2.6785 -0.4619 -1.3254
 2881TIP3   OH2 8606   6.752   5.664   1.705  0.3943  0.7768  0.1044
 2881TIP3    H1 8607   6.688   5.675   1.776  0.4891  1.0092  0.1534
 2881TIP3    H2 8608   6.796   5.748   1.699  0.4981  0.7068 -0.1244
 2882TIP3   OH2 8609   5.016   5.425   0.585 -0.1418 -0.5874 -0.7625
 2882TIP3    H1 8610   5.053   5.386   0.506  1.7052  0.9612 -0.7274
 2882TIP3    H2 8611   5.076   5.400   0.655 -1.2824 -1.2144  0.0376
 2883TIP3   OH2 8612   3.084   4.411   1.362  0.0409 -0.0892  0.0155
 2883TIP3    H1 8613   2.999   4.443   1.391  0.7055  0.2114  1.7191
 2883TIP3    H2 8614   3.141   4.488   1.364  0.9437 -0.7603  1.2941
 2884TIP3   OH2 8615   1.777   2.791   3.401  0.2688 -0.0691 -0.0823
 2884TIP3    H1 8616   1.733   2.713   3.434 -0.4891 -1.0263 -2.9905
 2884TIP3    H2 8617   1.731   2.864   3.442  0.7602 -1.0889  2.4333
 2885TIP3   OH2 8618   5.119   6.643   3.725 -0.5164 -0.0376 -0.4617
 2885TIP3    H1 8619   5.145   6.719   3.672  0.6404 -0.0145  0.1090
 2885TIP3    H2 8620   5.108   6.573   3.661  0.8009  0.0047 -0.7745
 2886TIP3   OH2 8621   0.985   2.289   3.164  0.5070 -1.0651 -0.0282
 2886TIP3    H1 8622   1.063   2.331   3.127  1.3340 -0.5316  2.1673
 2886TIP3    H2 8623   0.913   2.348   3.142  1.3025  0.3420  1.0240
 2887TIP3   OH2 8624   3.126   0.147   4.542 -0.1640  0.2028 -0.1585
 2887TIP3    H1 8625   3.030   0.140   4.540 -0.1935  0.4770  0.2114
 2887TIP3    H2 8626   3.153   0.131   4.451 -0.5827  0.4709 -0.3328
 2888TIP3   OH2 8627   4.247   0.650   5.505  0.0325  0.0003 -0.2034
 2888TIP3    H1 8628   4.204   0.579   5.457  1.0285 -0.7867  0.0224
 2888TIP3    H2 8629   4.176   0.707   5.534 -0.6394  0.3615 -2.3727
 2889TIP3   OH2 8630   0.508   3.391   0.642 -0.0617  0.3639  0.1533
 2889TIP3    H1 8631   0.521   3.296   0.635  2.3265  0.6528 -0.1889
 2889TIP3    H2 8632   0.453   3.402   0.719  2.4738 -1.2103  2.3856
 2890TIP3   OH2 8633   1.775   5.114   2.283  0.0210  0.0805  0.3907
 2890TIP3    H1 8634   1.820   5.040   2.321 -0.2423 -0.4954 -0.3916
 2890TIP3    H2 8635   1.842   5.159   2.230  0.4102  0.9335  1.5624
 2891TIP3   OH2 8636   4.279   5.505   1.504 -0.4997 -0.3261 -0.1745
 2891TIP3    H1 8637   4.375   5.509   1.506 -0.5214  0.4617  1.5017
 2891TIP3    H2 8638   4.258   5.421   1.546 -0.5400 -0.4321 -0.4088
 2892TIP3   OH2 8639   0.087   4.395   4.940  0.1901 -0.1039 -0.5490
 2892TIP3    H1 8640   0.050   4.443   5.015  1.6781 -0.7851  0.6605
 2892TIP3    H2 8641   0.011   4.351   4.901 -0.3153 -1.7969  2.0917
 2893TIP3   OH2 8642   5.246   0.905   2.380 -0.4775 -0.1168 -0.0124
 2893TIP3    H1 8643   5.271   0.946   2.463 -0.2481  0.5686 -0.4105
 2893TIP3    H2 8644   5.252   0.811   2.397 -0.7776  0.0122  0.8463
 2894TIP3   OH2 8645   1.559   3.649   5.256  0.0605 -0.1819 -0.6010
 2894TIP3    H1 8646   1.600   3.731   5.229 -0.0596  0.4050  0.9466
 2894TIP3    H2 8647   1.626   3.582   5.238  0.3244  0.2889 -1.4439
 2895TIP3   OH2 8648   7.124   6.330   4.921 -0.5417  0.3911  0.2187
 2895TIP3    H1 8649   7.060   6.401   4.919 -0.6860  0.2516 -1.5329
 2895TIP3    H2 8650   7.199   6.363   4.871  0.4148  0.2160  1.4785
 2896TIP3   OH2 8651   1.880   4.719   4.620  0.3860  0.1520 -0.7610
 2896TIP3    H1 8652   1.823   4.795   4.616  0.2293 -0.0125 -1.9777
 2896TIP3    H2 8653   1.892   4.703   4.714 -0.6305  0.8780 -0.4892
 2897TIP3   OH2 8654   3.604   0.669   5.333  0.1864  0.1733  0.1480
 2897TIP3    H1 8655   3.622   0.763   5.339 -0.9815  0.3477  1.0471
 2897TIP3    H2 8656   3.616   0.636   5.422 -0.2224 -0.3841 -0.0004
 2898TIP3   OH2 8657   0.563   6.161   5.318 -0.2814 -0.1104 -0.6702
 2898TIP3    H1 8658   0.485   6.138   5.268  0.6329 -1.3193 -1.6023
 2898TIP3    H2 8659   0.634   6.162   5.254  0.4187  1.5040  0.0558
 2899TIP3   OH2 8660   1.083   3.151   5.097 -0.5114 -0.5143 -0.2718
 2899TIP3    H1 8661   1.066   3.141   5.004 -0.3504 -1.0141 -0.2541
 2899TIP3    H2 8662   1.092   3.061   5.129 -1.3744 -0.3872  0.3780
 2900TIP3   OH2 8663   6.903   1.441   2.797 -0.0774  0.6013  0.6959
 2900TIP3    H1 8664   6.888   1.350   2.821  1.6889  0.3736  1.1091
 2900TIP3    H2 8665   6.919   1.486   2.881  0.3766  1.0034  0.4045
 2901TIP3   OH2 8666   1.300   2.272   3.974 -0.0976  0.0458  0.1895
 2901TIP3    H1 8667   1.360   2.202   3.949  1.0872  0.2188  2.3406
 2901TIP3    H2 8668   1.279   2.256   4.065 -0.6845  1.8674  0.4320
 2902TIP3   OH2 8669   4.314   5.875   2.479  0.5047  0.4951  0.3208
 2902TIP3    H1 8670   4.286   5.785   2.493 -0.7151  0.6907 -0.6574
 2902TIP3    H2 8671   4.310   5.916   2.565  2.5478 -0.7440  1.0661
 2903TIP3   OH2 8672   6.230   4.638   0.906 -0.0662  0.1390 -0.0412
 2903TIP3    H1 8673   6.214   4.703   0.975  0.7352  0.3731 -0.0641
 2903TIP3    H2 8674   6.319   4.656   0.877  0.1391 -0.9305 -0.1037
 2904TIP3   OH2 8675   5.706   3.739   4.025 -0.6161 -0.5454  0.3383
 2904TIP3    H1 8676   5.626   3.771   4.068 -0.1178 -0.8145  1.4930
 2904TIP3    H2 8677   5.770   3.809   4.040 -0.4996 -0.5421 -0.1719
 2905TIP3   OH2 8678   5.116   5.831   1.525 -0.3941  0.1657  0.0289
 2905TIP3    H1 8679   5.121   5.884   1.445 -1.0639 -1.6269 -1.2697
 2905TIP3    H2 8680   5.188   5.769   1.517 -1.2804 -0.9158  0.0992
 2906TIP3   OH2 8681   0.851   5.868   0.133  0.0572 -0.1759 -0.0077
 2906TIP3    H1 8682   0.819   5.860   0.223 -1.1275  0.4955 -0.3518
 2906TIP3    H2 8683   0.846   5.962   0.114 -2.0916 -0.5408 -1.6019
 2907TIP3   OH2 8684   2.540   1.756   5.503 -0.6157  0.2783  0.5106
 2907TIP3    H1 8685   2.571   1.823   5.563  0.3784  0.6107 -0.3518
 2907TIP3    H2 8686   2.491   1.804   5.436  1.6970  0.4337 -1.1744
 2908TIP3   OH2 8687   1.241   3.986   3.839  0.0094 -0.0811  0.6551
 2908TIP3    H1 8688   1.256   4.080   3.833 -2.1957  0.2524 -0.2456
 2908TIP3    H2 8689   1.217   3.971   3.931 -0.3415  0.3355  0.6303
 2909TIP3   OH2 8690   3.755   6.007   1.452  0.1248 -0.7444 -0.0759
 2909TIP3    H1 8691   3.754   6.086   1.507 -0.0489 -0.6039 -0.2815
 2909TIP3    H2 8692   3.839   6.011   1.407  0.8073 -1.4841  1.0799
 2910TIP3   OH2 8693   2.875   2.079   1.777 -0.7428 -0.1296  0.2293
 2910TIP3    H1 8694   2.873   1.983   1.778 -0.6813 -0.1510 -0.5899
 2910TIP3    H2 8695   2.901   2.101   1.687 -2.8217  0.7000 -0.2118
 2911TIP3   OH2 8696   4.833   5.585   4.715  0.0513 -0.7975 -0.3056
 2911TIP3    H1 8697   4.793   5.524   4.652 -0.4261 -1.7237  0.8633
 2911TIP3    H2 8698   4.855   5.531   4.790 -1.2552  0.6173  1.1618
 2912TIP3   OH2 8699   0.847   0.172   4.470 -0.2849  0.0344  0.1813
 2912TIP3    H1 8700   0.864   0.078   4.464  3.2660  0.5570 -0.1366
 2912TIP3    H2 8701   0.789   0.182   4.545 -0.2842 -2.3351  0.5573
 2913TIP3   OH2 8702   5.612   0.921   1.724  0.6022  0.0288 -0.3954
 2913TIP3    H1 8703   5.610   1.016   1.709  0.1640  0.0517 -0.2056
 2913TIP3    H2 8704   5.665   0.887   1.652 -1.6255  0.0960 -2.1802
 2914TIP3   OH2 8705   6.026   2.584   5.038 -0.0176 -0.1582 -0.2569
 2914TIP3    H1 8706   6.009   2.657   4.978 -1.3051  0.4341  0.7662
 2914TIP3    H2 8707   6.105   2.610   5.086  0.6671 -0.3625 -1.2394
 2915TIP3   OH2 8708   4.011   5.691   2.043  0.4049 -0.3874 -0.0562
 2915TIP3    H1 8709   3.953   5.764   2.020 -0.6945 -1.3372 -0.4115
 2915TIP3    H2 8710   4.082   5.696   1.979  1.2968  1.3983  0.9997
 2916TIP3   OH2 8711   1.953   1.198   5.489  0.3641  0.5344 -0.1671
 2916TIP3    H1 8712   1.944   1.285   5.527  0.1205  0.3246  0.2765
 2916TIP3    H2 8713   1.998   1.147   5.557  0.8425  0.4082 -0.5712
 2917TIP3   OH2 8714   4.433   2.519   0.627 -0.0280 -0.9060  0.2552
 2917TIP3    H1 8715   4.485   2.441   0.610  0.0684 -0.6593 -0.5915
 2917TIP3    H2 8716   4.370   2.491   0.694  0.1658 -1.6386  0.1413
 2918TIP3   OH2 8717   4.798   6.702   2.660 -0.1109 -0.3477 -0.1224
 2918TIP3    H1 8718   4.736   6.667   2.723 -0.1426 -1.0984 -0.5663
 2918TIP3    H2 8719   4.840   6.625   2.621  0.0981  0.1101 -0.8252
 2919TIP3   OH2 8720   4.905   2.111   2.168  0.0599  0.0971  0.1496
 2919TIP3    H1 8721   4.962   2.187   2.182  0.2281  0.2176 -1.0944
 2919TIP3    H2 8722   4.960   2.036   2.188  0.9348  0.1789 -1.7463
 2920TIP3   OH2 8723   5.917   1.253   3.154  0.1161 -0.1137  0.2019
 2920TIP3    H1 8724   5.961   1.174   3.183 -2.1977 -1.1739  1.1352
 2920TIP3    H2 8725   5.879   1.290   3.234 -0.1953  1.0232 -0.4486
 2921TIP3   OH2 8726   1.016   6.103   5.190  0.0116 -0.2562  0.1651
 2921TIP3    H1 8727   1.084   6.166   5.164  1.1388 -1.5327 -0.1217
 2921TIP3    H2 8728   1.029   6.092   5.284  0.2437 -0.5444  0.0998
 2922TIP3   OH2 8729   6.496   3.412   5.007  0.3644  0.3538  0.2823
 2922TIP3    H1 8730   6.420   3.447   5.054  0.1081  0.7776 -0.4233
 2922TIP3    H2 8731   6.568   3.418   5.070 -0.3186 -0.6966  1.1992
 2923TIP3   OH2 8732   4.837   3.966   4.217  0.4197 -0.1441 -0.1229
 2923TIP3    H1 8733   4.786   4.013   4.151  1.0525  0.5885 -0.1109
 2923TIP3    H2 8734   4.861   3.884   4.175  0.2601  0.0322 -0.5690
 2924TIP3   OH2 8735   4.079   3.442   0.170  0.5364  0.0545  0.6275
 2924TIP3    H1 8736   4.140   3.369   0.166  0.0376 -0.4343  1.6033
 2924TIP3    H2 8737   4.044   3.439   0.259 -0.3036  0.8199  0.3370
 2925TIP3   OH2 8738   2.433   6.506   3.670  0.2791  0.3057  0.1323
 2925TIP3    H1 8739   2.346   6.526   3.635 -0.5081  0.5485  2.1095
 2925TIP3    H2 8740   2.435   6.547   3.757  2.2298 -0.0332  0.3051
 2926TIP3   OH2 8741   0.303   5.878   0.716  0.1595 -0.0715  0.0588
 2926TIP3    H1 8742   0.367   5.880   0.788 -1.1797  0.4908  1.2966
 2926TIP3    H2 8743   0.334   5.944   0.655  0.8069  0.1455  0.6041
 2927TIP3   OH2 8744   3.942   2.072   5.445 -0.1927  0.0007 -0.0004
 2927TIP3    H1 8745   3.950   2.168   5.443  0.3494 -0.0368  0.0910
 2927TIP3    H2 8746   3.915   2.049   5.356 -2.0843  0.3636  0.4340
 2928TIP3   OH2 8747   5.976   2.948   3.390  0.6469  0.3852 -0.1138
 2928TIP3    H1 8748   5.890   2.911   3.410  0.9030  0.1840  0.6399
 2928TIP3    H2 8749   5.987   3.020   3.452  0.8440  0.6895 -0.4945
 2929TIP3   OH2 8750   0.191   5.851   4.658  0.2677  0.5353 -0.9203
 2929TIP3    H1 8751   0.119   5.874   4.717  1.8169  0.1682  1.2384
 2929TIP3    H2 8752   0.174   5.901   4.578 -2.3584  0.4351 -0.5026
 2930TIP3   OH2 8753   2.673   6.295   4.146 -0.0208 -0.2175  0.1808
 2930TIP3    H1 8754   2.709   6.282   4.234  0.7263  1.7763  0.2248
 2930TIP3    H2 8755   2.597   6.352   4.160 -1.2326 -1.6532 -0.2816
 2931TIP3   OH2 8756   5.797   1.958   4.785  0.0331  0.1162  0.0662
 2931TIP3    H1 8757   5.753   1.886   4.741  0.6731  0.3779 -1.0635
 2931TIP3    H2 8758   5.880   1.968   4.737 -0.4320  2.1835 -0.4324
 2932TIP3   OH2 8759   1.117   0.800   2.237  0.0346 -0.0420  0.0265
 2932TIP3    H1 8760   1.048   0.853   2.198  0.5820  0.1818 -0.6635
 2932TIP3    H2 8761   1.071   0.730   2.283 -0.6593  0.4143  0.0334
 2933TIP3   OH2 8762   5.221   3.268   4.152  0.0906 -0.1677 -0.0834
 2933TIP3    H1 8763   5.302   3.289   4.105 -1.2901  1.6861 -1.7613
 2933TIP3    H2 8764   5.185   3.193   4.105 -0.3657  0.5363 -0.8772
 2934TIP3   OH2 8765   5.215   4.771   1.377 -0.2136 -0.2094 -0.2708
 2934TIP3    H1 8766   5.203   4.817   1.295  0.4076  1.4070  0.4985
 2934TIP3    H2 8767   5.306   4.789   1.402 -0.9952  1.1723  1.8114
 2935TIP3   OH2 8768   2.681   3.735   3.403 -0.5289 -0.3234  0.9865
 2935TIP3    H1 8769   2.753   3.762   3.346  0.4854 -3.3037  0.6645
 2935TIP3    H2 8770   2.666   3.643   3.380 -5.0152  0.2927  0.4835
 2936TIP3   OH2 8771   0.634   3.557   3.449  1.1698 -0.1212  0.4270
 2936TIP3    H1 8772   0.666   3.559   3.538  2.0229 -1.6178  0.1864
 2936TIP3    H2 8773   0.558   3.499   3.452  0.1871  1.1199  0.4568
 2937TIP3   OH2 8774   1.106   6.024   0.405  0.5364 -0.2524  0.5011
 2937TIP3    H1 8775   1.159   6.099   0.431  1.6580 -0.9533  0.3054
 2937TIP3    H2 8776   1.135   6.003   0.317 -0.1114 -0.6192  0.3687
 2938TIP3   OH2 8777   1.383   6.647   1.523  0.4532  0.1827 -0.6117
 2938TIP3    H1 8778   1.359   6.556   1.505 -0.2280  0.2675 -0.1689
 2938TIP3    H2 8779   1.476   6.643   1.545  0.9658 -0.1253 -2.5881
 2939TIP3   OH2 8780   4.996   3.577   2.774 -0.9667 -0.2093  0.0035
 2939TIP3    H1 8781   4.986   3.531   2.858 -1.4721  0.4296  0.3038
 2939TIP3    H2 8782   5.052   3.651   2.793 -0.8319 -0.2337 -0.2946
 2940TIP3   OH2 8783   2.929   6.004   3.971  0.1935  0.1370  0.2979
 2940TIP3    H1 8784   2.887   5.933   3.923 -1.8636 -0.8749  3.2643
 2940TIP3    H2 8785   2.971   5.961   4.046  0.0990  1.8823  1.4081
 2941TIP3   OH2 8786   0.832   6.620   4.188 -0.0429 -0.4205  0.7441
 2941TIP3    H1 8787   0.873   6.533   4.189 -0.9920 -0.9015  0.0495
 2941TIP3    H2 8788   0.865   6.661   4.108  1.5469  0.4680  1.7966
 2942TIP3   OH2 8789   4.739   4.904   5.067  0.0313 -0.0727  0.1811
 2942TIP3    H1 8790   4.755   4.813   5.092  1.5793  0.5409  1.5979
 2942TIP3    H2 8791   4.671   4.899   5.001  1.2031 -2.3855 -0.9576
 2943TIP3   OH2 8792   6.127   3.662   4.476 -0.0841 -0.1225  0.3225
 2943TIP3    H1 8793   6.105   3.570   4.488  2.9575 -1.0187 -0.0818
 2943TIP3    H2 8794   6.082   3.687   4.395  1.0787 -2.0974 -1.0395
 2944TIP3   OH2 8795   1.870   3.954   5.802 -0.8152  0.1567  0.2520
 2944TIP3    H1 8796   1.867   3.968   5.707 -0.7522 -1.0637  0.0462
 2944TIP3    H2 8797   1.899   4.037   5.838  3.4799 -0.4646 -1.1541
 2945TIP3   OH2 8798   1.347   0.558   4.526 -0.0168  0.1920  0.0339
 2945TIP3    H1 8799   1.268   0.600   4.558 -1.6615 -2.6532  0.0119
 2945TIP3    H2 8800   1.345   0.570   4.431  0.7954  1.9712  0.1984
 2946TIP3   OH2 8801   2.426   1.789   2.882  0.3701  0.2020 -0.1699
 2946TIP3    H1 8802   2.394   1.714   2.934 -0.8960  1.0534  0.3336
 2946TIP3    H2 8803   2.354   1.852   2.885  1.8171  1.8950  0.3202
 2947TIP3   OH2 8804   0.554   2.483   2.779 -0.8554 -0.1671  0.6201
 2947TIP3    H1 8805   0.588   2.397   2.754 -0.0591 -0.1213  1.4644
 2947TIP3    H2 8806   0.625   2.522   2.830 -0.8713  1.3327 -0.4302
 2948TIP3   OH2 8807   1.007   2.401   0.258  0.1114  0.6195  0.2903
 2948TIP3    H1 8808   0.952   2.325   0.277 -0.8372  1.1365 -0.3264
 2948TIP3    H2 8809   0.968   2.440   0.180 -1.5612  3.7233  2.4526
 2949TIP3   OH2 8810   0.381   5.195   0.644  0.2156 -0.4975 -0.1513
 2949TIP3    H1 8811   0.365   5.235   0.730 -0.6147 -2.5593  0.7524
 2949TIP3    H2 8812   0.476   5.188   0.638  0.2932 -0.1077  0.4941
 2950TIP3   OH2 8813   3.169   3.116   5.024  0.2209 -0.4884  0.3486
 2950TIP3    H1 8814   3.143   3.194   5.073  0.3613  0.0889 -0.4593
 2950TIP3    H2 8815   3.256   3.094   5.057  1.1566  1.0461 -0.9168
 2951TIP3   OH2 8816   4.778   1.158   1.181  0.5706 -0.1260 -0.3136
 2951TIP3    H1 8817   4.773   1.233   1.123 -2.6040  0.1290  0.1431
 2951TIP3    H2 8818   4.723   1.091   1.140  0.6886 -1.0250  0.9188
 2952TIP3   OH2 8819   5.113   0.261   2.198  0.3137 -0.0060  0.0325
 2952TIP3    H1 8820   5.152   0.199   2.260 -1.0670 -0.6801  0.2539
 2952TIP3    H2 8821   5.167   0.340   2.206 -0.0292  0.0561  2.3876
 2953TIP3   OH2 8822   5.725   4.178   5.668 -0.4120  0.5508  0.2357
 2953TIP3    H1 8823   5.746   4.162   5.760  1.0031 -0.5797 -0.2452
 2953TIP3    H2 8824   5.754   4.268   5.652  0.9876  0.1541  0.4646
 2954TIP3   OH2 8825   5.372   4.168   5.670  0.3160  0.6627  0.2305
 2954TIP3    H1 8826   5.334   4.100   5.726  1.4398 -0.7329 -0.6229
 2954TIP3    H2 8827   5.424   4.221   5.729  0.2407  0.1625  0.7610
 2955TIP3   OH2 8828   4.636   0.678   5.787 -0.4762 -0.5860  0.0093
 2955TIP3    H1 8829   4.626   0.587   5.816 -1.4799 -1.2532 -2.1611
 2955TIP3    H2 8830   4.680   0.670   5.702 -0.2036  1.0145 -0.0195
 2956TIP3   OH2 8831   0.340   6.460   3.961  0.7937 -0.5449 -0.7911
 2956TIP3    H1 8832   0.334   6.364   3.961 -1.7275 -0.4710  0.4631
 2956TIP3    H2 8833   0.430   6.478   3.986  1.0119 -2.6180  0.1717
 2957TIP3   OH2 8834   6.786   5.789   2.884  0.0242  0.7419 -0.5786
 2957TIP3    H1 8835   6.787   5.808   2.978  0.5399 -1.9435  0.0592
 2957TIP3    H2 8836   6.695   5.767   2.865  0.2169 -0.4381 -0.2468
 2958TIP3   OH2 8837   4.297   5.826   4.976  0.3045 -0.1984  0.5336
 2958TIP3    H1 8838   4.219   5.814   5.030 -0.3230 -0.3010 -0.3706
 2958TIP3    H2 8839   4.305   5.920   4.964  0.2628 -0.1930  0.5520
 2959TIP3   OH2 8840   0.662   0.418   2.896  0.3265 -0.2483 -0.3314
 2959TIP3    H1 8841   0.725   0.394   2.829  0.9803 -0.4989  0.3558
 2959TIP3    H2 8842   0.712   0.471   2.958 -0.5234  0.8879 -0.5808
 2960TIP3   OH2 8843   5.738   4.301   2.913 -0.0259  0.3445 -0.1330
 2960TIP3    H1 8844   5.809   4.262   2.861 -1.3229 -3.1274  0.3851
 2960TIP3    H2 8845   5.669   4.319   2.849 -0.7144 -1.6943 -0.0666
 2961TIP3   OH2 8846   1.336   4.587   4.968  0.1984  0.0790 -0.0081
 2961TIP3    H1 8847   1.276   4.662   4.971 -0.3215 -0.2778 -0.7984
 2961TIP3    H2 8848   1.421   4.624   4.946 -0.2793  0.3506 -1.5330
 2962TIP3   OH2 8849   3.072   3.885   3.811 -0.0737  0.3009 -0.1606
 2962TIP3    H1 8850   3.021   3.957   3.847 -1.9415 -0.5353 -1.0277
 2962TIP3    H2 8851   3.077   3.820   3.881  0.3845  0.6579  0.1411
 2963TIP3   OH2 8852   6.281   1.852   4.936 -0.2123  0.0802 -0.0240
 2963TIP3    H1 8853   6.263   1.944   4.954 -0.9576 -0.4817  2.4936
 2963TIP3    H2 8854   6.256   1.840   4.845 -0.2233  2.3202 -0.3746
 2964TIP3   OH2 8855   3.446   0.616   3.001  0.2006 -0.4231 -0.1531
 2964TIP3    H1 8856   3.491   0.700   2.999 -0.0315 -0.3042 -0.8349
 2964TIP3    H2 8857   3.369   0.630   3.055 -1.1149  0.4898 -2.1479
 2965TIP3   OH2 8858   6.371   4.701   3.852  0.0407 -0.1217 -0.3815
 2965TIP3    H1 8859   6.327   4.684   3.935  0.9798 -1.8001 -0.1801
 2965TIP3    H2 8860   6.458   4.734   3.876 -0.1137  0.5565 -0.7279
 2966TIP3   OH2 8861   3.994   2.355   3.919 -0.0726  0.0699 -0.1091
 2966TIP3    H1 8862   4.004   2.349   3.824  0.1696 -1.1767 -0.0260
 2966TIP3    H2 8863   3.998   2.264   3.949  0.8590  0.5161  1.1940
 2967TIP3   OH2 8864   2.372   0.249   4.601 -0.2356 -0.1613  0.6357
 2967TIP3    H1 8865   2.319   0.169   4.599 -0.3540 -0.0675 -0.4639
 2967TIP3    H2 8866   2.319   0.315   4.556 -0.7283  0.9380  2.7268
 2968TIP3   OH2 8867   3.486   3.971   3.401 -0.3240  0.0146 -0.2111
 2968TIP3    H1 8868   3.544   4.029   3.352 -0.2301 -0.0017 -0.1208
 2968TIP3    H2 8869   3.453   3.909   3.337 -1.9996  1.3771 -0.7342
 2969TIP3   OH2 8870   4.974   4.802   0.922 -0.2044 -0.8424  0.0950
 2969TIP3    H1 8871   5.000   4.711   0.940 -3.4334 -2.3125 -1.6827
 2969TIP3    H2 8872   5.033   4.830   0.852 -1.2864 -2.9990 -1.8456
 2970TIP3   OH2 8873   3.025   4.110   1.711  0.3632  0.1272  0.4623
 2970TIP3    H1 8874   2.952   4.170   1.724  0.3075 -0.2136  1.8470
 2970TIP3    H2 8875   3.100   4.166   1.690 -0.1343  0.5241 -0.2769
 2971TIP3   OH2 8876   1.213   5.020   2.920 -0.0426  0.1058  0.9767
 2971TIP3    H1 8877   1.219   4.960   2.846 -1.6098  0.2279  0.7198
 2971TIP3    H2 8878   1.227   4.965   2.997  2.1354  0.0705  0.6034
 2972TIP3   OH2 8879   5.977   3.158   5.109  0.3551 -0.2858  0.2686
 2972TIP3    H1 8880   5.904   3.219   5.123  0.1869 -0.3379 -0.3481
 2972TIP3    H2 8881   6.028   3.163   5.190 -0.7995 -0.8998  1.0552
 2973TIP3   OH2 8882   3.420   2.421   4.001  0.4136  0.5121 -0.3787
 2973TIP3    H1 8883   3.348   2.479   3.977  0.5845  1.1534  0.5990
 2973TIP3    H2 8884   3.499   2.474   3.990  0.5422  0.6271  0.9114
 2974TIP3   OH2 8885   1.770   1.052   1.074  0.3234 -0.2369 -0.0340
 2974TIP3    H1 8886   1.810   1.068   1.160  0.0217  1.3378 -0.1558
 2974TIP3    H2 8887   1.816   1.112   1.015 -1.3049  0.6690 -0.4319
 2975TIP3   OH2 8888   3.385   5.835   2.471  0.1121  0.1894  0.2843
 2975TIP3    H1 8889   3.472   5.868   2.493  0.1716  0.3862 -0.2419
 2975TIP3    H2 8890   3.401   5.745   2.440 -0.1260 -0.6475  2.4296
 2976TIP3   OH2 8891   0.005   6.162   2.390 -0.7404  0.3678  0.0629
 2976TIP3    H1 8892   0.079   6.166   2.452 -1.9397  0.8469  1.5287
 2976TIP3    H2 8893   0.029   6.224   2.321 -0.2853  1.4176  1.1273
 2977TIP3   OH2 8894   3.769   2.473   3.542 -0.6377 -0.0633 -0.8583
 2977TIP3    H1 8895   3.775   2.518   3.458 -0.4089  1.1246 -0.2157
 2977TIP3    H2 8896   3.823   2.394   3.530 -0.4008  0.2199 -1.7418
 2978TIP3   OH2 8897   6.638   0.188   0.111  0.0704 -0.2883 -0.7055
 2978TIP3    H1 8898   6.679   0.220   0.031 -1.4585  1.0343 -0.9959
 2978TIP3    H2 8899   6.709   0.143   0.157  1.3776  0.3118 -2.0424
 2979TIP3   OH2 8900   2.079   3.899   3.381 -0.5898 -0.3296 -0.1867
 2979TIP3    H1 8901   1.988   3.930   3.379 -0.3032  0.5384 -0.3192
 2979TIP3    H2 8902   2.074   3.810   3.416 -1.2290  0.7380  2.7446
 2980TIP3   OH2 8903   0.383   1.182   4.290 -0.7239 -0.2806  0.7949
 2980TIP3    H1 8904   0.463   1.207   4.337 -0.8860 -0.2792  1.0744
 2980TIP3    H2 8905   0.327   1.259   4.297 -0.4640  0.0036 -0.0570
 2981TIP3   OH2 8906   6.565   2.167   0.689  0.1357 -0.1245 -0.5601
 2981TIP3    H1 8907   6.538   2.083   0.727 -0.3559  0.6181  0.8243
 2981TIP3    H2 8908   6.659   2.158   0.674  0.4729 -0.2819  1.4133
 2982TIP3   OH2 8909   1.671   4.817   3.218  0.4083 -0.0130 -0.5558
 2982TIP3    H1 8910   1.601   4.875   3.189  0.2751 -0.3376 -0.8730
 2982TIP3    H2 8911   1.680   4.751   3.149  1.0546  0.0495 -0.5449
 2983TIP3   OH2 8912   4.378   0.361   4.604  0.6336 -0.0823 -0.1911
 2983TIP3    H1 8913   4.306   0.310   4.642  1.4654  0.0643  1.6609
 2983TIP3    H2 8914   4.338   0.445   4.581 -0.0194 -0.3837 -0.1774
 2984TIP3   OH2 8915   4.474   4.052   4.084 -0.2545  0.3136 -0.1415
 2984TIP3    H1 8916   4.561   4.065   4.049 -0.1956  0.7599  0.1511
 2984TIP3    H2 8917   4.448   4.139   4.116 -0.5060  0.0350  0.4362
 2985TIP3   OH2 8918   1.989   3.001   2.854 -0.1671  0.0831 -0.1478
 2985TIP3    H1 8919   2.033   2.919   2.832 -0.1920  0.2093 -0.6990
 2985TIP3    H2 8920   2.059   3.058   2.885  0.3216  0.7246 -2.2726
 2986TIP3   OH2 8921   2.211   2.040   1.581  0.4237  0.1514 -0.1101
 2986TIP3    H1 8922   2.306   2.049   1.586  0.4170 -0.1768  0.8067
 2986TIP3    H2 8923   2.196   1.945   1.579  0.0956  0.1906  0.2998
 2987TIP3   OH2 8924   5.978   3.907   1.699  0.2894 -0.3896  0.1425
 2987TIP3    H1 8925   6.045   3.945   1.643  0.5488 -0.7323  0.2165
 2987TIP3    H2 8926   6.025   3.845   1.755 -0.2813 -1.7121 -0.7776
 2988TIP3   OH2 8927   4.816   3.517   0.353  0.2920  0.6398 -0.8485
 2988TIP3    H1 8928   4.874   3.448   0.322  0.9087  0.2935  0.9730
 2988TIP3    H2 8929   4.733   3.501   0.308  0.8868 -0.3148 -1.6409
 2989TIP3   OH2 8930   0.816   4.184   0.824  0.3808  0.2648 -0.4185
 2989TIP3    H1 8931   0.842   4.098   0.857 -1.3555 -1.4447 -3.0607
 2989TIP3    H2 8932   0.824   4.243   0.899  0.4802 -2.4251  1.8266
 2990TIP3   OH2 8933   0.517   1.568   3.807  0.2351  0.3903  0.4613
 2990TIP3    H1 8934   0.449   1.558   3.741  0.0531 -0.1819  0.7342
 2990TIP3    H2 8935   0.513   1.488   3.859  2.3801 -0.5733 -0.6868
 2991TIP3   OH2 8936   1.259   0.959   1.951  0.6349 -0.3483  0.5286
 2991TIP3    H1 8937   1.303   1.003   1.878 -1.2405  0.8426  0.0638
 2991TIP3    H2 8938   1.231   1.030   2.008  0.6374 -1.1806  1.6031
 2992TIP3   OH2 8939   4.390   4.830   5.636 -0.3326 -0.2553 -0.2505
 2992TIP3    H1 8940   4.401   4.748   5.684  1.7768  0.7335  1.1292
 2992TIP3    H2 8941   4.479   4.867   5.631 -1.5594  4.0129  3.1695
 2993TIP3   OH2 8942   1.406   1.888   4.378 -0.2801  0.3395  0.0424
 2993TIP3    H1 8943   1.499   1.889   4.401 -0.2416  0.5944 -0.1158
 2993TIP3    H2 8944   1.363   1.934   4.451 -0.3317 -0.1388  0.3154
 2994TIP3   OH2 8945   3.398   4.590   2.360  0.0299 -0.1037 -0.3733
 2994TIP3    H1 8946   3.313   4.580   2.403  0.0805  0.6366 -0.0939
 2994TIP3    H2 8947   3.377   4.624   2.273  0.0647  0.6034 -0.1128
 2995TIP3   OH2 8948   1.471   4.549   0.309  0.7106 -0.1179  0.3946
 2995TIP3    H1 8949   1.553   4.499   0.306 -0.2908 -1.8529  0.5148
 2995TIP3    H2 8950   1.406   4.490   0.270 -0.8610  0.4715  2.0054
 2996TIP3   OH2 8951   3.230   5.360   5.512  0.6798  0.1090  0.0844
 2996TIP3    H1 8952   3.239   5.437   5.455 -0.2540 -0.5329 -0.9575
 2996TIP3    H2 8953   3.215   5.287   5.452 -2.5632 -0.2829  1.1792
 2997TIP3   OH2 8954   0.804   5.170   2.905  0.6739 -0.3843  0.0391
 2997TIP3    H1 8955   0.818   5.082   2.869  0.5485 -0.3496 -0.0954
 2997TIP3    H2 8956   0.891   5.211   2.904  0.4454  0.1063 -1.5195
 2998TIP3   OH2 8957   1.129   4.588   3.189  0.3581 -0.2724 -0.6107
 2998TIP3    H1 8958   1.218   4.557   3.176  0.6273  0.5289 -0.7742
 2998TIP3    H2 8959   1.099   4.610   3.101 -0.1411 -0.8971 -0.6004
 2999TIP3   OH2 8960   1.906   3.295   4.245  0.4622  0.2033 -0.0242
 2999TIP3    H1 8961   1.850   3.361   4.205  0.3640  0.8264  1.0936
 2999TIP3    H2 8962   1.846   3.224   4.269  0.6788 -0.6740 -1.9277
 3000TIP3   OH2 8963   6.980   1.030   3.266  0.3547 -0.0282 -0.1889
 3000TIP3    H1 8964   7.006   1.117   3.237 -1.6471  0.1965 -1.5475
 3000TIP3    H2 8965   6.884   1.032   3.264  0.2141 -1.6934  1.5583
 3001TIP3   OH2 8966   4.925   4.708   2.583  0.6799  1.0684 -0.4289
 3001TIP3    H1 8967   5.015   4.731   2.558  0.5214  1.1788 -0.9237
 3001TIP3    H2 8968   4.908   4.760   2.661  1.1626  0.7876 -0.1346
 3002TIP3   OH2 8969   4.718   2.228   1.963 -0.8749  0.0519  0.6718
 3002TIP3    H1 8970   4.755   2.316   1.958 -1.3311  0.2824  1.1745
 3002TIP3    H2 8971   4.794   2.171   1.970 -0.5686  0.3868  0.1066
 3003TIP3   OH2 8972   5.795   6.110   0.784  0.3136 -1.1289  0.0523
 3003TIP3    H1 8973   5.869   6.096   0.843  1.0624 -1.2311 -0.8932
 3003TIP3    H2 8974   5.834   6.141   0.703 -0.4203 -3.4575 -1.2790
 3004TIP3   OH2 8975   3.518   2.777   4.440  0.2739  0.0592  0.4517
 3004TIP3    H1 8976   3.477   2.742   4.361  1.7299 -0.3905 -0.1371
 3004TIP3    H2 8977   3.498   2.713   4.508  0.0279 -0.1705  0.1663
 3005TIP3   OH2 8978   5.136   6.620   0.467 -0.1291  0.3130  0.5070
 3005TIP3    H1 8979   5.205   6.672   0.509  0.0980  0.6372 -0.2397
 3005TIP3    H2 8980   5.178   6.537   0.446  0.3276  0.8233 -0.7439
 3006TIP3   OH2 8981   5.249   1.305   3.036 -0.1429  0.9247  0.3645
 3006TIP3    H1 8982   5.176   1.312   2.974 -0.7530  1.0898  1.0867
 3006TIP3    H2 8983   5.226   1.365   3.107 -0.5017 -0.8075  1.7829
 3007TIP3   OH2 8984   4.635   6.320   1.280 -0.2862  0.0214  0.0481
 3007TIP3    H1 8985   4.556   6.321   1.334 -0.8833 -0.9753 -0.7730
 3007TIP3    H2 8986   4.651   6.227   1.263 -0.7505  0.3115 -2.3762
 3008TIP3   OH2 8987   7.151   6.379   3.401  0.1531 -0.8282 -0.1651
 3008TIP3    H1 8988   7.212   6.440   3.359  0.4058 -1.4708 -0.7418
 3008TIP3    H2 8989   7.103   6.433   3.463  0.6250 -0.1102 -0.4100
 3009TIP3   OH2 8990   2.697   2.037   2.044  0.4664 -0.0936 -0.3772
 3009TIP3    H1 8991   2.752   2.037   2.122  0.5710 -0.9550 -0.4328
 3009TIP3    H2 8992   2.757   2.054   1.972  0.6059 -0.6686 -0.4008
 3010TIP3   OH2 8993   1.029   0.334   1.639 -0.1213  0.7168 -0.6019
 3010TIP3    H1 8994   0.990   0.277   1.706 -0.0986 -0.4081 -1.5092
 3010TIP3    H2 8995   0.958   0.394   1.616 -0.1777  1.0145  0.3173
 3011TIP3   OH2 8996   4.003   4.501   0.545 -0.6120  0.0288 -0.3016
 3011TIP3    H1 8997   3.999   4.566   0.616 -2.6432 -0.8192  0.4287
 3011TIP3    H2 8998   3.923   4.515   0.495 -0.1940 -0.7366 -1.2119
 3012TIP3   OH2 8999   3.195   3.810   3.567 -0.5038 -0.2469  0.2013
 3012TIP3    H1 9000   3.179   3.716   3.580  1.0026 -0.6796 -0.8563
 3012TIP3    H2 9001   3.184   3.848   3.655  1.1282 -1.7913  1.1591
 3013TIP3   OH2 9002   3.199   3.155   2.040 -0.1589  0.1769 -0.5850
 3013TIP3    H1 9003   3.207   3.062   2.064  0.0733  0.7440  1.8493
 3013TIP3    H2 9004   3.113   3.163   2.000 -0.7907 -0.8629  0.5156
 3014TIP3   OH2 9005   0.877   2.138   0.337  0.3929  0.0082  0.5365
 3014TIP3    H1 9006   0.793   2.128   0.383  0.2995  0.7543  0.5421
 3014TIP3    H2 9007   0.855   2.129   0.245  0.4731 -0.8114  0.5896
 3015TIP3   OH2 9008   0.673   1.054   3.323  0.0969  0.2826  0.0520
 3015TIP3    H1 9009   0.724   1.129   3.352 -0.4448 -0.2386  2.5372
 3015TIP3    H2 9010   0.738   0.995   3.284  0.8319  1.1626 -0.0815
 3016TIP3   OH2 9011   0.393   3.714   1.278  0.1327  0.2758  0.5027
 3016TIP3    H1 9012   0.349   3.630   1.262 -1.8271  1.5336 -1.2150
 3016TIP3    H2 9013   0.330   3.764   1.330 -0.8026  2.2773 -2.3530
 3017TIP3   OH2 9014   1.091   4.387   5.168  0.2501  0.1610 -0.5726
 3017TIP3    H1 9015   1.075   4.400   5.262 -1.9140 -2.7253 -0.4153
 3017TIP3    H2 9016   1.173   4.337   5.165  0.7253  0.9110 -0.2913
 3018TIP3   OH2 9017   3.308   5.658   2.961  0.1634 -0.3379  0.8240
 3018TIP3    H1 9018   3.353   5.668   2.877 -3.2083  0.5912 -1.0535
 3018TIP3    H2 9019   3.345   5.727   3.017  0.5251  0.8921 -0.8544
 3019TIP3   OH2 9020   5.017   1.189   2.164  0.0332 -0.2915 -0.0334
 3019TIP3    H1 9021   5.107   1.201   2.133 -0.9072 -0.0762 -2.9321
 3019TIP3    H2 9022   4.981   1.277   2.170 -0.0721 -0.3845  1.0144
 3020TIP3   OH2 9023   2.750   2.875   2.818  0.0110 -0.5815  0.1559
 3020TIP3    H1 9024   2.745   2.829   2.734 -2.2092  0.7161 -0.4942
 3020TIP3    H2 9025   2.801   2.954   2.799 -2.1581  0.7183 -0.5425
 3021TIP3   OH2 9026   1.313   4.933   4.117  0.0278  0.1994 -0.1979
 3021TIP3    H1 9027   1.336   4.845   4.148  1.0430  0.2849 -0.6650
 3021TIP3    H2 9028   1.357   4.992   4.177  0.7424  0.3729 -0.8818
 3022TIP3   OH2 9029   5.425   1.412   0.760 -0.8422 -0.1664  0.3189
 3022TIP3    H1 9030   5.335   1.384   0.775 -0.6748 -0.1233  1.5167
 3022TIP3    H2 9031   5.452   1.451   0.843 -1.1226  3.8356 -1.2068
 3023TIP3   OH2 9032   0.186   6.133   4.927 -0.9807 -0.2277  0.1011
 3023TIP3    H1 9033   0.210   6.218   4.892 -2.4576  1.2519  2.4501
 3023TIP3    H2 9034   0.137   6.091   4.856 -0.4983  0.9922 -0.9911
 3024TIP3   OH2 9035   0.090   4.740   3.258 -0.0913 -0.3814  0.4063
 3024TIP3    H1 9036   0.100   4.797   3.335 -2.4440 -1.6752  1.7638
 3024TIP3    H2 9037   0.138   4.661   3.281  0.3670 -0.2516 -0.0755
 3025TIP3   OH2 9038   1.258   3.949   1.319  0.0793 -0.0385  0.1816
 3025TIP3    H1 9039   1.179   4.003   1.309 -0.5461 -0.7351  1.1888
 3025TIP3    H2 9040   1.330   4.012   1.319 -0.6487  0.8256  1.5415
 3026TIP3   OH2 9041   5.062   5.731   1.836 -0.2599  0.0615 -1.2132
 3026TIP3    H1 9042   5.076   5.704   1.927 -2.5516  0.5997 -0.6232
 3026TIP3    H2 9043   5.080   5.653   1.785  0.4269 -0.4419 -0.2323
 3027TIP3   OH2 9044   5.654   2.509   5.663  0.4087  0.0152  0.5314
 3027TIP3    H1 9045   5.646   2.435   5.603  0.1346  1.3078 -1.0906
 3027TIP3    H2 9046   5.748   2.529   5.664  0.4169 -0.0232  0.5685
 3028TIP3   OH2 9047   2.878   3.517   3.897 -0.2357 -0.0493 -0.6046
 3028TIP3    H1 9048   2.911   3.471   3.975  0.7809 -0.0658 -1.0315
 3028TIP3    H2 9049   2.783   3.502   3.899 -0.3110  0.3994  0.9245
 3029TIP3   OH2 9050   1.508   2.379   5.552 -0.5210  0.0796  0.0708
 3029TIP3    H1 9051   1.422   2.372   5.511 -1.2306 -1.6854  1.7326
 3029TIP3    H2 9052   1.506   2.463   5.598 -1.1258  0.3234 -0.3878
 3030TIP3   OH2 9053   6.184   6.206   2.882  0.0935 -0.2327  0.4615
 3030TIP3    H1 9054   6.131   6.127   2.877 -0.7727  0.4016 -1.2786
 3030TIP3    H2 9055   6.183   6.230   2.975 -2.0927 -0.6540  0.6038
 3031TIP3   OH2 9056   3.339   2.370   3.232  0.2727 -0.4462  0.0741
 3031TIP3    H1 9057   3.392   2.304   3.277  1.8977  0.2301 -0.7581
 3031TIP3    H2 9058   3.398   2.407   3.166  0.3161  3.5747  2.0647
 3032TIP3   OH2 9059   2.488   1.820   1.264  0.2245  0.4164 -0.2566
 3032TIP3    H1 9060   2.572   1.781   1.288 -0.6823 -1.3944  0.0925
 3032TIP3    H2 9061   2.483   1.808   1.169  0.6752  1.2560 -0.4064
 3033TIP3   OH2 9062   2.752   4.711   0.273  0.3876  0.0129 -0.2312
 3033TIP3    H1 9063   2.809   4.678   0.342  1.5136 -1.1381 -1.6520
 3033TIP3    H2 9064   2.715   4.633   0.232 -2.3238  0.7102  0.6424
 3034TIP3   OH2 9065   5.671   0.042   1.726  0.2071 -0.4280 -0.2067
 3034TIP3    H1 9066   5.734   0.053   1.655  0.7832 -0.7099  0.2432
 3034TIP3    H2 9067   5.591   0.011   1.684  0.7785 -1.3348 -0.6486
 3035TIP3   OH2 9068   5.398   4.608   2.710 -0.0990  0.6913  0.0979
 3035TIP3    H1 9069   5.431   4.695   2.733  1.0805  0.3913 -0.3713
 3035TIP3    H2 9070   5.428   4.593   2.620  1.2472 -0.8586  0.7305
 3036TIP3   OH2 9071   3.253   6.710   2.202 -0.7565  0.1050 -0.9686
 3036TIP3    H1 9072   3.305   6.702   2.122 -3.0331  0.7148 -2.6122
 3036TIP3    H2 9073   3.209   6.626   2.211  0.3137 -0.3423  0.2997
 3037TIP3   OH2 9074   5.177   4.160   1.706  0.1015  0.6627 -0.4147
 3037TIP3    H1 9075   5.124   4.092   1.748 -0.4057  0.9048 -0.6493
 3037TIP3    H2 9076   5.126   4.185   1.629  0.4032  1.1332 -0.4643
 3038TIP3   OH2 9077   5.839   4.534   4.279  0.4862  0.2086  0.3625
 3038TIP3    H1 9078   5.917   4.537   4.223  0.6879  0.3819  0.6521
 3038TIP3    H2 9079   5.873   4.542   4.368  0.2218 -0.7624  0.5636
 3039TIP3   OH2 9080   5.533   4.160   4.967 -0.6393 -0.5105  0.3183
 3039TIP3    H1 9081   5.498   4.184   4.882  0.2381 -0.5465 -0.0621
 3039TIP3    H2 9082   5.521   4.238   5.021 -1.3285 -0.5370  0.2079
 3040TIP3   OH2 9083   1.473   2.743   3.173 -0.3315 -0.0233  0.6728
 3040TIP3    H1 9084   1.526   2.718   3.097  0.2316  0.1718  0.9979
 3040TIP3    H2 9085   1.487   2.837   3.182  0.0838 -0.1483  1.3793
 3041TIP3   OH2 9086   6.917   4.246   3.330  1.2386 -0.3469 -0.2235
 3041TIP3    H1 9087   6.873   4.322   3.290  0.8625  0.5602  1.7994
 3041TIP3    H2 9088   6.974   4.283   3.396  2.3231 -1.7670 -0.3202
 3042TIP3   OH2 9089   1.061   1.321   3.631  0.1981  0.2838 -0.4140
 3042TIP3    H1 9090   1.071   1.246   3.573 -2.3816  0.2782 -0.9707
 3042TIP3    H2 9091   1.146   1.364   3.631  1.1247 -1.4589 -1.7419
 3043TIP3   OH2 9092   3.092   1.446   1.227  0.5749  0.3823  0.0955
 3043TIP3    H1 9093   3.053   1.381   1.286  1.2831  0.0725  0.2368
 3043TIP3    H2 9094   3.177   1.409   1.205  0.3577  0.5437 -1.0559
 3044TIP3   OH2 9095   5.774   5.594   2.520  0.2083 -0.3915 -0.5477
 3044TIP3    H1 9096   5.865   5.622   2.535 -0.2375  1.3178 -0.8697
 3044TIP3    H2 9097   5.752   5.631   2.435 -0.2908 -2.1740 -1.2200
 3045TIP3   OH2 9098   1.665   3.716   0.164 -0.3344  0.0661 -0.2320
 3045TIP3    H1 9099   1.581   3.730   0.207 -0.3908 -0.3808 -0.1975
 3045TIP3    H2 9100   1.646   3.658   0.091 -0.0939  0.1373 -0.3529
 3046TIP3   OH2 9101   5.530   3.694   3.113 -0.0862  0.2151  0.1738
 3046TIP3    H1 9102   5.497   3.712   3.200  2.0693  1.1310  0.8549
 3046TIP3    H2 9103   5.598   3.628   3.126 -1.0407 -1.1108 -1.0998
 3047TIP3   OH2 9104   1.928   2.418   0.138 -0.4726 -0.0539  0.5218
 3047TIP3    H1 9105   1.849   2.468   0.159  1.1597  2.7695  0.3885
 3047TIP3    H2 9106   1.950   2.373   0.220 -1.8350 -0.3949  0.7302
 3048TIP3   OH2 9107   5.653   0.310   5.560 -0.0882 -0.0362 -0.3229
 3048TIP3    H1 9108   5.619   0.255   5.489 -0.1175 -1.9069  1.0740
 3048TIP3    H2 9109   5.735   0.344   5.526 -1.4036  1.4000 -2.2780
 3049TIP3   OH2 9110   4.197   2.383   3.288 -0.2846 -0.4677  0.2601
 3049TIP3    H1 9111   4.136   2.394   3.215 -0.4221  0.9716  0.5759
 3049TIP3    H2 9112   4.281   2.414   3.255  0.3223 -2.4029 -0.1570
 3050TIP3   OH2 9113   0.465   3.117   1.403  0.5308  0.2835  0.2381
 3050TIP3    H1 9114   0.496   3.076   1.483  1.2622 -0.0801 -0.2235
 3050TIP3    H2 9115   0.489   3.209   1.412 -1.5552  0.7697  1.4976
 3051TIP3   OH2 9116   2.825   4.181   5.380  0.0711 -0.2939  0.3292
 3051TIP3    H1 9117   2.877   4.241   5.433  0.9981 -1.7791  1.1573
 3051TIP3    H2 9118   2.735   4.212   5.391  0.3481  0.0461  1.9909
 3052TIP3   OH2 9119   1.932   1.586   3.747 -0.4507 -0.2129 -0.1657
 3052TIP3    H1 9120   1.972   1.653   3.693  1.6146 -1.9735 -0.9441
 3052TIP3    H2 9121   1.873   1.538   3.688  1.9966 -2.2999 -1.1077
 3053TIP3   OH2 9122   0.715   4.762   0.024 -0.0938 -0.3559 -0.3430
 3053TIP3    H1 9123   0.725   4.857   0.026 -0.4097 -0.2800 -1.7315
 3053TIP3    H2 9124   0.800   4.729   0.055 -0.2970  0.3554  1.0707
 3054TIP3   OH2 9125   3.080   5.825   1.785 -0.0197  0.1958 -0.4843
 3054TIP3    H1 9126   3.029   5.788   1.857 -0.1934  2.5107  0.6746
 3054TIP3    H2 9127   3.155   5.766   1.776 -1.8857 -2.2439 -0.9976
 3055TIP3   OH2 9128   4.754   6.798   4.825  1.0110 -0.4132 -0.1687
 3055TIP3    H1 9129   4.701   6.844   4.759  0.7306  0.2848  0.5270
 3055TIP3    H2 9130   4.726   6.707   4.820  0.6024 -0.2645 -0.6301
 3056TIP3   OH2 9131   3.510   3.526   0.284  0.3759  0.1089  0.1032
 3056TIP3    H1 9132   3.598   3.493   0.303  0.0505 -0.8446  0.0111
 3056TIP3    H2 9133   3.453   3.485   0.349 -0.3585 -1.2225 -1.3015
 3057TIP3   OH2 9134   4.851   2.763   4.784 -0.0267 -0.2814  0.4947
 3057TIP3    H1 9135   4.917   2.728   4.724  1.6956 -0.4069  2.3588
 3057TIP3    H2 9136   4.768   2.733   4.748  0.9707 -0.8946 -1.4433
 3058TIP3   OH2 9137   4.887   1.878   5.143  0.4012 -0.2952 -0.0935
 3058TIP3    H1 9138   4.944   1.914   5.075 -0.3903  2.2869  0.4776
 3058TIP3    H2 9139   4.945   1.828   5.200  1.5621 -0.0998 -1.0582
 3059TIP3   OH2 9140   3.613   3.432   5.394 -0.4944  0.6590 -0.4259
 3059TIP3    H1 9141   3.565   3.394   5.468 -0.0709 -0.9550 -0.9222
 3059TIP3    H2 9142   3.547   3.441   5.325 -0.8797  2.1244  0.1197
 3060TIP3   OH2 9143   4.938   2.598   5.090 -0.0060  0.2568 -0.5362
 3060TIP3    H1 9144   4.924   2.551   5.172  1.6123  0.1304 -0.3052
 3060TIP3    H2 9145   4.985   2.678   5.116  0.6726  0.1330 -1.3514
 3061TIP3   OH2 9146   1.437   6.615  -0.010 -0.2432  0.3149  0.0661
 3061TIP3    H1 9147   1.375   6.615   0.063 -1.6828  1.0451 -1.1165
 3061TIP3    H2 9148   1.517   6.652   0.028 -0.8869  0.4789  1.3315
 3062TIP3   OH2 9149   1.895   2.878   1.098 -0.2256  0.3420 -0.2967
 3062TIP3    H1 9150   1.919   2.817   1.028 -2.9553  0.7111 -1.7095
 3062TIP3    H2 9151   1.843   2.945   1.054 -1.5159  0.9507  1.9988
 3063TIP3   OH2 9152   5.851   0.220   1.111 -0.4731  0.4115 -1.2627
 3063TIP3    H1 9153   5.762   0.187   1.099 -0.6045 -1.2603  2.7470
 3063TIP3    H2 9154   5.907   0.146   1.090 -0.3166  0.0531  0.3378
 3064TIP3   OH2 9155   5.264   4.681   3.617 -0.2333  0.0267  0.7389
 3064TIP3    H1 9156   5.244   4.759   3.566  2.8775 -0.2761 -1.2253
 3064TIP3    H2 9157   5.225   4.609   3.568  2.5538 -0.2385 -1.3258
 3065TIP3   OH2 9158   6.965   0.552   2.014 -0.3657 -0.5799  0.0073
 3065TIP3    H1 9159   6.926   0.465   2.023 -1.9155  0.0213 -0.5810
 3065TIP3    H2 9160   6.924   0.604   2.084  0.2969 -0.2193  0.1444
 3066TIP3   OH2 9161   2.662   4.743   2.404 -0.0386  0.2590  0.0126
 3066TIP3    H1 9162   2.696   4.703   2.324  1.2824 -0.9406  1.1311
 3066TIP3    H2 9163   2.614   4.820   2.373 -0.2228 -0.5875 -1.9857
 3067TIP3   OH2 9164   0.602   6.248   0.271 -0.3836  0.3538 -0.2361
 3067TIP3    H1 9165   0.538   6.199   0.219  2.0726 -1.1513 -2.0626
 3067TIP3    H2 9166   0.684   6.236   0.224  1.5694  0.8967  2.8119
 3068TIP3   OH2 9167   5.762   6.334   3.649  0.5425 -0.6505  0.4499
 3068TIP3    H1 9168   5.839   6.287   3.618  0.2487 -1.9408  1.5681
 3068TIP3    H2 9169   5.716   6.271   3.705  0.2072  1.0203  2.1692
 3069TIP3   OH2 9170   0.467   1.359   0.615 -1.0492  0.1329 -0.4633
 3069TIP3    H1 9171   0.526   1.433   0.597 -0.3395 -0.5188 -0.8904
 3069TIP3    H2 9172   0.456   1.316   0.530 -0.9385 -0.6167 -0.1065
 3070TIP3   OH2 9173   2.185   4.945   1.923  0.0882  0.2228  0.5064
 3070TIP3    H1 9174   2.092   4.955   1.902 -0.0272 -1.5890 -0.0090
 3070TIP3    H2 9175   2.230   5.004   1.863 -0.6729  0.4982  0.1968
 3071TIP3   OH2 9176   6.291   4.240   0.385 -0.7545 -0.2543 -0.2006
 3071TIP3    H1 9177   6.355   4.224   0.454 -1.7179 -0.7785  0.6113
 3071TIP3    H2 9178   6.213   4.269   0.432 -0.9976  0.7810 -1.1896
 3072TIP3   OH2 9179   0.555   3.923   4.257  0.2157 -0.1497  0.2100
 3072TIP3    H1 9180   0.610   3.952   4.330 -0.6055  0.8931  0.4332
 3072TIP3    H2 9181   0.605   3.948   4.179  1.1269 -1.3274  0.3780
 3073TIP3   OH2 9182   2.511   6.367   3.432 -0.4309 -0.7966 -0.2544
 3073TIP3    H1 9183   2.534   6.458   3.413 -1.2977 -1.0160 -2.8091
 3073TIP3    H2 9184   2.479   6.368   3.522 -0.0015  1.3262 -0.0735
 3074TIP3   OH2 9185   1.923   2.552   5.713  0.0873  0.1622  0.2849
 3074TIP3    H1 9186   1.863   2.510   5.775 -0.9981  2.4033  0.8585
 3074TIP3    H2 9187   1.867   2.581   5.641  0.7637  0.6776 -0.0512
 3075TIP3   OH2 9188   2.191   2.209   5.425  0.3674  0.8227  0.1688
 3075TIP3    H1 9189   2.174   2.142   5.491 -1.6765 -0.1434 -1.2364
 3075TIP3    H2 9190   2.207   2.159   5.344 -0.2113  1.9994 -0.6983
 3076TIP3   OH2 9191   2.475   6.647   3.897 -0.1398 -0.2263  0.1509
 3076TIP3    H1 9192   2.407   6.714   3.905  0.7113  0.5798  0.8686
 3076TIP3    H2 9193   2.557   6.695   3.905  0.5303 -1.1920 -0.6433
 3077TIP3   OH2 9194   1.181   5.510   4.403 -0.1847  0.4503  0.2026
 3077TIP3    H1 9195   1.156   5.455   4.330  1.1801 -0.5046  0.4181
 3077TIP3    H2 9196   1.220   5.588   4.363  2.4514 -0.9493 -0.1872
 3078TIP3   OH2 9197   1.563   1.238   1.396  0.0200 -0.6016 -0.4476
 3078TIP3    H1 9198   1.497   1.307   1.392  0.4943 -0.0641  0.5242
 3078TIP3    H2 9199   1.513   1.158   1.408 -0.5296 -0.4269 -1.4482
 3079TIP3   OH2 9200   6.693   0.646   4.357 -0.3410 -0.7367  0.4198
 3079TIP3    H1 9201   6.784   0.654   4.327 -0.1742 -3.0615  0.0987
 3079TIP3    H2 9202   6.663   0.736   4.367  1.1247  0.1584 -2.1220
 3080TIP3   OH2 9203   3.471   4.574   1.419 -1.0412 -0.2892  0.3398
 3080TIP3    H1 9204   3.475   4.556   1.325  1.2882 -0.4852  0.4299
 3080TIP3    H2 9205   3.496   4.491   1.459  0.0669  0.3770  1.0580
 3081TIP3   OH2 9206   6.967   4.262   2.542  0.4735 -0.0868  0.0040
 3081TIP3    H1 9207   7.050   4.225   2.512 -0.2111 -1.2671 -0.5002
 3081TIP3    H2 9208   6.901   4.202   2.510 -0.5445  0.4809  0.9643
 3082TIP3   OH2 9209   1.286   1.287   5.271 -0.4084 -0.2551  0.4364
 3082TIP3    H1 9210   1.259   1.288   5.363 -1.1829  0.9629  0.2218
 3082TIP3    H2 9211   1.367   1.337   5.269  0.2129 -1.2225  0.6013
 3083TIP3   OH2 9212   2.744   4.468   0.191 -0.6354 -0.3433 -0.2341
 3083TIP3    H1 9213   2.834   4.464   0.225 -0.6248  0.9737 -0.0560
 3083TIP3    H2 9214   2.702   4.389   0.224  0.6013 -1.2601 -0.7663
 3084TIP3   OH2 9215   2.468   2.451   0.588 -0.1707  0.2979 -0.2381
 3084TIP3    H1 9216   2.551   2.485   0.553  0.5447 -1.2903 -0.1413
 3084TIP3    H2 9217   2.400   2.497   0.538  0.6931  2.5691  0.5281
 3085TIP3   OH2 9218   0.584   0.410   4.079  0.3826 -0.2690  0.0457
 3085TIP3    H1 9219   0.657   0.353   4.101  1.5022  1.4990  1.2182
 3085TIP3    H2 9220   0.576   0.469   4.154 -1.5485  0.2917 -0.5358
 3086TIP3   OH2 9221  -0.007   5.413   2.419 -0.1275 -0.6970 -0.3192
 3086TIP3    H1 9222  -0.065   5.418   2.343  0.5358 -0.6211 -0.8287
 3086TIP3    H2 9223   0.079   5.441   2.386  0.6542 -2.6168 -0.0392
 3087TIP3   OH2 9224   4.282   2.671   2.979  0.4635 -0.8857 -0.1202
 3087TIP3    H1 9225   4.213   2.694   3.042 -0.2129  1.2049 -1.5061
 3087TIP3    H2 9226   4.234   2.639   2.903  1.2253 -2.3795  0.0004
 3088TIP3   OH2 9227   1.237   2.811   1.639 -0.4994 -0.3445 -0.1390
 3088TIP3    H1 9228   1.149   2.807   1.675 -0.0896  0.4410  1.0055
 3088TIP3    H2 9229   1.225   2.796   1.545 -2.1276  1.9852 -0.3934
 3089TIP3   OH2 9230   6.500   2.480   3.360 -0.2133 -0.0837  0.0046
 3089TIP3    H1 9231   6.581   2.527   3.377 -0.5330  0.4580  0.0375
 3089TIP3    H2 9232   6.452   2.534   3.298 -0.2258 -0.7691 -0.5966
 3090TIP3   OH2 9233   1.829   4.609   0.076  0.2311 -0.4094  0.4873
 3090TIP3    H1 9234   1.739   4.621   0.045  0.3095 -0.6628  0.1588
 3090TIP3    H2 9235   1.880   4.675   0.027  0.3048 -0.6016  0.3045
 3091TIP3   OH2 9236   5.720   6.118   3.976 -0.1232 -0.1299  0.6382
 3091TIP3    H1 9237   5.701   6.054   4.045  0.3863 -1.5496 -0.4872
 3091TIP3    H2 9238   5.808   6.149   3.996  1.1538 -2.5366 -0.7619
 3092TIP3   OH2 9239   5.609   0.505   4.388  0.1749 -0.3006  0.4453
 3092TIP3    H1 9240   5.626   0.493   4.482 -0.1204  0.2875  0.5763
 3092TIP3    H2 9241   5.614   0.417   4.351 -0.1229 -0.5863  1.0798
 3093TIP3   OH2 9242   1.739   5.431   3.120 -0.1551  0.1606  0.0457
 3093TIP3    H1 9243   1.744   5.337   3.138  0.2081  0.3733  1.0979
 3093TIP3    H2 9244   1.646   5.448   3.107 -0.1778 -0.4196 -0.6312
 3094TIP3   OH2 9245   5.264   6.355   4.367  0.3864  0.0625 -0.1200
 3094TIP3    H1 9246   5.293   6.391   4.283 -0.8328  1.6923  0.0973
 3094TIP3    H2 9247   5.332   6.381   4.429  0.1037  1.0067 -0.1864
 3095TIP3   OH2 9248   6.750   2.292   4.748  0.0856  0.3650 -0.2810
 3095TIP3    H1 9249   6.828   2.240   4.765 -0.9817 -0.3045  3.5310
 3095TIP3    H2 9250   6.742   2.349   4.825 -2.6420  1.1194 -1.0027
 3096TIP3   OH2 9251   2.405   6.633   4.435 -0.3544  0.3856 -0.7183
 3096TIP3    H1 9252   2.374   6.715   4.396 -0.4844  0.1473 -1.1282
 3096TIP3    H2 9253   2.366   6.630   4.522 -0.3662  0.7489 -0.7106
 3097TIP3   OH2 9254   6.669   0.263   4.156  0.4970 -0.1407  0.3686
 3097TIP3    H1 9255   6.605   0.233   4.220  0.2276  0.3078  0.3097
 3097TIP3    H2 9256   6.716   0.183   4.131 -0.5853 -0.6256 -0.2099
 3098TIP3   OH2 9257   2.482   3.085   4.522 -0.3301 -0.0549  0.0519
 3098TIP3    H1 9258   2.484   2.994   4.552  0.0367 -0.4637 -1.1744
 3098TIP3    H2 9259   2.563   3.123   4.556  0.3336 -0.6546 -0.8521
 3099TIP3   OH2 9260   2.314   4.117   0.203  0.3293  0.2823  0.4857
 3099TIP3    H1 9261   2.378   4.066   0.252  1.5101 -0.7536 -1.9498
 3099TIP3    H2 9262   2.241   4.058   0.190  0.5632  0.1010 -0.0502
 3100TIP3   OH2 9263   6.951   3.333   1.831  0.0129 -0.1087  0.5478
 3100TIP3    H1 9264   6.896   3.411   1.837 -1.8721 -1.4562  2.1818
 3100TIP3    H2 9265   7.021   3.348   1.894  0.1033  0.5781  0.2887
 3101TIP3   OH2 9266   2.012   4.040   1.318  0.0485  0.0760  0.1366
 3101TIP3    H1 9267   1.943   3.984   1.356  0.8861  0.0220  1.6660
 3101TIP3    H2 9268   1.996   4.126   1.356 -0.7935  0.7621 -1.6513
 3102TIP3   OH2 9269   6.089   0.209   2.521 -0.2967 -0.6574  0.0694
 3102TIP3    H1 9270   5.995   0.223   2.533 -0.6279 -2.2101 -0.5367
 3102TIP3    H2 9271   6.105   0.231   2.430  0.2338  0.9721  0.5146
 3103TIP3   OH2 9272   1.093   6.188   2.103 -0.1055 -0.1093  0.2286
 3103TIP3    H1 9273   0.999   6.179   2.117  0.1203 -2.5774  0.7062
 3103TIP3    H2 9274   1.103   6.197   2.008 -0.7948 -0.2319  0.1409
 3104TIP3   OH2 9275   6.460   2.172   0.184 -0.1474  0.1648  0.1178
 3104TIP3    H1 9276   6.521   2.213   0.246  3.6303 -2.2198 -1.6276
 3104TIP3    H2 9277   6.445   2.238   0.117  0.1389  0.9509  0.8089
 3105TIP3   OH2 9278   1.624   0.951   3.851 -0.9855 -0.1924  0.8526
 3105TIP3    H1 9279   1.698   1.001   3.887 -0.2786 -1.3313  1.0061
 3105TIP3    H2 9280   1.552   0.969   3.912 -0.4936 -0.0799  1.4112
 3106TIP3   OH2 9281   4.995   4.083   5.739  0.6718 -0.2011  0.3008
 3106TIP3    H1 9282   4.989   4.033   5.820  0.1596  0.0769  0.4427
 3106TIP3    H2 9283   4.978   4.019   5.670 -1.7897  0.0647  0.5682
 3107TIP3   OH2 9284   1.789   0.032   1.345 -0.6607  0.3123 -0.2552
 3107TIP3    H1 9285   1.854   0.098   1.371 -1.9947  1.5670  0.0327
 3107TIP3    H2 9286   1.841  -0.045   1.322  0.9883  1.5515 -0.9157
 3108TIP3   OH2 9287   6.593   2.622   2.676 -0.2858  0.5500  0.2059
 3108TIP3    H1 9288   6.573   2.559   2.606  0.7078  0.6375 -0.1673
 3108TIP3    H2 9289   6.533   2.597   2.747 -0.6138 -0.1738 -0.3017
 3109TIP3   OH2 9290   7.049   3.120   4.963  0.1986 -0.0221  0.6335
 3109TIP3    H1 9291   7.043   3.125   4.867 -1.1549 -0.5944  0.6684
 3109TIP3    H2 9292   7.084   3.205   4.989 -0.5439  0.5962 -0.2979
 3110TIP3   OH2 9293   6.281   1.048   5.534  0.7902  0.8556 -0.7727
 3110TIP3    H1 9294   6.225   1.080   5.604 -0.0213  2.8095 -2.2152
 3110TIP3    H2 9295   6.270   0.952   5.536  1.2087  0.7985  2.0078
 3111TIP3   OH2 9296   3.076   4.777   4.985 -0.4290 -0.3391 -0.2421
 3111TIP3    H1 9297   3.090   4.747   5.074 -0.4117 -0.1297 -0.1730
 3111TIP3    H2 9298   3.146   4.737   4.934 -1.2709 -1.6155 -0.4299
 3112TIP3   OH2 9299   0.635   4.661   4.040  0.6929  0.2098 -0.1431
 3112TIP3    H1 9300   0.591   4.580   4.014  0.3690  0.5959 -0.8306
 3112TIP3    H2 9301   0.641   4.656   4.135  0.0680 -0.3079 -0.1247
 3113TIP3   OH2 9302   3.026   4.621   0.079 -0.1276  0.5690  0.2169
 3113TIP3    H1 9303   2.955   4.593   0.021  0.6367  0.9132 -0.9092
 3113TIP3    H2 9304   3.059   4.701   0.040  0.0902  1.0924  1.4161
 3114TIP3   OH2 9305   0.124   6.554   5.551 -0.2651  0.2024  0.0770
 3114TIP3    H1 9306   0.092   6.495   5.620  0.6340  0.5745  0.8442
 3114TIP3    H2 9307   0.065   6.629   5.555 -1.0655 -0.3745 -0.5177
 3115TIP3   OH2 9308   5.729   6.327   2.606  0.3832  0.4345  0.0104
 3115TIP3    H1 9309   5.778   6.246   2.593  2.7450  1.9329 -1.0423
 3115TIP3    H2 9310   5.742   6.377   2.525 -1.3300  1.7270  0.4641
 3116TIP3   OH2 9311   2.700   3.224   5.548 -0.6307 -0.0137  0.3835
 3116TIP3    H1 9312   2.666   3.225   5.638 -0.3323  0.2369  0.4977
 3116TIP3    H2 9313   2.795   3.236   5.559 -0.3295 -1.9254  0.1458
 3117TIP3   OH2 9314   3.584   0.944   0.541  0.2938  0.1335 -0.2897
 3117TIP3    H1 9315   3.577   0.878   0.472 -0.3686  1.3573 -1.4455
 3117TIP3    H2 9316   3.502   0.994   0.534 -0.3541 -0.4245  2.1864
 3118TIP3   OH2 9317   4.295   1.125   5.132 -0.5198 -0.5932  0.0310
 3118TIP3    H1 9318   4.386   1.096   5.130  0.0317  0.9204  1.1104
 3118TIP3    H2 9319   4.249   1.065   5.073  1.3168 -0.8752 -1.1898
 3119TIP3   OH2 9320   6.393   0.749   0.002 -0.1111 -0.3979  0.0234
 3119TIP3    H1 9321   6.315   0.796   0.032 -0.9314 -1.2737 -0.6829
 3119TIP3    H2 9322   6.390   0.665   0.048  0.8047 -0.1771  0.5167
 3120TIP3   OH2 9323   5.376   5.291   2.446  0.1847 -0.1376  0.0630
 3120TIP3    H1 9324   5.465   5.289   2.411 -0.1421  0.4688 -0.8652
 3120TIP3    H2 9325   5.344   5.379   2.424 -0.7291 -0.4431  0.1362
 3121TIP3   OH2 9326   6.070   1.263   1.466  0.9320  0.4549  0.4501
 3121TIP3    H1 9327   5.974   1.267   1.464  0.8128 -1.5633 -0.4273
 3121TIP3    H2 9328   6.098   1.338   1.414 -0.2310  0.2684 -0.4832
 3122TIP3   OH2 9329   1.447   5.915   0.597  0.4782 -0.5785  0.0803
 3122TIP3    H1 9330   1.479   5.989   0.546  1.0484 -0.9589 -0.1217
 3122TIP3    H2 9331   1.515   5.848   0.587  0.5438 -0.6960  1.2455
 3123TIP3   OH2 9332   5.575   6.701   4.528 -0.5001  0.1617  0.2385
 3123TIP3    H1 9333   5.501   6.641   4.520 -0.4252  0.0200  0.5569
 3123TIP3    H2 9334   5.624   6.668   4.603 -0.4652  0.6307  0.4269
 3124TIP3   OH2 9335   6.567   5.883   5.817 -0.7490  0.2028  0.4438
 3124TIP3    H1 9336   6.476   5.895   5.790 -1.1597  0.2478  1.7583
 3124TIP3    H2 9337   6.599   5.971   5.836 -0.8607  0.0748  1.2604
 3125TIP3   OH2 9338   4.896   1.310   1.912  0.0129  0.6083 -0.2002
 3125TIP3    H1 9339   4.834   1.361   1.860  1.1348  0.6945 -1.5230
 3125TIP3    H2 9340   4.927   1.372   1.978  0.2708  1.2328 -0.8817
 3126TIP3   OH2 9341   0.489   5.444   1.034 -0.5778  0.0179 -0.1707
 3126TIP3    H1 9342   0.514   5.366   1.083  0.5071  0.9284  0.7781
 3126TIP3    H2 9343   0.458   5.505   1.100 -2.8071 -0.0873 -1.0514
 3127TIP3   OH2 9344   3.758   4.852   3.115  0.4707  0.0385  0.6139
 3127TIP3    H1 9345   3.729   4.775   3.067  0.8620 -0.0268  0.4763
 3127TIP3    H2 9346   3.845   4.829   3.148  0.8976  0.6639 -0.0296
 3128TIP3   OH2 9347   4.954   1.715   0.500 -0.0617  0.2248  0.5732
 3128TIP3    H1 9348   4.934   1.808   0.506  0.5928  0.4467 -0.3935
 3128TIP3    H2 9349   4.924   1.690   0.412  1.2249 -0.0895  0.1992
 3129TIP3   OH2 9350   6.321   0.364   2.693 -0.5081  0.8141  0.3795
 3129TIP3    H1 9351   6.263   0.397   2.625 -0.3954  0.2535  0.0062
 3129TIP3    H2 9352   6.366   0.442   2.726  0.4850  0.9390 -1.1777
 3130TIP3   OH2 9353   7.214   5.515   4.421  0.1055  0.5778  0.1526
 3130TIP3    H1 9354   7.243   5.601   4.389  1.1277  0.8441  1.6776
 3130TIP3    H2 9355   7.155   5.536   4.494 -1.3238 -0.0175 -0.8035
 3131TIP3   OH2 9356   2.460   0.580   3.579 -0.3355  0.3593 -0.3697
 3131TIP3    H1 9357   2.404   0.586   3.657 -1.0710  2.7262 -0.9844
 3131TIP3    H2 9358   2.530   0.643   3.595  1.8318 -2.0081  0.0450
 3132TIP3   OH2 9359   3.461   1.415   3.774 -0.0084  0.4246  0.4855
 3132TIP3    H1 9360   3.441   1.324   3.755 -0.0730  0.4851  0.2587
 3132TIP3    H2 9361   3.512   1.412   3.855 -1.6485  0.3406  1.5581
 3133TIP3   OH2 9362   0.869   2.873   0.818  0.4688  0.8184  0.2239
 3133TIP3    H1 9363   0.838   2.814   0.749  1.0677  1.6357 -0.7784
 3133TIP3    H2 9364   0.884   2.816   0.893 -1.3269  0.0801  0.0664
 3134TIP3   OH2 9365   5.625   5.072   1.125 -0.4263  0.0072 -0.4102
 3134TIP3    H1 9366   5.627   5.149   1.068 -1.4330 -0.3612 -0.9669
 3134TIP3    H2 9367   5.532   5.058   1.143 -0.3912 -1.9839 -1.5741
 3135TIP3   OH2 9368   2.163   4.990   3.143 -0.3242  0.2543  0.5571
 3135TIP3    H1 9369   2.225   4.996   3.216 -0.1327 -0.5676  0.4622
 3135TIP3    H2 9370   2.118   4.907   3.157  1.5519 -1.2556 -1.7167
 3136TIP3   OH2 9371   0.404   4.016   3.208  0.7972  0.3227  0.0371
 3136TIP3    H1 9372   0.425   3.965   3.286  1.2404  0.9946  0.3632
 3136TIP3    H2 9373   0.309   4.022   3.209  0.8234  0.7027  0.7693
 3137TIP3   OH2 9374   7.054   0.137   3.371 -0.0272  0.0357  0.2409
 3137TIP3    H1 9375   7.145   0.112   3.386  0.1336  0.9362  0.8773
 3137TIP3    H2 9376   7.035   0.108   3.281  1.0521  0.2906 -0.0825
 3138TIP3   OH2 9377   7.058   2.506   2.452 -0.2895  0.1217 -0.2585
 3138TIP3    H1 9378   7.123   2.459   2.400  0.9405 -1.4798  2.5606
 3138TIP3    H2 9379   7.083   2.599   2.442  1.9610 -0.3820  0.0872
 3139TIP3   OH2 9380   3.379   0.712   1.100 -0.1790 -0.0357 -0.3757
 3139TIP3    H1 9381   3.308   0.686   1.041 -1.4625  0.8196  0.7379
 3139TIP3    H2 9382   3.440   0.637   1.099 -1.0749 -0.7766 -1.3727
 3140TIP3   OH2 9383   3.349   3.708   1.727  0.3252  0.1746  1.1708
 3140TIP3    H1 9384   3.375   3.664   1.647  0.6787  0.7933  0.9431
 3140TIP3    H2 9385   3.255   3.723   1.717  0.4519  0.6295  0.6939
 3141TIP3   OH2 9386   2.458   6.714   0.104  0.4638 -0.1744 -0.4028
 3141TIP3    H1 9387   2.429   6.795   0.063 -1.1146  0.0792  1.1389
 3141TIP3    H2 9388   2.455   6.731   0.198 -1.2801 -2.4361  0.0358
 3142TIP3   OH2 9389   0.099   2.133   0.239 -0.2847 -0.5256  0.4112
 3142TIP3    H1 9390   0.194   2.149   0.240 -0.3907  0.6452 -2.0016
 3142TIP3    H2 9391   0.075   2.128   0.332  1.6995  2.0192  1.1704
 3143TIP3   OH2 9392   2.871   2.711   2.425 -0.1939 -0.0695 -0.3179
 3143TIP3    H1 9393   2.862   2.640   2.489  1.5465  1.0751  1.3010
 3143TIP3    H2 9394   2.817   2.781   2.459  0.1352  0.2864 -0.5210
 3144TIP3   OH2 9395   4.230   2.129   2.151 -0.3135  0.4952  0.0677
 3144TIP3    H1 9396   4.324   2.145   2.139 -0.3335 -0.1440 -1.0397
 3144TIP3    H2 9397   4.199   2.105   2.064 -1.1904 -0.8514  0.7361
 3145TIP3   OH2 9398   5.308   5.590   3.293  0.0229 -0.1205  0.6007
 3145TIP3    H1 9399   5.244   5.660   3.301  0.5584  0.3560  0.7161
 3145TIP3    H2 9400   5.281   5.525   3.358 -0.4662 -0.0271  0.4978
 3146TIP3   OH2 9401   3.121   3.249   0.963  0.3640 -0.2405  0.1909
 3146TIP3    H1 9402   3.152   3.173   1.012 -0.2629 -1.7601 -1.5944
 3146TIP3    H2 9403   3.200   3.286   0.924  0.6211 -0.3486  0.6086
 3147TIP3   OH2 9404   5.819   6.035   5.407  0.8211 -0.2726 -0.1060
 3147TIP3    H1 9405   5.833   5.966   5.342 -1.5488 -0.5265 -0.4199
 3147TIP3    H2 9406   5.813   6.115   5.356  0.7445 -0.2163 -0.0081
 3148TIP3   OH2 9407   5.047   1.491   5.836 -0.0797  0.0604 -0.4803
 3148TIP3    H1 9408   5.060   1.542   5.916  1.1005 -0.7605 -0.1195
 3148TIP3    H2 9409   5.037   1.401   5.865 -1.2857 -0.0512 -1.1682
 3149TIP3   OH2 9410   3.331   3.169   1.290 -0.2843  0.4399  0.1416
 3149TIP3    H1 9411   3.257   3.177   1.230  0.0001  0.2335 -0.2425
 3149TIP3    H2 9412   3.376   3.090   1.262  0.4604  0.9258 -0.0495
 3150TIP3   OH2 9413   0.313   5.542   1.751  0.1336  0.4137 -0.1440
 3150TIP3    H1 9414   0.224   5.571   1.774  0.1273  0.9275 -0.8080
 3150TIP3    H2 9415   0.357   5.534   1.836 -0.5044  0.2847  0.1865
 3151TIP3   OH2 9416   1.003   6.781   0.176 -0.8429  0.4949  0.0390
 3151TIP3    H1 9417   1.058   6.731   0.236  0.4775  2.1708  0.3358
 3151TIP3    H2 9418   0.915   6.776   0.214 -0.5184 -0.5631  0.6986
 3152TIP3   OH2 9419   0.667   2.886   2.914 -0.5725  0.3605  0.1313
 3152TIP3    H1 9420   0.756   2.918   2.897 -0.5389  0.1931 -0.0104
 3152TIP3    H2 9421   0.677   2.792   2.929 -0.7867  0.2436 -0.4221
 3153TIP3   OH2 9422   4.863   6.340   5.607  0.3595 -0.1028 -0.6927
 3153TIP3    H1 9423   4.800   6.339   5.535 -0.0547  0.2964 -0.3416
 3153TIP3    H2 9424   4.887   6.432   5.616  1.8074 -0.3675 -1.5118
 3154TIP3   OH2 9425   5.992   6.164   4.698 -0.0435 -0.4340 -0.4125
 3154TIP3    H1 9426   6.066   6.211   4.659 -0.3176  0.1765 -0.2114
 3154TIP3    H2 9427   6.032   6.106   4.763  0.2304  0.2325  0.0287
 3155TIP3   OH2 9428   5.516   2.662   0.520 -0.3452  0.1263  0.1948
 3155TIP3    H1 9429   5.581   2.666   0.590 -0.9568 -0.5214  0.8158
 3155TIP3    H2 9430   5.565   2.679   0.440  0.6772 -0.8295  0.6018
 3156TIP3   OH2 9431   6.802   3.535   2.967  0.1729  0.0916  0.8147
 3156TIP3    H1 9432   6.855   3.546   2.888  1.2636  0.3867  1.5538
 3156TIP3    H2 9433   6.757   3.618   2.977  1.0306  0.5265  1.1888
 3157TIP3   OH2 9434   0.399   2.871   5.834  0.3545 -0.0000  0.2929
 3157TIP3    H1 9435   0.408   2.852   5.741 -1.0944  2.3777 -0.4230
 3157TIP3    H2 9436   0.310   2.906   5.843  1.3677  2.4344  2.0138
 3158TIP3   OH2 9437   5.790   2.166   1.766  0.6273 -0.4079  0.5936
 3158TIP3    H1 9438   5.878   2.157   1.729  1.1207  2.5575  0.8135
 3158TIP3    H2 9439   5.731   2.145   1.694  1.5709  1.2931 -0.7377
 3159TIP3   OH2 9440   0.873   5.473   4.693 -0.5752 -0.0014  0.2689
 3159TIP3    H1 9441   0.869   5.466   4.789  1.3673  2.2675  0.6230
 3159TIP3    H2 9442   0.957   5.516   4.677 -2.4911  3.2148 -2.2094
 3160TIP3   OH2 9443   6.666   6.081   0.555  0.2950  0.6219 -0.2581
 3160TIP3    H1 9444   6.575   6.075   0.586 -0.2684 -0.1787 -1.9603
 3160TIP3    H2 9445   6.696   6.167   0.586 -0.1587 -0.0968  2.4740
 3161TIP3   OH2 9446   3.193   4.365   5.293 -0.1681 -0.3743 -0.0136
 3161TIP3    H1 9447   3.169   4.454   5.266 -1.8400 -0.4254  1.1390
 3161TIP3    H2 9448   3.252   4.377   5.367 -1.6023 -0.1866  1.1285
 3162TIP3   OH2 9449   0.624   3.557   1.772  0.1093  0.0902  0.0862
 3162TIP3    H1 9450   0.561   3.626   1.752  0.3183  0.4356  0.5850
 3162TIP3    H2 9451   0.706   3.604   1.788  0.2542 -0.2711  0.4275
 3163TIP3   OH2 9452   0.998   2.448   2.262  0.4993 -0.1825  0.3266
 3163TIP3    H1 9453   0.999   2.539   2.292  1.4629 -0.4387  1.1351
 3163TIP3    H2 9454   0.939   2.404   2.323  1.3668 -0.4227  1.0188
 3164TIP3   OH2 9455   5.263   5.279   5.289  0.3810 -0.2152 -0.2827
 3164TIP3    H1 9456   5.358   5.291   5.291  0.1654  1.9209 -0.7025
 3164TIP3    H2 9457   5.233   5.330   5.214 -1.1823 -0.0465  0.4037
 3165TIP3   OH2 9458   2.403   5.330   5.530 -0.5712  0.5983 -0.3572
 3165TIP3    H1 9459   2.333   5.265   5.524 -0.2312 -0.1283  2.2541
 3165TIP3    H2 9460   2.374   5.392   5.597  1.2399  0.2289  0.8575
 3166TIP3   OH2 9461   6.766   2.402   0.134  0.3653  0.3936 -0.0760
 3166TIP3    H1 9462   6.861   2.398   0.146  0.7155  0.3196 -2.4592
 3166TIP3    H2 9463   6.747   2.333   0.071 -1.2921  0.3794  0.4019
 3167TIP3   OH2 9464   7.055   1.570   1.611 -0.4257 -0.1701  0.1766
 3167TIP3    H1 9465   7.049   1.474   1.617 -1.2895 -0.0769  1.2735
 3167TIP3    H2 9466   6.973   1.596   1.570 -0.2665  0.1071  0.0371
 3168TIP3   OH2 9467   6.883   1.576   4.370 -0.6203  0.6933 -0.3195
 3168TIP3    H1 9468   6.844   1.507   4.315 -0.5044 -0.3658  0.8775
 3168TIP3    H2 9469   6.977   1.559   4.367 -0.6478  0.3268  0.5636
 3169TIP3   OH2 9470   0.033   4.485   2.023  0.2331  0.4253 -0.3985
 3169TIP3    H1 9471   0.075   4.420   2.078  1.7299  0.7998 -1.0465
 3169TIP3    H2 9472   0.090   4.561   2.027  0.6013  0.3638 -2.6679
 3170TIP3   OH2 9473   7.034   0.763   3.909 -0.0558  0.0958  0.0047
 3170TIP3    H1 9474   7.122   0.781   3.875  0.0619  0.1819  0.3549
 3170TIP3    H2 9475   7.034   0.669   3.928 -0.1785  0.0117 -0.3894
 3171TIP3   OH2 9476   2.126   0.188   5.356  0.0369 -0.1420 -0.3026
 3171TIP3    H1 9477   2.162   0.276   5.370 -1.4778  0.5967 -0.8689
 3171TIP3    H2 9478   2.202   0.136   5.329  1.1856  0.6912  1.1496
 3172TIP3   OH2 9479   1.168   1.952   0.958 -0.1620 -0.1690 -0.3308
 3172TIP3    H1 9480   1.217   2.015   1.011 -0.7644  1.2541 -1.3925
 3172TIP3    H2 9481   1.147   2.000   0.878  0.3296 -2.1057 -1.6775
 3173TIP3   OH2 9482   1.241   1.199   5.538  0.1913 -0.2053  0.6033
 3173TIP3    H1 9483   1.312   1.157   5.588  0.3856 -1.2741 -0.5413
 3173TIP3    H2 9484   1.181   1.128   5.517 -0.2241  0.3474 -0.1070
 3174TIP3   OH2 9485   0.850   1.044   2.286 -0.3531  0.1030 -0.0234
 3174TIP3    H1 9486   0.772   1.017   2.237 -0.7628 -0.9977  1.1864
 3174TIP3    H2 9487   0.846   0.993   2.367  2.4832 -1.1857 -0.6083
 3175TIP3   OH2 9488   5.492   5.323   1.769  0.2868 -0.2189 -0.5300
 3175TIP3    H1 9489   5.496   5.238   1.812 -1.6595  0.2074  0.6455
 3175TIP3    H2 9490   5.417   5.317   1.710  1.5858 -0.0556 -2.2607
 3176TIP3   OH2 9491   3.263   6.002   5.266 -0.8243  0.0874 -0.0358
 3176TIP3    H1 9492   3.335   5.957   5.310 -2.1965 -3.0182 -0.6724
 3176TIP3    H2 9493   3.224   6.057   5.335 -0.1811 -1.1595  1.3987
 3177TIP3   OH2 9494   6.435   2.581   1.176  0.1299  0.0542 -0.2129
 3177TIP3    H1 9495   6.434   2.504   1.234  0.2126 -1.3121 -1.9361
 3177TIP3    H2 9496   6.384   2.647   1.222 -1.5491 -1.6686  0.5108
 3178TIP3   OH2 9497   2.886   2.857   5.220  0.3706 -0.3650 -0.2773
 3178TIP3    H1 9498   2.827   2.802   5.168  0.3515 -0.7195  0.1149
 3178TIP3    H2 9499   2.829   2.920   5.262  0.4477  0.3047 -1.1450
 3179TIP3   OH2 9500   5.532   2.704   5.096 -0.4213  0.2135  0.2003
 3179TIP3    H1 9501   5.523   2.697   5.191  0.3963  0.2711  0.2942
 3179TIP3    H2 9502   5.608   2.649   5.075 -0.0314  0.9198 -0.2915
 3180TIP3   OH2 9503   1.370   0.490   2.297 -0.4556  0.0469  0.0802
 3180TIP3    H1 9504   1.435   0.551   2.264 -0.5948  0.5104  0.6538
 3180TIP3    H2 9505   1.421   0.413   2.323 -0.1319  0.4289  0.5793
 3181TIP3   OH2 9506   5.671   2.971   4.717  0.0611 -0.6287 -0.1261
 3181TIP3    H1 9507   5.741   3.011   4.769 -0.1806  1.2367 -1.1267
 3181TIP3    H2 9508   5.692   2.996   4.627 -2.2636  0.6394 -0.3730
 3182TIP3   OH2 9509   0.879   4.067   2.747 -0.2975  0.9393  0.7506
 3182TIP3    H1 9510   0.849   4.152   2.779 -0.4313  1.3895 -0.4930
 3182TIP3    H2 9511   0.903   4.084   2.656  0.8397 -0.0897  0.8396
 3183TIP3   OH2 9512   2.085   5.198   0.721  0.3391  0.3722  0.4268
 3183TIP3    H1 9513   1.992   5.181   0.709  0.6018 -0.7367 -0.1370
 3183TIP3    H2 9514   2.121   5.200   0.632  0.4284  3.6270  0.3984
 3184TIP3   OH2 9515   2.578   1.556   2.059 -0.2559  0.3423  0.0228
 3184TIP3    H1 9516   2.486   1.542   2.083 -0.2918  2.6927  1.6019
 3184TIP3    H2 9517   2.618   1.469   2.063 -2.5444 -0.8827 -1.5728
 3185TIP3   OH2 9518   2.586   4.578   3.879  0.2892  0.1065  0.5900
 3185TIP3    H1 9519   2.548   4.497   3.844  1.2174  0.0914 -0.4584
 3185TIP3    H2 9520   2.678   4.557   3.892  0.2617  0.5952  1.6303
 3186TIP3   OH2 9521   5.799   4.067   2.686 -0.0335  0.1194 -0.3687
 3186TIP3    H1 9522   5.854   4.142   2.664 -1.5110  1.2821 -0.2963
 3186TIP3    H2 9523   5.860   3.997   2.706  1.4005  1.2771 -0.5550
 3187TIP3   OH2 9524   6.624   0.309   4.750  0.0674  0.3769  0.5177
 3187TIP3    H1 9525   6.622   0.373   4.821  0.4609 -0.1677  1.0309
 3187TIP3    H2 9526   6.596   0.227   4.792 -0.0517  0.1291 -0.0424
 3188TIP3   OH2 9527   0.413   4.435   1.641 -0.2045  0.1029  0.6166
 3188TIP3    H1 9528   0.399   4.481   1.724  0.8277 -2.4061  2.3213
 3188TIP3    H2 9529   0.507   4.440   1.627 -0.2799 -0.1577  0.0031
 3189TIP3   OH2 9530   4.327   4.972   1.552 -0.1729  0.3173 -0.4551
 3189TIP3    H1 9531   4.351   4.886   1.584  0.1020  1.1070  1.6190
 3189TIP3    H2 9532   4.402   5.000   1.499 -0.2296 -0.6495 -1.0573
 3190TIP3   OH2 9533   0.385   4.182   1.324 -0.1698 -0.2046  0.8187
 3190TIP3    H1 9534   0.373   4.232   1.405 -0.0855  1.7320 -0.2990
 3190TIP3    H2 9535   0.478   4.160   1.323 -0.3350 -0.9842  1.6360
 3191TIP3   OH2 9536   4.718   2.792   5.117 -0.0415  0.5582 -0.0255
 3191TIP3    H1 9537   4.787   2.798   5.050  0.4353  0.0911  0.4125
 3191TIP3    H2 9538   4.637   2.779   5.067  0.4570 -0.9815 -0.5009
 3192TIP3   OH2 9539   2.876   0.771   4.018 -0.0046  0.6926  0.1634
 3192TIP3    H1 9540   2.879   0.836   4.088  0.2014 -0.2388  1.0498
 3192TIP3    H2 9541   2.804   0.714   4.042  0.6379 -0.1619  0.1094
 3193TIP3   OH2 9542   1.503   0.644   0.440  0.4389  0.2334  0.0398
 3193TIP3    H1 9543   1.426   0.700   0.454 -0.4065 -0.3240 -2.0343
 3193TIP3    H2 9544   1.509   0.590   0.518 -0.9985  0.6264  0.4351
 3194TIP3   OH2 9545   6.268   1.013   5.032  0.2843  0.3264  0.5401
 3194TIP3    H1 9546   6.308   1.095   5.061 -0.6649  1.0099 -0.0255
 3194TIP3    H2 9547   6.208   0.989   5.103  0.6438  0.0461  0.7562
 3195TIP3   OH2 9548   4.034   4.001   4.711  0.2711 -0.2012 -0.2530
 3195TIP3    H1 9549   4.023   3.943   4.636  0.6710 -0.0557 -0.4256
 3195TIP3    H2 9550   4.017   3.945   4.787 -0.5865 -0.2343 -0.4676
 3196TIP3   OH2 9551   1.761   3.141   0.984 -0.0336  0.0012 -0.2592
 3196TIP3    H1 9552   1.806   3.223   1.004 -1.0590  0.3918  0.5091
 3196TIP3    H2 9553   1.742   3.146   0.890 -1.3160  1.2885  0.0330
 3197TIP3   OH2 9554   6.412   4.924   1.987  0.2321 -0.6334  0.5255
 3197TIP3    H1 9555   6.318   4.938   1.975  0.3180  0.4084  0.9352
 3197TIP3    H2 9556   6.420   4.876   2.069  0.1030  0.5329  1.2541
 3198TIP3   OH2 9557   0.227   1.254   4.699  0.5885 -0.5819 -0.0064
 3198TIP3    H1 9558   0.173   1.317   4.651 -0.1077 -0.0468  1.4088
 3198TIP3    H2 9559   0.317   1.281   4.680  0.4466 -1.5720 -2.5108
 3199TIP3   OH2 9560   0.238   2.152   2.441  0.1728  0.6466 -0.3331
 3199TIP3    H1 9561   0.270   2.100   2.367  2.4673  0.9106  0.4015
 3199TIP3    H2 9562   0.313   2.205   2.468 -1.4692  2.8609  0.2680
 3200TIP3   OH2 9563   5.910   2.346   2.228  0.7422  0.5932 -0.5009
 3200TIP3    H1 9564   5.962   2.386   2.298 -0.0912  2.1896 -0.7496
 3200TIP3    H2 9565   5.854   2.417   2.196 -1.5864 -1.0097 -0.2608
 3201TIP3   OH2 9566   6.533   0.742   5.570 -0.1873 -0.2575 -0.0882
 3201TIP3    H1 9567   6.620   0.776   5.551 -0.5573  1.1728  0.6647
 3201TIP3    H2 9568   6.479   0.771   5.496  0.0846 -1.7319 -0.9084
 3202TIP3   OH2 9569   2.038   2.063   2.254 -0.1651 -0.2322 -0.3491
 3202TIP3    H1 9570   1.954   2.094   2.218 -0.7545 -1.5346 -0.1690
 3202TIP3    H2 9571   2.064   2.131   2.316 -2.1692 -0.7186  1.1528
 3203TIP3   OH2 9572   5.594   0.469   2.958 -0.3883  0.2626  0.2705
 3203TIP3    H1 9573   5.686   0.467   2.986 -0.0960 -0.5765 -0.6446
 3203TIP3    H2 9574   5.546   0.501   3.033  0.4183 -1.2729  1.5061
 3204TIP3   OH2 9575   1.347   2.765   5.127  0.7088  0.4210  0.4425
 3204TIP3    H1 9576   1.430   2.718   5.115  0.6954  0.5721 -0.2821
 3204TIP3    H2 9577   1.347   2.831   5.058 -1.5463 -1.7053 -1.7823
 3205TIP3   OH2 9578   1.345   1.677   2.584  0.2926 -0.3111 -0.4649
 3205TIP3    H1 9579   1.256   1.655   2.612 -0.0201 -0.1179 -1.2573
 3205TIP3    H2 9580   1.368   1.608   2.522  0.5208 -0.1148 -0.5999
 3206TIP3   OH2 9581   2.530  -0.019   2.672 -0.7732 -0.1703  0.8431
 3206TIP3    H1 9582   2.480   0.063   2.672 -0.1405  0.2204  0.4496
 3206TIP3    H2 9583   2.537  -0.042   2.579  1.4442  0.8157  0.7132
 3207TIP3   OH2 9584   2.586   3.703   1.041  0.3421 -0.2402 -0.2468
 3207TIP3    H1 9585   2.524   3.666   1.104  0.3999  0.0656 -0.0063
 3207TIP3    H2 9586   2.609   3.630   0.983  0.8803 -0.7159  0.5532
 3208TIP3   OH2 9587   5.479   4.898   5.289  0.8315 -0.0333 -0.2290
 3208TIP3    H1 9588   5.393   4.923   5.324  0.4743 -1.2941 -0.1473
 3208TIP3    H2 9589   5.539   4.910   5.362  0.4097 -0.8020  0.2698
 3209TIP3   OH2 9590   4.446   4.568   4.656  0.5393  1.2030  0.6883
 3209TIP3    H1 9591   4.464   4.652   4.614 -1.3663  1.3251  0.0106
 3209TIP3    H2 9592   4.444   4.588   4.750  0.6868  1.7880  0.5726
 3210TIP3   OH2 9593   4.079   6.481   1.072  0.2660  0.3544 -0.2509
 3210TIP3    H1 9594   4.088   6.503   0.979 -0.1973 -0.4171 -0.4908
 3210TIP3    H2 9595   4.074   6.385   1.073  0.9838  0.3144  0.6363
 3211TIP3   OH2 9596   6.765   5.398   0.318  0.1597 -0.0754 -0.0057
 3211TIP3    H1 9597   6.718   5.322   0.353  0.0936  0.7897  1.9052
 3211TIP3    H2 9598   6.700   5.444   0.265 -0.4740 -0.1506  0.6906
 3212TIP3   OH2 9599   6.397   1.424   4.508  0.0364 -0.0742  0.6101
 3212TIP3    H1 9600   6.309   1.446   4.479  0.5933  1.1526 -0.2493
 3212TIP3    H2 9601   6.407   1.468   4.592 -0.0453  0.0770  0.5405
 3213TIP3   OH2 9602   5.596   4.687   2.152 -0.2282 -0.3643  0.0209
 3213TIP3    H1 9603   5.657   4.730   2.091 -0.1370 -0.4606  0.0440
 3213TIP3    H2 9604   5.644   4.683   2.235 -1.0903  1.5925  0.6579
 3214TIP3   OH2 9605   5.907   0.104   4.255  0.1622  0.4232 -0.1497
 3214TIP3    H1 9606   5.986   0.083   4.305 -0.1711  0.2762  0.3243
 3214TIP3    H2 9607   5.887   0.023   4.207 -0.1057  0.2274  0.2883
 3215TIP3   OH2 9608   1.259   0.644   2.074 -0.0844 -0.1439  0.3058
 3215TIP3    H1 9609   1.199   0.708   2.112  0.0265  0.4782 -0.5264
 3215TIP3    H2 9610   1.275   0.581   2.144 -1.1730  0.0574  0.7535
 3216TIP3   OH2 9611   4.131   6.184   4.622  0.1138 -0.0352  0.4960
 3216TIP3    H1 9612   4.144   6.092   4.646 -3.3813 -0.9434 -0.5048
 3216TIP3    H2 9613   4.168   6.190   4.533  0.9136 -0.2856  0.8011
 3217TIP3   OH2 9614   1.872   0.994   5.327 -0.6912 -0.1798 -0.2434
 3217TIP3    H1 9615   1.900   1.029   5.412  2.0103 -0.4725 -0.8988
 3217TIP3    H2 9616   1.816   1.061   5.290  0.1682  1.1122  0.7128
 3218TIP3   OH2 9617   7.087   5.029   2.587  0.1392 -0.9686 -0.0326
 3218TIP3    H1 9618   7.074   5.064   2.499  1.4630 -0.2581  0.0336
 3218TIP3    H2 9619   6.999   5.011   2.618 -0.3753 -0.8858 -1.3596
 3219TIP3   OH2 9620   3.983   5.154   1.686  0.0908  0.0876 -0.2970
 3219TIP3    H1 9621   3.891   5.176   1.677  0.4606  3.6846  2.3815
 3219TIP3    H2 9622   3.987   5.104   1.768  0.5899  1.3444  0.4820
 3220TIP3   OH2 9623   4.344   0.257   0.498  0.4749 -0.0264 -0.6934
 3220TIP3    H1 9624   4.369   0.227   0.411  3.4405  1.2594 -0.3911
 3220TIP3    H2 9625   4.313   0.347   0.486  0.5540  0.0356 -0.4493
 3221TIP3   OH2 9626   1.017   2.249   3.872  0.3467 -0.1758  0.2763
 3221TIP3    H1 9627   1.020   2.168   3.822  2.4447 -0.2684  0.4922
 3221TIP3    H2 9628   1.104   2.286   3.865 -0.0680  1.1908  1.6291
 3222TIP3   OH2 9629   0.538   5.197   1.169 -0.0015  0.6349 -0.1294
 3222TIP3    H1 9630   0.555   5.175   1.261 -0.7789 -0.2237 -0.1765
 3222TIP3    H2 9631   0.449   5.165   1.153  0.3006  0.3335 -1.3109
 3223TIP3   OH2 9632   4.219   5.874   4.592 -0.2667 -0.9040  0.1863
 3223TIP3    H1 9633   4.165   5.796   4.575 -0.3544 -1.1322  1.3800
 3223TIP3    H2 9634   4.273   5.849   4.667 -2.5014  1.1775  2.6972
 3224TIP3   OH2 9635   4.241   2.929   3.664  0.4801 -0.4329  0.3325
 3224TIP3    H1 9636   4.270   3.004   3.613  2.4267 -1.7527 -0.6681
 3224TIP3    H2 9637   4.255   2.954   3.755  2.3081  0.0174 -0.0328
 3225TIP3   OH2 9638   3.906   6.012   0.417  0.2201 -0.0962 -0.5695
 3225TIP3    H1 9639   3.853   6.072   0.469 -1.5932 -3.2982  1.6619
 3225TIP3    H2 9640   3.989   6.006   0.465 -0.4746 -1.0448  0.5778
 3226TIP3   OH2 9641   1.835   4.766   4.967  0.3987 -0.6316 -0.0407
 3226TIP3    H1 9642   1.894   4.841   4.971 -1.7497  1.0934  1.8027
 3226TIP3    H2 9643   1.839   4.728   5.054  0.6918 -2.1081 -0.6660
 3227TIP3   OH2 9644   2.597   2.034   4.994  0.0816 -0.0820 -0.0767
 3227TIP3    H1 9645   2.623   1.957   4.943  1.0389  0.7285 -0.8509
 3227TIP3    H2 9646   2.597   2.105   4.931 -1.6798  0.4225  0.4281
 3228TIP3   OH2 9647   2.530   4.115   1.646 -0.5610  0.1049  0.8408
 3228TIP3    H1 9648   2.567   4.029   1.666  1.0074  0.7168  0.6978
 3228TIP3    H2 9649   2.458   4.096   1.586  0.0859 -1.0710  0.3982
 3229TIP3   OH2 9650   5.848   5.583   2.008 -0.3139  0.0123  0.1550
 3229TIP3    H1 9651   5.846   5.488   1.996 -1.1117  0.1914 -1.3009
 3229TIP3    H2 9652   5.757   5.610   2.003 -0.0484  0.9116  0.0866
 3230TIP3   OH2 9653   6.022   4.493   3.473  0.4348  0.8812  0.2186
 3230TIP3    H1 9654   5.968   4.529   3.403 -1.0374 -1.8517 -0.1933
 3230TIP3    H2 9655   6.086   4.438   3.428  0.9678  0.9184  0.9142
 3231TIP3   OH2 9656   6.456   1.466   4.779 -0.6186 -0.2831 -0.0900
 3231TIP3    H1 9657   6.406   1.385   4.770 -1.2757 -0.0022  0.8634
 3231TIP3    H2 9658   6.540   1.448   4.737 -0.6416 -1.5500  0.3816
 3232TIP3   OH2 9659   1.440   4.682   1.607  1.1816  0.5596 -0.0493
 3232TIP3    H1 9660   1.480   4.615   1.662 -3.9404 -1.5537  1.6805
 3232TIP3    H2 9661   1.414   4.636   1.528 -1.0108  0.7312  0.4945
 3233TIP3   OH2 9662   1.385   0.708   5.816 -0.8355 -0.3220 -0.3240
 3233TIP3    H1 9663   1.369   0.656   5.737  0.5153  0.8522 -1.4113
 3233TIP3    H2 9664   1.478   0.728   5.813 -1.4933  3.3545 -0.7607
 3234TIP3   OH2 9665   5.909   0.936   1.090  0.0907 -0.1243  0.2773
 3234TIP3    H1 9666   5.926   0.842   1.081  0.0113 -0.1928  0.8048
 3234TIP3    H2 9667   5.971   0.966   1.155  0.1877  0.2164  0.0321
 3235TIP3   OH2 9668   2.666   3.519   2.147  0.1767  0.2880  0.0810
 3235TIP3    H1 9669   2.651   3.534   2.240  0.9144  2.7787 -0.1352
 3235TIP3    H2 9670   2.621   3.436   2.129  0.5281 -0.5842  2.7442
 3236TIP3   OH2 9671   2.348   2.032   3.002 -0.1577  0.1853 -0.1786
 3236TIP3    H1 9672   2.264   2.015   3.045 -0.6012 -0.9845 -1.4285
 3236TIP3    H2 9673   2.408   1.969   3.042 -0.2961 -0.1238 -0.4476
 3237TIP3   OH2 9674   3.132   2.177   4.478 -0.2444 -0.0490 -0.1055
 3237TIP3    H1 9675   3.208   2.225   4.444  0.1254 -0.6770 -0.1812
 3237TIP3    H2 9676   3.072   2.173   4.404  1.3479 -3.0916 -1.4306
 3238TIP3   OH2 9677   4.237   3.915   2.195  0.0220  0.6489  0.5542
 3238TIP3    H1 9678   4.305   3.847   2.193 -1.5861 -1.0315 -0.2078
 3238TIP3    H2 9679   4.242   3.951   2.284  1.8048  0.5061  0.5504
 3239TIP3   OH2 9680   7.062   6.805   4.644 -0.3256 -0.1216 -0.1180
 3239TIP3    H1 9681   7.097   6.745   4.710  0.9781 -3.0914 -3.2294
 3239TIP3    H2 9682   7.037   6.749   4.571 -1.5882  2.9588 -2.2754
 3240TIP3   OH2 9683   0.100   0.120   3.485 -0.3269 -0.0825 -0.6217
 3240TIP3    H1 9684   0.069   0.108   3.575 -0.4198 -0.3180 -0.6847
 3240TIP3    H2 9685   0.190   0.088   3.486 -0.7420 -1.3160 -0.9134
 3241TIP3   OH2 9686   5.467   4.846   4.827  0.2271 -0.2323 -0.5620
 3241TIP3    H1 9687   5.429   4.914   4.883 -0.1867 -0.8745 -0.0516
 3241TIP3    H2 9688   5.478   4.771   4.884  0.0966 -0.8037 -1.2681
 3242TIP3   OH2 9689   5.722   3.764   3.694  0.1774  0.2599  0.1124
 3242TIP3    H1 9690   5.677   3.730   3.771 -0.6745 -1.4215 -1.0734
 3242TIP3    H2 9691   5.652   3.800   3.639  0.7665  1.3987  0.0751
 3243TIP3   OH2 9692   4.438   3.149   0.155  0.0646 -0.2757  0.7531
 3243TIP3    H1 9693   4.483   3.066   0.138  0.9642  0.2041  0.7132
 3243TIP3    H2 9694   4.464   3.206   0.083 -1.0073 -0.1275  0.4706
 3244TIP3   OH2 9695   4.395   2.951   2.001 -0.4914  0.1315  0.6464
 3244TIP3    H1 9696   4.356   2.903   1.927 -0.3172  0.0697  0.5953
 3244TIP3    H2 9697   4.489   2.950   1.983 -0.2164 -1.7413  1.9689
 3245TIP3   OH2 9698   2.462   6.330   2.463  0.2653  0.3197 -0.2526
 3245TIP3    H1 9699   2.462   6.236   2.448  0.7999  0.3025 -0.1530
 3245TIP3    H2 9700   2.540   6.362   2.418 -0.5012  0.8773 -1.2578
 3246TIP3   OH2 9701   2.667   2.290   2.278  0.5646  0.2291 -0.0311
 3246TIP3    H1 9702   2.752   2.247   2.288  0.8579  0.3269 -1.8303
 3246TIP3    H2 9703   2.605   2.229   2.316  1.5808  1.1322  3.4886
 3247TIP3   OH2 9704   2.058   1.519   3.982 -0.5038 -0.2017  0.0625
 3247TIP3    H1 9705   2.134   1.483   3.937 -0.3994 -0.2880  0.3038
 3247TIP3    H2 9706   2.001   1.551   3.912 -0.5076 -0.6507 -0.1423
 3248TIP3   OH2 9707   5.402   0.971   0.543 -0.0291  0.1918  0.1463
 3248TIP3    H1 9708   5.397   0.941   0.634  2.1448  1.1129  0.6333
 3248TIP3    H2 9709   5.443   1.057   0.548  0.1458  0.2644 -1.7048
 3249TIP3   OH2 9710   4.638   3.784   0.809  0.2188  0.0908  0.0761
 3249TIP3    H1 9711   4.656   3.715   0.873 -0.4945  0.9382  1.2310
 3249TIP3    H2 9712   4.631   3.738   0.725  1.3330 -1.0235  0.5613
 3250TIP3   OH2 9713   0.165   5.769   5.540 -0.1569 -0.3229  0.0016
 3250TIP3    H1 9714   0.080   5.729   5.524 -1.0104  1.0171  0.9124
 3250TIP3    H2 9715   0.195   5.797   5.453 -1.3540  0.4841 -0.1913
 3251TIP3   OH2 9716   6.928   4.966   4.955 -0.1586 -0.2258 -0.4853
 3251TIP3    H1 9717   6.968   4.982   4.869  1.8387 -0.0407  0.4325
 3251TIP3    H2 9718   6.919   5.052   4.994 -1.7988 -0.2342 -0.7755
 3252TIP3   OH2 9719   0.945   5.557   5.619  0.3184  0.5323  0.4173
 3252TIP3    H1 9720   0.887   5.493   5.659  0.5033  0.4654  0.5776
 3252TIP3    H2 9721   1.030   5.542   5.659  0.7063 -0.0777 -0.5890
 3253TIP3   OH2 9722   1.535   4.133   5.614 -0.1646  0.6286  0.3404
 3253TIP3    H1 9723   1.451   4.176   5.597 -0.3921 -0.0869 -0.4136
 3253TIP3    H2 9724   1.550   4.145   5.708 -1.3057  0.4186  0.5625
 3254TIP3   OH2 9725   2.565   2.028   3.785  0.0886 -0.1686  0.0469
 3254TIP3    H1 9726   2.489   2.024   3.843  0.5476  1.6782  0.8561
 3254TIP3    H2 9727   2.529   2.026   3.696 -1.1377  2.8044  0.3877
 3255TIP3   OH2 9728   2.756   6.486   2.036 -0.1053  0.6364  0.4735
 3255TIP3    H1 9729   2.684   6.501   1.975  0.0796  1.0513  0.3562
 3255TIP3    H2 9730   2.830   6.533   1.997  0.0008  0.9503  1.0515
 3256TIP3   OH2 9731   3.476   3.018   5.827  0.3258  0.0799 -0.0708
 3256TIP3    H1 9732   3.420   2.941   5.812 -0.0885 -0.0168  1.7784
 3256TIP3    H2 9733   3.486   3.022   5.922 -0.6018  2.9863 -0.0180
 3257TIP3   OH2 9734   4.484   0.811   5.546 -0.1996  0.3567  0.0000
 3257TIP3    H1 9735   4.481   0.855   5.631 -2.0630  0.5673 -0.1297
 3257TIP3    H2 9736   4.404   0.759   5.543  0.9227 -1.4271 -0.7409
 3258TIP3   OH2 9737   0.883   3.778   3.127  0.6713  0.3461  0.0956
 3258TIP3    H1 9738   0.805   3.774   3.182  0.0384 -0.0348 -0.8050
 3258TIP3    H2 9739   0.859   3.836   3.055  0.7065 -0.8775 -0.9415
 3259TIP3   OH2 9740   4.438   0.884   5.297  0.0823 -0.1080 -0.5087
 3259TIP3    H1 9741   4.359   0.832   5.288 -0.5628  0.8427 -0.5020
 3259TIP3    H2 9742   4.465   0.872   5.388 -1.4352  1.4443  0.1903
 3260TIP3   OH2 9743   6.330   1.616   5.798 -0.4427  0.1284 -0.5582
 3260TIP3    H1 9744   6.262   1.629   5.864  1.0726 -0.8593  1.2728
 3260TIP3    H2 9745   6.313   1.529   5.763  0.7860 -0.8273  1.0961
 3261TIP3   OH2 9746   1.400   1.194   2.131 -0.1269 -0.2103 -0.1653
 3261TIP3    H1 9747   1.471   1.130   2.121  0.8828  1.0667 -1.5801
 3261TIP3    H2 9748   1.427   1.268   2.077 -1.8034  0.9671  0.5414
 3262TIP3   OH2 9749   0.056   0.403   4.146 -0.2742  0.0236  0.1966
 3262TIP3    H1 9750   0.041   0.309   4.158  1.5354 -0.1056  1.8258
 3262TIP3    H2 9751   0.023   0.443   4.226 -0.5615  0.7440 -0.2695
 3263TIP3   OH2 9752   3.399   0.496   5.246  0.3073 -0.0152  0.4689
 3263TIP3    H1 9753   3.448   0.415   5.259 -0.1673 -0.0924  2.0092
 3263TIP3    H2 9754   3.460   0.566   5.270 -0.0560 -0.0717  1.6237
 3264TIP3   OH2 9755   4.283   5.034   1.802  0.7189 -0.3386  0.4372
 3264TIP3    H1 9756   4.364   5.014   1.849  0.8581 -1.5537 -0.2906
 3264TIP3    H2 9757   4.310   5.042   1.710 -0.0552 -1.2857  0.1155
 3265TIP3   OH2 9758   5.020   2.545   4.223 -0.6106 -0.1345  0.0750
 3265TIP3    H1 9759   4.992   2.601   4.296 -1.0454 -0.8051  0.4309
 3265TIP3    H2 9760   5.078   2.480   4.264  2.6303  1.9360 -0.7868
 3266TIP3   OH2 9761   4.596   5.430   3.388  0.4178  0.2523 -0.1322
 3266TIP3    H1 9762   4.575   5.431   3.295  0.5447 -2.3634 -0.2589
 3266TIP3    H2 9763   4.678   5.382   3.394  1.1170  1.5452  1.2468
 3267TIP3   OH2 9764   2.828   4.065   0.721 -0.4916  0.3129  0.1163
 3267TIP3    H1 9765   2.751   4.049   0.776 -0.1165 -0.8035  0.3347
 3267TIP3    H2 9766   2.871   3.980   0.714  0.0768  0.6654 -0.9978
 3268TIP3   OH2 9767   0.659   6.718   5.843 -0.1443 -0.1022 -0.0927
 3268TIP3    H1 9768   0.746   6.679   5.843 -0.4023 -0.6983 -0.3728
 3268TIP3    H2 9769   0.608   6.664   5.903 -0.9349 -1.2522 -1.6996
 3269TIP3   OH2 9770   2.980   1.319   2.023  0.1733  0.1828 -0.2066
 3269TIP3    H1 9771   3.025   1.403   2.029  1.4674 -0.5103  0.1161
 3269TIP3    H2 9772   3.027   1.262   2.085 -0.8014 -0.7243 -0.2713
 3270TIP3   OH2 9773   2.877   0.770   4.880 -0.7462 -0.3854 -0.2854
 3270TIP3    H1 9774   2.826   0.704   4.833  0.1827 -0.6271 -0.9873
 3270TIP3    H2 9775   2.941   0.801   4.816 -0.5966  0.5647  0.3000
 3271TIP3   OH2 9776   6.844   0.316   2.122 -0.0783  0.1205 -0.0379
 3271TIP3    H1 9777   6.808   0.304   2.210  0.0112 -1.0134 -0.1449
 3271TIP3    H2 9778   6.774   0.286   2.063  1.3720 -3.3085 -0.2286
 3272TIP3   OH2 9779   3.194   5.431   1.268 -0.1404  0.2435 -0.4913
 3272TIP3    H1 9780   3.168   5.377   1.343 -2.5987  0.7018 -0.9196
 3272TIP3    H2 9781   3.278   5.395   1.241  0.4172 -0.4886  1.9315
 3273TIP3   OH2 9782   4.095   0.186   4.634  0.3890 -0.3249  0.3196
 3273TIP3    H1 9783   4.065   0.101   4.602  2.3788 -0.4588 -1.4492
 3273TIP3    H2 9784   4.039   0.249   4.589 -1.0833 -0.6483  1.6266
 3274TIP3   OH2 9785   5.586   5.567   1.392 -0.2083  0.0012 -0.5221
 3274TIP3    H1 9786   5.634   5.493   1.430  0.1074 -0.0239 -0.9553
 3274TIP3    H2 9787   5.653   5.633   1.375 -0.3387  0.0011 -1.0471
 3275TIP3   OH2 9788   1.775   2.547   2.282 -0.5466 -0.0996  0.9227
 3275TIP3    H1 9789   1.753   2.565   2.190  0.4671 -1.1672  0.4458
 3275TIP3    H2 9790   1.777   2.633   2.324 -2.0041  0.3229  0.1820
 3276TIP3   OH2 9791   7.172   5.813   4.365  0.2151 -0.1447 -0.2239
 3276TIP3    H1 9792   7.127   5.783   4.445  2.0458 -0.3586  0.7875
 3276TIP3    H2 9793   7.117   5.781   4.294 -0.3019 -2.0037  0.9172
 3277TIP3   OH2 9794   1.074   3.914   4.090  0.7085 -0.1607  0.2196
 3277TIP3    H1 9795   1.035   3.830   4.113  0.4663  0.3766  1.9299
 3277TIP3    H2 9796   1.001   3.968   4.060  0.8873 -0.5844 -1.0257
 3278TIP3   OH2 9797   3.646   2.206   0.110  0.0368 -0.2583 -0.4140
 3278TIP3    H1 9798   3.701   2.187   0.186  0.2018 -1.2440 -0.7612
 3278TIP3    H2 9799   3.633   2.121   0.068 -1.5868 -0.0057 -0.4722
 3279TIP3   OH2 9800   5.031   0.647   3.798 -0.0320 -0.1147  0.0181
 3279TIP3    H1 9801   5.069   0.714   3.855  4.1919 -0.3049 -2.1411
 3279TIP3    H2 9802   5.082   0.568   3.816 -1.3584 -1.2925 -1.1393
 3280TIP3   OH2 9803   4.576   6.186   2.404  0.5590 -0.7803 -0.5014
 3280TIP3    H1 9804   4.594   6.154   2.493  0.7781  2.1650  0.6147
 3280TIP3    H2 9805   4.485   6.216   2.407  0.4065 -1.1308 -1.4437
 3281TIP3   OH2 9806   3.040   5.779   1.383 -0.0209 -0.5882  0.2347
 3281TIP3    H1 9807   3.123   5.769   1.430  2.0238  1.4099 -2.5434
 3281TIP3    H2 9808   3.063   5.766   1.291 -2.2019  2.3524 -0.9163
 3282TIP3   OH2 9809   2.145   6.358   5.799  0.2019 -0.5166  0.3463
 3282TIP3    H1 9810   2.084   6.416   5.844 -0.4808  0.0437 -1.1986
 3282TIP3    H2 9811   2.166   6.405   5.718  1.9377 -1.1478  0.3957
 3283TIP3   OH2 9812   2.986   4.812   2.397 -0.2393 -0.9006 -0.0333
 3283TIP3    H1 9813   3.015   4.902   2.415 -0.4776 -0.8766  0.2403
 3283TIP3    H2 9814   2.920   4.822   2.329 -2.5972 -0.5157  2.1436
 3284TIP3   OH2 9815   6.432   5.009   5.212  0.3272 -0.2854 -0.1456
 3284TIP3    H1 9816   6.468   5.019   5.300  0.9679 -1.5455 -0.2484
 3284TIP3    H2 9817   6.393   4.922   5.211  0.6914 -0.4474 -1.2328
 3285TIP3   OH2 9818   0.385   3.150   5.317 -0.5824  0.2268  0.4424
 3285TIP3    H1 9819   0.311   3.130   5.259  0.1628 -2.1524  0.2097
 3285TIP3    H2 9820   0.447   3.196   5.262  0.1840 -2.1337 -0.8161
 3286TIP3   OH2 9821   4.853   0.346   2.242  0.6560 -0.0072 -0.0373
 3286TIP3    H1 9822   4.939   0.306   2.228  1.0525  0.3870  1.1804
 3286TIP3    H2 9823   4.818   0.302   2.319 -0.3611 -0.3330 -0.6620
 3287TIP3   OH2 9824   4.060   1.550   1.042  0.3648  0.3028  0.2591
 3287TIP3    H1 9825   4.026   1.581   0.958  0.9877 -0.5138 -0.3043
 3287TIP3    H2 9826   4.057   1.627   1.099 -3.3752  0.0690  0.5857
 3288TIP3   OH2 9827   4.160   3.691   4.180  0.3130  0.0924  0.1648
 3288TIP3    H1 9828   4.145   3.719   4.090 -0.2175 -0.7569 -0.0337
 3288TIP3    H2 9829   4.255   3.696   4.192  0.4564 -0.3900 -0.6576
 3289TIP3   OH2 9830   5.256   4.101   4.719 -0.2099  0.0260 -0.2142
 3289TIP3    H1 9831   5.196   4.139   4.783 -0.3026  0.9278 -0.8157
 3289TIP3    H2 9832   5.240   4.151   4.639  1.5087  0.4501 -0.3221
 3290TIP3   OH2 9833   1.363   3.449   4.022  0.2530  0.7340 -0.4886
 3290TIP3    H1 9834   1.351   3.422   4.113  0.5733  1.1281 -0.3287
 3290TIP3    H2 9835   1.336   3.541   4.021  3.1993  1.7034 -0.1085
 3291TIP3   OH2 9836   3.597   2.221   1.392  0.2153  0.2231 -0.2622
 3291TIP3    H1 9837   3.539   2.191   1.463 -0.7352  1.1513 -0.6019
 3291TIP3    H2 9838   3.554   2.301   1.360  0.8391  0.0307 -1.6253
 3292TIP3   OH2 9839   0.223   1.376   5.310 -0.3030 -0.2965 -0.4296
 3292TIP3    H1 9840   0.283   1.324   5.256  4.0842  0.5412  3.0874
 3292TIP3    H2 9841   0.182   1.312   5.369  0.0591 -0.4608 -0.3562
 3293TIP3   OH2 9842   1.572   0.702   0.007 -0.2497  0.2825  0.0058
 3293TIP3    H1 9843   1.530   0.767   0.064  3.5511  0.9827  2.3947
 3293TIP3    H2 9844   1.571   0.621   0.058  0.7904  0.2147 -0.0457
 3294TIP3   OH2 9845   3.621   6.183   3.161  0.1932 -0.4073  0.0803
 3294TIP3    H1 9846   3.536   6.214   3.128 -0.0360 -0.8448  0.2557
 3294TIP3    H2 9847   3.605   6.094   3.189  0.0237  0.3690  2.7113
 3295TIP3   OH2 9848   1.548   3.031   0.575 -0.3201  0.3957 -0.0379
 3295TIP3    H1 9849   1.518   3.074   0.655 -0.3015 -1.0536  0.7796
 3295TIP3    H2 9850   1.514   2.941   0.582 -1.2832  0.5430 -2.2008
 3296TIP3   OH2 9851   6.077   0.555   2.262 -0.2955  0.3097  0.0658
 3296TIP3    H1 9852   6.082   0.460   2.254 -1.0191  0.3906 -1.9316
 3296TIP3    H2 9853   6.016   0.582   2.192  0.8181  2.3281 -0.2036
 3297TIP3   OH2 9854   3.734   5.868   5.517 -0.7993  0.8452  0.8326
 3297TIP3    H1 9855   3.782   5.841   5.438 -1.4434 -0.5815  0.9098
 3297TIP3    H2 9856   3.778   5.949   5.544  0.4012  0.5549 -0.1270
 3298TIP3   OH2 9857   5.048   5.331   1.064  0.0819 -0.1163  0.0396
 3298TIP3    H1 9858   5.032   5.270   1.136 -0.1331  0.2369  0.2960
 3298TIP3    H2 9859   5.045   5.417   1.105  1.0877  0.0399 -0.1885
 3299TIP3   OH2 9860   2.271   2.771   0.209 -0.7211  0.1651  0.1512
 3299TIP3    H1 9861   2.260   2.864   0.188 -0.5970  0.1919  0.2071
 3299TIP3    H2 9862   2.288   2.770   0.303  1.9061  0.3021 -0.2525
 3300TIP3   OH2 9863   3.648   0.252   3.525 -0.7101  0.0974  0.0603
 3300TIP3    H1 9864   3.667   0.188   3.456  1.3060 -1.3846  1.8440
 3300TIP3    H2 9865   3.656   0.337   3.482 -0.3765 -0.7955 -1.7257
 3301TIP3   OH2 9866   2.197   0.641   1.149 -0.3317  0.1981 -0.3478
 3301TIP3    H1 9867   2.118   0.631   1.202 -0.2200  3.4021  0.6776
 3301TIP3    H2 9868   2.166   0.635   1.058 -1.3088 -0.8626  0.0269
 3302TIP3   OH2 9869   1.401   4.117   0.392  0.2282  0.3320 -0.6093
 3302TIP3    H1 9870   1.488   4.148   0.417  0.6810 -0.3193 -1.3536
 3302TIP3    H2 9871   1.367   4.074   0.471  1.2613 -0.8748 -0.7923
 3303TIP3   OH2 9872   2.006   3.346   1.229 -0.5619 -0.4287 -0.0366
 3303TIP3    H1 9873   1.939   3.327   1.295 -0.5061 -0.5469 -0.0143
 3303TIP3    H2 9874   2.047   3.427   1.259 -0.5683 -0.4572  0.0498
 3304TIP3   OH2 9875   6.416   1.877   5.748 -0.6286  0.2096  0.1349
 3304TIP3    H1 9876   6.381   1.822   5.678  0.6250 -0.9645  0.3749
 3304TIP3    H2 9877   6.406   1.824   5.827 -0.5102  0.8269  0.5683
 3305TIP3   OH2 9878   6.010   1.127   2.030 -0.2793  0.5364 -0.5486
 3305TIP3    H1 9879   5.962   1.178   1.965 -1.2461 -1.0518 -1.1566
 3305TIP3    H2 9880   6.026   1.043   1.986  0.2947 -0.0772  0.7826
 3306TIP3   OH2 9881   2.714   5.869   1.205  0.5286  0.7818 -0.4549
 3306TIP3    H1 9882   2.739   5.907   1.290 -0.2232  0.5127 -0.0974
 3306TIP3    H2 9883   2.618   5.863   1.210  0.5730 -0.4324 -0.8147
 3307TIP3   OH2 9884   4.452   4.871   0.590 -0.1958 -0.2934 -0.0695
 3307TIP3    H1 9885   4.393   4.811   0.544  0.4157 -1.3497  0.4668
 3307TIP3    H2 9886   4.515   4.899   0.523  0.6902 -1.8170  0.0849
 3308TIP3   OH2 9887   0.510   0.945   0.594 -0.2692 -1.2316 -0.0539
 3308TIP3    H1 9888   0.418   0.971   0.603  0.0525  0.0129 -0.2259
 3308TIP3    H2 9889   0.524   0.939   0.500 -0.0546 -0.9630 -0.0404
 3309TIP3   OH2 9890   0.414   5.741   5.321  0.1556  0.0594 -0.4155
 3309TIP3    H1 9891   0.464   5.732   5.239  0.4593  0.7854 -0.3207
 3309TIP3    H2 9892   0.371   5.657   5.332 -2.3866  0.8782 -2.9693
 3310TIP3   OH2 9893   2.675   3.313   0.465  0.0685 -0.2327  0.0424
 3310TIP3    H1 9894   2.662   3.231   0.514  0.0388 -0.8182 -0.9108
 3310TIP3    H2 9895   2.611   3.374   0.502 -1.5349 -1.3489 -0.7907
 3311TIP3   OH2 9896   4.194   5.361   0.671  0.6504  0.1254  0.1313
 3311TIP3    H1 9897   4.179   5.451   0.699 -1.4774  0.0781 -0.7031
 3311TIP3    H2 9898   4.156   5.356   0.583  1.0145 -1.4985  0.0306
 3312TIP3   OH2 9899   6.389   0.906   2.191  0.1203  0.1247 -0.5277
 3312TIP3    H1 9900   6.363   0.997   2.207 -0.7995  0.0637 -1.5787
 3312TIP3    H2 9901   6.460   0.913   2.128 -0.4893  0.0838 -1.2239
 3313TIP3   OH2 9902   7.038   6.372   5.241 -0.2321 -0.0043 -0.1155
 3313TIP3    H1 9903   6.966   6.310   5.227 -0.0732 -0.1207 -0.4531
 3313TIP3    H2 9904   7.115   6.325   5.208  0.0226  0.0561  0.3928
 3314TIP3   OH2 9905   1.028   1.723   0.937 -0.1692 -0.6824 -0.1683
 3314TIP3    H1 9906   1.078   1.657   0.889 -0.0109  0.6313 -1.9218
 3314TIP3    H2 9907   1.089   1.797   0.946 -0.4100 -0.6619  1.5487
 3315TIP3   OH2 9908   4.093   2.960   1.870  0.6873 -0.0673 -0.2822
 3315TIP3    H1 9909   4.063   2.932   1.783  2.1256 -1.0775 -0.5020
 3315TIP3    H2 9910   4.170   3.014   1.852 -0.5111  1.9493  0.2853
 3316TIP3   OH2 9911   1.387   5.756   3.348  0.0252  0.6019  0.2064
 3316TIP3    H1 9912   1.305   5.723   3.313 -0.5782  1.7386  0.4863
 3316TIP3    H2 9913   1.455   5.717   3.292 -0.7450  0.2370 -0.4924
 3317TIP3   OH2 9914   6.803   3.671   5.015  0.1310 -0.4947 -0.0163
 3317TIP3    H1 9915   6.780   3.684   5.107 -0.8442 -1.7747 -0.0556
 3317TIP3    H2 9916   6.883   3.723   5.003 -0.7441  1.1807  1.0633
 3318TIP3   OH2 9917   2.844   4.513   4.859 -0.1891  0.2051  0.4668
 3318TIP3    H1 9918   2.822   4.449   4.792  0.0887 -0.6760  1.1828
 3318TIP3    H2 9919   2.765   4.565   4.871 -0.4359 -0.0358 -0.1006
 3319TIP3   OH2 9920   3.621   0.919   0.995  0.2946 -0.2050  0.3633
 3319TIP3    H1 9921   3.597   1.011   0.983  0.1111 -0.2780  0.1597
 3319TIP3    H2 9922   3.559   0.871   0.940 -0.0870 -0.5015  1.0337
 3320TIP3   OH2 9923   7.174   5.142   4.399 -0.0779 -0.0784 -0.0387
 3320TIP3    H1 9924   7.125   5.146   4.481 -1.4206 -1.9408 -0.6892
 3320TIP3    H2 9925   7.108   5.125   4.332  1.3061 -1.6594 -1.0914
 3321TIP3   OH2 9926   4.115   3.879   4.397  0.2560 -0.0321 -0.3255
 3321TIP3    H1 9927   4.179   3.932   4.350  0.1066 -0.4477 -1.0051
 3321TIP3    H2 9928   4.105   3.800   4.344 -0.9392  0.0872 -0.3167
 3322TIP3   OH2 9929   0.920   5.239   0.336  0.2200  0.3676  0.7803
 3322TIP3    H1 9930   0.928   5.294   0.257  0.4940 -0.2083  0.4001
 3322TIP3    H2 9931   0.895   5.300   0.405 -2.5200  0.5359 -0.2336
 3323TIP3   OH2 9932   2.403   0.366   5.329  0.1946  0.0525 -0.0697
 3323TIP3    H1 9933   2.482   0.317   5.306  0.8592  0.5693  1.0399
 3323TIP3    H2 9934   2.423   0.456   5.304  0.4789  0.4137  1.3679
 3324TIP3   OH2 9935   6.811   4.800   3.184  0.3380 -0.0722  0.3915
 3324TIP3    H1 9936   6.896   4.755   3.183 -0.8885 -2.9778  3.7628
 3324TIP3    H2 9937   6.758   4.751   3.121 -0.2497 -2.0368  2.2455
 3325TIP3   OH2 9938   6.031   5.576   3.639 -0.3455 -0.0964  0.3466
 3325TIP3    H1 9939   5.937   5.567   3.659  0.0213  2.2000  4.0531
 3325TIP3    H2 9940   6.034   5.643   3.571 -1.4398  1.9328  2.1489
 3326TIP3   OH2 9941   1.696   3.882   1.050  0.4345 -0.0809 -0.2336
 3326TIP3    H1 9942   1.765   3.946   1.038  0.5105  0.0761  0.8874
 3326TIP3    H2 9943   1.623   3.915   0.998  0.7543  0.4689 -0.3394
 3327TIP3   OH2 9944   6.231   4.828   3.372  0.4170 -0.4667  0.2184
 3327TIP3    H1 9945   6.156   4.848   3.428  0.0359  0.2894 -0.5440
 3327TIP3    H2 9946   6.285   4.769   3.425 -1.1180 -1.7119  0.4685
 3328TIP3   OH2 9947   6.510   1.862   0.442 -0.1267  0.0506  0.1696
 3328TIP3    H1 9948   6.549   1.940   0.402  1.0953  0.4848  2.0828
 3328TIP3    H2 9949   6.491   1.804   0.368 -0.3854  1.8406 -1.2341
 3329TIP3   OH2 9950   3.517   0.155   2.751  0.5057  0.3699 -0.1000
 3329TIP3    H1 9951   3.561   0.233   2.718  0.1583  0.7688  0.3596
 3329TIP3    H2 9952   3.581   0.084   2.740  1.1688  0.8923  0.3293
 3330TIP3   OH2 9953   3.522   2.192   5.634  0.4168  0.3938  0.8100
 3330TIP3    H1 9954   3.561   2.213   5.549  0.1700  0.3206  0.6776
 3330TIP3    H2 9955   3.439   2.238   5.634  0.4977  0.5416  1.0894
 3331TIP3   OH2 9956   4.348   3.133   2.516 -0.1099  0.0121 -0.4060
 3331TIP3    H1 9957   4.337   3.063   2.451  0.9315 -1.3621  0.8193
 3331TIP3    H2 9958   4.308   3.097   2.596  1.2800  0.4019  0.4986
 3332TIP3   OH2 9959   5.864   2.951   5.878  0.2170 -0.3485 -0.0591
 3332TIP3    H1 9960   5.943   2.957   5.931  0.2672  0.6865 -0.2365
 3332TIP3    H2 9961   5.881   3.007   5.802 -0.3388 -0.8306 -0.5505
 3333TIP3   OH2 9962   2.022   3.075   5.449  0.0361  0.1042  0.2246
 3333TIP3    H1 9963   2.110   3.093   5.418 -0.5428 -0.9259 -2.2879
 3333TIP3    H2 9964   1.965   3.093   5.374 -1.6298 -1.5358  0.9863
 3334TIP3   OH2 9965   3.217   0.140   1.576  0.2067  0.2669  0.2433
 3334TIP3    H1 9966   3.144   0.133   1.637 -0.7005  0.6956 -0.7585
 3334TIP3    H2 9967   3.231   0.050   1.544 -0.0986  0.2340  0.2023
 3335TIP3   OH2 9968   1.199   0.439   5.245  0.4738 -0.1148 -0.0898
 3335TIP3    H1 9969   1.114   0.411   5.211 -0.7006  0.7505  1.9228
 3335TIP3    H2 9970   1.246   0.357   5.262 -0.9628 -0.7431  1.0998
 3336TIP3   OH2 9971   5.118   2.709   5.265  0.9650 -0.1409  0.0952
 3336TIP3    H1 9972   5.198   2.761   5.255  0.1617  0.7490 -2.4786
 3336TIP3    H2 9973   5.050   2.773   5.284  0.4671 -0.5841 -0.1719
 3337TIP3   OH2 9974   3.544   2.335   0.662  0.1707  0.0540  0.3889
 3337TIP3    H1 9975   3.533   2.397   0.733  1.9757  0.6158  0.2151
 3337TIP3    H2 9976   3.607   2.271   0.695 -1.8272 -1.9118  0.6695
 3338TIP3   OH2 9977   2.335   0.285   1.328  0.3696 -0.6953  0.3779
 3338TIP3    H1 9978   2.391   0.208   1.326  0.1178 -0.9504  1.9756
 3338TIP3    H2 9979   2.379   0.348   1.270  1.4515 -1.4495  0.3500
 3339TIP3   OH2 9980   0.391   3.442   3.724  0.0717 -0.6466  0.2519
 3339TIP3    H1 9981   0.442   3.375   3.678  0.5287 -0.1738  0.0624
 3339TIP3    H2 9982   0.300   3.420   3.705  0.2480 -0.5629 -0.7434
 3340TIP3   OH2 9983   0.513   4.068   0.159  0.6378  0.7024 -0.1490
 3340TIP3    H1 9984   0.479   3.980   0.173  0.4459  0.5721 -1.3532
 3340TIP3    H2 9985   0.607   4.060   0.172  0.5345  0.4920  0.5166
 3341TIP3   OH2 9986   5.544   0.536   5.857 -0.2054  0.1301  0.1538
 3341TIP3    H1 9987   5.518   0.550   5.766 -1.1929  0.0085  0.4078
 3341TIP3    H2 9988   5.580   0.620   5.885  0.4949  0.0514 -0.4588
 3342TIP3   OH2 9989   2.872   1.041   4.750  0.0802 -0.5404  0.7793
 3342TIP3    H1 9990   2.786   1.004   4.729  0.7406 -0.9517 -1.4538
 3342TIP3    H2 9991   2.873   1.126   4.706  0.9344 -0.6935  0.4959
 3343TIP3   OH2 9992   3.603   5.328   4.276 -0.2057 -0.5663 -0.2465
 3343TIP3    H1 9993   3.671   5.293   4.333  1.0809  2.3624  0.1847
 3343TIP3    H2 9994   3.618   5.285   4.191  1.0443 -1.2422  0.2990
 3344TIP3   OH2 9995   6.183   1.380   0.912 -0.4538  0.9561  0.8624
 3344TIP3    H1 9996   6.181   1.473   0.890 -1.4144  1.3172  2.3208
 3344TIP3    H2 9997   6.142   1.375   0.999 -1.8367 -0.9827  0.1807
 3345TIP3   OH2 9998   6.406   0.546   2.209  0.0422  0.0789 -0.1281
 3345TIP3    H1 9999   6.469   0.543   2.137 -1.0808  0.3072 -1.1517
 3345TIP3    H210000   6.371   0.457   2.214 -1.2038  0.4640 -1.1321
 3346TIP3   OH210001   5.983   3.863   2.603 -0.1387  0.1784  0.0899
 3346TIP3    H110002   5.994   3.777   2.643  0.0199  0.0402 -0.2435
 3346TIP3    H210003   6.064   3.910   2.624  1.5401 -1.0578 -2.9031
 3347TIP3   OH210004   0.228   0.988   0.387  0.1690  0.0401  0.3526
 3347TIP3    H110005   0.144   0.943   0.394 -0.6328  1.1878 -1.4222
 3347TIP3    H210006   0.284   0.926   0.339 -0.1620 -0.0848  0.1209
 3348TIP3   OH210007   0.229   1.731   3.831  0.1096 -0.5754  0.4573
 3348TIP3    H110008   0.143   1.771   3.817  0.1330 -0.4707  0.5971
 3348TIP3    H210009   0.284   1.766   3.761 -0.1743 -1.3087 -0.1468
 3349TIP3   OH210010   2.144   6.524   5.578  0.1953  0.1971 -0.0851
 3349TIP3    H110011   2.095   6.598   5.614 -0.4711 -0.9165  1.3775
 3349TIP3    H210012   2.140   6.538   5.483 -0.2969  1.7781  0.1291
 3350TIP3   OH210013   6.696   6.225   4.567  0.5680 -0.2898  0.5891
 3350TIP3    H110014   6.662   6.301   4.520  1.6494 -1.0056 -1.4717
 3350TIP3    H210015   6.629   6.157   4.554 -0.4357  0.2652  2.4954
 3351TIP3   OH210016   5.623   2.279   4.549 -0.1170  0.1751 -0.0534
 3351TIP3    H110017   5.668   2.285   4.633 -1.3058 -1.1247  0.7188
 3351TIP3    H210018   5.534   2.254   4.571 -0.4533 -0.2077 -1.7015
 3352TIP3   OH210019   7.171   6.351   0.549  0.4209  0.6647 -0.6223
 3352TIP3    H110020   7.247   6.294   0.552 -0.4056 -0.4504  1.6227
 3352TIP3    H210021   7.197   6.429   0.597 -0.4453 -0.6649  2.2274
 3353TIP3   OH210022   4.555   3.585   1.789 -0.1027 -0.1083  0.2961
 3353TIP3    H110023   4.581   3.493   1.783 -2.0768 -0.6502 -0.7654
 3353TIP3    H210024   4.520   3.606   1.702 -2.1114  0.8395  1.2589
 3354TIP3   OH210025   0.068   5.819   3.264 -0.1219 -0.0071  0.6534
 3354TIP3    H110026   0.029   5.903   3.290 -0.1025 -0.2555  1.5216
 3354TIP3    H210027  -0.006   5.760   3.255 -0.1184  0.0515  0.2313
 3355TIP3   OH210028   5.825   6.615   0.436  0.1387 -0.3859 -0.0362
 3355TIP3    H110029   5.759   6.638   0.500 -0.7106  0.0893 -1.0506
 3355TIP3    H210030   5.862   6.699   0.407  0.7518 -0.6109  0.0784
 3356TIP3   OH210031   6.053   3.122   0.520 -0.0752  0.1811  0.2393
 3356TIP3    H110032   5.971   3.083   0.486 -2.1337  1.8615  2.8904
 3356TIP3    H210033   6.063   3.202   0.469  1.7356 -1.4182 -2.1643
 3357TIP3   OH210034   1.300   4.319   0.224 -0.0245  0.3628  0.1566
 3357TIP3    H110035   1.318   4.232   0.260 -0.0420  0.5965  0.7354
 3357TIP3    H210036   1.217   4.308   0.177 -0.0775  0.0930  0.3112
 3358TIP3   OH210037   5.178   2.875   1.781 -1.0331 -0.1712  0.3673
 3358TIP3    H110038   5.197   2.787   1.813 -1.3713  0.0141  1.0897
 3358TIP3    H210039   5.241   2.931   1.827 -1.0917  0.0171  0.2196
 3359TIP3   OH210040   0.594   0.425   0.932  0.2569 -0.6104  0.4789
 3359TIP3    H110041   0.544   0.504   0.912  1.5590 -0.7082 -4.2029
 3359TIP3    H210042   0.529   0.362   0.964 -1.5019  1.0948  0.4197
 3360TIP3   OH210043   5.154   2.827   3.773  0.0304 -0.2272  0.1119
 3360TIP3    H110044   5.235   2.777   3.761 -0.9000 -1.6379 -0.4589
 3360TIP3    H210045   5.106   2.780   3.840 -1.5491 -1.0376 -1.5031
 3361TIP3   OH210046   3.053   4.020   4.921 -0.1701 -0.4282  0.4229
 3361TIP3    H110047   2.991   4.026   4.993 -1.7888 -1.4798 -0.8021
 3361TIP3    H210048   3.005   4.051   4.844  1.1086 -0.4423 -0.4293
 3362TIP3   OH210049   4.630   3.617   0.576 -0.2811 -0.0145  0.0514
 3362TIP3    H110050   4.662   3.657   0.495  0.6019  1.9061  1.2848
 3362TIP3    H210051   4.691   3.545   0.592  1.3619  1.4000  0.4956
 3363TIP3   OH210052   6.099   4.993   5.170  0.1644  0.7749 -0.3600
 3363TIP3    H110053   6.114   5.045   5.249  1.0750  0.0264 -0.0189
 3363TIP3    H210054   6.182   4.996   5.123  1.2387 -2.5749  1.0288
 3364TIP3   OH210055   6.208   4.848   1.074  0.1474 -0.0766 -0.1961
 3364TIP3    H110056   6.299   4.873   1.061  0.3313 -1.2312 -1.3451
 3364TIP3    H210057   6.160   4.930   1.070  1.2716  0.8095  2.3216
 3365TIP3   OH210058   2.269   6.257   0.653 -0.6574  0.1704  0.0327
 3365TIP3    H110059   2.181   6.286   0.678 -1.2888 -1.0246 -0.6981
 3365TIP3    H210060   2.297   6.318   0.585 -1.7688 -0.5944 -1.1564
 3366TIP3   OH210061   4.580   4.397   0.303  0.0755 -0.1568  0.3330
 3366TIP3    H110062   4.648   4.464   0.296  1.5954 -1.7198 -1.1082
 3366TIP3    H210063   4.604   4.332   0.236 -0.0634 -3.2111  2.9933
 3367TIP3   OH210064   5.051   1.052   1.081 -0.0378 -0.2407 -0.5306
 3367TIP3    H110065   4.965   1.072   1.043 -0.4278 -1.1923 -0.1640
 3367TIP3    H210066   5.032   1.010   1.165  0.8090  0.6838  0.1460
 3368TIP3   OH210067   5.668   0.770   0.602 -0.4426 -0.2296 -0.1419
 3368TIP3    H110068   5.578   0.766   0.571 -0.5787 -0.0653  0.2294
 3368TIP3    H210069   5.712   0.699   0.556 -0.5710  0.1877 -0.9378
 3369TIP3   OH210070   0.510   1.317   4.605  0.4606 -0.0164  0.1934
 3369TIP3    H110071   0.573   1.259   4.563  1.1729  1.1364 -0.3912
 3369TIP3    H210072   0.469   1.365   4.532  0.6621  0.9622  0.7015
 3370TIP3   OH210073   1.045   1.945   3.709  0.0485 -0.4035  0.2294
 3370TIP3    H110074   0.976   1.915   3.767 -0.1156 -0.6460 -0.0884
 3370TIP3    H210075   1.110   1.875   3.710  0.2084 -0.2548  0.3889
 3371TIP3   OH210076   1.248   6.755   4.578  0.3892 -0.4326  0.2172
 3371TIP3    H110077   1.299   6.693   4.525 -1.4528 -1.3587 -0.5484
 3371TIP3    H210078   1.211   6.816   4.515  1.7059  1.1702  0.9125
 3372TIP3   OH210079   3.475   1.141   3.615  0.3916 -0.1575 -0.3820
 3372TIP3    H110080   3.474   1.116   3.708 -0.2043 -1.6745 -0.7617
 3372TIP3    H210081   3.549   1.092   3.578  0.5925  0.3972 -0.7154
 3373TIP3   OH210082   5.129   5.783   3.699  0.4129 -0.3848  0.3870
 3373TIP3    H110083   5.109   5.704   3.649 -0.2634  1.1091 -1.8703
 3373TIP3    H210084   5.043   5.820   3.721  0.7133  0.1332  0.7126
 3374TIP3   OH210085   0.568   4.446   3.167 -0.6816  0.2031 -0.5398
 3374TIP3    H110086   0.558   4.352   3.150  0.9059  0.0178 -0.5654
 3374TIP3    H210087   0.613   4.451   3.251 -0.6776  0.9443 -0.5795
 3375TIP3   OH210088   4.014   4.639   3.724 -0.3630  0.4473 -0.3147
 3375TIP3    H110089   4.090   4.696   3.733 -0.0101  0.2075 -1.5711
 3375TIP3    H210090   4.018   4.583   3.801 -0.0057  1.2873  0.2942
 3376TIP3   OH210091   5.189   1.103   1.858  0.1233  0.4083  0.2858
 3376TIP3    H110092   5.125   1.150   1.805 -0.5435  0.3580  1.0257
 3376TIP3    H210093   5.228   1.170   1.914 -1.7514 -0.0295  2.2700
 3377TIP3   OH210094   2.127   3.903   1.559  0.6143  0.0239  0.0091
 3377TIP3    H110095   2.088   3.915   1.473  1.4392  2.1546 -0.1259
 3377TIP3    H210096   2.088   3.972   1.613  1.5035 -0.0720  0.8053
 3378TIP3   OH210097   2.908   6.653   3.475  0.0739 -0.0020  0.0949
 3378TIP3    H110098   2.813   6.644   3.470  0.0570 -0.9457  1.4764
 3378TIP3    H210099   2.936   6.669   3.385 -1.1176 -2.6190 -0.8506
 3379TIP3   OH210100   1.489   0.869   2.099 -0.4320 -0.2499 -0.1112
 3379TIP3    H110101   1.397   0.872   2.071 -0.6793  2.2717  0.7310
 3379TIP3    H210102   1.529   0.946   2.058  0.9147 -0.4258  0.8046
 3380TIP3   OH210103   6.759   4.509   1.321 -0.0977  0.1571 -0.3674
 3380TIP3    H110104   6.817   4.436   1.345  1.6999  1.8543  0.7207
 3380TIP3    H210105   6.714   4.531   1.402  0.0229  0.8167 -0.4757
 3381TIP3   OH210106   6.180   6.450   2.736  0.0516  0.2690  0.2410
 3381TIP3    H110107   6.197   6.382   2.802 -1.6540 -0.1562  0.2828
 3381TIP3    H210108   6.267   6.480   2.710  0.8512 -1.6325  0.5443
 3382TIP3   OH210109   1.352   4.066   0.654 -0.0227  0.2072 -0.1158
 3382TIP3    H110110   1.393   4.151   0.668  1.0664 -0.1221 -1.1336
 3382TIP3    H210111   1.259   4.085   0.643 -0.1252  1.0100  1.8774
 3383TIP3   OH210112   3.671   0.718   4.160 -0.1849  0.7392 -0.5907
 3383TIP3    H110113   3.718   0.778   4.217 -0.1023  1.1076 -1.0448
 3383TIP3    H210114   3.595   0.691   4.211  0.3354  0.4007  0.0177
 3384TIP3   OH210115   2.869   2.804   0.598 -0.1037  0.0740  0.1535
 3384TIP3    H110116   2.851   2.809   0.505 -2.0061  2.6145  0.5317
 3384TIP3    H210117   2.958   2.840   0.608 -0.6753  1.7743 -0.5520
 3385TIP3   OH210118   4.372   4.158   3.104 -0.0414 -0.2340 -0.2511
 3385TIP3    H110119   4.384   4.240   3.151 -0.4826 -0.1898 -0.2114
 3385TIP3    H210120   4.400   4.090   3.165 -2.4872 -0.3417  0.8798
 3386TIP3   OH210121   0.880   1.325   2.257  0.1980 -1.2947 -0.5531
 3386TIP3    H110122   0.880   1.231   2.275 -2.1997 -0.9735  1.7386
 3386TIP3    H210123   0.788   1.347   2.242  0.6373  0.7568 -0.5529
 3387TIP3   OH210124   6.789   0.349   4.548 -0.3322 -0.0812 -0.1958
 3387TIP3    H110125   6.738   0.330   4.627  0.3938 -1.2370  0.0176
 3387TIP3    H210126   6.766   0.440   4.527 -2.4946 -0.5500 -0.1412
 3388TIP3   OH210127   4.593   0.056   3.609 -0.0856 -0.5008 -0.1742
 3388TIP3    H110128   4.507   0.086   3.581 -0.4301  0.3513  1.6727
 3388TIP3    H210129   4.580  -0.037   3.632 -0.9087 -0.0335  1.4420
 3389TIP3   OH210130   3.480   3.735   2.414 -0.2189 -0.0957  0.4603
 3389TIP3    H110131   3.557   3.693   2.374 -1.5467 -0.8121 -1.5231
 3389TIP3    H210132   3.416   3.665   2.421 -1.2699  0.8430  0.4311
 3390TIP3   OH210133   0.107   4.841   5.491 -0.0299  0.2294  0.1653
 3390TIP3    H110134   0.155   4.914   5.451  0.9560 -0.8419 -0.6688
 3390TIP3    H210135   0.152   4.825   5.573  1.0077 -0.6866 -0.5549
 3391TIP3   OH210136   3.334   2.983   4.217 -0.4242  0.0317  0.1173
 3391TIP3    H110137   3.320   2.977   4.311 -1.6648  1.8373  0.0881
 3391TIP3    H210138   3.283   2.911   4.180 -3.4946  1.8093  0.5943
 3392TIP3   OH210139   1.450   1.671   5.553  0.1931 -0.2821 -0.3409
 3392TIP3    H110140   1.418   1.706   5.470 -2.7541  1.7066  1.4677
 3392TIP3    H210141   1.473   1.748   5.604  2.0968 -1.4778  0.7332
 3393TIP3   OH210142   7.074   2.572   0.698 -0.1289 -0.4197  0.1278
 3393TIP3    H110143   7.065   2.667   0.706 -2.0968 -0.7369  2.5021
 3393TIP3    H210144   7.021   2.550   0.622 -3.3768  0.0170  2.0968
 3394TIP3   OH210145   5.785   4.343   3.730  0.0335 -0.2906 -0.5690
 3394TIP3    H110146   5.805   4.271   3.670 -1.2245 -1.7699  0.6952
 3394TIP3    H210147   5.690   4.353   3.725 -0.0274 -0.0545  0.7280
 3395TIP3   OH210148   2.491   3.284   3.090 -0.1034 -0.1410  0.2044
 3395TIP3    H110149   2.423   3.311   3.151 -0.2229  0.3065 -0.1263
 3395TIP3    H210150   2.569   3.272   3.144 -0.1433  0.5028  0.4031
 3396TIP3   OH210151   5.542   3.546   5.900  0.1028  0.1785 -0.2927
 3396TIP3    H110152   5.565   3.455   5.882 -0.2301  0.3954 -2.0801
 3396TIP3    H210153   5.564   3.593   5.819  0.6973  1.7901  0.7384
 3397TIP3   OH210154   3.463   2.004   1.110 -0.0429 -0.0424 -0.4775
 3397TIP3    H110155   3.442   2.094   1.134 -1.4600 -0.4879  0.1092
 3397TIP3    H210156   3.490   2.008   1.018 -1.7187  0.7904 -0.9748
 3398TIP3   OH210157   0.768   3.894   2.916  0.6675  0.3137  0.0842
 3398TIP3    H110158   0.794   3.960   2.851  0.5583 -1.0288 -1.3747
 3398TIP3    H210159   0.675   3.913   2.933  0.3026 -0.1691 -1.2516
 3399TIP3   OH210160   6.287   4.524   2.570  0.5255 -0.0371  0.3453
 3399TIP3    H110161   6.314   4.615   2.562 -0.1344  0.1992  0.7113
 3399TIP3    H210162   6.197   4.523   2.538  0.8525 -0.7490 -0.5715
 3400TIP3   OH210163   3.627   3.549   2.729 -0.0213  0.0112  0.6075
 3400TIP3    H110164   3.664   3.572   2.643 -1.6562 -1.0715 -0.4469
 3400TIP3    H210165   3.626   3.632   2.777  0.6451  0.7135 -0.5189
 3401TIP3   OH210166   3.846   6.168   5.271 -0.1707  0.3524  0.4403
 3401TIP3    H110167   3.766   6.125   5.243  0.2393  0.0071 -0.2094
 3401TIP3    H210168   3.859   6.138   5.361 -0.5423  0.0783  0.4042
 3402TIP3   OH210169   3.042   1.722   5.097  0.4284  0.8376  0.4296
 3402TIP3    H110170   3.074   1.658   5.033  0.0812  1.3596 -0.2762
 3402TIP3    H210171   2.960   1.684   5.129  1.4055 -0.2309  1.8317
 3403TIP3   OH210172   6.849   1.955   5.869  0.0311 -0.2733  0.0655
 3403TIP3    H110173   6.915   2.011   5.908 -0.3795  0.8247 -0.7483
 3403TIP3    H210174   6.887   1.927   5.786  0.0048 -0.7379  0.2069
 3404TIP3   OH210175   6.520   5.184   1.993 -0.1539  0.1532 -0.2000
 3404TIP3    H110176   6.467   5.106   1.979 -2.1183  1.5117 -0.7366
 3404TIP3    H210177   6.474   5.233   2.061  1.6689  0.3505  0.9586
 3405TIP3   OH210178   5.697   0.382   1.639 -0.1918 -0.4674 -0.2960
 3405TIP3    H110179   5.686   0.334   1.557 -1.2502  2.1125 -1.8199
 3405TIP3    H210180   5.613   0.374   1.683  0.2040 -1.4135  0.3104
 3406TIP3   OH210181   2.483   5.772   0.712  0.2714 -0.0912 -0.2989
 3406TIP3    H110182   2.523   5.736   0.791 -0.3749  1.4942  0.8122
 3406TIP3    H210183   2.389   5.763   0.727 -0.0284  3.2081  0.7551
 3407TIP3   OH210184   4.263   5.200   4.990  0.2172 -0.1776 -0.2791
 3407TIP3    H110185   4.356   5.179   4.999  0.0498 -0.2949  1.8393
 3407TIP3    H210186   4.230   5.201   5.080 -1.3170  2.2607 -0.7627
 3408TIP3   OH210187   3.449   3.385   2.867 -0.0673  0.2377  0.8063
 3408TIP3    H110188   3.495   3.438   2.801  1.5645  1.0719  2.5015
 3408TIP3    H210189   3.370   3.355   2.823  0.2899  1.8606 -1.1008
 3409TIP3   OH210190   3.346   0.300   5.805 -0.5407  0.4075 -0.7507
 3409TIP3    H110191   3.260   0.269   5.777 -0.4965 -1.2318  0.7759
 3409TIP3    H210192   3.379   0.230   5.862  1.2805  1.5629 -0.3247
 3410TIP3   OH210193   5.533   5.771   3.316  0.3777  0.6060  0.0482
 3410TIP3    H110194   5.491   5.826   3.383  1.4220  0.3500  0.9471
 3410TIP3    H210195   5.462   5.716   3.283 -0.1338  0.6046  1.0987
 3411TIP3   OH210196   0.803   5.001   1.638  0.1453 -0.2448  0.0938
 3411TIP3    H110197   0.828   4.957   1.557 -0.5156 -0.3240 -0.0733
 3411TIP3    H210198   0.711   4.976   1.652 -0.4457  1.5616 -0.3328
 3412TIP3   OH210199   6.132   0.412   3.064  0.8618 -0.6747  0.6627
 3412TIP3    H110200   6.068   0.447   3.125  1.4441 -1.6827  1.9001
 3412TIP3    H210201   6.170   0.489   3.022 -1.9131 -0.0679 -0.9826
 3413TIP3   OH210202   6.850   4.315   4.192 -0.5103 -0.3924  0.0532
 3413TIP3    H110203   6.768   4.325   4.240 -0.4887  0.3618 -0.0536
 3413TIP3    H210204   6.903   4.255   4.245 -0.8667 -0.3503  0.4580
 3414TIP3   OH210205   0.898   1.925   3.298  0.1692 -0.0395 -0.2057
 3414TIP3    H110206   0.866   1.987   3.364  0.6565 -0.7810  0.7593
 3414TIP3    H210207   0.823   1.912   3.239 -0.2886  0.6139  0.2153
 3415TIP3   OH210208   4.663   4.532   3.756 -0.1359  0.3035 -0.2724
 3415TIP3    H110209   4.642   4.521   3.848 -0.1079 -0.6540 -0.3601
 3415TIP3    H210210   4.759   4.535   3.753 -0.0636 -1.1672 -0.3812
 3416TIP3   OH210211   4.070   0.769   4.266 -0.1411 -0.0047 -0.6773
 3416TIP3    H110212   4.029   0.757   4.352 -0.8736 -1.4305 -1.1861
 3416TIP3    H210213   4.112   0.855   4.271 -2.5114  1.2012  0.1596
 3417TIP3   OH210214   1.267   4.031   3.117  0.0965  0.6743 -0.0435
 3417TIP3    H110215   1.192   4.025   3.058 -0.1234 -0.3123  0.3034
 3417TIP3    H210216   1.231   4.009   3.203  0.7255  0.4625  0.1701
 3418TIP3   OH210217   2.681   1.392   0.224  0.0064  0.3571 -1.0955
 3418TIP3    H110218   2.600   1.355   0.189  0.3919 -0.4889 -1.1277
 3418TIP3    H210219   2.653   1.453   0.291 -0.7392  1.7846 -2.6534
 3419TIP3   OH210220   3.023   2.300   2.128  0.1706  0.1604  0.5315
 3419TIP3    H110221   2.959   2.259   2.185 -0.7342 -0.4550 -0.8668
 3419TIP3    H210222   3.057   2.229   2.074 -0.4535  0.9699 -1.0241
 3420TIP3   OH210223   1.600   6.518   1.047  0.5397 -0.1166 -0.0010
 3420TIP3    H110224   1.667   6.577   1.080 -0.7820  1.7389 -0.4546
 3420TIP3    H210225   1.522   6.573   1.036 -0.2302 -1.4852 -2.3330
 3421TIP3   OH210226   3.131   0.918   5.845 -0.4787 -0.0425 -0.5377
 3421TIP3    H110227   3.118   0.965   5.763  1.7687  0.1870 -0.8244
 3421TIP3    H210228   3.132   0.986   5.912  1.9090  0.3070 -0.8550
 3422TIP3   OH210229   2.382   1.805   0.994 -0.1396  0.2904  0.1656
 3422TIP3    H110230   2.441   1.874   0.965 -1.2681  1.0871 -0.2758
 3422TIP3    H210231   2.342   1.772   0.914 -0.6658  0.1023  0.4991
 3423TIP3   OH210232   7.147   4.369   3.186  0.2951 -0.0092 -0.6236
 3423TIP3    H110233   7.122   4.279   3.165 -0.7335  0.2012 -0.3673
 3423TIP3    H210234   7.242   4.366   3.195  0.3261 -0.9648 -1.1141
 3424TIP3   OH210235   4.393   5.859   1.974 -0.1517 -0.2756 -0.3133
 3424TIP3    H110236   4.411   5.872   2.068 -0.1267  0.2342 -0.3827
 3424TIP3    H210237   4.479   5.865   1.933 -0.0569 -1.3513 -0.2848
 3425TIP3   OH210238   6.933   6.770   0.298  0.1500 -0.1048  0.7057
 3425TIP3    H110239   6.876   6.709   0.251 -0.4891  0.2030  1.0734
 3425TIP3    H210240   7.018   6.761   0.255  0.1874 -1.5800  1.0409
 3426TIP3   OH210241   1.935   4.025   1.031 -0.0646 -0.1531 -0.1858
 3426TIP3    H110242   2.009   4.075   0.997 -0.2105  0.2435  0.0712
 3426TIP3    H210243   1.951   4.019   1.125  0.2527 -1.1022 -0.2876
 3427TIP3   OH210244   7.139   5.168   0.187  0.4182 -0.2730  0.2538
 3427TIP3    H110245   7.052   5.133   0.206 -0.6012  1.2097 -1.4690
 3427TIP3    H210246   7.185   5.162   0.271 -1.3127 -1.1277  1.2029
 3428TIP3   OH210247   2.736   0.349   3.946  0.7628  0.1993  0.6109
 3428TIP3    H110248   2.691   0.432   3.934  1.2762  0.4107  0.1709
 3428TIP3    H210249   2.790   0.338   3.868  1.3683 -0.1246  1.0653
 3429TIP3   OH210250   0.026   3.208   4.279 -0.4484  0.3062  0.4888
 3429TIP3    H110251  -0.037   3.148   4.239 -1.1481  1.0416  0.4586
 3429TIP3    H210252   0.111   3.181   4.243 -0.6750 -0.9622  0.8458
 3430TIP3   OH210253   5.901   5.645   2.268 -0.2865  0.8976  0.0075
 3430TIP3    H110254   5.875   5.617   2.180  0.9164  1.5844 -0.5925
 3430TIP3    H210255   5.992   5.618   2.275 -0.3925  0.7934  1.0792
 3431TIP3   OH210256   4.930   0.885   0.094 -0.3695  0.0561 -0.3706
 3431TIP3    H110257   4.962   0.974   0.078 -0.1002 -0.0654 -0.5308
 3431TIP3    H210258   5.010   0.832   0.099 -0.5683 -0.6321 -3.0164
 3432TIP3   OH210259   2.752   1.617   2.551  0.2792  0.0449  0.1333
 3432TIP3    H110260   2.702   1.638   2.630 -0.8499  0.8056 -0.7330
 3432TIP3    H210261   2.824   1.680   2.550  0.0626  0.2962  0.3500
 3433TIP3   OH210262   0.669   5.379   5.303 -0.2369  0.7900 -0.0163
 3433TIP3    H110263   0.694   5.471   5.311  0.1931  0.5556  1.5884
 3433TIP3    H210264   0.575   5.379   5.320 -0.1115  0.8466  0.6818
 3434TIP3   OH210265   5.893   2.935   2.298 -0.7006 -0.6425  0.5469
 3434TIP3    H110266   5.966   2.993   2.321 -2.6322  2.2945 -0.1533
 3434TIP3    H210267   5.856   2.910   2.382 -0.4921  0.0857  0.8694
 3435TIP3   OH210268   4.692   1.166   1.684 -0.5801  0.0107  0.1864
 3435TIP3    H110269   4.642   1.242   1.713 -1.5238 -0.9771  1.2538
 3435TIP3    H210270   4.744   1.198   1.610  0.8140  2.2660  2.0273
 3436TIP3   OH210271   3.763   5.031   0.424  0.1674 -0.1159 -0.4281
 3436TIP3    H110272   3.804   5.020   0.510 -0.9221 -0.3120  0.0736
 3436TIP3    H210273   3.700   4.960   0.417 -1.0900  0.9617 -0.5850
 3437TIP3   OH210274   3.598   2.449   3.762 -0.1960 -0.8992 -0.5082
 3437TIP3    H110275   3.555   2.534   3.772  0.8767 -0.5814  2.3933
 3437TIP3    H210276   3.669   2.464   3.700  2.2784  1.4320  2.5681
 3438TIP3   OH210277   6.772   2.823   3.020 -0.2186  0.1059 -0.0093
 3438TIP3    H110278   6.677   2.809   3.020 -0.5096  1.4512 -2.8917
 3438TIP3    H210279   6.798   2.814   2.929  2.7939 -1.8727  0.8867
 3439TIP3   OH210280   0.596   1.679   0.692  0.3280  1.0311  0.3972
 3439TIP3    H110281   0.655   1.752   0.711  1.3968  0.2848  0.0230
 3439TIP3    H210282   0.611   1.660   0.599 -0.2111  0.5814  0.3995
 3440TIP3   OH210283   3.931   5.315   3.973 -0.0427  0.3503 -0.0235
 3440TIP3    H110284   3.969   5.368   4.044  0.7538 -1.1482  0.7168
 3440TIP3    H210285   3.881   5.247   4.018  0.6601 -0.7653 -0.8567
 3441TIP3   OH210286   1.528   2.556   4.704 -0.0930  0.6306 -0.3272
 3441TIP3    H110287   1.548   2.533   4.613 -1.7469 -0.1413 -0.5177
 3441TIP3    H210288   1.614   2.561   4.747  0.6559  0.2639 -1.7473
 3442TIP3   OH210289   2.602   1.136   1.092  0.6332  0.0148  0.0130
 3442TIP3    H110290   2.624   1.058   1.142 -0.3782 -2.5901 -3.2322
 3442TIP3    H210291   2.532   1.178   1.142  1.2116 -1.1318  1.8718
 3443TIP3   OH210292   4.734   3.588   2.703  0.0688 -0.1081  0.7906
 3443TIP3    H110293   4.827   3.571   2.714  0.1677  0.0735  0.2484
 3443TIP3    H210294   4.718   3.670   2.749 -0.2088 -1.0763  2.5312
 3444TIP3   OH210295   2.881   6.658   4.614  0.4533  0.5607 -0.2797
 3444TIP3    H110296   2.813   6.686   4.553  1.9732  2.0626 -1.3967
 3444TIP3    H210297   2.896   6.566   4.593 -0.7042  0.4211 -0.5350
 3445TIP3   OH210298   4.799   4.362   3.031 -0.2986 -0.1944  0.1736
 3445TIP3    H110299   4.822   4.436   2.975 -1.6666  0.2890  0.2149
 3445TIP3    H210300   4.709   4.341   3.008 -0.5349 -0.6764  1.4440
 3446TIP3   OH210301   2.204   5.005   2.873 -0.1517 -0.7389  0.3724
 3446TIP3    H110302   2.209   4.991   2.968  1.8160  1.7122  0.7243
 3446TIP3    H210303   2.252   4.931   2.836 -0.1171 -1.2248  1.3351
 3447TIP3   OH210304   4.060   4.042   3.049 -0.3099 -0.7172  0.0122
 3447TIP3    H110305   3.996   4.000   2.992  1.1771 -2.3519 -0.5309
 3447TIP3    H210306   4.123   3.973   3.070  0.9705  0.6784  1.0043
 3448TIP3   OH210307   5.702   3.002   1.735 -0.4073 -0.6413  0.1589
 3448TIP3    H110308   5.673   2.972   1.821  1.4940  0.0677  1.1238
 3448TIP3    H210309   5.733   2.923   1.691  1.6206 -0.6521  1.4499
 3449TIP3   OH210310   1.728   0.192   5.523  0.8066  0.9904  0.2174
 3449TIP3    H110311   1.705   0.196   5.431  0.4125  1.7214  0.3361
 3449TIP3    H210312   1.651   0.228   5.569 -0.0352 -1.6371  1.0222
 3450TIP3   OH210313   6.301   0.663   3.900  0.0593  0.2295 -0.2678
 3450TIP3    H110314   6.227   0.664   3.961  0.9374 -1.2354  0.8958
 3450TIP3    H210315   6.331   0.755   3.897 -2.0393  0.9424 -1.1504
 3451TIP3   OH210316   2.887   3.197   4.348  0.1694  0.4479 -1.0556
 3451TIP3    H110317   2.875   3.125   4.410  0.2863 -0.7799 -2.4162
 3451TIP3    H210318   2.880   3.276   4.402 -0.4809 -0.5512  0.3921
 3452TIP3   OH210319   0.884   3.118   3.119 -0.4493 -0.1771 -0.4827
 3452TIP3    H110320   0.836   3.050   3.071 -0.0769  0.2323 -1.4677
 3452TIP3    H210321   0.842   3.200   3.091 -1.8256 -0.0250  1.7431
 3453TIP3   OH210322   4.605   6.759   0.910  0.2892  0.0459  0.0690
 3453TIP3    H110323   4.567   6.714   0.986 -0.6283 -0.0488 -0.4382
 3453TIP3    H210324   4.623   6.690   0.847 -1.3353  0.3739 -0.8040
 3454TIP3   OH210325   4.788   0.444   3.620  0.0485  0.4485  0.4511
 3454TIP3    H110326   4.877   0.456   3.654  0.1947  1.4225 -0.2264
 3454TIP3    H210327   4.794   0.368   3.562  0.0159 -0.6186  1.7856
 3455TIP3   OH210328   0.951   5.392   1.922  0.7278  0.0169 -0.7453
 3455TIP3    H110329   0.992   5.311   1.891  1.9172  0.2984  0.0246
 3455TIP3    H210330   1.023   5.442   1.960 -0.5169  0.0099  1.7888
 3456TIP3   OH210331   6.381   0.941   1.466 -0.0726  0.5307 -0.2364
 3456TIP3    H110332   6.348   0.851   1.469  0.8669  0.1784  2.7694
 3456TIP3    H210333   6.461   0.935   1.414 -0.2193 -0.2740 -0.3845
 3457TIP3   OH210334   4.768   2.151   2.444 -0.0756 -0.2382 -0.4403
 3457TIP3    H110335   4.846   2.109   2.478 -0.5413 -0.5833  0.2055
 3457TIP3    H210336   4.782   2.153   2.349  0.8911  0.0663 -0.3031
 3458TIP3   OH210337   4.374   1.323   2.773 -0.0071  0.3880 -0.0894
 3458TIP3    H110338   4.432   1.314   2.698  0.2130 -0.3112  0.1616
 3458TIP3    H210339   4.419   1.278   2.844 -0.6944  0.1319  0.1988
 3459TIP3   OH210340   0.934   1.282   4.408  0.5329  0.0970 -0.3193
 3459TIP3    H110341   0.968   1.195   4.428  0.6654  0.3697  0.7192
 3459TIP3    H210342   0.919   1.322   4.494  1.3113  1.4203 -0.7691
 3460TIP3   OH210343   2.103   1.325   4.792 -0.0029  0.3980 -0.0645
 3460TIP3    H110344   2.136   1.414   4.805  1.3547  0.0213 -0.7444
 3460TIP3    H210345   2.081   1.321   4.699  0.8394 -0.2369 -0.2529
 3461TIP3   OH210346   5.217   2.511   3.486  0.4205 -0.0215  0.2588
 3461TIP3    H110347   5.173   2.573   3.428  0.5191  0.3223  0.5501
 3461TIP3    H210348   5.228   2.432   3.432 -2.1220 -0.7639  0.6841
 3462TIP3   OH210349   4.541   6.259   1.624  0.0327 -0.4688  0.8743
 3462TIP3    H110350   4.588   6.321   1.569 -1.2107 -0.3378 -0.0885
 3462TIP3    H210351   4.592   6.255   1.705  0.5915  1.1800  0.6442
 3463TIP3   OH210352   4.039   1.931   0.281  0.3004 -0.3563  0.5356
 3463TIP3    H110353   4.032   1.960   0.372  0.0142  1.3563  0.0011
 3463TIP3    H210354   3.995   1.846   0.280 -1.6745  0.5933  1.5723
 3464TIP3   OH210355   6.719   3.194   2.073  0.0243  0.1675  0.2415
 3464TIP3    H110356   6.717   3.248   2.151  0.7319 -0.1424  0.4886
 3464TIP3    H210357   6.810   3.202   2.041 -0.1293 -0.0842 -0.2726
 3465TIP3   OH210358   6.675   1.108   2.472  0.4492 -0.2769 -0.2051
 3465TIP3    H110359   6.712   1.090   2.558 -0.3313  1.7203  0.6239
 3465TIP3    H210360   6.614   1.181   2.487 -0.7592 -0.7855 -2.2055
 3466TIP3   OH210361   3.600   4.301   1.713  0.2086  0.1174 -0.2914
 3466TIP3    H110362   3.554   4.234   1.664 -0.1568  0.0132  0.1851
 3466TIP3    H210363   3.672   4.328   1.656 -0.0045 -0.2441 -0.7334
 3467TIP3   OH210364   5.775   6.505   1.468  0.4068  0.1457 -0.3660
 3467TIP3    H110365   5.681   6.521   1.460  0.3708 -0.1777 -0.6146
 3467TIP3    H210366   5.814   6.592   1.482 -0.0551  0.1595  0.9994
 3468TIP3   OH210367   0.366   4.759   3.779 -0.7598  0.3638  0.5138
 3468TIP3    H110368   0.331   4.802   3.701 -0.7682  1.6366  1.1881
 3468TIP3    H210369   0.366   4.666   3.757  1.6364  0.7987 -1.9781
 3469TIP3   OH210370   1.028   2.879   0.460  0.3855 -0.3454  0.2085
 3469TIP3    H110371   1.072   2.822   0.523  1.4694  1.9077  1.6243
 3469TIP3    H210372   1.085   2.878   0.383 -0.1923 -1.9908 -0.2304
 3470TIP3   OH210373   2.837   0.342   4.788 -0.1846  0.2870  0.5374
 3470TIP3    H110374   2.922   0.367   4.753 -0.0579 -0.1818  0.5025
 3470TIP3    H210375   2.844   0.359   4.882  0.5584 -1.3362  0.8239
 3471TIP3   OH210376   2.556   6.549   1.856 -0.2080  0.2486  0.4181
 3471TIP3    H110377   2.466   6.518   1.848 -0.2007  0.2314  0.4047
 3471TIP3    H210378   2.595   6.533   1.770 -0.1834  0.2288  0.4327
 3472TIP3   OH210379   1.080   2.671   2.430  0.1840 -0.3097 -0.7706
 3472TIP3    H110380   1.166   2.629   2.432  1.0169  1.2685 -1.5821
 3472TIP3    H210381   1.094   2.753   2.383 -1.4480  0.7273  0.4225
 3473TIP3   OH210382   2.226   1.960   2.617  0.2723 -0.4675 -0.1992
 3473TIP3    H110383   2.212   1.869   2.643  1.0021 -0.7878 -0.8921
 3473TIP3    H210384   2.143   2.004   2.636 -0.0279 -1.2336  0.2993
 3474TIP3   OH210385   5.082   4.599   1.588  0.1531  0.1500 -0.0614
 3474TIP3    H110386   5.153   4.655   1.557 -0.4601  0.1915 -1.4494
 3474TIP3    H210387   5.126   4.523   1.627  0.9612  0.3125 -0.6313
 3475TIP3   OH210388   1.129   4.027   2.068  0.0302  0.2957 -0.5606
 3475TIP3    H110389   1.102   3.944   2.108 -0.8278 -0.3728 -2.4350
 3475TIP3    H210390   1.071   4.092   2.107  0.6835  0.0577  0.8942
 3476TIP3   OH210391   3.209   5.043   5.724  0.1435 -0.4665 -0.5048
 3476TIP3    H110392   3.303   5.031   5.717  0.2999 -0.9323  1.6377
 3476TIP3    H210393   3.198   5.109   5.794 -1.1128 -0.5392 -0.6039
 3477TIP3   OH210394   5.469   0.896   4.673  0.6729  0.0937  0.2545
 3477TIP3    H110395   5.529   0.855   4.610  0.3263 -2.5174  1.5113
 3477TIP3    H210396   5.526   0.934   4.739  0.9955 -0.0310  0.0504
 3478TIP3   OH210397   5.245   0.644   2.425  0.7107 -0.8192  0.4714
 3478TIP3    H110398   5.245   0.581   2.353 -3.7483 -1.6050  0.9326
 3478TIP3    H210399   5.235   0.591   2.504  1.2769  0.2674  1.3001
 3479TIP3   OH210400   4.947   2.427   5.303 -0.4259  0.1344 -0.0755
 3479TIP3    H110401   4.889   2.353   5.283  0.3176 -0.5524  0.2519
 3479TIP3    H210402   5.033   2.387   5.314  0.2520  1.2169 -1.2078
 3480TIP3   OH210403   0.188   3.972   1.397  0.4818 -0.0361 -0.6536
 3480TIP3    H110404   0.199   3.962   1.492  1.3759  0.1145 -0.7272
 3480TIP3    H210405   0.225   4.058   1.378  0.4680 -0.1408 -1.1677
 3481TIP3   OH210406   1.489   2.316   0.022  0.2210  0.2318 -0.7675
 3481TIP3    H110407   1.580   2.305   0.050  0.3898  0.1857 -1.3152
 3481TIP3    H210408   1.448   2.365   0.093  0.3029 -0.9994  0.1722
 3482TIP3   OH210409   1.543   6.167   5.122 -0.0925  0.4030 -0.2641
 3482TIP3    H110410   1.491   6.113   5.181 -1.1287  4.4765  2.9974
 3482TIP3    H210411   1.478   6.211   5.067  0.4986  0.5572 -0.8520
 3483TIP3   OH210412   5.582   1.578   2.729 -0.1035 -0.4226 -0.1958
 3483TIP3    H110413   5.548   1.499   2.770 -3.1029 -0.6099 -2.6822
 3483TIP3    H210414   5.568   1.647   2.795  1.7042 -1.6801  1.6418
 3484TIP3   OH210415   5.638   1.752   0.937  0.1350 -0.6766 -0.2477
 3484TIP3    H110416   5.571   1.750   0.868  1.5500 -0.6424 -1.6894
 3484TIP3    H210417   5.677   1.665   0.936  2.0482  0.1271 -1.4919
 3485TIP3   OH210418   6.168   4.810   5.409  0.4517  0.0985  0.2716
 3485TIP3    H110419   6.224   4.736   5.383 -0.1915 -0.4426  0.3739
 3485TIP3    H210420   6.147   4.853   5.326 -0.9633 -1.1648 -0.0810
 3486TIP3   OH210421   1.222   5.263   3.110  0.1055 -0.0278  0.0059
 3486TIP3    H110422   1.258   5.281   3.023  0.1346 -0.2557 -0.0285
 3486TIP3    H210423   1.298   5.266   3.168  0.1212 -0.1217 -0.0106
 3487TIP3   OH210424   5.337   5.020   3.268 -0.1145 -0.1199  0.3960
 3487TIP3    H110425   5.318   5.101   3.221  0.0967 -0.5545 -0.4434
 3487TIP3    H210426   5.274   4.957   3.234  1.6850 -1.1376 -1.2254
 3488TIP3   OH210427   6.435   2.331   3.097 -0.2516  0.6286 -0.3276
 3488TIP3    H110428   6.448   2.364   3.186  0.6920 -2.5426  0.8884
 3488TIP3    H210429   6.347   2.294   3.098  0.6336 -1.6383  0.2127
 3489TIP3   OH210430   0.887   6.128   0.049 -0.4917 -1.0574 -0.0720
 3489TIP3    H110431   0.940   6.204   0.028 -1.4318 -0.5108 -0.5114
 3489TIP3    H210432   0.897   6.070  -0.026 -0.9377 -0.7146 -0.4003
 3490TIP3   OH210433   4.758   3.262   1.129  0.2954  0.0311  0.3529
 3490TIP3    H110434   4.733   3.352   1.147 -2.7696 -0.3300 -1.4205
 3490TIP3    H210435   4.696   3.209   1.179  1.7486 -1.1267  1.0048
 3491TIP3   OH210436   0.153   6.664   4.281 -0.4299  0.1914  0.3677
 3491TIP3    H110437   0.130   6.751   4.248 -0.3258  0.7279  1.6625
 3491TIP3    H210438   0.143   6.671   4.376 -1.8698 -1.6370  0.4070
 3492TIP3   OH210439   4.405   6.353   2.025 -0.0201  0.8065  0.4915
 3492TIP3    H110440   4.481   6.411   2.033  0.2131  0.3853  1.4249
 3492TIP3    H210441   4.436   6.269   2.060 -0.6370  0.3741  0.0109
 3493TIP3   OH210442   4.796   1.749   3.359  1.3084  0.0514  0.1671
 3493TIP3    H110443   4.750   1.822   3.317  0.2285 -0.3797  0.5632
 3493TIP3    H210444   4.856   1.791   3.421  0.1100  0.6135  1.0014
 3494TIP3   OH210445   7.051   6.076   5.756  0.0441 -0.0395 -0.0823
 3494TIP3    H110446   7.137   6.035   5.752 -0.8363 -1.9300 -0.7315
 3494TIP3    H210447   7.026   6.087   5.665 -1.1592 -1.2710  0.0605
 3495TIP3   OH210448   2.148   4.455   2.642  0.0622 -0.2912 -0.6597
 3495TIP3    H110449   2.154   4.364   2.614 -2.0861 -0.5088 -0.5567
 3495TIP3    H210450   2.160   4.452   2.737 -0.8035 -0.5974 -0.5486
 3496TIP3   OH210451   1.027   4.098   1.079  0.5016 -0.1137 -0.2821
 3496TIP3    H110452   1.053   4.177   1.032  0.3567 -0.0863 -0.3148
 3496TIP3    H210453   1.020   4.126   1.170  3.6003 -0.7837  0.2641
 3497TIP3   OH210454   2.836   5.000   2.213 -0.0143 -0.1685 -0.4683
 3497TIP3    H110455   2.859   4.965   2.127 -0.6588  0.7976 -1.0542
 3497TIP3    H210456   2.862   5.092   2.209  1.4009 -0.4729  0.9410
 3498TIP3   OH210457   5.286   3.440   0.532  0.2271 -0.1882  0.3873
 3498TIP3    H110458   5.343   3.399   0.468  1.6607 -0.6539  1.8843
 3498TIP3    H210459   5.291   3.534   0.512  0.1497 -0.3804 -0.5522
 3499TIP3   OH210460   7.041   4.737   0.166  0.4539 -0.3049  0.1090
 3499TIP3    H110461   7.107   4.767   0.229  0.2623  0.3708 -0.0054
 3499TIP3    H210462   7.042   4.642   0.174  1.9416 -0.3502 -0.3946
 3500TIP3   OH210463   6.546   4.573   2.737  0.1687 -0.1293 -0.8008
 3500TIP3    H110464   6.508   4.583   2.650 -0.3257  1.4102 -0.4360
 3500TIP3    H210465   6.477   4.604   2.797  1.1464  0.5226  0.0157
 3501TIP3   OH210466   3.436   2.009   4.598  0.1668 -0.0389  0.6958
 3501TIP3    H110467   3.501   1.980   4.662  1.5336 -0.1709 -0.6926
 3501TIP3    H210468   3.393   2.084   4.640  0.2425 -0.7961  2.1908
 3502TIP3   OH210469   6.587   6.226   5.305  0.1527  0.2459  0.1638
 3502TIP3    H110470   6.604   6.301   5.363  1.7089  2.0733 -2.4387
 3502TIP3    H210471   6.551   6.265   5.226  1.7608 -1.6325 -1.6053
 3503TIP3   OH210472   1.965   5.704   1.686 -0.3514  0.0577  0.2265
 3503TIP3    H110473   1.917   5.772   1.639 -1.1575 -2.6953 -3.3267
 3503TIP3    H210474   1.897   5.644   1.717  0.4980 -1.5013 -0.8284
 3504TIP3   OH210475   0.288   1.627   0.665 -0.1632  0.4051  0.4703
 3504TIP3    H110476   0.296   1.593   0.575 -0.7552 -1.5869  1.1100
 3504TIP3    H210477   0.374   1.663   0.684 -0.1927  1.3722 -1.0826
 3505TIP3   OH210478   1.375   4.396   1.805  0.0243 -0.2574 -0.3189
 3505TIP3    H110479   1.332   4.312   1.824  0.2658 -0.4445 -0.5930
 3505TIP3    H210480   1.314   4.462   1.839 -1.7950 -0.3676 -3.0311
 3506TIP3   OH210481   1.298   3.696   1.229 -0.0962  0.0949  0.8469
 3506TIP3    H110482   1.283   3.786   1.260 -1.1696  0.1416  0.2405
 3506TIP3    H210483   1.252   3.692   1.145 -0.1749 -1.0690  0.9331
 3507TIP3   OH210484   2.441   3.788   3.839  0.0357 -0.0388  0.3493
 3507TIP3    H110485   2.480   3.705   3.812  1.1418  0.8054 -0.8192
 3507TIP3    H210486   2.399   3.821   3.759  0.2681  0.8603  0.5872
 3508TIP3   OH210487   4.394   0.778   4.011 -0.0865 -0.5751 -0.1657
 3508TIP3    H110488   4.378   0.820   3.926 -2.4414 -2.5302 -0.8047
 3508TIP3    H210489   4.310   0.782   4.056  0.5824 -1.3937  1.2208
 3509TIP3   OH210490   0.832   0.432   3.158 -0.1165  0.0538  0.2441
 3509TIP3    H110491   0.846   0.519   3.121 -2.4714  0.4357  0.0992
 3509TIP3    H210492   0.885   0.374   3.104  2.4966  1.4832  1.1159
 3510TIP3   OH210493   0.048   4.455   1.199 -0.7510 -0.8493 -0.1320
 3510TIP3    H110494   0.072   4.364   1.214 -0.4810 -0.5795  1.3149
 3510TIP3    H210495   0.132   4.500   1.185 -0.6323 -0.4766  1.4861
 3511TIP3   OH210496   1.105   0.906   3.755  0.0519  0.1384 -0.3963
 3511TIP3    H110497   1.056   0.916   3.837  1.0925  0.3527  0.2105
 3511TIP3    H210498   1.135   0.815   3.756  0.2533  0.2062 -0.4421
 3512TIP3   OH210499   2.656   1.154   5.038 -0.0860  0.1153 -1.2647
 3512TIP3    H110500   2.748   1.174   5.054 -0.4099  1.5009 -0.9625
 3512TIP3    H210501   2.642   1.176   4.945 -0.2895  0.7380 -1.0969
 3513TIP3   OH210502   3.048   5.417   5.714  0.0583 -0.4170  0.1702
 3513TIP3    H110503   3.118   5.385   5.658 -0.0348  0.1717 -0.2836
 3513TIP3    H210504   2.993   5.471   5.657  1.3196  2.2722  1.3340
 3514TIP3   OH210505   3.396   2.686   5.324 -0.6541 -0.3453  0.2839
 3514TIP3    H110506   3.414   2.694   5.417  1.7382  2.9086 -0.2789
 3514TIP3    H210507   3.304   2.712   5.315 -1.1428 -1.4376  1.7332
 3515TIP3   OH210508   4.092   3.350   2.525 -0.1974 -0.4746 -0.3067
 3515TIP3    H110509   4.124   3.301   2.600 -1.3214 -0.6901  0.0393
 3515TIP3    H210510   4.163   3.412   2.505  0.9332 -1.7426 -0.3198
 3516TIP3   OH210511   6.580   0.410   1.389 -0.0232  0.7819  0.0267
 3516TIP3    H110512   6.560   0.503   1.394 -0.6936  0.6779 -0.5945
 3516TIP3    H210513   6.584   0.391   1.295  0.1181  0.1880  0.1474
 3517TIP3   OH210514   4.293   6.376   1.735 -0.5643  0.0021 -0.3594
 3517TIP3    H110515   4.322   6.401   1.822 -0.2064  0.6504 -0.6558
 3517TIP3    H210516   4.373   6.346   1.691 -0.5858  0.4645 -0.7246
 3518TIP3   OH210517   3.962   0.021   5.552  0.0080 -0.2570  1.2355
 3518TIP3    H110518   4.020  -0.037   5.503  0.2415 -0.3109  1.5757
 3518TIP3    H210519   4.020   0.071   5.609 -0.3224 -0.6597  1.9402
 3519TIP3   OH210520   5.083   4.200   2.138  0.4267 -0.2037 -0.0494
 3519TIP3    H110521   5.174   4.203   2.109 -0.1436  0.0766 -1.9745
 3519TIP3    H210522   5.032   4.202   2.057 -1.2949 -0.7222  0.9623
 3520TIP3   OH210523   6.706   1.554   1.120 -0.1943  0.0392 -0.1434
 3520TIP3    H110524   6.705   1.462   1.146  1.5027 -0.1813 -0.7455
 3520TIP3    H210525   6.669   1.600   1.195 -1.0251 -1.1189  0.1840
 3521TIP3   OH210526   2.673   3.790   2.120  0.1207 -0.3227  0.6737
 3521TIP3    H110527   2.596   3.846   2.109 -1.2526 -2.4432 -1.7853
 3521TIP3    H210528   2.637   3.705   2.144  1.4122 -1.8595 -2.3193
 3522TIP3   OH210529   5.876   1.239   5.422 -0.1544 -0.5041  0.3609
 3522TIP3    H110530   5.819   1.316   5.426 -0.7936 -1.0051  1.3418
 3522TIP3    H210531   5.820   1.166   5.451  0.3544 -1.3972 -0.8005
 3523TIP3   OH210532   2.101   4.186   2.576  0.4500  0.1101  0.0727
 3523TIP3    H110533   2.111   4.126   2.650  1.3661  0.4380  0.2256
 3523TIP3    H210534   2.016   4.228   2.591  0.0545 -0.7350  0.2604
 3524TIP3   OH210535   2.120   4.367   1.839  0.6336  0.2635  0.1776
 3524TIP3    H110536   2.158   4.433   1.898 -0.5568  0.9790  0.1894
 3524TIP3    H210537   2.026   4.382   1.845  0.4109 -0.6743 -0.7445
 3525TIP3   OH210538   1.721   5.518   3.429 -0.4168 -0.6582  0.4203
 3525TIP3    H110539   1.806   5.557   3.451 -0.8689  0.8940 -0.4389
 3525TIP3    H210540   1.665   5.538   3.503 -0.6748  0.4741 -0.0608
 3526TIP3   OH210541   0.319   2.525   4.330  0.2122 -0.5276 -0.1862
 3526TIP3    H110542   0.243   2.475   4.301 -0.7417  0.0922  1.1150
 3526TIP3    H210543   0.368   2.465   4.385  0.4196 -0.7861 -0.6493
 3527TIP3   OH210544   1.505   2.382   3.628  0.3998  0.2639 -0.3470
 3527TIP3    H110545   1.451   2.305   3.610  0.9706 -0.1221 -0.4443
 3527TIP3    H210546   1.581   2.347   3.676 -0.6545  1.1133  2.1329
 3528TIP3   OH210547   1.159   2.730   5.302  0.0778 -0.0621  0.0549
 3528TIP3    H110548   1.208   2.718   5.221 -2.0342 -0.6732 -1.2083
 3528TIP3    H210549   1.174   2.822   5.326 -0.7447  0.6883 -2.0954
 3529TIP3   OH210550   1.464   0.629   3.124  0.8450  0.3761  0.6688
 3529TIP3    H110551   1.437   0.717   3.148 -4.2645  0.0634 -2.4858
 3529TIP3    H210552   1.485   0.635   3.031  0.2243 -1.7159  0.3489
 3530TIP3   OH210553   6.032   0.421   4.200 -0.4548  0.2184 -0.8369
 3530TIP3    H110554   5.983   0.342   4.176 -1.3258  0.7518 -0.8672
 3530TIP3    H210555   6.105   0.389   4.252 -1.0062 -0.5858 -0.5312
 3531TIP3   OH210556   2.707   5.942   0.954 -0.4822  1.4309 -0.1064
 3531TIP3    H110557   2.718   5.925   1.048  0.1106  1.4682 -0.1702
 3531TIP3    H210558   2.675   5.858   0.919  1.3985  0.7265 -0.2310
 3532TIP3   OH210559   6.583   6.684   4.770 -0.1080  0.0286  0.6239
 3532TIP3    H110560   6.493   6.718   4.765 -0.6152 -1.3325 -0.6736
 3532TIP3    H210561   6.592   6.653   4.860 -0.8773  0.3850  0.8344
 3533TIP3   OH210562   4.879   3.872   3.818  0.6421 -0.0309 -0.1503
 3533TIP3    H110563   4.941   3.800   3.811 -0.6259 -1.1485 -0.4165
 3533TIP3    H210564   4.793   3.830   3.814 -0.1914  1.1916  2.3653
 3534TIP3   OH210565   2.355   0.719   2.936  0.7973  0.0269 -0.2608
 3534TIP3    H110566   2.362   0.659   3.010 -1.4124 -0.6859 -0.5426
 3534TIP3    H210567   2.317   0.666   2.866 -1.2462  1.6964 -0.5259
 3535TIP3   OH210568   2.929   5.658   4.281  0.1947  0.1445 -0.1673
 3535TIP3    H110569   2.943   5.565   4.294  1.2905  0.1092 -1.4351
 3535TIP3    H210570   2.986   5.682   4.208  0.5465  1.9679  0.6334
 3536TIP3   OH210571   2.934   2.384   3.342 -0.1668  0.3043  0.1491
 3536TIP3    H110572   2.944   2.478   3.354  0.3015  0.2804 -0.0075
 3536TIP3    H210573   2.972   2.367   3.255  2.5119 -0.4362  1.3510
 3537TIP3   OH210574   2.184   0.950   0.029 -0.8360  0.1436  0.3152
 3537TIP3    H110575   2.256   0.930  -0.031  0.0758 -1.0719  1.7437
 3537TIP3    H210576   2.228   0.978   0.109 -1.9958  0.2878  0.9089
 3538TIP3   OH210577   5.954   4.285   0.282  0.4619 -0.4596  0.5393
 3538TIP3    H110578   6.033   4.330   0.252  1.3049 -0.8528  2.0471
 3538TIP3    H210579   5.907   4.262   0.202  0.5194  2.1306 -0.3157
 3539TIP3   OH210580   4.499   4.218   1.665  0.2688 -0.5122 -0.4624
 3539TIP3    H110581   4.483   4.233   1.572  1.7463 -3.1253 -1.2501
 3539TIP3    H210582   4.480   4.125   1.677  0.5797 -0.3350  1.7454
 3540TIP3   OH210583   1.660   1.540   5.755 -0.1403 -0.4457  0.5982
 3540TIP3    H110584   1.576   1.559   5.715  0.2218 -1.4760 -0.7491
 3540TIP3    H210585   1.700   1.626   5.771 -0.7258  0.0118 -0.3387
 3541TIP3   OH210586   4.242   5.398   5.482  0.2657 -0.1457  0.3062
 3541TIP3    H110587   4.322   5.347   5.496  0.3848 -0.1433 -0.3392
 3541TIP3    H210588   4.244   5.464   5.551  1.6477  0.8546 -0.6255
 3542TIP3   OH210589   4.701   6.182   1.843  0.0890 -0.4537 -0.1345
 3542TIP3    H110590   4.774   6.169   1.903  0.7384 -3.0557 -1.3742
 3542TIP3    H210591   4.624   6.150   1.891  0.0703  0.3675  0.4055
 3543TIP3   OH210592   2.389   0.912   0.601 -0.3189 -0.1816  0.4373
 3543TIP3    H110593   2.407   0.994   0.646 -1.8470 -0.0133  0.8238
 3543TIP3    H210594   2.296   0.917   0.579 -0.2429 -1.4534 -0.2835
 3544TIP3   OH210595   2.344   4.652   4.717  0.0947  0.1654 -0.0892
 3544TIP3    H110596   2.394   4.727   4.751  0.3841 -0.6399  1.3296
 3544TIP3    H210597   2.270   4.644   4.777  1.0438 -1.7815  0.8871
 3545TIP3   OH210598   4.958   5.640   0.367 -0.1867 -0.1704  0.0981
 3545TIP3    H110599   4.927   5.552   0.345  2.2686 -1.0767 -0.1216
 3545TIP3    H210600   4.951   5.689   0.286  1.5853 -1.2321 -0.7705
 3546TIP3   OH210601   6.829   3.229   4.366 -0.4811 -0.6003 -0.1915
 3546TIP3    H110602   6.739   3.225   4.335 -1.1859  2.0170  1.2455
 3546TIP3    H210603   6.878   3.264   4.291 -1.0206 -0.1197 -0.3236
 3547TIP3   OH210604   3.890   1.041   5.207  0.3703 -0.5032 -0.2907
 3547TIP3    H110605   3.974   1.022   5.249  0.0779 -1.0471  0.0623
 3547TIP3    H210606   3.900   1.010   5.117  0.8902  0.3684 -0.5393
 3548TIP3   OH210607   0.944   4.521   4.985  0.4835  0.5344  0.2382
 3548TIP3    H110608   0.983   4.592   4.935 -0.2332  2.2913  2.0600
 3548TIP3    H210609   1.017   4.486   5.036  0.4113  1.4320  0.9709
 3549TIP3   OH210610   5.654   0.366   3.634 -0.0699  0.4793 -0.8340
 3549TIP3    H110611   5.566   0.353   3.672  0.5957  0.1833  0.6728
 3549TIP3    H210612   5.686   0.278   3.617  0.7283  0.4756  0.5531
 3550TIP3   OH210613   0.811   2.084   1.786 -0.3729  0.4561 -0.8807
 3550TIP3    H110614   0.899   2.062   1.754 -0.1376  0.1674 -0.0526
 3550TIP3    H210615   0.753   2.066   1.712  0.4284  2.2299 -2.0217
 3551TIP3   OH210616   0.328   5.475   4.439  0.3471 -0.6496 -0.0707
 3551TIP3    H110617   0.359   5.540   4.377  0.0013 -1.3613 -1.0223
 3551TIP3    H210618   0.292   5.526   4.511  0.6649  0.2020 -0.4992
 3552TIP3   OH210619   6.883   1.227   3.001  0.4640 -0.2116 -0.0471
 3552TIP3    H110620   6.868   1.288   3.073  1.0369  0.6448 -0.6227
 3552TIP3    H210621   6.971   1.193   3.016 -0.4403 -2.2058  1.1705
 3553TIP3   OH210622   5.106   5.822   5.526 -0.3055 -0.0624  0.0473
 3553TIP3    H110623   5.195   5.809   5.492 -0.0304 -0.0128  0.7264
 3553TIP3    H210624   5.049   5.796   5.454  0.2602  0.2298 -0.5150
 3554TIP3   OH210625   3.111   6.526   4.373  0.0716  0.4261 -0.4288
 3554TIP3    H110626   3.039   6.535   4.310  0.2455 -1.4299 -0.9457
 3554TIP3    H210627   3.078   6.466   4.439  0.9736 -0.0568 -0.4077
 3555TIP3   OH210628   5.939   5.691   0.795 -0.1456  0.1157 -0.4973
 3555TIP3    H110629   5.992   5.744   0.854 -0.2924  1.3802 -1.4492
 3555TIP3    H210630   6.002   5.652   0.734  0.1353 -2.1065  1.0921
 3556TIP3   OH210631   3.005   6.774   1.633  0.5075 -1.1636  0.3449
 3556TIP3    H110632   3.014   6.704   1.568  0.1823 -1.3056  0.4520
 3556TIP3    H210633   2.953   6.841   1.589 -0.4170 -1.6100  0.7305
 3557TIP3   OH210634   2.850   0.439   0.256 -0.5018  0.3480  0.5269
 3557TIP3    H110635   2.824   0.517   0.305 -1.4382 -0.2595  1.0306
 3557TIP3    H210636   2.814   0.366   0.306 -0.5003 -0.3546 -0.4643
 3558TIP3   OH210637   6.823   2.111   3.456 -0.3566  0.1906  0.1563
 3558TIP3    H110638   6.799   2.088   3.546 -1.2061  2.3823  0.5412
 3558TIP3    H210639   6.844   2.204   3.460  0.5996  0.0925 -1.7393
 3559TIP3   OH210640   4.874   2.137   0.808  0.6146 -0.1051 -0.4112
 3559TIP3    H110641   4.960   2.140   0.767  1.9318 -1.0138  2.0463
 3559TIP3    H210642   4.874   2.055   0.858 -0.8248  0.8533  1.2937
 3560TIP3   OH210643   1.005   0.130   4.086 -0.5885 -0.6287 -0.0169
 3560TIP3    H110644   1.081   0.153   4.032 -0.8908 -2.0134 -1.0772
 3560TIP3    H210645   0.972   0.049   4.048 -2.7550  0.0640  0.2851
 3561TIP3   OH210646   5.030   2.972   2.512 -0.2242  0.1736 -0.5815
 3561TIP3    H110647   4.992   3.002   2.595  0.9123 -1.1435  0.4630
 3561TIP3    H210648   5.115   3.016   2.508  0.5427 -1.1963 -0.0737
 3562TIP3   OH210649   0.466   6.712   4.960 -0.2980 -0.3121 -0.2874
 3562TIP3    H110650   0.412   6.783   4.994  0.2048 -0.8381  1.7622
 3562TIP3    H210651   0.433   6.634   5.004  1.1935 -0.8391 -0.0441
 3563TIP3   OH210652   1.579   0.116   4.465  0.0989  0.2972  0.2813
 3563TIP3    H110653   1.618   0.181   4.523  0.1153 -0.5679  1.2669
 3563TIP3    H210654   1.550   0.167   4.389  0.5857  1.3708  0.7862
 3564TIP3   OH210655   2.128   5.593   3.055  0.5090 -0.3002 -0.0865
 3564TIP3    H110656   2.077   5.576   2.976  0.6955 -2.0441  0.1157
 3564TIP3    H210657   2.199   5.528   3.052  0.4868 -0.4551  1.5287
 3565TIP3   OH210658   4.793   3.975   4.709 -0.6150  0.1272  0.1990
 3565TIP3    H110659   4.707   3.987   4.747 -0.3806  0.8533  0.5109
 3565TIP3    H210660   4.818   4.062   4.677  0.0482 -0.0525  0.2098
 3566TIP3   OH210661   5.770   6.596   4.324 -0.1271 -0.1821  0.2290
 3566TIP3    H110662   5.837   6.663   4.314  0.2534 -0.6841 -0.7696
 3566TIP3    H210663   5.704   6.636   4.381  0.0412  1.0697 -0.4134
 3567TIP3   OH210664   4.155   5.949   3.719 -0.0707  0.1958 -0.2570
 3567TIP3    H110665   4.169   6.022   3.779 -0.8786  0.1050  0.0533
 3567TIP3    H210666   4.072   5.910   3.747 -0.2969 -0.0544 -1.2177
 3568TIP3   OH210667   1.967   3.315   2.198 -0.0485 -0.2512  0.4098
 3568TIP3    H110668   2.053   3.300   2.157 -1.3755 -0.2588 -2.6830
 3568TIP3    H210669   1.921   3.372   2.136 -2.4100 -0.5404  1.7902
 3569TIP3   OH210670   4.176   0.800   5.116  0.4512  0.2157 -0.2452
 3569TIP3    H110671   4.131   0.843   5.044 -1.2883 -1.2204 -0.0595
 3569TIP3    H210672   4.243   0.746   5.075 -0.7169 -0.8198 -0.8467
 3570TIP3   OH210673   5.068   6.107   1.602 -0.3971 -0.3541  0.0401
 3570TIP3    H110674   5.102   6.018   1.589  0.0842 -0.3161  0.9789
 3570TIP3    H210675   5.098   6.132   1.689 -1.2664  0.4019  0.1396
 3571TIP3   OH210676   4.641   5.590   2.872  0.0766  0.6951 -0.2478
 3571TIP3    H110677   4.651   5.576   2.778  1.2147  0.2442 -0.0751
 3571TIP3    H210678   4.706   5.658   2.893 -0.2068  0.8307  0.2016
 3572TIP3   OH210679   2.328   5.670   0.411 -0.0100 -0.2783  0.2131
 3572TIP3    H110680   2.358   5.705   0.495 -0.7256  1.4028 -0.1799
 3572TIP3    H210681   2.271   5.597   0.433  0.9156 -0.7350  1.1260
 3573TIP3   OH210682   3.518   0.059   2.046 -0.3067 -0.4024 -0.4370
 3573TIP3    H110683   3.547  -0.032   2.056 -1.7264 -0.7440  0.9359
 3573TIP3    H210684   3.589   0.111   2.082 -0.1712 -1.0564  0.2522
 3574TIP3   OH210685   1.160   3.110   0.790 -0.1053  0.0923  0.4461
 3574TIP3    H110686   1.108   3.062   0.854 -0.8122 -0.2019 -0.3317
 3574TIP3    H210687   1.103   3.117   0.713  0.1569  1.7300  0.3542
 3575TIP3   OH210688   0.916   5.462   2.678  0.3361 -0.1555  0.1612
 3575TIP3    H110689   0.835   5.478   2.728 -0.8256 -0.4398 -1.5435
 3575TIP3    H210690   0.956   5.386   2.722 -0.6143 -0.3724  0.6908
 3576TIP3   OH210691   2.109   5.278   2.276  0.0161  0.4030 -0.2382
 3576TIP3    H110692   2.096   5.340   2.205 -1.3049 -0.2776 -0.6208
 3576TIP3    H210693   2.113   5.332   2.355  1.9258  1.2032 -0.8241
 3577TIP3   OH210694   4.166   4.988   3.293 -0.0874  0.1070  0.0028
 3577TIP3    H110695   4.247   4.965   3.339 -0.8497 -0.4145  1.1345
 3577TIP3    H210696   4.193   5.052   3.227  1.2425 -0.0618  0.3541
 3578TIP3   OH210697   3.660   0.609   4.532  0.3597  0.1275 -0.1328
 3578TIP3    H110698   3.577   0.631   4.574  1.2652  0.6064  1.5169
 3578TIP3    H210699   3.636   0.560   4.454 -1.4318 -1.1336  1.1428
 3579TIP3   OH210700   4.416   3.998   2.446 -0.4427  0.0485  0.1336
 3579TIP3    H110701   4.446   3.924   2.499 -1.3704 -1.1826 -1.0161
 3579TIP3    H210702   4.398   4.067   2.511  0.0233 -0.8522  1.2617
 3580TIP3   OH210703   1.811   4.016   2.704 -0.1049 -0.2152  0.2680
 3580TIP3    H110704   1.819   4.100   2.658 -1.1747 -0.9939 -1.4399
 3580TIP3    H210705   1.726   4.021   2.747  0.7433  0.3697  1.9622
 3581TIP3   OH210706   4.461   5.112   0.214 -0.3909  0.6774 -0.1064
 3581TIP3    H110707   4.374   5.097   0.250 -0.4742  0.1371 -0.5144
 3581TIP3    H210708   4.482   5.030   0.168  0.3416  0.7954  0.0153
 3582TIP3   OH210709   0.934   0.956   2.020 -0.1615 -0.0253  0.6113
 3582TIP3    H110710   1.009   1.014   2.030 -0.5522  1.1261 -2.2057
 3582TIP3    H210711   0.863   1.000   2.065  0.5959 -0.7902  2.6975
 3583TIP3   OH210712   5.053   2.673   3.296  0.0920  0.7373 -0.1423
 3583TIP3    H110713   5.029   2.766   3.298  0.2794  0.7692  0.8266
 3583TIP3    H210714   4.980   2.631   3.250 -0.5238  1.2097  0.3805
 3584TIP3   OH210715   4.236   3.771   1.098  0.5236 -0.1577 -0.3185
 3584TIP3    H110716   4.274   3.846   1.143 -0.4396  0.8864 -1.1565
 3584TIP3    H210717   4.270   3.776   1.009  0.0182 -0.3759 -0.5323
 3585TIP3   OH210718   0.881   3.655   1.212 -0.4727 -0.0342 -0.4212
 3585TIP3    H110719   0.826   3.660   1.290 -0.2577  0.7248 -0.3064
 3585TIP3    H210720   0.852   3.729   1.158 -0.7693 -0.6813 -1.1631
 3586TIP3   OH210721   6.759   2.053   0.214 -0.0214  0.1212  0.5240
 3586TIP3    H110722   6.697   2.089   0.277 -0.0094  0.5311  0.3009
 3586TIP3    H210723   6.746   2.104   0.135  0.9584  0.5594  0.6300
 3587TIP3   OH210724   6.143   6.007   4.882  0.5882 -0.2460  0.2869
 3587TIP3    H110725   6.184   5.929   4.918 -0.4247 -1.3839 -0.9215
 3587TIP3    H210726   6.199   6.079   4.911  1.0550 -1.2955  2.2042
 3588TIP3   OH210727   4.573   0.964   1.499 -0.1016  0.1220  0.0571
 3588TIP3    H110728   4.540   1.054   1.503 -0.1193  0.0573  1.9519
 3588TIP3    H210729   4.626   0.954   1.578  0.1061 -1.4612 -0.2541
 3589TIP3   OH210730   1.740   1.727   2.075  0.3124  0.3044  0.1165
 3589TIP3    H110731   1.768   1.635   2.067 -0.0792 -0.0406  2.1042
 3589TIP3    H210732   1.805   1.776   2.026  1.0245 -0.9687 -0.2738
 3590TIP3   OH210733   6.344   3.436   1.705 -0.4425  0.0626 -0.3794
 3590TIP3    H110734   6.311   3.520   1.672  0.5037  0.7781  0.4403
 3590TIP3    H210735   6.414   3.460   1.766  0.1817 -1.3461 -0.5092
 3591TIP3   OH210736   0.830   5.026   3.356  0.0718  0.1393  0.3457
 3591TIP3    H110737   0.889   5.063   3.290 -0.5065  0.4371 -0.0242
 3591TIP3    H210738   0.770   5.098   3.377  0.5633  0.2085  1.5957
 3592TIP3   OH210739   1.518   0.292   0.669  0.3345 -0.0351 -0.3876
 3592TIP3    H110740   1.462   0.351   0.620 -3.1669 -0.6371  2.4663
 3592TIP3    H210741   1.567   0.349   0.728  0.5760  0.3176 -0.9278
 3593TIP3   OH210742   3.425   2.040   4.139 -0.0610 -0.7230 -0.0541
 3593TIP3    H110743   3.371   2.029   4.218 -0.2410 -1.5168 -0.2781
 3593TIP3    H210744   3.457   1.952   4.119 -0.5289 -0.6461 -1.2224
 3594TIP3   OH210745   2.310   6.557   3.110 -0.0223  0.2273 -0.2062
 3594TIP3    H110746   2.341   6.477   3.152  2.4321  1.1872 -0.0535
 3594TIP3    H210747   2.277   6.528   3.025  1.0343 -0.9259 -0.2419
 3595TIP3   OH210748   5.680   5.867   0.622 -0.5232  0.5515 -0.2848
 3595TIP3    H110749   5.762   5.911   0.645  0.5358 -1.6353  0.4328
 3595TIP3    H210750   5.646   5.835   0.706 -1.8489  0.9563 -0.6448
 3596TIP3   OH210751   3.721   1.178   4.400  0.7195 -0.2775 -0.7034
 3596TIP3    H110752   3.657   1.200   4.468 -2.3377 -0.2453 -3.3432
 3596TIP3    H210753   3.786   1.248   4.404 -0.8330  1.1821  0.4801
 3597TIP3   OH210754   5.724   0.148   2.721 -0.4896  0.1252  0.2517
 3597TIP3    H110755   5.735   0.139   2.816  0.3026  1.4786  0.3021
 3597TIP3    H210756   5.760   0.066   2.685  2.2980  0.9570  0.9333
 3598TIP3   OH210757   3.581   0.625   5.635 -0.2795 -0.2573 -0.3409
 3598TIP3    H110758   3.618   0.538   5.620  0.0603 -0.1363 -0.2099
 3598TIP3    H210759   3.487   0.614   5.621 -0.3044 -0.7611  0.1852
 3599TIP3   OH210760   4.106   6.432   1.498  0.4621  0.3472 -0.2070
 3599TIP3    H110761   4.115   6.377   1.576 -3.0699  1.6896  1.3765
 3599TIP3    H210762   4.159   6.509   1.517  0.0305  0.4417  0.6656
 3600TIP3   OH210763   2.560   4.394   4.378  0.1507 -0.5937 -0.5857
 3600TIP3    H110764   2.479   4.410   4.329  1.1719 -1.5630 -2.6767
 3600TIP3    H210765   2.604   4.324   4.331  2.0818 -0.3210  0.6917
 3601TIP3   OH210766   4.278   6.776   1.925 -0.4365  0.3479 -0.4715
 3601TIP3    H110767   4.327   6.742   1.850  0.2065  0.2181  0.0002
 3601TIP3    H210768   4.233   6.699   1.960 -1.9829  0.6806 -1.6284
 3602TIP3   OH210769   5.129   3.855   0.641  0.1792  0.0949 -0.1683
 3602TIP3    H110770   5.215   3.823   0.612  0.2762  1.1469 -1.0902
 3602TIP3    H210771   5.079   3.776   0.658  1.5110 -0.5609  0.9906
 3603TIP3   OH210772   1.606   4.224   1.231  0.2784  0.0176  0.0888
 3603TIP3    H110773   1.595   4.137   1.271  0.5146 -0.9199 -1.7626
 3603TIP3    H210774   1.517   4.255   1.217  0.1923  0.1998  0.9922
 3604TIP3   OH210775   0.388   6.472   5.517 -0.7075 -0.3749  0.2298
 3604TIP3    H110776   0.294   6.491   5.516 -1.0654 -1.9984  0.4816
 3604TIP3    H210777   0.394   6.380   5.492  1.0731  0.5653 -3.4073
 3605TIP3   OH210778   3.212   1.043   1.624 -0.9266 -0.0614  0.0717
 3605TIP3    H110779   3.240   1.094   1.701 -0.6680 -0.4861  0.2638
 3605TIP3    H210780   3.164   0.969   1.660 -1.2482  0.0096 -0.2052
 3606TIP3   OH210781   1.366   4.307   4.868  0.2385  0.0415  0.0102
 3606TIP3    H110782   1.385   4.245   4.938 -0.7600 -0.6924 -0.3414
 3606TIP3    H210783   1.271   4.316   4.869  0.1754 -0.1485 -1.3659
 3607TIP3   OH210784   5.282   0.297   5.296  1.1325 -0.0630 -0.1336
 3607TIP3    H110785   5.246   0.288   5.208  1.8466  0.5913 -0.5052
 3607TIP3    H210786   5.216   0.347   5.344  1.6706  1.4701 -0.9224
 3608TIP3   OH210787   2.014   3.292   1.574 -0.2329 -0.3716 -0.6704
 3608TIP3    H110788   2.056   3.257   1.496  2.8004 -0.5875  0.9111
 3608TIP3    H210789   2.012   3.387   1.560 -1.3893 -0.5228 -1.7048
 3609TIP3   OH210790   1.322   3.146   4.594 -0.1301  0.5043 -0.6345
 3609TIP3    H110791   1.384   3.176   4.527 -0.2995  0.6236 -0.7392
 3609TIP3    H210792   1.371   3.150   4.676  0.0604  0.4139 -0.7431
 3610TIP3   OH210793   6.810   3.963   4.191  0.3723 -0.1345 -0.3179
 3610TIP3    H110794   6.762   3.958   4.108  0.4076 -1.0229 -0.2965
 3610TIP3    H210795   6.781   3.886   4.240  0.8822  0.0007  0.2044
 3611TIP3   OH210796   3.990   4.344   5.512  0.3028  0.1902  0.3052
 3611TIP3    H110797   4.006   4.258   5.472  0.1175 -0.4542  1.5775
 3611TIP3    H210798   3.937   4.325   5.589  0.1068  1.4802  0.5043
 3612TIP3   OH210799   5.134   3.180   5.836  0.1750  0.2109  0.1890
 3612TIP3    H110800   5.143   3.097   5.883 -1.5460  0.5964  1.2807
 3612TIP3    H210801   5.197   3.238   5.880  0.1118 -0.0257  0.6024
 3613TIP3   OH210802   2.136   2.594   3.667  0.0414  0.2077 -0.0253
 3613TIP3    H110803   2.123   2.689   3.656 -0.3441  0.1425 -0.1300
 3613TIP3    H210804   2.053   2.555   3.641  0.6968 -0.2762 -1.5132
 3614TIP3   OH210805   2.937   0.124   1.470 -0.1113  0.5727 -0.1541
 3614TIP3    H110806   2.985   0.129   1.388  2.9183  2.4095  1.5441
 3614TIP3    H210807   2.991   0.070   1.527 -0.0033  2.6181  1.8135
 3615TIP3   OH210808   5.514   2.255   3.491 -0.0516 -0.7004  0.2534
 3615TIP3    H110809   5.493   2.181   3.548 -1.1791 -0.0748  0.6810
 3615TIP3    H210810   5.454   2.245   3.416  0.0656 -0.4371  0.1232
 3616TIP3   OH210811   1.582   2.538   1.500 -1.2472  0.1812  0.1816
 3616TIP3    H110812   1.541   2.606   1.554 -1.0439  0.2726  0.2208
 3616TIP3    H210813   1.508   2.495   1.456 -1.3208  0.9873 -0.5069
 3617TIP3   OH210814   4.268   2.766   0.976  0.1741  0.0189 -0.1862
 3617TIP3    H110815   4.306   2.679   0.988  0.9383  0.4650  0.7391
 3617TIP3    H210816   4.234   2.765   0.886 -0.7159 -1.5504  0.1355
 3618TIP3   OH210817   4.997   4.381   3.779 -0.2740  0.8419 -0.1532
 3618TIP3    H110818   5.041   4.412   3.858 -0.0747 -0.0563  0.1066
 3618TIP3    H210819   5.054   4.312   3.746 -1.7246 -0.7699  0.5183
 3619TIP3   OH210820   6.176   5.361   2.090  0.4120 -0.1585 -0.8267
 3619TIP3    H110821   6.265   5.395   2.098  0.4690 -0.6089  0.7086
 3619TIP3    H210822   6.186   5.279   2.042  0.9456 -0.6414  0.0886
 3620TIP3   OH210823   2.227   1.058   3.090 -0.2210  0.3793  0.0871
 3620TIP3    H110824   2.279   1.032   3.014 -1.0030 -0.6029 -0.1368
 3620TIP3    H210825   2.229   0.982   3.148 -0.3226  0.8195  0.6778
 3621TIP3   OH210826   1.293   4.742   2.147 -0.0771  0.1004 -0.6020
 3621TIP3    H110827   1.372   4.788   2.178 -1.5096  1.8389  0.6896
 3621TIP3    H210828   1.285   4.666   2.204 -0.0942  0.6962  0.2049
 3622TIP3   OH210829   5.788   0.281   4.904  0.2550  0.3819 -0.2432
 3622TIP3    H110830   5.875   0.293   4.941  0.3987 -1.4956  0.1038
 3622TIP3    H210831   5.803   0.254   4.814 -0.0140  1.1912 -0.5414
 3623TIP3   OH210832   3.630   3.018   1.265 -0.2151 -0.2089 -0.1576
 3623TIP3    H110833   3.701   2.991   1.322 -0.5911  0.8189  0.8304
 3623TIP3    H210834   3.674   3.055   1.188  0.2915 -0.7744 -0.1511
 3624TIP3   OH210835   2.722   2.960   2.454  0.1292 -0.4066 -0.1528
 3624TIP3    H110836   2.805   3.006   2.440  0.3456 -1.1484 -1.4162
 3624TIP3    H210837   2.656   3.029   2.455  0.7490  0.1996  0.9196
 3625TIP3   OH210838   0.490   0.758   1.636 -0.0731 -0.5028  0.2066
 3625TIP3    H110839   0.495   0.675   1.588 -1.2427 -0.7228  0.4238
 3625TIP3    H210840   0.396   0.772   1.648  0.0687  1.2323 -0.4672
 3626TIP3   OH210841   3.733   4.340   0.937 -0.6752  0.6647 -0.3676
 3626TIP3    H110842   3.755   4.333   0.844  1.1484  0.3728  0.0519
 3626TIP3    H210843   3.677   4.264   0.954  0.3005 -0.1919 -0.8901
 3627TIP3   OH210844   0.538   6.636   2.116 -0.1610 -0.0340 -0.2639
 3627TIP3    H110845   0.611   6.628   2.177 -0.7952  0.9955  0.6912
 3627TIP3    H210846   0.465   6.593   2.160 -0.4075 -0.0624 -0.6934
 3628TIP3   OH210847   4.952   0.258   5.431 -0.0158  0.2600  0.2478
 3628TIP3    H110848   4.872   0.305   5.408  0.1755  0.0365 -0.8947
 3628TIP3    H210849   5.011   0.327   5.463 -0.1331  0.6407 -0.3417
 3629TIP3   OH210850   5.463   3.599   4.707 -0.9432 -0.2538  0.2203
 3629TIP3    H110851   5.556   3.591   4.688 -0.5933 -0.7686  1.9442
 3629TIP3    H210852   5.445   3.693   4.701 -0.5167 -0.2227 -0.8783
 3630TIP3   OH210853   0.000   6.471   4.097  0.0791  0.3475 -0.1607
 3630TIP3    H110854  -0.004   6.455   4.003  0.5926  0.1291 -0.1540
 3630TIP3    H210855   0.041   6.557   4.105 -0.3719  0.5591 -0.1476
 3631TIP3   OH210856   6.693   6.055   4.239  0.1172  0.2105 -0.4892
 3631TIP3    H110857   6.641   6.132   4.264  1.6112  0.4619  2.2215
 3631TIP3    H210858   6.770   6.092   4.196 -0.9135 -0.0721 -2.7499
 3632TIP3   OH210859   0.514   1.138   4.896  0.2524 -0.0676 -0.3127
 3632TIP3    H110860   0.497   1.160   4.805 -0.1494  0.8877 -0.0209
 3632TIP3    H210861   0.608   1.151   4.907  0.3010 -0.1848 -0.5823
 3633TIP3   OH210862   5.730   5.016   5.473  0.3011  0.4767  0.1880
 3633TIP3    H110863   5.822   5.036   5.454  0.2537  1.4691  0.9370
 3633TIP3    H210864   5.682   5.094   5.444 -0.3070 -0.0175 -0.1619
 3634TIP3   OH210865   4.968   3.731   4.173  0.7461  0.5030 -0.2083
 3634TIP3    H110866   4.992   3.692   4.257  0.0685  0.1051 -0.1850
 3634TIP3    H210867   4.890   3.682   4.146 -0.2067  1.9141 -0.1233
 3635TIP3   OH210868   2.808   0.667   5.753  0.1772 -0.3323 -0.0008
 3635TIP3    H110869   2.823   0.709   5.837  0.4709 -0.7087  0.1393
 3635TIP3    H210870   2.831   0.575   5.767 -2.7024 -1.0960  0.3546
 3636TIP3   OH210871   3.980   2.303   3.431 -0.2361 -0.1642 -0.0185
 3636TIP3    H110872   4.055   2.342   3.385  0.3300 -1.2976 -0.0887
 3636TIP3    H210873   3.910   2.302   3.365 -0.2191  0.5885 -0.0575
 3637TIP3   OH210874   1.965   0.993   2.578  0.1408  0.2307 -0.2861
 3637TIP3    H110875   2.013   0.921   2.537 -2.0489 -2.6649  1.7644
 3637TIP3    H210876   2.030   1.038   2.632  1.6705  0.1568 -1.9755
 3638TIP3   OH210877   4.261   2.039   4.535 -0.0300  0.5112  0.4203
 3638TIP3    H110878   4.335   2.075   4.486 -0.1393  1.2296  0.7772
 3638TIP3    H210879   4.223   2.114   4.581 -0.0886 -0.0938  1.3990
 3639TIP3   OH210880   1.483   1.386   1.915 -0.3873  0.3793 -0.1487
 3639TIP3    H110881   1.486   1.469   1.963  1.5107  0.2363  0.0772
 3639TIP3    H210882   1.436   1.406   1.834  0.6128  1.8590 -0.4009
 3640TIP3   OH210883   6.853   1.705   0.961 -0.0890 -0.5476  0.1174
 3640TIP3    H110884   6.786   1.645   0.994  0.5378 -1.0909  0.4202
 3640TIP3    H210885   6.935   1.671   0.996  0.0942  1.8405  2.3144
 3641TIP3   OH210886   0.981   0.358   0.522 -0.3209 -0.3173 -0.1112
 3641TIP3    H110887   0.987   0.348   0.617 -0.2955 -3.0217 -0.2977
 3641TIP3    H210888   0.887   0.354   0.504 -0.3026 -0.2000 -0.2322
 3642TIP3   OH210889   5.736   3.105   0.745 -0.0379  0.2015 -0.0038
 3642TIP3    H110890   5.775   3.019   0.765  1.7844  0.6973 -1.1654
 3642TIP3    H210891   5.696   3.133   0.827  0.4041 -1.2270  0.7311
 3643TIP3   OH210892   3.358   2.159   3.896 -0.4400 -0.1872  0.1922
 3643TIP3    H110893   3.375   2.096   3.965  1.0691  0.0753  0.1043
 3643TIP3    H210894   3.395   2.241   3.929  1.2392 -0.2760 -1.2791
 3644TIP3   OH210895   0.513   4.017   2.262 -0.5649 -0.1898  0.6918
 3644TIP3    H110896   0.510   4.056   2.174  1.8220 -0.4731  0.4145
 3644TIP3    H210897   0.421   4.007   2.287 -1.3488 -0.8636 -2.1247
 3645TIP3   OH210898   5.939   5.849   3.253 -0.2355 -0.6915 -0.0593
 3645TIP3    H110899   6.030   5.819   3.254 -0.0826 -0.3639 -1.7559
 3645TIP3    H210900   5.906   5.828   3.340  1.4353 -0.9071  0.5569
 3646TIP3   OH210901   0.083   4.975   1.953  0.9082  0.1989 -0.0387
 3646TIP3    H110902  -0.007   4.952   1.930  1.0058  1.0556 -1.3974
 3646TIP3    H210903   0.077   5.010   2.042  0.5609 -3.5671  1.6062
 3647TIP3   OH210904   3.503   0.521   4.897  0.5903 -0.2060 -0.0797
 3647TIP3    H110905   3.449   0.500   4.973  0.4257 -0.0728 -0.1582
 3647TIP3    H210906   3.474   0.609   4.871  0.5313 -0.3171 -0.3953
 3648TIP3   OH210907   6.903   0.510   4.181  0.5742  0.1371  0.1518
 3648TIP3    H110908   6.950   0.488   4.101  2.0887  1.5162  0.6094
 3648TIP3    H210909   6.968   0.552   4.237 -0.9905  1.3511  1.1690
 3649TIP3   OH210910   4.540   2.337   2.266  0.0746 -0.1375  0.9010
 3649TIP3    H110911   4.513   2.257   2.221  1.1427  0.5190 -1.0168
 3649TIP3    H210912   4.607   2.307   2.328  0.7168 -0.7241 -0.0452
 3650TIP3   OH210913   2.221   0.443   4.491 -0.1799 -0.4608  0.1886
 3650TIP3    H110914   2.149   0.392   4.456 -0.3046 -0.4788  0.4665
 3650TIP3    H210915   2.200   0.534   4.468 -0.2932 -0.4658  0.2737
 3651TIP3   OH210916   5.156   6.606   2.421  0.3452 -0.2034 -0.3234
 3651TIP3    H110917   5.246   6.581   2.400  0.2765 -0.7282 -0.0035
 3651TIP3    H210918   5.148   6.591   2.515 -0.2021 -0.5537 -0.4216
 3652TIP3   OH210919   1.208   0.241   3.954 -0.2084  0.5122  0.0235
 3652TIP3    H110920   1.293   0.208   3.925 -0.6216 -1.0290  0.4648
 3652TIP3    H210921   1.168   0.277   3.875  0.6315  0.7809 -0.2946
 3653TIP3   OH210922   4.488   5.197   0.510 -0.2832 -0.1428  0.4939
 3653TIP3    H110923   4.540   5.147   0.447  0.7506  0.6759  0.6810
 3653TIP3    H210924   4.402   5.155   0.508 -0.6443  0.4926 -2.3080
 3654TIP3   OH210925   3.021   6.171   0.668  0.0060  0.5681 -0.3345
 3654TIP3    H110926   3.109   6.199   0.694  0.7631 -1.6887 -0.2870
 3654TIP3    H210927   2.970   6.177   0.748  0.1386  1.6776 -0.3090
 3655TIP3   OH210928   1.543   6.410   3.200  0.3127  0.4764  0.5429
 3655TIP3    H110929   1.494   6.477   3.153  1.1621  1.0947  0.5066
 3655TIP3    H210930   1.574   6.350   3.131  0.5944  0.7453  0.4310
 3656TIP3   OH210931   3.617   3.001   5.443 -0.1315  0.3117  0.5557
 3656TIP3    H110932   3.677   3.030   5.375  1.0086 -0.1867  1.3199
 3656TIP3    H210933   3.625   2.906   5.444 -2.0485  0.0840 -0.3027
 3657TIP3   OH210934   4.812   4.601   5.061 -0.3550  0.4661  0.3281
 3657TIP3    H110935   4.740   4.539   5.074  0.0097  0.0006  0.1702
 3657TIP3    H210936   4.888   4.556   5.098 -0.0655  0.7826  0.1197
 3658TIP3   OH210937   6.584   2.877   4.246 -0.5295 -0.1438 -0.2713
 3658TIP3    H110938   6.642   2.823   4.300 -0.6280  0.9492  0.9775
 3658TIP3    H210939   6.534   2.814   4.195  0.1648 -1.1945  0.3035
 3659TIP3   OH210940   1.927   3.045   3.294 -0.4726 -0.5679  0.5495
 3659TIP3    H110941   1.866   3.040   3.367  0.5257 -2.1158  1.3199
 3659TIP3    H210942   1.907   2.968   3.240 -1.1987  0.5506 -0.8489
 3660TIP3   OH210943   1.243   5.796   4.376 -0.5009  0.8148  0.4022
 3660TIP3    H110944   1.156   5.825   4.400 -1.7797 -0.9720 -1.6880
 3660TIP3    H210945   1.299   5.873   4.391 -2.0408  1.4941  3.3619
 3661TIP3   OH210946   4.157   6.418   3.723 -0.2521 -0.0434 -0.1227
 3661TIP3    H110947   4.185   6.437   3.634  0.9301  0.2820  0.3012
 3661TIP3    H210948   4.090   6.484   3.742 -0.6017 -0.1968 -0.8074
 3662TIP3   OH210949   7.067   2.073   0.424  0.3123 -0.1869  0.7369
 3662TIP3    H110950   7.028   2.016   0.358 -0.1576  1.1721 -0.1741
 3662TIP3    H210951   7.007   2.146   0.432  1.5493  0.8481  0.9375
 3663TIP3   OH210952   4.482   2.370   1.357  0.3567 -0.0541 -0.0333
 3663TIP3    H110953   4.553   2.373   1.292  1.4472 -1.8934  1.0112
 3663TIP3    H210954   4.511   2.429   1.427  1.0926 -1.1141  0.5812
 3664TIP3   OH210955   6.422   4.501   1.864 -0.3830  0.0151  0.2152
 3664TIP3    H110956   6.462   4.441   1.802 -1.8430 -1.7135  0.8763
 3664TIP3    H210957   6.343   4.532   1.820  0.7486  2.1829 -0.4519
 3665TIP3   OH210958   6.382   5.349   5.333 -0.0382 -0.0133  0.0490
 3665TIP3    H110959   6.423   5.377   5.251  0.5611 -0.0405  0.3372
 3665TIP3    H210960   6.373   5.430   5.384 -2.1603  0.3381 -0.7796
 3666TIP3   OH210961   4.198   3.263   0.887 -0.1068  0.0296  0.0754
 3666TIP3    H110962   4.253   3.249   0.965 -0.1996 -0.5881  0.0303
 3666TIP3    H210963   4.259   3.298   0.822 -0.1239  1.0183  0.5653
 3667TIP3   OH210964   5.306   0.407   4.428 -0.2398 -0.3457 -0.2065
 3667TIP3    H110965   5.214   0.430   4.416 -0.2366 -0.8677 -1.2992
 3667TIP3    H210966   5.335   0.463   4.501 -1.2051  0.3844 -0.3636
 3668TIP3   OH210967   5.712   4.727   5.734 -0.3978 -0.2056 -0.4772
 3668TIP3    H110968   5.691   4.734   5.641 -0.0807  2.6753 -0.4114
 3668TIP3    H210969   5.800   4.765   5.742  0.3436 -2.0334  0.7875
 3669TIP3   OH210970   6.288   6.174   0.817  0.6620 -0.0864  0.1192
 3669TIP3    H110971   6.312   6.260   0.783  2.0915 -0.7096 -0.5157
 3669TIP3    H210972   6.367   6.121   0.807 -0.1056 -1.4011  0.7613
 3670TIP3   OH210973   4.456   5.922   2.262 -0.4634 -0.6194  0.0585
 3670TIP3    H110974   4.517   5.848   2.259  0.9247  0.5067 -0.8385
 3670TIP3    H210975   4.391   5.898   2.328  0.0067 -2.5811 -0.1504
 3671TIP3   OH210976   5.398   4.258   5.424 -0.0477 -0.0650 -0.2615
 3671TIP3    H110977   5.383   4.230   5.514 -0.9803  0.5896 -0.2005
 3671TIP3    H210978   5.394   4.176   5.373 -3.8664 -0.1014 -0.2278
 3672TIP3   OH210979   1.392   4.562   2.341 -0.0257  0.1435 -0.0610
 3672TIP3    H110980   1.486   4.579   2.347  0.0474 -0.0920 -0.4918
 3672TIP3    H210981   1.366   4.538   2.429  0.4590 -0.5117 -0.0860
 3673TIP3   OH210982   6.415   2.857   3.595 -0.3772  0.7364  0.8484
 3673TIP3    H110983   6.491   2.875   3.650 -0.3928  1.3317  0.6816
 3673TIP3    H210984   6.345   2.838   3.657 -0.4192  1.4957  1.0434
 3674TIP3   OH210985   6.621   5.413   1.103 -0.4549 -0.1247  0.1439
 3674TIP3    H110986   6.606   5.499   1.141 -1.0521  0.0561 -0.4940
 3674TIP3    H210987   6.559   5.406   1.031 -1.9498 -1.9349  1.4780
 3675TIP3   OH210988   4.114   0.498   3.595 -0.3296 -0.2188 -0.7116
 3675TIP3    H110989   4.102   0.531   3.506 -0.6364 -0.0126 -0.5936
 3675TIP3    H210990   4.027   0.475   3.625 -0.1121 -1.2243 -0.8193
 3676TIP3   OH210991   3.765   2.155   4.885  0.0336  0.2830 -0.1661
 3676TIP3    H110992   3.750   2.141   4.791 -2.1094  2.0601 -0.1849
 3676TIP3    H210993   3.800   2.244   4.890  1.4696 -0.3041  0.6573
 3677TIP3   OH210994   3.234   4.787   3.498 -0.2781 -0.2239  0.7374
 3677TIP3    H110995   3.292   4.794   3.421 -0.2927 -2.6250  0.4403
 3677TIP3    H210996   3.290   4.747   3.565 -0.8944 -0.2345  1.2433
 3678TIP3   OH210997   0.113   2.940   5.456  0.3979  0.1865 -0.7175
 3678TIP3    H110998   0.119   3.034   5.436  0.5062  0.5102  0.6808
 3678TIP3    H210999   0.022   2.927   5.482  0.2053 -0.2560 -1.5962
 3679TIP3   OH211000   4.970   0.312   1.773 -0.1142 -0.0805 -0.0510
 3679TIP3    H111001   4.980   0.406   1.787 -1.0738  0.0136  0.0921
 3679TIP3    H211002   5.038   0.272   1.827  0.0839  0.5188  0.1495
 3680TIP3   OH211003   3.870   6.427   3.942  0.2000 -0.9141 -0.0087
 3680TIP3    H111004   3.920   6.504   3.915  0.9720 -0.7222  1.7985
 3680TIP3    H211005   3.832   6.393   3.861  0.1392  1.1462 -0.9043
 3681TIP3   OH211006   0.846   0.161   2.135  0.3660 -0.3233  0.9842
 3681TIP3    H111007   0.860   0.067   2.129 -2.5395 -0.8607  1.5341
 3681TIP3    H211008   0.761   0.176   2.095  0.9345  2.1768  0.5252
 3682TIP3   OH211009   4.635   6.582   0.240 -0.2557  0.0768 -0.5269
 3682TIP3    H111010   4.607   6.494   0.268 -0.6591  0.1261 -0.7580
 3682TIP3    H211011   4.680   6.567   0.157 -0.0055  0.0484 -0.3859
 3683TIP3   OH211012   5.208   1.220   5.497 -0.2681 -0.3295 -0.0849
 3683TIP3    H111013   5.155   1.252   5.425 -0.0469  2.4087  0.8526
 3683TIP3    H211014   5.296   1.215   5.462 -0.4255 -0.5910 -0.4452
 3684TIP3   OH211015   1.449   0.041   5.058  0.4415 -0.0946  0.1382
 3684TIP3    H111016   1.495   0.080   4.983 -1.5139  0.7801 -0.6595
 3684TIP3    H211017   1.426   0.115   5.113  0.1631 -0.5491  0.6371
 3685TIP3   OH211018   4.902   6.202   2.331 -0.3034 -0.0862  0.2499
 3685TIP3    H111019   4.949   6.122   2.353  0.5954  0.1158 -0.8734
 3685TIP3    H211020   4.920   6.261   2.405  1.7081  0.1820 -0.4183
 3686TIP3   OH211021   0.867   3.523   0.277  0.0421 -0.3854 -0.4574
 3686TIP3    H111022   0.861   3.604   0.227  0.5518 -0.7851 -1.1812
 3686TIP3    H211023   0.876   3.454   0.211 -0.6431 -1.0605  0.1362
 3687TIP3   OH211024   2.392   0.891   2.393 -0.6130  0.3614  0.2206
 3687TIP3    H111025   2.391   0.902   2.298 -2.9224 -1.8923 -0.1379
 3687TIP3    H211026   2.328   0.953   2.426 -0.4939  0.4905  0.2095
 3688TIP3   OH211027   0.852   4.559   1.451 -0.2189  0.2599 -0.4482
 3688TIP3    H111028   0.855   4.548   1.546  0.0635  0.6196 -0.4113
 3688TIP3    H211029   0.857   4.654   1.438  0.0359  0.1954 -0.8287
 3689TIP3   OH211030   1.732   5.431   5.627 -0.5909 -0.2899 -0.1889
 3689TIP3    H111031   1.684   5.356   5.593  0.4633 -1.1653  0.1772
 3689TIP3    H211032   1.682   5.459   5.703 -1.4189 -0.1135 -0.7875
 3690TIP3   OH211033   1.442   3.912   3.681  0.3822  0.3519 -0.0457
 3690TIP3    H111034   1.363   3.938   3.727 -0.2979  0.3550 -1.1839
 3690TIP3    H211035   1.416   3.908   3.589  1.3678 -0.9196 -0.2930
 3691TIP3   OH211036   3.939   5.120   1.347  0.1483 -0.2390 -0.1703
 3691TIP3    H111037   3.934   5.049   1.411  3.0515  0.3847  0.8913
 3691TIP3    H211038   3.924   5.077   1.263  0.1558 -1.8149  0.5934
 3692TIP3   OH211039   0.845   6.001   3.364 -0.3469 -0.2011  0.0098
 3692TIP3    H111040   0.784   5.931   3.387  0.5993 -0.6907  1.1023
 3692TIP3    H211041   0.880   5.976   3.278 -0.7681 -0.5317 -0.0688
 3693TIP3   OH211042   3.400   6.741   1.987  0.2567  0.5652 -0.0611
 3693TIP3    H111043   3.464   6.685   1.944 -1.7154 -1.2546 -0.7894
 3693TIP3    H211044   3.354   6.785   1.915 -0.7086  0.2131  0.3265
 3694TIP3   OH211045   2.290   1.275   2.234 -0.1754  0.9007  0.2425
 3694TIP3    H111046   2.291   1.211   2.162 -0.0453  0.4114  0.6766
 3694TIP3    H211047   2.327   1.354   2.196 -0.1094  0.6457 -0.2329
 3695TIP3   OH211048   5.035   2.848   2.170 -0.6452 -0.4936 -0.1901
 3695TIP3    H111049   4.947   2.874   2.194  0.0532  1.5094  0.3215
 3695TIP3    H211050   5.023   2.793   2.092 -2.3892 -1.1371  0.4932
 3696TIP3   OH211051   5.539   3.057   4.179  0.0726 -0.1471 -0.2145
 3696TIP3    H111052   5.500   3.035   4.264  1.7871 -0.0486  0.6587
 3696TIP3    H211053   5.530   2.977   4.127 -1.9153  0.1167 -0.3318
 3697TIP3   OH211054   1.244   5.125   1.151  0.2337 -0.0709  0.1955
 3697TIP3    H111055   1.339   5.131   1.162  0.0585  0.4273  1.7760
 3697TIP3    H211056   1.211   5.209   1.185 -0.7538 -0.1176 -0.6107
 3698TIP3   OH211057   0.064   1.219   2.660  0.1282  0.4590 -0.0901
 3698TIP3    H111058   0.003   1.292   2.649 -0.1096  0.4428  1.0048
 3698TIP3    H211059   0.063   1.201   2.754 -1.7452 -2.6374 -0.6053
 3699TIP3   OH211060   2.604   3.621   3.060  0.4106 -0.1687 -0.0131
 3699TIP3    H111061   2.665   3.560   3.102  0.4918 -0.0954 -0.0227
 3699TIP3    H211062   2.658   3.697   3.039 -0.1876  0.9586  2.2337
 3700TIP3   OH211063   2.013   2.285   4.548  0.0054  1.2743  0.1705
 3700TIP3    H111064   1.986   2.376   4.559  1.2682  1.5130  1.7266
 3700TIP3    H211065   2.108   2.290   4.533  0.1627  0.2171  0.7082
 3701TIP3   OH211066   3.670   2.123   0.857  0.1563  0.4347 -0.1982
 3701TIP3    H111067   3.653   2.204   0.906  1.8420  0.5052  0.3261
 3701TIP3    H211068   3.704   2.062   0.921 -0.5243 -0.5020 -0.7142
 3702TIP3   OH211069   1.902   1.554   4.211 -0.1817 -0.4600 -0.0659
 3702TIP3    H111070   1.940   1.563   4.124 -2.4469  1.1687 -0.9922
 3702TIP3    H211071   1.823   1.500   4.196 -1.0776  0.5801  0.7757
 3703TIP3   OH211072   2.357   3.462   2.609  0.1529 -0.1197  0.6654
 3703TIP3    H111073   2.297   3.468   2.535  0.4465  0.9429  0.5034
 3703TIP3    H211074   2.373   3.553   2.635 -0.8359 -0.4599  2.7529
 3704TIP3   OH211075   5.013   0.823   0.567  0.2514 -0.1845 -0.4494
 3704TIP3    H111076   5.068   0.751   0.536 -1.9055 -1.9580 -0.3850
 3704TIP3    H211077   4.991   0.798   0.657 -1.7574 -0.2538 -0.9268
 3705TIP3   OH211078   5.476   0.268   1.781 -0.7190  0.0528  0.4967
 3705TIP3    H111079   5.469   0.293   1.873  0.1117 -0.3449  0.6862
 3705TIP3    H211080   5.540   0.196   1.781  0.6728  1.2238 -0.5841
 3706TIP3   OH211081   6.722   3.510   3.747  0.7680 -0.7604  0.0070
 3706TIP3    H111082   6.770   3.553   3.818 -0.2249 -0.3643  0.4493
 3706TIP3    H211083   6.686   3.582   3.695  0.9080 -1.0546 -0.5083
 3707TIP3   OH211084   3.477   0.352   4.685  0.0375 -0.3770  0.4118
 3707TIP3    H111085   3.432   0.275   4.719  0.2455 -1.2025 -1.0801
 3707TIP3    H211086   3.491   0.408   4.762 -1.0888 -1.3238  1.3384
 3708TIP3   OH211087   2.973   6.697   3.134 -0.5955 -0.3636 -0.1014
 3708TIP3    H111088   2.962   6.649   3.052 -0.9297  0.4982 -0.5791
 3708TIP3    H211089   3.067   6.696   3.150 -0.4591 -0.0296 -0.8260
 3709TIP3   OH211090   5.541   3.776   5.040 -0.3632  0.4207 -0.4388
 3709TIP3    H111091   5.604   3.837   5.077  0.8729 -1.2117  0.2602
 3709TIP3    H211092   5.515   3.816   4.957  0.8292  1.5994 -0.2852
 3710TIP3   OH211093   2.552   1.141   4.728  0.1265  0.2104 -0.2232
 3710TIP3    H111094   2.458   1.155   4.743 -0.1279  1.3055 -2.4207
 3710TIP3    H211095   2.593   1.220   4.763  0.4467 -0.8257  1.9340
 3711TIP3   OH211096   1.611   6.486   5.167  0.2210  0.0233  0.0115
 3711TIP3    H111097   1.584   6.395   5.155  0.0694  0.0740 -0.0315
 3711TIP3    H211098   1.531   6.536   5.159  0.4526  0.2537 -0.9804
 3712TIP3   OH211099   0.902   6.601   5.754  0.0796 -0.0792 -0.1549
 3712TIP3    H111100   0.949   6.678   5.720  0.3353 -0.3135 -0.3357
 3712TIP3    H211101   0.970   6.535   5.766 -0.0632 -0.1075  0.5061
 3713TIP3   OH211102   2.726   0.410   5.492  0.6226 -0.2945 -0.1769
 3713TIP3    H111103   2.716   0.323   5.452  0.8017  0.0602 -1.0166
 3713TIP3    H211104   2.815   0.437   5.469  0.3831  0.3353 -0.3855
 3714TIP3   OH211105   5.494   6.675   2.078  0.0135  0.9119 -0.6752
 3714TIP3    H111106   5.420   6.724   2.042 -2.7473 -1.2264  1.5916
 3714TIP3    H211107   5.499   6.596   2.024  1.2033  1.3571 -1.2603
 3715TIP3   OH211108   2.454   4.323   5.643 -0.0070 -0.9794 -1.0448
 3715TIP3    H111109   2.443   4.239   5.687 -0.3013  0.2528  1.4204
 3715TIP3    H211110   2.518   4.370   5.696 -0.3868  0.6271 -1.9386
 3716TIP3   OH211111   2.632   5.645   4.159  0.4220 -0.4329  0.1157
 3716TIP3    H111112   2.703   5.692   4.202  1.8659 -1.9198 -0.5185
 3716TIP3    H211113   2.650   5.655   4.065 -1.2902  0.7102 -0.1338
 3717TIP3   OH211114   0.183   5.350   4.196 -0.1754 -0.7148  0.2052
 3717TIP3    H111115   0.260   5.293   4.190 -0.0477 -0.6640  1.2614
 3717TIP3    H211116   0.216   5.436   4.171 -0.1407 -0.9012 -0.4068
 3718TIP3   OH211117   5.759   5.212   4.698 -0.4017  0.2574 -0.0663
 3718TIP3    H111118   5.848   5.195   4.667  0.2264  1.9637  0.6747
 3718TIP3    H211119   5.708   5.137   4.667  1.0739 -0.2606 -1.3813
 3719TIP3   OH211120   2.364   3.681   0.853 -0.1406  0.4475  0.2975
 3719TIP3    H111121   2.299   3.694   0.922  0.4412 -2.3409  1.5279
 3719TIP3    H211122   2.447   3.704   0.894  0.0194  0.5231 -0.0718
 3720TIP3   OH211123   4.716   3.578   0.980 -0.3904  0.6332 -0.1307
 3720TIP3    H111124   4.773   3.503   0.961 -2.0953 -1.0576  1.0709
 3720TIP3    H211125   4.746   3.608   1.066 -1.7444 -0.7847  0.8905
 3721TIP3   OH211126   0.470   2.721   0.837 -0.1991 -0.3942  0.1031
 3721TIP3    H111127   0.474   2.644   0.781  0.5707  0.0364 -0.4460
 3721TIP3    H211128   0.389   2.765   0.812 -0.8682 -1.2387  0.7227
 3722TIP3   OH211129   0.591   0.083   3.685  0.4176 -0.2945 -0.3602
 3722TIP3    H111130   0.647   0.117   3.754 -1.3188 -0.9949  1.4867
 3722TIP3    H211131   0.647   0.020   3.638  1.4239 -0.3565  0.8708
 3723TIP3   OH211132   6.788   2.540   2.446  0.3404  0.2412  0.4225
 3723TIP3    H111133   6.754   2.568   2.531  1.2666  1.2338  0.4959
 3723TIP3    H211134   6.883   2.539   2.458  0.4205 -2.1184  0.1372
 3724TIP3   OH211135   3.624   5.144   0.089  0.2237  0.3922 -0.3424
 3724TIP3    H111136   3.683   5.218   0.101  0.2443  0.0220  2.2485
 3724TIP3    H211137   3.678   5.077   0.047  0.5462  1.3528 -1.5235
 3725TIP3   OH211138   1.858   2.465   3.629 -0.0927 -0.7489 -0.5951
 3725TIP3    H111139   1.783   2.500   3.581 -0.6996 -2.3633 -0.9254
 3725TIP3    H211140   1.822   2.441   3.715 -0.5067 -3.2691 -1.3778
 3726TIP3   OH211141   0.643   1.611   1.781  0.2807  0.1422 -0.2656
 3726TIP3    H111142   0.735   1.625   1.756 -0.1438  1.6862 -1.0980
 3726TIP3    H211143   0.630   1.517   1.772  1.9577 -0.2148  0.5434
 3727TIP3   OH211144   1.381   0.783   4.956 -0.3350  0.8109  0.3324
 3727TIP3    H111145   1.367   0.739   5.040  1.9905  0.3384  0.5428
 3727TIP3    H211146   1.311   0.848   4.951 -2.0448 -0.8480  1.4256
 3728TIP3   OH211147   2.092   3.048   4.720  0.4787  0.7558  0.1339
 3728TIP3    H111148   2.148   2.972   4.734  0.1207  0.8383  2.1843
 3728TIP3    H211149   2.009   3.026   4.761 -0.6140  1.1613 -1.7272
 3729TIP3   OH211150   2.340   4.752   2.861 -0.4804  0.1080 -0.4739
 3729TIP3    H111151   2.283   4.754   2.938  0.7665  0.9342  0.4610
 3729TIP3    H211152   2.343   4.660   2.836  0.0730 -0.3743  1.2402
 3730TIP3   OH211153   5.707   2.867   2.517  0.4225  0.0755  0.1237
 3730TIP3    H111154   5.622   2.828   2.500  0.4243 -0.3576  1.0359
 3730TIP3    H211155   5.737   2.826   2.599  1.2651  0.6061  0.1026
 3731TIP3   OH211156   2.713   6.644   0.412 -0.7443 -0.1067 -0.2757
 3731TIP3    H111157   2.777   6.592   0.462 -0.4881 -1.8675 -2.2620
 3731TIP3    H211158   2.667   6.579   0.359  0.1257  1.7303 -3.5135
 3732TIP3   OH211159   1.078   4.593   2.537 -0.1629  0.1652  0.0861
 3732TIP3    H111160   0.984   4.601   2.547 -0.1125 -0.4228  1.3045
 3732TIP3    H211161   1.099   4.642   2.458 -1.6184 -0.5550 -0.7935
 3733TIP3   OH211162   2.172   6.374   2.452 -0.4034  0.2733 -0.1136
 3733TIP3    H111163   2.267   6.367   2.447 -0.5492 -1.5947 -0.8322
 3733TIP3    H211164   2.148   6.431   2.379  0.2022  1.5056  0.6185
 3734TIP3   OH211165   2.138   3.397   4.336 -1.1754 -0.5705  0.1355
 3734TIP3    H111166   2.069   3.332   4.322 -1.7761 -0.1283  0.9443
 3734TIP3    H211167   2.094   3.481   4.324 -0.7687 -0.2843  0.6092
 3735TIP3   OH211168   2.963   3.591   0.892  0.2235 -0.3530  0.0802
 3735TIP3    H111169   2.947   3.577   0.985 -1.5868  0.5547 -0.0582
 3735TIP3    H211170   2.962   3.503   0.854  2.0387 -0.8329  1.0253
 3736TIP3   OH211171   0.189   2.946   2.573 -0.1363  0.1228 -0.3295
 3736TIP3    H111172   0.132   2.941   2.649 -1.3300  1.9782 -1.0436
 3736TIP3    H211173   0.185   3.037   2.545  1.2523 -0.2345 -1.8888
 3737TIP3   OH211174   0.615   1.405   2.188 -0.3019  0.4663 -0.8170
 3737TIP3    H111175   0.555   1.392   2.114 -2.5512  0.4688  0.8812
 3737TIP3    H211176   0.560   1.393   2.265  1.6285  1.8471  0.8809
 3738TIP3   OH211177   0.675   0.346   0.410 -0.1350 -0.0013  0.4926
 3738TIP3    H111178   0.672   0.251   0.413 -1.4138  0.0204  0.3261
 3738TIP3    H211179   0.585   0.373   0.395  0.2100  1.2410  0.5064
 3739TIP3   OH211180   3.432   5.333   0.118 -0.0165 -0.4414 -0.0636
 3739TIP3    H111181   3.413   5.354   0.210 -1.7975  0.1754 -0.5279
 3739TIP3    H211182   3.480   5.250   0.122  1.1048  0.2137  1.4710
 3740TIP3   OH211183   2.381   6.251   5.889 -0.7426  0.0987  0.3413
 3740TIP3    H111184   2.287   6.257   5.870 -0.7776  0.9075  0.7249
 3740TIP3    H211185   2.423   6.292   5.814 -0.7210  0.2314  0.4263
 3741TIP3   OH211186   4.490   1.703   2.202 -0.2525 -0.3031 -0.3501
 3741TIP3    H111187   4.423   1.703   2.134 -0.6236  0.5750  0.0081
 3741TIP3    H211188   4.565   1.658   2.162 -0.6471 -0.2522 -1.1561
 3742TIP3   OH211189   4.486   2.646   3.576  0.1684  0.3932  0.0780
 3742TIP3    H111190   4.515   2.721   3.628 -2.4811  0.4949  1.5746
 3742TIP3    H211191   4.392   2.641   3.591  0.0842 -2.6326 -0.7960
 3743TIP3   OH211192   4.545   5.889   3.010 -0.2889 -0.1495 -0.3467
 3743TIP3    H111193   4.614   5.933   3.058 -2.3113  1.0105  1.6505
 3743TIP3    H211194   4.505   5.957   2.956 -0.7738 -0.4708 -0.4065
 3744TIP3   OH211195   7.203   2.456   4.320  0.3785  0.2899  0.0615
 3744TIP3    H111196   7.108   2.459   4.311  0.3878 -1.0206 -0.6302
 3744TIP3    H211197   7.218   2.469   4.414 -0.5797 -1.0280  0.4274
 3745TIP3   OH211198   6.397   6.672   0.172 -0.0846  0.1208  0.3017
 3745TIP3    H111199   6.387   6.578   0.160 -1.1948  0.1230  1.0243
 3745TIP3    H211200   6.366   6.710   0.090 -1.9409 -0.0796  0.8606
 3746TIP3   OH211201   1.772   6.303   1.342  0.1319 -0.2058 -0.3439
 3746TIP3    H111202   1.771   6.366   1.270 -0.1270  0.5476  0.3098
 3746TIP3    H211203   1.687   6.259   1.337 -1.3924  2.2927  1.5999
 3747TIP3   OH211204   1.137   1.409   2.205  0.1469  0.0089  0.2819
 3747TIP3    H111205   1.042   1.403   2.214  0.1037  0.6452  0.2659
 3747TIP3    H211206   1.154   1.501   2.189  0.6706 -0.3027 -1.0267
 3748TIP3   OH211207   0.191   5.778   1.178  0.9215 -0.8126 -0.2968
 3748TIP3    H111208   0.159   5.783   1.088  1.5802 -0.6261 -0.5315
 3748TIP3    H211209   0.121   5.736   1.227 -0.0705  0.4324 -0.5952
 3749TIP3   OH211210   4.449   5.443   0.606 -0.3493 -0.2501 -0.0735
 3749TIP3    H111211   4.475   5.364   0.558  1.0161  0.2992 -0.2953
 3749TIP3    H211212   4.398   5.411   0.680 -1.1251 -1.2242 -1.0076
 3750TIP3   OH211213   6.011   0.617   3.984  0.1284  0.3446  0.3762
 3750TIP3    H111214   6.023   0.556   4.056 -0.3135 -0.7064 -0.4009
 3750TIP3    H211215   5.976   0.563   3.913  0.9776  1.2531 -0.7743
 3751TIP3   OH211216   5.297   6.665   3.927 -0.3207  0.3348  0.3251
 3751TIP3    H111217   5.373   6.665   3.869  0.1813  2.0651  0.8988
 3751TIP3    H211218   5.230   6.713   3.878 -0.2430  0.8696  0.7268
 3752TIP3   OH211219   2.194   6.179   1.856 -0.0784  0.2529  0.2155
 3752TIP3    H111220   2.149   6.263   1.851 -0.4467  0.0843  0.5823
 3752TIP3    H211221   2.224   6.173   1.947 -2.1275 -1.0396  0.8775
 3753TIP3   OH211222   1.474   6.595   2.138  0.3704  0.1436  0.0280
 3753TIP3    H111223   1.496   6.559   2.224  0.9053  1.5377  0.5115
 3753TIP3    H211224   1.531   6.672   2.129 -0.3134  0.5405 -1.1959
 3754TIP3   OH211225   6.582   0.681   1.449 -0.1535  0.3345 -0.2483
 3754TIP3    H111226   6.553   0.752   1.507  2.7784  0.5954  1.1179
 3754TIP3    H211227   6.617   0.726   1.372 -1.9152  0.0945 -1.2408
 3755TIP3   OH211228   1.219   1.749   3.879 -0.5611 -0.2047 -0.4701
 3755TIP3    H111229   1.298   1.764   3.931  0.2679  1.2178 -2.0250
 3755TIP3    H211230   1.182   1.668   3.914  1.0154 -0.3484  0.9925
 3756TIP3   OH211231   1.576   4.707   4.915  0.6163 -0.5760  0.4972
 3756TIP3    H111232   1.559   4.799   4.895  1.2427 -0.3265  1.0811
 3756TIP3    H211233   1.671   4.702   4.927  0.9159 -1.7883 -1.9062
 3757TIP3   OH211234   2.996   3.968   1.130  0.4894 -0.0635  0.7588
 3757TIP3    H111235   2.901   3.977   1.143  0.4698  0.6346  0.2039
 3757TIP3    H211236   3.034   4.027   1.196  0.4655  1.2733 -0.3742
 3758TIP3   OH211237   0.828   0.668   4.588  0.2057  0.4589 -0.1647
 3758TIP3    H111238   0.782   0.586   4.605  1.6159 -0.4436 -0.5754
 3758TIP3    H211239   0.865   0.658   4.501  0.5328  1.4719 -0.1546
 3759TIP3   OH211240   2.291   5.933   2.271  0.5310  0.1383 -0.1317
 3759TIP3    H111241   2.277   5.997   2.200 -0.4757  1.1451  0.9236
 3759TIP3    H211242   2.354   5.976   2.329 -0.5745  0.4593  0.8751
 3760TIP3   OH211243   6.588   1.518   0.356  0.9370  0.7646  1.0328
 3760TIP3    H111244   6.548   1.492   0.438 -1.5067  1.4261  0.1323
 3760TIP3    H211245   6.543   1.599   0.332  1.3547  0.4224 -1.0872
 3761TIP3   OH211246   0.822   0.604   5.726  0.5444  0.0324 -0.5352
 3761TIP3    H111247   0.788   0.689   5.754  0.2573 -0.6707  1.4477
 3761TIP3    H211248   0.846   0.560   5.808 -1.1278 -2.5486 -1.3098
 3762TIP3   OH211249   3.089   5.571   0.150  0.1132 -0.2917 -0.2990
 3762TIP3    H111250   3.113   5.551   0.060  1.2917  0.5435 -0.1975
 3762TIP3    H211251   3.171   5.595   0.192 -0.6931  1.2530  0.4816
 3763TIP3   OH211252   0.100   3.293   3.370 -0.1530  0.0145  0.0894
 3763TIP3    H111253   0.025   3.265   3.423  0.7140  0.4026  1.5967
 3763TIP3    H211254   0.131   3.373   3.413 -1.0841  2.0104 -2.6863
 3764TIP3   OH211255   3.350   4.533   4.022 -0.7307  0.3047  0.1264
 3764TIP3    H111256   3.313   4.445   4.026  0.2921 -0.1551 -0.2771
 3764TIP3    H211257   3.351   4.563   4.113 -0.0828 -0.5325  0.4094
 3765TIP3   OH211258   1.016   3.419   0.059  0.7683  0.0666  0.4620
 3765TIP3    H111259   1.077   3.416  -0.015 -0.1343 -0.0794 -0.3005
 3765TIP3    H211260   1.011   3.328   0.089 -1.1277 -0.4797 -1.2498
 3766TIP3   OH211261   6.779   3.418   2.713  0.1657  0.6509  0.3991
 3766TIP3    H111262   6.786   3.372   2.797 -0.9212 -0.3353 -0.0287
 3766TIP3    H211263   6.869   3.421   2.680  0.3624 -0.4930  0.7986
 3767TIP3   OH211264   5.249   4.951   4.132 -0.5004  0.5874 -0.5114
 3767TIP3    H111265   5.218   5.034   4.097 -1.7456  1.3188  2.1018
 3767TIP3    H211266   5.246   4.962   4.227  1.4146 -1.7058 -0.0846
 3768TIP3   OH211267   2.223   3.684   4.593  0.0961 -0.4980  0.6565
 3768TIP3    H111268   2.223   3.779   4.608  0.7432 -0.3482 -0.2035
 3768TIP3    H211269   2.300   3.669   4.537 -0.0173 -1.5272  0.7622
 3769TIP3   OH211270   5.721   5.432   5.704  0.2686 -0.6882 -0.2587
 3769TIP3    H111271   5.627   5.418   5.717  0.3987 -0.8820  0.4839
 3769TIP3    H211272   5.736   5.522   5.733  0.3324 -0.6869 -0.2952
 3770TIP3   OH211273   5.143   1.722   3.389 -0.2452 -0.4654 -0.5185
 3770TIP3    H111274   5.115   1.643   3.435 -2.0090  0.1945 -0.3652
 3770TIP3    H211275   5.125   1.793   3.450 -3.3507  0.5190 -2.3302
 3771TIP3   OH211276   6.546   1.379   3.976  0.2190  0.3880  0.3427
 3771TIP3    H111277   6.512   1.401   4.063 -2.2049 -1.2973 -0.0519
 3771TIP3    H211278   6.626   1.330   3.992 -0.9743 -1.1964  1.7674
 3772TIP3   OH211279   0.776   3.727   4.409  0.5032  0.1462 -0.1878
 3772TIP3    H111280   0.692   3.762   4.379 -0.5195 -1.0337  1.1406
 3772TIP3    H211281   0.773   3.735   4.504  1.7067 -0.3485 -0.0832
 3773TIP3   OH211282   1.033   1.099   3.433 -0.6773 -0.4713 -0.0649
 3773TIP3    H111283   1.115   1.079   3.388 -0.1563  0.4681  0.4210
 3773TIP3    H211284   0.985   1.016   3.434  1.1022 -1.5602  1.3463
 3774TIP3   OH211285   3.307   6.288   2.779  0.0378 -0.2017  0.6791
 3774TIP3    H111286   3.295   6.314   2.870 -1.0169 -2.1635  1.1661
 3774TIP3    H211287   3.274   6.199   2.775  1.1443 -0.5926 -1.3920
 3775TIP3   OH211288   5.706   4.784   0.363  0.0191  0.3929  0.0126
 3775TIP3    H111289   5.623   4.830   0.361 -0.1107  0.1422 -0.5831
 3775TIP3    H211290   5.692   4.706   0.310  0.8170  0.6586 -0.6079
 3776TIP3   OH211291   6.960   1.310   0.234  0.5194 -0.0185  0.0329
 3776TIP3    H111292   6.923   1.271   0.313  2.3836 -2.5804 -0.2161
 3776TIP3    H211293   6.968   1.403   0.255  0.1275 -0.4627  2.5162
 3777TIP3   OH211294   5.364   1.174   2.549 -0.1405 -0.5791  0.0078
 3777TIP3    H111295   5.289   1.163   2.607  0.8526  1.5514  1.8245
 3777TIP3    H211296   5.440   1.148   2.602  0.5739 -1.0136 -1.1924
 3778TIP3   OH211297   1.768   0.184   0.386  0.1383  0.0876  0.3476
 3778TIP3    H111298   1.800   0.168   0.297  1.5316  0.2419  0.8060
 3778TIP3    H211299   1.695   0.245   0.374  0.5604  0.4186 -0.6609
 3779TIP3   OH211300   4.610   4.734   5.405  0.0595  0.5594  0.1206
 3779TIP3    H111301   4.559   4.653   5.395  0.3042  0.3924  0.2083
 3779TIP3    H211302   4.572   4.794   5.340 -0.1261  0.3753  0.0557
 3780TIP3   OH211303   6.485   5.793   5.531 -0.2488  0.0917  0.4833
 3780TIP3    H111304   6.482   5.863   5.466 -3.8969  0.2066  0.6031
 3780TIP3    H211305   6.557   5.737   5.502  1.0027  2.3844 -1.1720
 3781TIP3   OH211306   5.499   2.763   2.210  0.3449 -0.3301 -0.4616
 3781TIP3    H111307   5.495   2.783   2.304 -1.4492  3.2523 -1.1258
 3781TIP3    H211308   5.437   2.691   2.198  1.8184 -2.0177  1.2033
 3782TIP3   OH211309   6.890   0.645   2.265  0.3349 -0.3243  0.3028
 3782TIP3    H111310   6.893   0.731   2.308 -1.9674 -0.1083  0.1587
 3782TIP3    H211311   6.821   0.598   2.311  0.6217 -1.6134 -0.5355
 3783TIP3   OH211312   2.114   1.787   1.696 -0.0016  0.2102 -0.7403
 3783TIP3    H111313   2.141   1.768   1.606  1.7678 -1.9406  0.1466
 3783TIP3    H211314   2.052   1.718   1.718  0.7516 -0.2237  0.1342
 3784TIP3   OH211315   1.907   0.737   3.832  0.4893 -0.0195  0.2855
 3784TIP3    H111316   1.887   0.758   3.741  1.6701  2.0380  0.4506
 3784TIP3    H211317   1.909   0.821   3.877 -0.4485 -1.0203  2.3395
 3785TIP3   OH211318   7.200   5.232   5.127 -0.4103  0.4011 -0.3606
 3785TIP3    H111319   7.111   5.204   5.107 -0.0642 -0.2813 -0.9950
 3785TIP3    H211320   7.242   5.154   5.164  0.5065  0.0978 -1.9454
 3786TIP3   OH211321   5.211   1.538   3.832  0.4106 -0.4387 -0.7452
 3786TIP3    H111322   5.179   1.582   3.911  2.5853  1.0311 -0.6137
 3786TIP3    H211323   5.161   1.457   3.829 -0.7196  0.0948  1.3801
 3787TIP3   OH211324   0.868   3.578   5.620  0.1523  0.0957  0.5256
 3787TIP3    H111325   0.910   3.624   5.547  1.1892 -1.5492  0.0320
 3787TIP3    H211326   0.872   3.486   5.595 -2.1609 -0.2881  1.3212
 3788TIP3   OH211327   6.647   1.017   5.211  0.0107 -0.2594  0.4022
 3788TIP3    H111328   6.708   1.091   5.220 -0.6907  0.3901 -0.1136
 3788TIP3    H211329   6.682   0.966   5.138  0.8064 -0.7606  1.1074
 3789TIP3   OH211330   4.318   4.804   2.402 -0.3706 -0.5456  0.0580
 3789TIP3    H111331   4.292   4.806   2.310  0.0055 -2.2619 -0.1156
 3789TIP3    H211332   4.409   4.777   2.401 -0.4778 -0.9706  0.9526
 3790TIP3   OH211333   3.294   1.970   4.359 -0.2783 -0.4805  0.4257
 3790TIP3    H111334   3.346   1.990   4.437 -0.8345  0.6606  0.5224
 3790TIP3    H211335   3.211   1.938   4.394 -0.2398 -0.7298  0.2895
 3791TIP3   OH211336   1.715   1.103   5.837 -0.1274  0.2282 -0.1434
 3791TIP3    H111337   1.801   1.119   5.798  0.8713  1.8219  2.4174
 3791TIP3    H211338   1.716   1.009   5.857  0.3774 -0.0766 -1.5095
 3792TIP3   OH211339   1.268   3.686   4.149 -0.1387  0.2596 -0.0921
 3792TIP3    H111340   1.341   3.746   4.135  0.0487 -0.4992 -2.9238
 3792TIP3    H211341   1.194   3.743   4.170  0.7898  1.1626  0.9160
 3793TIP3   OH211342   1.754   5.190   0.902 -0.8344  0.5400  0.0914
 3793TIP3    H111343   1.742   5.095   0.906 -0.8415  0.5536  0.4927
 3793TIP3    H211344   1.667   5.225   0.879 -0.7201  0.4205 -0.5168
 3794TIP3   OH211345   3.635   3.750   4.816  0.5778 -0.2285 -0.3194
 3794TIP3    H111346   3.637   3.788   4.904 -1.1669 -2.1283  0.6171
 3794TIP3    H211347   3.620   3.656   4.830  0.8525 -0.6863 -2.6333
 3795TIP3   OH211348   4.256   4.020   0.531 -0.5938 -0.8446 -0.2303
 3795TIP3    H111349   4.197   4.088   0.499  0.2348 -0.5398 -1.1591
 3795TIP3    H211350   4.341   4.063   0.536 -0.5536 -1.0554  1.8408
 3796TIP3   OH211351   3.553   5.045   0.923 -0.2073  0.0703  0.1115
 3796TIP3    H111352   3.540   5.012   0.834 -0.6354 -0.8750  0.5200
 3796TIP3    H211353   3.602   4.976   0.967 -1.1899 -0.0704  1.0060
 3797TIP3   OH211354   4.865   1.482   3.362 -0.2855  0.4283  0.2101
 3797TIP3    H111355   4.897   1.487   3.272  2.2605  0.9575  1.0813
 3797TIP3    H211356   4.825   1.567   3.378  1.7935  1.4332  0.4052
 3798TIP3   OH211357   5.286   6.702   5.316  0.1451  0.2807  0.4749
 3798TIP3    H111358   5.211   6.648   5.338  0.7634 -0.1832  1.5655
 3798TIP3    H211359   5.258   6.755   5.242 -0.1887 -2.1529 -1.2390
 3799TIP3   OH211360   4.555   5.147   4.932 -0.4116 -0.0488  0.0928
 3799TIP3    H111361   4.531   5.056   4.945  0.7208 -0.0509  2.8671
 3799TIP3    H211362   4.629   5.145   4.872  1.7849 -1.3856  2.6321
 3800TIP3   OH211363   6.643   1.800   4.207 -0.1829 -0.5785 -0.2097
 3800TIP3    H111364   6.693   1.734   4.254 -1.7739 -1.8431 -0.1801
 3800TIP3    H211365   6.629   1.762   4.120  0.2400  0.4421 -0.7371
 3801TIP3   OH211366   5.576   3.076   0.215 -0.6997  0.3418  0.2029
 3801TIP3    H111367   5.619   3.010   0.161  0.6013  2.1111 -1.0086
 3801TIP3    H211368   5.486   3.044   0.224 -0.3831 -1.0626 -1.2166
 3802TIP3   OH211369   2.611   3.716   5.527  0.2275  0.2134 -0.2406
 3802TIP3    H111370   2.653   3.799   5.507 -0.7250  0.5320 -1.0254
 3802TIP3    H211371   2.559   3.734   5.605  1.7825 -0.2846  0.9646
 3803TIP3   OH211372   3.933   4.193   3.772  1.0450  0.1054 -0.8027
 3803TIP3    H111373   3.935   4.220   3.864 -4.2397  0.8528 -0.5756
 3803TIP3    H211374   3.942   4.098   3.776  2.1530  0.2330  0.3486
 3804TIP3   OH211375   6.625   3.160   0.636  0.2865 -0.6285  0.5800
 3804TIP3    H111376   6.579   3.191   0.558  0.9352 -0.7217  0.1600
 3804TIP3    H211377   6.593   3.217   0.706  0.8091  0.4310 -0.0238
 3805TIP3   OH211378   3.505   5.539   5.207  0.7115 -0.0499 -0.3691
 3805TIP3    H111379   3.435   5.566   5.266  0.1634  0.4540 -1.2269
 3805TIP3    H211380   3.521   5.447   5.228  0.2960  0.0299  0.3215
 3806TIP3   OH211381   5.862   3.347   0.634 -0.3025  0.3803  0.3364
 3806TIP3    H111382   5.815   3.388   0.707 -1.0340  0.3107 -0.0872
 3806TIP3    H211383   5.875   3.257   0.661 -0.0106  0.5108  0.6424
 3807TIP3   OH211384   3.556   5.793   2.232  0.0356  0.0148 -0.4461
 3807TIP3    H111385   3.542   5.702   2.258  0.5866  0.1579  0.3991
 3807TIP3    H211386   3.651   5.805   2.239 -0.2371  1.4114  2.1553
 3808TIP3   OH211387   2.056   6.814   1.383  0.1769 -0.1846  0.1711
 3808TIP3    H111388   2.033   6.815   1.476  0.3776 -0.6485  0.2287
 3808TIP3    H211389   2.032   6.727   1.353 -2.3644  0.7884 -0.8666
 3809TIP3   OH211390   6.959   6.002   4.743 -0.5144  0.1660  0.0786
 3809TIP3    H111391   6.961   6.034   4.653 -1.5215 -0.1954 -0.0856
 3809TIP3    H211392   6.948   5.908   4.735  0.1381  0.0364  0.5858
 3810TIP3   OH211393   6.502   6.312   2.804  0.1437  0.3044 -0.4613
 3810TIP3    H111394   6.532   6.260   2.729  1.4453 -0.5016  0.5622
 3810TIP3    H211395   6.582   6.335   2.850 -0.6230 -3.4611  3.4324
 3811TIP3   OH211396   2.610   0.197   5.240 -0.3017  0.6147 -0.1018
 3811TIP3    H111397   2.579   0.155   5.160 -1.3984  1.6994 -0.2843
 3811TIP3    H211398   2.705   0.202   5.229 -0.0300 -2.2910  0.2125
 3812TIP3   OH211399   5.140   4.572   0.921 -0.2639  0.5464 -0.8365
 3812TIP3    H111400   5.179   4.546   1.004 -0.9432  2.7646  0.2518
 3812TIP3    H211401   5.212   4.612   0.872 -0.3164  1.2113 -0.3874
 3813TIP3   OH211402   5.173   4.974   4.419 -0.5583 -0.0059  0.1186
 3813TIP3    H111403   5.138   4.887   4.441  1.7051 -1.2738 -0.8834
 3813TIP3    H211404   5.250   4.983   4.476 -0.5627  1.1898 -0.0530
 3814TIP3   OH211405   3.328   0.329   2.912  0.0523  0.0784 -0.0099
 3814TIP3    H111406   3.342   0.369   2.998 -0.8259 -2.2195  1.2887
 3814TIP3    H211407   3.408   0.278   2.896 -0.3097 -0.5233  0.0673
 3815TIP3   OH211408   2.820   6.163   0.854 -0.0254 -0.0459 -0.2649
 3815TIP3    H111409   2.755   6.221   0.894 -0.6874 -0.7548 -0.3012
 3815TIP3    H211410   2.802   6.077   0.892  0.6311 -0.3303 -0.5869
 3816TIP3   OH211411   6.269   3.485   2.322  0.1127 -0.7314  0.0923
 3816TIP3    H111412   6.355   3.522   2.342  0.0864 -0.0164 -1.0280
 3816TIP3    H211413   6.281   3.439   2.239 -0.7319 -0.0211 -0.4477
 3817TIP3   OH211414   3.129   3.783   4.771  0.5860  0.2617  0.4081
 3817TIP3    H111415   3.091   3.844   4.835  1.7987  2.2198 -0.6495
 3817TIP3    H211416   3.055   3.727   4.745 -0.8543  1.9636  0.6479
 3818TIP3   OH211417   2.575   5.245   0.781  0.4173 -0.1091  0.3582
 3818TIP3    H111418   2.487   5.209   0.764  0.0769  0.8662 -0.0371
 3818TIP3    H211419   2.632   5.197   0.721  0.2311 -1.0394  0.9039
 3819TIP3   OH211420   6.320   5.390   5.713 -0.1277  0.1756 -0.2320
 3819TIP3    H111421   6.375   5.428   5.781 -1.1679  0.1030  0.6608
 3819TIP3    H211422   6.309   5.460   5.649 -1.7800  1.3524  1.2481
 3820TIP3   OH211423   0.388   4.753   4.442  0.1383 -0.2320 -0.2861
 3820TIP3    H111424   0.355   4.667   4.416 -1.4570  0.1918  0.1874
 3820TIP3    H211425   0.396   4.747   4.538 -0.9805  0.4360 -0.1308
 3821TIP3   OH211426   6.985   2.724   4.036  0.0981 -0.2616 -0.1081
 3821TIP3    H111427   7.071   2.690   4.013  0.4163  0.9242 -0.7666
 3821TIP3    H211428   6.931   2.707   3.959 -0.0516 -0.2787 -0.0011
 3822TIP3   OH211429   5.157   4.515   2.789 -0.6749  0.3239  0.3850
 3822TIP3    H111430   5.242   4.540   2.752 -0.9567  1.7927  0.6676
 3822TIP3    H211431   5.179   4.457   2.862 -0.0936 -2.2029 -1.6602
 3823TIP3   OH211432   4.638   5.436   3.106 -0.4110 -0.1310  0.1284
 3823TIP3    H111433   4.637   5.492   3.029 -1.3151 -0.8754 -0.4190
 3823TIP3    H211434   4.729   5.405   3.111 -0.2554  0.2181 -0.4135
 3824TIP3   OH211435   3.077   2.784   3.811 -0.5243  0.0916  0.0801
 3824TIP3    H111436   3.129   2.816   3.738  0.4055 -0.0504  0.6611
 3824TIP3    H211437   2.988   2.780   3.777 -0.3466  1.4014 -0.6007
 3825TIP3   OH211438   0.885   5.860   5.091 -0.2591  0.1525  0.5955
 3825TIP3    H111439   0.907   5.811   5.170 -1.9146 -0.3291  0.8021
 3825TIP3    H211440   0.941   5.938   5.094  2.8212 -1.8804  0.0023
 3826TIP3   OH211441   2.497   1.028   5.399  0.1187 -0.3220 -0.5283
 3826TIP3    H111442   2.582   0.996   5.370 -0.3120 -2.0630 -0.0157
 3826TIP3    H211443   2.499   1.122   5.382  2.5220 -0.1301  0.4655
 3827TIP3   OH211444   0.224   1.116   5.456  0.2410  0.3003  0.7001
 3827TIP3    H111445   0.188   1.062   5.526  0.4387 -1.1454 -0.2811
 3827TIP3    H211446   0.308   1.075   5.435  0.2924  0.8564 -0.2327
 3828TIP3   OH211447   4.126   5.770   4.028  0.3593 -0.5740 -0.1226
 3828TIP3    H111448   4.055   5.731   3.977 -0.5084 -0.3479  0.8690
 3828TIP3    H211449   4.094   5.857   4.051  1.1771 -0.2770 -0.0875
 3829TIP3   OH211450   4.527   4.045   5.693 -0.1927  0.0347  0.2062
 3829TIP3    H111451   4.611   4.092   5.691 -0.2281  0.0953 -0.9029
 3829TIP3    H211452   4.510   4.024   5.601 -0.1417 -2.2493  0.6671
 3830TIP3   OH211453   3.228   4.291   0.364 -0.0187  0.6396 -0.4798
 3830TIP3    H111454   3.173   4.213   0.373 -0.4416  1.0825  0.8461
 3830TIP3    H211455   3.168   4.364   0.371  0.6659  1.1221  0.5682
 3831TIP3   OH211456   2.718   5.444   0.383 -0.2031  0.5759  0.1913
 3831TIP3    H111457   2.655   5.383   0.421 -0.1477  0.7452  0.5605
 3831TIP3    H211458   2.795   5.390   0.364 -0.8434  0.1374 -1.3036
 3832TIP3   OH211459   2.036   1.598   2.237  0.3091 -0.1901  0.0030
 3832TIP3    H111460   2.004   1.654   2.166  0.7503  0.7347  0.5038
 3832TIP3    H211461   2.047   1.658   2.311  0.9177 -0.9226  0.5249
 3833TIP3   OH211462   6.461   0.889   2.548  0.3126 -0.0114  0.1953
 3833TIP3    H111463   6.495   0.960   2.493 -0.3214  0.1481 -0.0109
 3833TIP3    H211464   6.536   0.858   2.597  0.5709  0.9500  0.4448
 3834TIP3   OH211465   1.227   5.719   4.007 -0.0644  0.6076  0.9309
 3834TIP3    H111466   1.204   5.811   3.990  0.9413  0.6869 -0.1574
 3834TIP3    H211467   1.154   5.685   4.059 -1.7878  1.2758 -0.9255
 3835TIP3   OH211468   3.810   3.898   3.405  0.1909 -0.1346  0.3158
 3835TIP3    H111469   3.893   3.903   3.453  0.7522 -0.4908 -0.5917
 3835TIP3    H211470   3.743   3.897   3.474  0.8577  1.4592  1.0370
 3836TIP3   OH211471   2.657   1.184   1.383  0.2282  0.0977 -0.6157
 3836TIP3    H111472   2.575   1.139   1.404 -1.1127  2.8949  0.6355
 3836TIP3    H211473   2.719   1.153   1.449 -0.0766 -1.2340 -0.9198
 3837TIP3   OH211474   5.978   0.009   2.760  1.0129  0.0849  0.1421
 3837TIP3    H111475   6.015   0.096   2.776 -0.4972  1.0032 -1.0919
 3837TIP3    H211476   6.048  -0.040   2.717  1.4739  1.1072 -0.2902
 3838TIP3   OH211477   6.594   5.100   3.750 -0.2690  1.0205 -0.3093
 3838TIP3    H111478   6.589   5.065   3.839  3.1831 -0.2633 -0.4763
 3838TIP3    H211479   6.536   5.044   3.699  1.6358 -1.7053  0.3003
 3839TIP3   OH211480   4.187   3.615   2.415 -0.1746 -0.3242  0.6274
 3839TIP3    H111481   4.154   3.691   2.464 -0.8596 -0.8191  0.9631
 3839TIP3    H211482   4.275   3.639   2.389 -0.3282  0.5275  0.8674
 3840TIP3   OH211483   6.019   1.717   0.933 -0.1947  0.5202  0.2301
 3840TIP3    H111484   5.995   1.801   0.895 -0.7674  0.3846  0.2872
 3840TIP3    H211485   5.953   1.701   1.001 -0.4361 -0.2438 -0.1704
 3841TIP3   OH211486   2.788   1.198   4.353  0.0956 -0.3782 -0.0855
 3841TIP3    H111487   2.779   1.251   4.274 -0.9099 -2.8075 -1.7178
 3841TIP3    H211488   2.705   1.209   4.400 -0.5935 -1.3501 -1.0280
 3842TIP3   OH211489   2.719   5.417   3.433  0.1842 -0.3757  0.3134
 3842TIP3    H111490   2.643   5.362   3.452  0.0361 -0.4237 -0.3773
 3842TIP3    H211491   2.715   5.431   3.338 -0.3884  1.7137  0.5889
 3843TIP3   OH211492   5.089   6.539   1.885  0.0471  0.1713 -0.1069
 3843TIP3    H111493   5.066   6.576   1.800 -2.0671  2.6589  1.4066
 3843TIP3    H211494   5.021   6.474   1.903  0.4200 -0.2606 -0.2046
 3844TIP3   OH211495   5.516   1.202   5.421  0.3212  0.2072 -0.0812
 3844TIP3    H111496   5.582   1.230   5.357  0.6929  0.7871  0.5289
 3844TIP3    H211497   5.504   1.279   5.477 -1.3098  0.3157 -0.5151
 3845TIP3   OH211498   1.249   1.363   2.666 -0.2783  0.3927  0.0017
 3845TIP3    H111499   1.228   1.322   2.582 -1.6912  0.7780  0.1417
 3845TIP3    H211500   1.176   1.422   2.683  0.9328  1.8210  0.5586
 3846TIP3   OH211501   4.839   2.280   5.604 -0.0304 -0.5717 -0.2670
 3846TIP3    H111502   4.850   2.354   5.545  0.8799 -0.9643 -0.6058
 3846TIP3    H211503   4.819   2.206   5.546  1.5502 -1.1055 -0.1650
 3847TIP3   OH211504   4.177   4.253   4.482  0.3195 -0.3375 -0.5255
 3847TIP3    H111505   4.182   4.288   4.392 -1.2943  2.4039  0.3150
 3847TIP3    H211506   4.122   4.175   4.474  0.0396 -0.0347 -1.8961
 3848TIP3   OH211507   1.645   2.135   4.585 -0.0372 -0.0910 -0.1316
 3848TIP3    H111508   1.709   2.074   4.620 -0.8362 -0.6422  0.3961
 3848TIP3    H211509   1.584   2.151   4.657 -0.5951  0.2876 -0.6725
 3849TIP3   OH211510   3.387   5.680   4.682 -0.1606 -0.3015 -0.0103
 3849TIP3    H111511   3.422   5.611   4.626  0.9358  0.8399 -0.7948
 3849TIP3    H211512   3.416   5.656   4.770 -0.0593 -1.0077 -0.2281
 3850TIP3   OH211513   3.927   1.317   2.888 -0.3669  0.1182  0.4009
 3850TIP3    H111514   3.959   1.237   2.930 -0.9522  0.7608  2.1606
 3850TIP3    H211515   4.007   1.366   2.869  0.0967 -1.3382 -1.8253
 3851TIP3   OH211516   0.610   3.204   3.997 -0.0389 -0.7473 -0.6699
 3851TIP3    H111517   0.674   3.133   3.991 -0.7315 -1.4795  0.3704
 3851TIP3    H211518   0.526   3.163   3.977 -0.6102 -0.4913  1.0665
 3852TIP3   OH211519   0.242   5.915   3.835  0.1815  0.0561  0.4607
 3852TIP3    H111520   0.242   5.885   3.744  0.4385  0.6901  0.2469
 3852TIP3    H211521   0.186   5.853   3.881  0.4339 -0.5462 -0.0382
 3853TIP3   OH211522   6.398   2.543   5.543  0.1545 -0.0351 -0.7999
 3853TIP3    H111523   6.448   2.501   5.613 -1.4091 -1.0760 -0.2443
 3853TIP3    H211524   6.338   2.474   5.513  0.7975  0.3740 -3.2051
 3854TIP3   OH211525   3.740   1.429   3.467  0.0747  0.5287  0.0936
 3854TIP3    H111526   3.807   1.361   3.468 -0.3897 -0.0189 -1.9780
 3854TIP3    H211527   3.788   1.511   3.452  0.3352  0.1344 -1.4255
 3855TIP3   OH211528   0.318   3.166   5.588  0.0972 -0.0467 -0.1955
 3855TIP3    H111529   0.355   3.124   5.510  0.9025 -1.3635  0.8490
 3855TIP3    H211530   0.224   3.168   5.571  0.3793  1.5393 -2.0418
 3856TIP3   OH211531   6.756   0.291   3.878 -0.3618 -0.0650  0.8285
 3856TIP3    H111532   6.687   0.266   3.939 -1.4569  0.2143 -0.2628
 3856TIP3    H211533   6.763   0.218   3.817  0.5492 -0.2304  1.1130
 3857TIP3   OH211534   4.919   4.992   2.412 -0.3149  0.2165 -0.4840
 3857TIP3    H111535   4.931   4.897   2.415  1.9630  0.4443  0.8844
 3857TIP3    H211536   4.902   5.011   2.321 -0.4989 -1.4868 -0.8496
 3858TIP3   OH211537   7.209   5.038   0.815 -0.0386  0.2798 -0.0495
 3858TIP3    H111538   7.271   5.082   0.756 -0.8048  1.3120 -0.1247
 3858TIP3    H211539   7.123   5.056   0.776 -0.4312 -0.6287  0.3741
 3859TIP3   OH211540   6.084   3.725   4.221  0.2089 -0.3362 -0.1773
 3859TIP3    H111541   6.167   3.677   4.227  1.9062  2.4967  1.4619
 3859TIP3    H211542   6.095   3.783   4.146 -0.5861 -0.4278 -0.3665
 3860TIP3   OH211543   0.977   5.784   2.766  0.2950  0.0296  0.4632
 3860TIP3    H111544   0.954   5.693   2.745  0.0691  0.0504  0.6289
 3860TIP3    H211545   0.937   5.800   2.851  0.7596  0.1228  0.6716
 3861TIP3   OH211546   0.758   5.191   2.557 -1.1260  0.2803  0.1990
 3861TIP3    H111547   0.818   5.264   2.542 -0.5903 -0.4156 -1.1943
 3861TIP3    H211548   0.682   5.210   2.503  0.0136 -1.2931 -2.1646
 3862TIP3   OH211549   5.451   5.050   5.035 -0.1989 -0.0757  0.2658
 3862TIP3    H111550   5.520   5.116   5.021 -0.5260  0.0741 -0.6634
 3862TIP3    H211551   5.468   5.017   5.123  0.9608  0.0881  0.1209
 3863TIP3   OH211552   4.792   0.541   1.903 -0.3030  0.1917 -0.4715
 3863TIP3    H111553   4.721   0.560   1.841  0.2445  0.1151 -1.1320
 3863TIP3    H211554   4.855   0.612   1.889 -0.9458  1.1481  1.2235
 3864TIP3   OH211555   1.141   3.663   0.628 -0.3370  0.2231 -0.3647
 3864TIP3    H111556   1.106   3.682   0.714  0.8670  0.4110  0.1057
 3864TIP3    H211557   1.115   3.572   0.611 -0.2769  0.0665  0.3572
 3865TIP3   OH211558   6.794   3.906   4.612 -0.0133  0.3228 -0.0304
 3865TIP3    H111559   6.729   3.848   4.653  0.6087 -1.2647 -1.1936
 3865TIP3    H211560   6.793   3.882   4.520  0.9378  1.5465 -0.3818
 3866TIP3   OH211561   2.034   5.086   2.684 -0.4219  0.0119  0.0674
 3866TIP3    H111562   2.069   5.039   2.760 -2.1682  0.5738  1.2731
 3866TIP3    H211563   1.980   5.155   2.722 -2.8519 -0.8212 -1.6757
 3867TIP3   OH211564   4.746   1.555   2.410 -0.1413  0.3918 -0.2938
 3867TIP3    H111565   4.655   1.576   2.432 -0.7967 -1.0918 -1.3999
 3867TIP3    H211566   4.785   1.529   2.494 -0.6674  1.2346  0.2294
 3868TIP3   OH211567   5.663   0.054   3.541  0.1894 -0.4498 -0.6190
 3868TIP3    H111568   5.628   0.047   3.452 -0.6066 -1.7334 -0.2334
 3868TIP3    H211569   5.586   0.048   3.598  0.5156  1.6965  0.1719
 3869TIP3   OH211570   5.481   2.349   0.346  0.0575  0.2154 -0.0989
 3869TIP3    H111571   5.439   2.430   0.316 -0.1674  0.1756  0.1036
 3869TIP3    H211572   5.575   2.367   0.340  0.0106  0.3589 -0.4094
 3870TIP3   OH211573   3.224   2.642   4.555 -0.1975 -0.6416 -0.5268
 3870TIP3    H111574   3.305   2.601   4.527 -0.2475 -0.7069 -0.5743
 3870TIP3    H211575   3.175   2.573   4.599  0.5105 -0.2007  1.0198
 3871TIP3   OH211576   2.836   0.718   1.685  0.1904  0.4976  0.3754
 3871TIP3    H111577   2.825   0.760   1.770 -0.0123 -0.0691  0.6372
 3871TIP3    H211578   2.811   0.627   1.700  1.2994  0.1077 -0.0086
 3872TIP3   OH211579   5.309   5.337   0.699 -0.3173 -0.3367 -0.1388
 3872TIP3    H111580   5.228   5.293   0.723 -0.6203  0.5805  0.5648
 3872TIP3    H211581   5.363   5.268   0.660 -0.3752 -1.5555  1.8296
 3873TIP3   OH211582   1.919   3.109   3.609  0.3796  0.0631  0.1862
 3873TIP3    H111583   1.897   3.158   3.688 -1.1818 -1.4515  0.7651
 3873TIP3    H211584   1.967   3.171   3.555  0.0622  1.6493  1.6242
 3874TIP3   OH211585   2.946   1.874   1.359  0.7250  0.0532  0.3861
 3874TIP3    H111586   3.037   1.878   1.332  1.0248 -1.2600  1.1110
 3874TIP3    H211587   2.947   1.904   1.450  0.2992  0.7667  0.1677
 3875TIP3   OH211588   5.071   2.620   1.514 -0.1658  0.2428 -0.3593
 3875TIP3    H111589   5.093   2.698   1.565 -0.4730 -0.4258  0.8179
 3875TIP3    H211590   5.093   2.644   1.424  1.6177  1.0105  0.2245
 3876TIP3   OH211591   0.152   1.197   0.107 -0.0316  0.6638 -0.2450
 3876TIP3    H111592   0.102   1.143   0.168  2.2225  0.0008  1.1565
 3876TIP3    H211593   0.126   1.287   0.127 -0.7305  0.3363  0.3651
 3877TIP3   OH211594   1.961   6.312   0.194  0.2710 -0.4526  0.0915
 3877TIP3    H111595   1.956   6.407   0.201  0.0823 -0.4765  0.2931
 3877TIP3    H211596   2.043   6.295   0.147  0.6254 -0.2177  0.6264
 3878TIP3   OH211597   2.009   0.930   2.243 -0.1437 -0.0604  0.2183
 3878TIP3    H111598   1.990   1.023   2.254  0.3850  0.0517  0.2068
 3878TIP3    H211599   2.076   0.912   2.310 -0.9670 -0.6615  0.8982
 3879TIP3   OH211600   0.666   3.198   0.314  0.6856 -0.5605 -0.1485
 3879TIP3    H111601   0.585   3.218   0.360  0.3074 -1.7036 -0.2975
 3879TIP3    H211602   0.692   3.112   0.348  2.9043  0.5994  1.3708
 3880TIP3   OH211603   7.131   5.375   4.062  0.3354 -0.1149 -0.6642
 3880TIP3    H111604   7.209   5.382   4.117  0.2167 -0.1030 -0.4966
 3880TIP3    H211605   7.071   5.320   4.113 -0.9471  2.2640  0.5754
 3881TIP3   OH211606   1.441   4.046   1.564  0.0125  0.3140  0.3932
 3881TIP3    H111607   1.490   4.030   1.645 -0.7826  0.0495  0.8401
 3881TIP3    H211608   1.352   4.065   1.594 -0.1736  0.7397 -0.3994
 3882TIP3   OH211609   5.286   2.589   2.137 -0.3005 -0.0496 -0.0289
 3882TIP3    H111610   5.281   2.511   2.192 -1.4690  0.9206  1.3262
 3882TIP3    H211611   5.197   2.626   2.141  0.5707  2.0991  0.5311
 3883TIP3   OH211612   2.956   1.157   0.836 -0.4018 -0.6257 -0.3098
 3883TIP3    H111613   2.905   1.100   0.894  0.2823 -1.8600 -0.8799
 3883TIP3    H211614   2.993   1.098   0.771  3.4759 -0.1625  1.2222
 3884TIP3   OH211615   2.952   4.059   5.779 -0.5221  0.4613  0.2041
 3884TIP3    H111616   3.021   3.998   5.754 -0.6048  0.7789 -0.8346
 3884TIP3    H211617   2.966   4.075   5.872 -0.5849 -1.2565  0.5414
 3885TIP3   OH211618   6.630   0.185   5.667  0.3533 -0.2123 -0.1483
 3885TIP3    H111619   6.654   0.111   5.722 -2.4975 -0.4136  0.9762
 3885TIP3    H211620   6.584   0.146   5.593  0.1891  0.3395 -0.3399
 3886TIP3   OH211621   3.790   0.055   1.305  0.0163  0.1996  0.5300
 3886TIP3    H111622   3.789  -0.028   1.257 -0.3969  0.9945 -0.8939
 3886TIP3    H211623   3.880   0.087   1.296  0.0472  0.1499  0.6556
 3887TIP3   OH211624   3.797   4.255   5.675 -0.0844 -0.0694  0.1779
 3887TIP3    H111625   3.803   4.232   5.768  1.2134 -2.2959 -0.3949
 3887TIP3    H211626   3.706   4.241   5.652  0.1470 -2.3569  0.4780
 3888TIP3   OH211627   0.781   2.373   4.442 -0.3174 -0.0284  0.2118
 3888TIP3    H111628   0.750   2.376   4.533  0.8717 -2.1990  0.7491
 3888TIP3    H211629   0.766   2.283   4.415 -1.1580  0.7001 -1.9875
 3889TIP3   OH211630   1.256   6.273   0.410 -0.1537 -0.1272  0.4366
 3889TIP3    H111631   1.221   6.310   0.491  1.1500 -0.0997  1.0016
 3889TIP3    H211632   1.349   6.261   0.427  0.4204  1.1257 -1.4961
 3890TIP3   OH211633   6.963   5.718   2.129  0.7112  0.2845 -0.2788
 3890TIP3    H111634   6.963   5.809   2.161 -0.6257  0.9988 -2.1786
 3890TIP3    H211635   6.871   5.697   2.116  1.0092 -1.3745  0.1021
 3891TIP3   OH211636   7.010   4.276   3.978 -0.2749  0.1146  0.7360
 3891TIP3    H111637   7.013   4.369   3.959  1.0023  0.2194  1.2935
 3891TIP3    H211638   6.953   4.268   4.054 -0.0475  0.5079  0.9508
 3892TIP3   OH211639   0.675   0.184   2.640 -0.1508 -0.0919  0.6768
 3892TIP3    H111640   0.687   0.226   2.554 -2.2921 -1.6075 -0.4836
 3892TIP3    H211641   0.590   0.217   2.670  0.7893  0.7782  2.4922
 3893TIP3   OH211642   6.958   2.672   1.473 -0.8393  0.0813 -0.1869
 3893TIP3    H111643   6.964   2.739   1.540 -0.6138  1.0217 -1.1126
 3893TIP3    H211644   7.044   2.629   1.474 -1.2455 -0.7592  0.9448
 3894TIP3   OH211645   5.194   0.858   4.730 -0.9454  0.4302 -0.1357
 3894TIP3    H111646   5.285   0.875   4.707 -0.9216  1.1800  0.4840
 3894TIP3    H211647   5.156   0.819   4.651 -0.2633  0.7562 -0.6285
 3895TIP3   OH211648   4.762   0.106   1.008  0.4870  0.1395 -0.4075
 3895TIP3    H111649   4.825   0.048   0.967  0.6902  1.7969 -2.6154
 3895TIP3    H211650   4.792   0.116   1.098  1.1310 -2.1196 -0.3281
 3896TIP3   OH211651   2.598   6.286   2.913 -0.2798 -0.6072 -0.4298
 3896TIP3    H111652   2.548   6.332   2.845 -0.3406 -0.5486 -0.3453
 3896TIP3    H211653   2.674   6.343   2.930  0.5865 -1.3722 -1.5802
 3897TIP3   OH211654   2.238   0.714   3.966  0.1816 -0.4150  0.1352
 3897TIP3    H111655   2.259   0.807   3.964  0.7035 -0.5362 -0.2369
 3897TIP3    H211656   2.194   0.698   3.883 -0.5036 -0.3737  0.4778
 3898TIP3   OH211657   6.459   3.686   2.100 -0.4370  0.5719 -0.4580
 3898TIP3    H111658   6.507   3.636   2.166  0.3698 -0.3533 -1.6981
 3898TIP3    H211659   6.494   3.774   2.107  0.6640  0.1609 -0.5803
 3899TIP3   OH211660   3.014   5.231   2.169  0.1238 -0.6850  0.3487
 3899TIP3    H111661   3.047   5.239   2.259  1.7666 -0.2869 -0.2577
 3899TIP3    H211662   2.931   5.279   2.170 -0.7464 -2.0919  2.0438
 3900TIP3   OH211663   1.649   0.552   3.585  0.0699  0.9412  0.6868
 3900TIP3    H111664   1.627   0.564   3.493  1.9059 -0.4055  0.0085
 3900TIP3    H211665   1.642   0.458   3.600  0.6620  1.0331  1.6637
 3901TIP3   OH211666   1.422   0.577   1.852  0.3446 -0.4964 -0.6649
 3901TIP3    H111667   1.401   0.635   1.925 -0.0594  0.1024 -1.2306
 3901TIP3    H211668   1.343   0.525   1.839 -0.7102  1.3869 -2.4557
 3902TIP3   OH211669   1.541   5.561   3.658 -0.1736  0.1710 -0.3038
 3902TIP3    H111670   1.581   5.547   3.744  1.6121 -1.5162 -1.3231
 3902TIP3    H211671   1.463   5.506   3.659 -0.2045  0.2178  0.2656
 3903TIP3   OH211672   4.641   0.916   2.418  0.0661 -0.1743 -0.2181
 3903TIP3    H111673   4.614   0.973   2.345  0.4509  0.7328  0.3310
 3903TIP3    H211674   4.735   0.904   2.405  0.0531 -0.3792 -0.1209
 3904TIP3   OH211675   0.941   2.748   4.515  0.5969  0.3698 -0.2335
 3904TIP3    H111676   0.957   2.660   4.481 -1.1593 -0.1651  0.1853
 3904TIP3    H211677   1.022   2.796   4.497  1.0981 -0.9305 -1.7437
 3905TIP3   OH211678   2.661   2.678   5.583  0.4048 -0.5214 -0.1619
 3905TIP3    H111679   2.707   2.756   5.614  0.7586 -1.0170  0.5814
 3905TIP3    H211680   2.602   2.711   5.515  0.0578  0.5071  0.6037
 3906TIP3   OH211681   0.876   1.780   5.424 -0.2052 -0.2329  0.3226
 3906TIP3    H111682   0.853   1.724   5.498 -0.4168 -3.1390 -1.7649
 3906TIP3    H211683   0.793   1.793   5.377 -0.1609  1.9333  0.7551
 3907TIP3   OH211684   4.478   3.648   5.561 -0.2715 -0.0237 -0.4195
 3907TIP3    H111685   4.493   3.571   5.507 -1.1717 -0.8900  0.5218
 3907TIP3    H211686   4.566   3.683   5.576  0.1159 -0.6159 -1.2126
 3908TIP3   OH211687   4.603   3.333   4.914 -0.0975 -0.3995  0.0424
 3908TIP3    H111688   4.647   3.378   4.986 -0.7631 -1.0797  0.8940
 3908TIP3    H211689   4.553   3.402   4.870 -0.2862 -0.1106  0.6944
 3909TIP3   OH211690   5.887   5.234   5.121 -0.0252 -0.4844  0.5616
 3909TIP3    H111691   5.824   5.233   5.193  0.2202 -1.7641  0.7649
 3909TIP3    H211692   5.972   5.225   5.163  0.1744 -0.4626  0.1648
 3910TIP3   OH211693   3.292   3.361   4.865 -0.0617 -0.1953 -0.4004
 3910TIP3    H111694   3.253   3.295   4.922 -1.0776 -1.3278 -2.3119
 3910TIP3    H211695   3.276   3.444   4.910 -1.6232 -0.9654  0.5411
 3911TIP3   OH211696   6.860   0.891   4.565 -0.7308  0.1303  0.0529
 3911TIP3    H111697   6.779   0.917   4.520 -0.9615  0.9103  0.9115
 3911TIP3    H211698   6.907   0.839   4.499 -0.8478  1.6163 -1.2569
 3912TIP3   OH211699   6.447   1.255   1.195 -0.5693 -0.0601 -0.4016
 3912TIP3    H111700   6.474   1.163   1.194 -1.2969 -0.6337  4.6826
 3912TIP3    H211701   6.521   1.301   1.236 -1.5940  0.9407  0.3810
 3913TIP3   OH211702   4.605   1.914   5.102 -0.4958  0.7200  0.0017
 3913TIP3    H111703   4.700   1.901   5.107 -0.7692 -1.3319  0.8647
 3913TIP3    H211704   4.570   1.868   5.178 -2.2264  1.0778 -0.5278
 3914TIP3   OH211705   0.445   6.049   0.498 -0.3411 -0.0826 -0.0479
 3914TIP3    H111706   0.459   5.958   0.474 -1.1346  0.0846 -1.2429
 3914TIP3    H211707   0.533   6.084   0.514  0.0216 -0.8600 -0.3214
 3915TIP3   OH211708   1.785   5.828   5.684  0.1376 -0.1477 -0.2290
 3915TIP3    H111709   1.874   5.824   5.648  1.2711 -1.2620  2.4138
 3915TIP3    H211710   1.781   5.914   5.725  0.4897 -0.5870  0.7466
 3916TIP3   OH211711   5.553   3.139   3.535  0.2194 -0.1171  0.1049
 3916TIP3    H111712   5.610   3.114   3.463  0.9100  0.4881  0.4308
 3916TIP3    H211713   5.501   3.212   3.501  0.8826  0.4883  0.3525
 3917TIP3   OH211714   0.480   3.657   3.988  0.4212 -0.1006 -0.3129
 3917TIP3    H111715   0.478   3.589   3.921  1.3836 -1.7212  1.1956
 3917TIP3    H211716   0.561   3.705   3.971  1.1658 -1.1306  0.2349
 3918TIP3   OH211717   1.497   1.761   3.226 -0.0651  0.1705  0.8370
 3918TIP3    H111718   1.424   1.777   3.167  0.4208 -1.4861 -0.2408
 3918TIP3    H211719   1.572   1.801   3.183  0.5503 -2.1412 -0.3885
 3919TIP3   OH211720   5.906   4.166   1.739  0.6086  0.3423 -0.3297
 3919TIP3    H111721   5.883   4.198   1.652 -0.8031 -1.7240 -0.7955
 3919TIP3    H211722   5.940   4.078   1.723  2.4053  0.7437  1.0459
 3920TIP3   OH211723   3.115   5.060   2.503 -0.5631  0.0073 -0.0773
 3920TIP3    H111724   3.070   5.145   2.509 -1.9330 -0.7926  2.1181
 3920TIP3    H211725   3.158   5.050   2.588  0.0278 -1.2791 -0.5086
 3921TIP3   OH211726   2.476   3.613   4.479  0.6329 -0.5735 -0.6536
 3921TIP3    H111727   2.490   3.644   4.390 -1.0416 -2.4522 -1.6633
 3921TIP3    H211728   2.466   3.518   4.470 -2.9537 -0.5108  0.9919
 3922TIP3   OH211729   5.051   5.118   4.000 -0.4973 -0.4023 -0.5993
 3922TIP3    H111730   5.064   5.212   4.004  2.4017 -0.6374 -2.1389
 3922TIP3    H211731   4.990   5.099   4.072  0.1007  2.3984  0.7791
 3923TIP3   OH211732   4.977   1.051   4.537 -0.1830  0.4522 -0.1527
 3923TIP3    H111733   5.045   1.118   4.535 -0.8718  1.1542 -1.1691
 3923TIP3    H211734   5.018   0.974   4.498  0.1970  0.6941 -0.2352
 3924TIP3   OH211735   0.365   0.879   2.586  0.1621 -0.5390 -0.2905
 3924TIP3    H111736   0.426   0.806   2.595  0.1205 -0.6278 -0.6864
 3924TIP3    H211737   0.415   0.956   2.612 -0.3618 -0.9134  2.0039
 3925TIP3   OH211738   5.957   0.429   1.723 -0.4685 -0.2063  0.6845
 3925TIP3    H111739   5.884   0.418   1.663 -0.3707  0.3086  0.4675
 3925TIP3    H211740   5.916   0.446   1.808 -0.6034 -0.5713  0.6930
 3926TIP3   OH211741   6.547   6.823   2.583 -0.4772  0.3421  0.8997
 3926TIP3    H111742   6.549   6.786   2.494 -1.1955  1.8304  0.2160
 3926TIP3    H211743   6.525   6.749   2.639  1.3754 -0.9532  0.0468
 3927TIP3   OH211744   5.386   2.267   0.698 -0.0761 -0.2177 -0.6558
 3927TIP3    H111745   5.410   2.228   0.614  1.7097  0.6410 -0.6023
 3927TIP3    H211746   5.397   2.196   0.762  2.4813  0.0614 -0.6525
 3928TIP3   OH211747   2.127   6.089   3.046 -0.1908  0.1930  0.0218
 3928TIP3    H111748   2.167   6.153   2.988  0.5981  1.2496  1.6788
 3928TIP3    H211749   2.033   6.103   3.036 -0.0348  2.0245  0.7491
 3929TIP3   OH211750   1.105   1.159   2.097  0.3272  0.1694  0.3488
 3929TIP3    H111751   1.066   1.154   2.184 -0.6402  0.7106 -0.0436
 3929TIP3    H211752   1.161   1.236   2.100  1.6460 -0.7648  0.9999
 3930TIP3   OH211753   5.209   6.680   0.899 -0.2559 -0.6425 -0.1543
 3930TIP3    H111754   5.273   6.614   0.926 -0.5828 -0.7085  0.4644
 3930TIP3    H211755   5.262   6.759   0.883 -0.2512  0.1418  3.0436
 3931TIP3   OH211756   2.578   1.015   3.101 -0.0098  0.1731  0.4792
 3931TIP3    H111757   2.559   1.012   3.007  1.2202 -2.2074  0.2384
 3931TIP3    H211758   2.606   1.105   3.117  0.4118  0.4521 -1.5611
 3932TIP3   OH211759   2.115   2.443   5.113 -0.1361 -0.2110  0.3864
 3932TIP3    H111760   2.201   2.403   5.115 -0.0820 -0.1170  0.0543
 3932TIP3    H211761   2.127   2.523   5.061 -1.1051 -1.8678 -2.6382
 3933TIP3   OH211762   1.232   0.422   4.907  0.2454  0.5062 -0.6013
 3933TIP3    H111763   1.147   0.393   4.872  0.5890 -0.0592 -0.9891
 3933TIP3    H211764   1.215   0.509   4.943 -1.2625 -0.8175  2.2247
 3934TIP3   OH211765   0.029   3.209   2.316  0.6672 -0.2548 -0.0702
 3934TIP3    H111766   0.050   3.121   2.284  0.5008 -0.1387 -0.5144
 3934TIP3    H211767   0.063   3.211   2.405  0.7452 -0.7429 -0.0851
 3935TIP3   OH211768   6.284   6.667   3.406 -0.5560 -0.0513 -0.1010
 3935TIP3    H111769   6.204   6.615   3.399  0.7974 -2.3747  0.3594
 3935TIP3    H211770   6.281   6.726   3.331 -2.7707  0.0794  0.0313
 3936TIP3   OH211771   0.095   5.352   4.904  0.4321 -0.0024  0.1807
 3936TIP3    H111772   0.100   5.314   4.992  1.2551  2.7750  1.4410
 3936TIP3    H211773   0.003   5.345   4.880  0.1980 -0.8207  1.2449
 3937TIP3   OH211774   6.015   4.179   0.512  0.9432 -0.4829 -0.4243
 3937TIP3    H111775   5.986   4.224   0.433  0.7765 -0.2906 -0.2549
 3937TIP3    H211776   5.969   4.095   0.510 -1.8810  0.8734  1.2482
 3938TIP3   OH211777   6.983   6.601   4.503 -0.0567 -0.7043 -0.2926
 3938TIP3    H111778   7.023   6.519   4.534  0.6913 -0.9330 -1.8052
 3938TIP3    H211779   6.955   6.581   4.414  0.1839  0.7110 -0.6990
 3939TIP3   OH211780   2.013   0.475   3.807  0.0557 -0.1000  0.0211
 3939TIP3    H111781   1.990   0.447   3.718  2.3165  1.0439 -1.0276
 3939TIP3    H211782   1.980   0.565   3.812 -0.5124 -0.3353  0.5439
 3940TIP3   OH211783   1.264   4.746   1.183 -0.5019 -0.0053 -0.4452
 3940TIP3    H111784   1.281   4.760   1.090  0.6726 -0.6115 -0.3445
 3940TIP3    H211785   1.348   4.717   1.219 -1.5342 -2.4595  0.2647
 3941TIP3   OH211786   6.940   1.469   5.230 -0.1541 -0.4256 -0.0615
 3941TIP3    H111787   6.927   1.564   5.232 -0.0130 -0.4114  0.5551
 3941TIP3    H211788   6.979   1.452   5.144  1.6548  0.3330  0.5580
 3942TIP3   OH211789   6.004   1.579   4.995  0.2526  0.9404 -0.3434
 3942TIP3    H111790   5.925   1.550   5.040 -0.1084  0.5025 -1.2191
 3942TIP3    H211791   6.022   1.510   4.931  1.6893  0.7432  0.2299
 3943TIP3   OH211792   5.748   1.110   1.287 -0.6436  0.0892  0.0204
 3943TIP3    H111793   5.654   1.102   1.272 -0.4329 -0.9525 -0.9114
 3943TIP3    H211794   5.780   1.158   1.210 -0.4028  0.3958  0.3092
 3944TIP3   OH211795   2.125   3.201   5.697 -0.1508  0.0667 -0.2353
 3944TIP3    H111796   2.095   3.177   5.609 -0.4884  0.9852 -0.3746
 3944TIP3    H211797   2.045   3.228   5.743 -0.0867 -1.0375  0.5798
 3945TIP3   OH211798   5.622   3.568   1.273 -0.9144  0.4719 -0.0232
 3945TIP3    H111799   5.680   3.583   1.348  0.4184 -3.2491 -0.1037
 3945TIP3    H211800   5.676   3.588   1.197 -1.2996  1.4241 -0.0548
 3946TIP3   OH211801   2.701   3.641   0.245 -0.5112  0.2041 -0.1507
 3946TIP3    H111802   2.734   3.708   0.185  3.1778 -0.6314  0.7222
 3946TIP3    H211803   2.616   3.616   0.209 -0.2909  2.6142 -2.6458
 3947TIP3   OH211804   4.582   1.133   0.945 -0.2182  0.4327  0.1322
 3947TIP3    H111805   4.519   1.111   0.876 -2.5117  0.1093  2.2279
 3947TIP3    H211806   4.564   1.224   0.967  1.2760  0.8988 -0.3743
 3948TIP3   OH211807   1.116   2.509   1.587 -0.3122 -0.2591  0.4847
 3948TIP3    H111808   1.186   2.556   1.543  0.2692  0.4058  2.0334
 3948TIP3    H211809   1.038   2.564   1.574 -0.3966 -0.6341 -0.6290
 3949TIP3   OH211810   2.885   4.320   2.816 -0.2737  0.1585 -0.4667
 3949TIP3    H111811   2.919   4.233   2.796 -2.0156 -0.4065 -1.1403
 3949TIP3    H211812   2.944   4.380   2.772  0.6429 -0.6954 -0.4366
 3950TIP3   OH211813   6.657   3.019   4.898  0.1596  0.5414  0.5705
 3950TIP3    H111814   6.698   3.041   4.814  0.1006  0.9444  0.6460
 3950TIP3    H211815   6.577   3.070   4.900 -0.5791 -0.5694  0.2338
 3951TIP3   OH211816   6.915   2.607   0.445  0.1717 -0.2614 -0.4999
 3951TIP3    H111817   6.902   2.689   0.493 -1.9273  0.1594 -1.6615
 3951TIP3    H211818   6.870   2.620   0.362  0.9734 -2.1206 -1.2864
 3952TIP3   OH211819   6.246   2.249   2.675 -0.0615  0.1553 -0.0014
 3952TIP3    H111820   6.279   2.185   2.738 -1.4012 -0.4325  0.1435
 3952TIP3    H211821   6.153   2.227   2.665 -0.7315  2.4922  0.5665
 3953TIP3   OH211822   6.113   4.543   4.201  0.7692  0.1840  0.3853
 3953TIP3    H111823   6.138   4.508   4.116  0.4859  0.5858  0.1322
 3953TIP3    H211824   6.120   4.469   4.261  2.6802  0.2890  0.3618
 3954TIP3   OH211825   5.218   3.775   3.603 -0.0292 -0.2428  0.3128
 3954TIP3    H111826   5.218   3.680   3.611 -2.4810 -0.2630  0.7110
 3954TIP3    H211827   5.232   3.806   3.693 -1.3954 -0.2707  0.5512
 3955TIP3   OH211828   6.789   0.134   3.244  0.3572 -0.1770  0.2530
 3955TIP3    H111829   6.856   0.183   3.290 -0.6465 -0.1379  1.7401
 3955TIP3    H211830   6.745   0.199   3.189  1.5844 -0.2360 -0.8675
 3956TIP3   OH211831   5.566   2.733   3.659  0.6531  0.0031 -0.5325
 3956TIP3    H111832   5.588   2.660   3.602 -0.9795 -0.9969  0.0392
 3956TIP3    H211833   5.485   2.706   3.703  0.5242  1.7543  0.4221
 3957TIP3   OH211834   1.290   5.555   1.055 -0.4264 -0.0009 -0.0242
 3957TIP3    H111835   1.272   5.554   0.961  0.1086 -0.0207 -0.1275
 3957TIP3    H211836   1.321   5.644   1.073 -1.5471  0.3289  0.3311
 3958TIP3   OH211837   2.540   5.660   3.385  0.2884  0.3810  0.2163
 3958TIP3    H111838   2.579   5.624   3.306 -1.8643 -0.4632 -0.5570
 3958TIP3    H211839   2.524   5.583   3.440 -1.8206  0.3930 -0.2718
 3959TIP3   OH211840   0.337   3.993   4.516 -0.2823  0.0152 -0.0385
 3959TIP3    H111841   0.377   3.959   4.436  0.2654 -1.1684  0.6964
 3959TIP3    H211842   0.280   3.923   4.547  1.2529 -0.5276  1.7890
 3960TIP3   OH211843   2.983   5.249   1.649  0.6415  0.1876  0.1832
 3960TIP3    H111844   2.960   5.338   1.674 -0.7927 -0.0956 -0.0504
 3960TIP3    H211845   2.924   5.228   1.577 -1.4419 -2.0691  2.3401
 3961TIP3   OH211846   6.946   5.450   1.369  0.3229 -0.2695  0.3979
 3961TIP3    H111847   7.003   5.376   1.392  1.7058  0.6414  0.0652
 3961TIP3    H211848   6.907   5.425   1.285 -0.9524 -1.5327  1.3222
 3962TIP3   OH211849   4.641   1.667   1.038 -0.2742 -0.0244  0.1066
 3962TIP3    H111850   4.715   1.699   1.089 -0.3143 -1.1446  0.9033
 3962TIP3    H211851   4.663   1.688   0.948  2.2324 -2.4886  0.0069
 3963TIP3   OH211852   0.151   1.572   0.884  0.0934  0.0900  0.6024
 3963TIP3    H111853   0.201   1.493   0.903 -1.0480 -0.8136 -0.0295
 3963TIP3    H211854   0.191   1.609   0.806  0.1076 -0.3495  0.3979
 3964TIP3   OH211855   2.380   5.310   1.280  0.1343  0.1049  0.0610
 3964TIP3    H111856   2.305   5.324   1.338  0.0729  1.2846 -0.2899
 3964TIP3    H211857   2.437   5.386   1.295  0.6640 -0.1560 -0.5884
 3965TIP3   OH211858   7.007   5.771   4.121 -0.6340 -0.4043  0.1103
 3965TIP3    H111859   6.933   5.762   4.180 -0.3051 -0.3085  0.5357
 3965TIP3    H211860   6.978   5.729   4.040 -0.9914 -0.7490  0.4165
 3966TIP3   OH211861   6.237   3.148   1.476  0.0144 -0.5947  0.1643
 3966TIP3    H111862   6.187   3.089   1.420 -0.5600  0.3273 -0.3233
 3966TIP3    H211863   6.179   3.222   1.491  0.4173 -0.5029  1.4291
 3967TIP3   OH211864   5.073   2.211   0.623  0.3176 -0.4662  0.2181
 3967TIP3    H111865   5.159   2.236   0.590  0.5160 -0.0252  1.0608
 3967TIP3    H211866   5.014   2.277   0.586  0.2289 -1.1029 -0.8421
 3968TIP3   OH211867   4.074   5.340   2.598  0.0628 -0.6958  0.7327
 3968TIP3    H111868   4.065   5.386   2.681 -1.1248  1.3933 -0.4717
 3968TIP3    H211869   4.164   5.308   2.597  0.7408  1.0464  1.9342
 3969TIP3   OH211870   6.325   1.154   2.016  0.0390  0.1528 -0.3494
 3969TIP3    H111871   6.308   1.163   2.110 -0.8509  0.8476 -0.5609
 3969TIP3    H211872   6.267   1.218   1.975  0.2734 -0.2782 -1.3878
 3970TIP3   OH211873   6.149   1.558   5.265 -0.3959  0.4871  0.0022
 3970TIP3    H111874   6.053   1.567   5.265 -0.3480  1.0703  0.4416
 3970TIP3    H211875   6.166   1.489   5.329 -0.5161  0.5025  0.0518
 3971TIP3   OH211876   2.843   6.238   1.700  0.2321  0.3202 -0.2443
 3971TIP3    H111877   2.870   6.146   1.705  0.3589  0.2753 -1.4911
 3971TIP3    H211878   2.869   6.275   1.785  0.5373 -0.6914  0.1243
 3972TIP3   OH211879   0.458   1.836   4.454 -0.4820  0.3494  0.0796
 3972TIP3    H111880   0.491   1.814   4.367  0.3903 -0.2182  0.5334
 3972TIP3    H211881   0.509   1.781   4.514  1.4074  3.1394  1.2580
 3973TIP3   OH211882   0.194   5.248   3.278  0.2279 -0.1365  0.4031
 3973TIP3    H111883   0.217   5.208   3.195  0.3279 -0.8682  0.7719
 3973TIP3    H211884   0.120   5.196   3.310  1.1730 -0.8731  1.4955
 3974TIP3   OH211885   2.138   1.648   5.488  0.3350 -0.0546  0.4978
 3974TIP3    H111886   2.164   1.577   5.430 -0.0268  0.4776 -0.3417
 3974TIP3    H211887   2.194   1.722   5.463  0.5088  0.0444  1.1593
 3975TIP3   OH211888   4.909   4.047   3.232  0.7983 -0.1477  0.6473
 3975TIP3    H111889   4.879   3.956   3.233 -0.0894  0.1154 -0.1500
 3975TIP3    H211890   4.996   4.044   3.194  0.6505 -0.6404  0.3440
 3976TIP3   OH211891   0.622   2.620   4.615 -0.5132 -0.3161 -0.2306
 3976TIP3    H111892   0.584   2.557   4.677  0.5690  0.0349  0.8148
 3976TIP3    H211893   0.714   2.596   4.610 -0.4836 -0.0181 -1.3490
 3977TIP3   OH211894   5.596   0.948   2.938  0.2928  0.1061  0.2719
 3977TIP3    H111895   5.536   0.987   3.002  0.6820 -0.8396  1.2465
 3977TIP3    H211896   5.666   1.013   2.929 -1.2151  1.6181 -1.5237
 3978TIP3   OH211897   2.782   1.799   1.121 -0.2443 -0.2832  0.7035
 3978TIP3    H111898   2.750   1.888   1.137 -2.1571 -0.0747 -2.9874
 3978TIP3    H211899   2.874   1.801   1.145 -0.5730  2.2665  2.0570
 3979TIP3   OH211900   0.344   2.894   3.629  0.1181 -0.2646 -0.2496
 3979TIP3    H111901   0.417   2.909   3.688 -1.3033  0.8701  1.3092
 3979TIP3    H211902   0.359   2.955   3.556 -1.1855  2.9596  1.9465
 3980TIP3   OH211903   0.649   3.413   4.365 -0.0518 -0.0492  0.0394
 3980TIP3    H111904   0.599   3.334   4.342  1.0497 -0.6581 -0.3219
 3980TIP3    H211905   0.594   3.485   4.335 -0.9374 -0.6861  0.0887
 3981TIP3   OH211906   5.778   1.638   3.410 -0.0357  0.2057  0.3712
 3981TIP3    H111907   5.701   1.671   3.363  0.0650  1.8658  1.3117
 3981TIP3    H211908   5.849   1.697   3.384  0.3189  0.3212  1.5371
 3982TIP3   OH211909   0.433   2.294   4.481  0.0154 -0.5181  0.2200
 3982TIP3    H111910   0.338   2.279   4.476 -0.1496  0.7246 -0.9267
 3982TIP3    H211911   0.468   2.211   4.513 -1.3620 -1.3715 -0.3597
 3983TIP3   OH211912   3.058   3.045   0.450  0.1572 -0.1719  0.2308
 3983TIP3    H111913   2.993   2.987   0.409 -0.2950 -0.7293  1.6538
 3983TIP3    H211914   3.119   2.986   0.494 -0.7379  0.3811  2.3500
 3984TIP3   OH211915   1.830   5.648   4.679  0.1164  0.1269 -0.9195
 3984TIP3    H111916   1.859   5.703   4.752 -3.0033  2.9044 -1.4876
 3984TIP3    H211917   1.747   5.611   4.709  1.0470 -2.5668 -1.4415
 3985TIP3   OH211918   4.351   0.238   5.264  0.2629  0.4860  0.2665
 3985TIP3    H111919   4.299   0.312   5.295  0.2768  0.3318  0.6618
 3985TIP3    H211920   4.380   0.264   5.176 -1.2200  0.1950 -0.3369
 3986TIP3   OH211921   2.213   3.441   0.212  0.1434 -0.3333 -0.4476
 3986TIP3    H111922   2.143   3.506   0.223  1.1468  1.1139 -2.0254
 3986TIP3    H211923   2.294   3.490   0.226  0.9256 -1.3403 -1.2324
 3987TIP3   OH211924   0.780   3.039   1.510  0.4672 -0.2370  0.2648
 3987TIP3    H111925   0.702   3.055   1.564 -0.8518 -1.1717 -1.2714
 3987TIP3    H211926   0.765   3.092   1.432  1.0770 -0.9117 -0.3137
 3988TIP3   OH211927   1.306   2.822   0.334  0.2100 -0.0325 -0.2989
 3988TIP3    H111928   1.399   2.841   0.321 -0.2208  1.7834 -0.8815
 3988TIP3    H211929   1.263   2.851   0.254 -0.9047 -0.5853  0.0735
 3989TIP3   OH211930   3.518   2.515   0.884 -0.1765 -0.1143 -0.0036
 3989TIP3    H111931   3.561   2.600   0.890 -1.2471  0.7752 -3.0198
 3989TIP3    H211932   3.429   2.531   0.915 -0.3726 -0.1053 -0.5551
 3990TIP3   OH211933   5.783   0.873   1.943  0.2949  0.3442 -0.3345
 3990TIP3    H111934   5.857   0.889   1.885  0.7663 -0.5077  0.0096
 3990TIP3    H211935   5.707   0.871   1.885  1.0859 -4.1744 -1.6492
 3991TIP3   OH211936   4.032   2.875   2.694  0.1345 -0.1956  0.9231
 3991TIP3    H111937   4.120   2.902   2.722  0.1731 -0.3022  0.9058
 3991TIP3    H211938   4.031   2.891   2.600 -0.6629  2.0250  1.2487
 3992TIP3   OH211939   4.756   3.809   5.028 -0.3140 -0.4196 -0.3734
 3992TIP3    H111940   4.798   3.860   5.097 -0.6986 -0.5463 -0.0374
 3992TIP3    H211941   4.679   3.861   5.003 -0.9709 -1.0349  0.2973
 3993TIP3   OH211942   2.010   5.113   1.521  0.6153 -0.3466 -0.3813
 3993TIP3    H111943   2.045   5.053   1.455  2.3457  0.6931 -0.4786
 3993TIP3    H211944   1.923   5.078   1.542  0.7678 -1.7345 -1.8595
 3994TIP3   OH211945   7.186   3.382   3.632  0.4725 -0.5297 -0.1698
 3994TIP3    H111946   7.117   3.403   3.569 -0.6508 -1.8182  0.5561
 3994TIP3    H211947   7.200   3.463   3.681 -0.7406 -0.3107 -0.1476
 3995TIP3   OH211948   5.010   1.345   5.349  0.3066 -0.6008 -0.2365
 3995TIP3    H111949   4.986   1.371   5.438 -1.0570 -1.9804 -0.1626
 3995TIP3    H211950   4.927   1.320   5.308  1.0181 -0.7632 -1.6316
 3996TIP3   OH211951   3.437   6.365   4.078  0.5595 -0.3014 -0.0533
 3996TIP3    H111952   3.349   6.401   4.090  0.0589 -1.3399 -0.4738
 3996TIP3    H211953   3.448   6.359   3.984  0.1224 -2.3810 -0.0101
 3997TIP3   OH211954   5.766   5.740   0.279 -0.0759 -0.0376  0.3238
 3997TIP3    H111955   5.773   5.718   0.372  2.1881  3.2799  1.1370
 3997TIP3    H211956   5.804   5.665   0.234 -0.6961 -1.4915  2.0738
 3998TIP3   OH211957   5.945   0.958   5.800  0.2001  0.3356  0.1814
 3998TIP3    H111958   5.864   0.907   5.799 -0.8754  1.9087 -2.7111
 3998TIP3    H211959   6.015   0.893   5.788 -0.7837 -0.7979  0.4154
 3999TIP3   OH211960   0.349   3.455   4.697  0.3446 -0.5012 -0.5498
 3999TIP3    H111961   0.403   3.521   4.741  0.7469 -1.1714 -0.0212
 3999TIP3    H211962   0.387   3.371   4.724 -1.9650 -1.0907  1.2559
 4000TIP3   OH211963   7.005   1.500   4.704 -0.5186 -0.4152  0.7071
 4000TIP3    H111964   7.076   1.562   4.688  0.3453 -1.7138 -0.7602
 4000TIP3    H211965   6.926   1.553   4.701  0.0277  0.4362 -2.3598
 4001TIP3   OH211966   4.140   2.067   1.552  0.1488 -0.0844 -0.4299
 4001TIP3    H111967   4.186   2.028   1.477  1.8234 -0.7429  0.8815
 4001TIP3    H211968   4.109   1.993   1.604  1.2382  0.3040  0.8242
 4002TIP3   OH211969   3.834   5.711   3.537  0.4736  0.1952 -0.6506
 4002TIP3    H111970   3.914   5.681   3.581  0.1513  1.0755  0.5535
 4002TIP3    H211971   3.777   5.634   3.537  0.2175  0.3516  1.0951
 4003TIP3   OH211972   4.670   0.138   2.148  0.1551  0.4771 -0.4296
 4003TIP3    H111973   4.616   0.202   2.195 -0.1844 -1.0569  1.4080
 4003TIP3    H211974   4.679   0.174   2.060  0.0820  3.0803  0.5448
 4004TIP3   OH211975   3.332   6.175   0.723  0.4363 -0.2973  0.5542
 4004TIP3    H111976   3.337   6.255   0.669  0.9837 -0.1364  0.8385
 4004TIP3    H211977   3.377   6.109   0.672 -1.5206 -0.9060 -0.4928
 4005TIP3   OH211978   4.451   2.427   5.060 -0.2438  0.1207  0.3198
 4005TIP3    H111979   4.540   2.453   5.036  0.4651  0.1658  2.6700
 4005TIP3    H211980   4.463   2.358   5.126 -1.8933  0.8993  1.5173
 4006TIP3   OH211981   4.867   5.073   0.732 -0.3065 -0.9364  0.5168
 4006TIP3    H111982   4.850   4.987   0.692 -1.1825 -0.6850  0.3312
 4006TIP3    H211983   4.781   5.103   0.762 -0.5407  1.1567 -1.9788
 4007TIP3   OH211984   0.444   0.610   2.403 -0.0197  0.0745  0.1910
 4007TIP3    H111985   0.448   0.532   2.348 -1.3057  0.5466 -0.6152
 4007TIP3    H211986   0.425   0.681   2.342 -2.2575  0.5063  1.2806
 4008TIP3   OH211987   5.212   2.685   0.524  0.4913  0.4348 -0.8277
 4008TIP3    H111988   5.171   2.747   0.584  0.8786  2.0361 -2.1287
 4008TIP3    H211989   5.278   2.641   0.577 -0.8388 -0.0233  0.5254
 4009TIP3   OH211990   3.138   4.160   1.274 -0.2900  0.2988 -0.8049
 4009TIP3    H111991   3.193   4.168   1.196 -1.4443  0.0898 -1.6688
 4009TIP3    H211992   3.134   4.249   1.309  1.1712  0.1827 -0.3084
 4010TIP3   OH211993   2.238   6.183   1.352  0.4333  0.2753 -0.0562
 4010TIP3    H111994   2.196   6.248   1.409  0.2890  0.2159 -0.0943
 4010TIP3    H211995   2.230   6.101   1.401 -1.0469 -0.0700 -0.8211
 4011TIP3   OH211996   3.495   5.804   4.417 -0.3796 -0.8369 -0.3902
 4011TIP3    H111997   3.468   5.718   4.450 -0.7225 -0.5534  0.0561
 4011TIP3    H211998   3.417   5.840   4.377 -0.7637  0.0972  1.1410
 4012TIP3   OH211999   1.073   2.286   5.230  0.0112  0.1629  0.1690
 4012TIP3    H112000   1.122   2.255   5.154  0.1622  1.0858 -0.1180
 4012TIP3    H212001   1.048   2.206   5.277  0.8558 -0.3630 -0.2584
 4013TIP3   OH212002   0.382   1.445   5.040 -0.1997  0.1390  0.2257
 4013TIP3    H112003   0.449   1.431   4.974 -0.5543  0.5126 -0.2190
 4013TIP3    H212004   0.364   1.358   5.076  0.4739  0.0337  0.3036
 4014TIP3   OH212005   3.099   2.361   3.117 -0.2490 -0.2694  0.0238
 4014TIP3    H112006   3.138   2.415   3.049 -0.6118 -0.3543 -0.2562
 4014TIP3    H212007   3.169   2.346   3.180 -0.1606  0.5729  0.1354
 4015TIP3   OH212008   1.397   6.315   2.800 -0.5609 -0.8935 -0.0533
 4015TIP3    H112009   1.381   6.380   2.732  0.4430 -0.8071 -0.2323
 4015TIP3    H212010   1.351   6.348   2.877 -0.7677 -0.4129 -0.3820
 4016TIP3   OH212011   1.968   2.539   1.587 -0.8765  0.0962  0.4912
 4016TIP3    H112012   1.890   2.573   1.630 -2.0488 -1.3850 -0.3555
 4016TIP3    H212013   1.979   2.451   1.623  0.0025  0.0329  0.0928
 4017TIP3   OH212014   3.897   1.233   4.825 -0.4857  0.2617  0.6032
 4017TIP3    H112015   3.933   1.313   4.787 -0.5598  0.0418  0.0659
 4017TIP3    H212016   3.868   1.259   4.913 -1.0719  0.9736  0.2116
 4018TIP3   OH212017   4.641   3.508   3.092  0.7542 -0.1917  0.2251
 4018TIP3    H112018   4.658   3.509   3.186 -0.1762 -0.2056  0.4028
 4018TIP3    H212019   4.697   3.437   3.059  1.3155  0.0120  0.7104
 4019TIP3   OH212020   0.343   6.763   1.892  0.0689  0.3725 -0.2854
 4019TIP3    H112021   0.408   6.701   1.858  1.4910  1.7295 -0.1054
 4019TIP3    H212022   0.264   6.744   1.840  1.2044  0.1126 -2.0003
 4020TIP3   OH212023   2.147   3.209   2.929  0.1785  0.2934 -0.5231
 4020TIP3    H112024   2.190   3.235   2.847 -1.1406  1.7501 -0.7933
 4020TIP3    H212025   2.156   3.285   2.986  0.5572 -0.4935  0.4822
 4021TIP3   OH212026   3.449   4.702   3.305  0.6008  0.3156 -0.4761
 4021TIP3    H112027   3.377   4.643   3.282  0.6534  0.4182 -0.9047
 4021TIP3    H212028   3.526   4.645   3.304  0.6174  0.3407 -0.6546
 4022TIP3   OH212029   6.726   4.796   4.904  0.0080  0.2479  0.1976
 4022TIP3    H112030   6.785   4.852   4.955  0.3026 -0.5792  0.8052
 4022TIP3    H212031   6.684   4.740   4.970 -1.8808  1.1753 -0.1662
 4023TIP3   OH212032   6.056   3.337   3.403 -0.0952 -0.3742  0.4653
 4023TIP3    H112033   6.080   3.394   3.330 -0.2716  0.2106  0.8541
 4023TIP3    H212034   6.041   3.397   3.476  1.1663 -1.0155  1.2960
 4024TIP3   OH212035   3.844   2.473   5.624  0.6269  0.4740 -0.4708
 4024TIP3    H112036   3.772   2.502   5.680  0.3300  1.3841 -1.2983
 4024TIP3    H212037   3.890   2.408   5.677  0.9899  2.0390  1.2614
 4025TIP3   OH212038   3.816   3.958   4.370 -0.0969  0.1461  0.5025
 4025TIP3    H112039   3.902   3.916   4.370 -1.0023 -1.8669 -0.2337
 4025TIP3    H212040   3.775   3.929   4.452  0.2905  2.0389  1.4255
 4026TIP3   OH212041   1.697   1.828   1.779  0.3700 -0.0852 -0.1401
 4026TIP3    H112042   1.739   1.742   1.786 -1.5372 -1.1218 -0.5510
 4026TIP3    H212043   1.732   1.866   1.699 -0.1634 -1.3475 -1.0027
 4027TIP3   OH212044   2.285   1.760   4.063  0.3917 -0.3049  0.0576
 4027TIP3    H112045   2.326   1.677   4.041  1.1310  0.1343 -0.2485
 4027TIP3    H212046   2.263   1.800   3.979  0.2127 -0.1011  0.1975
 4028TIP3   OH212047   7.106   0.248   0.293 -0.6599 -0.0095  0.5739
 4028TIP3    H112048   7.064   0.308   0.232 -1.3572 -0.0932  0.9624
 4028TIP3    H212049   7.169   0.200   0.240 -0.6792  0.4938  0.0920
 4029TIP3   OH212050   2.958   4.544   5.763  0.0186  0.0860  0.6085
 4029TIP3    H112051   2.980   4.630   5.726 -1.1559  0.5985  1.0745
 4029TIP3    H212052   3.041   4.495   5.759  0.9422  1.5359  1.1973
 4030TIP3   OH212053   6.632   5.443   0.043 -0.0989  0.0198  0.2813
 4030TIP3    H112054   6.568   5.446  -0.029  0.8562  1.6495 -0.5709
 4030TIP3    H212055   6.657   5.535   0.056  2.3262 -0.5904  0.3603
 4031TIP3   OH212056   2.867   6.219   1.997 -0.7501 -0.2029 -0.7080
 4031TIP3    H112057   2.807   6.145   1.996  1.0107 -1.7150  0.4199
 4031TIP3    H212058   2.812   6.294   2.020 -2.5911 -1.0842 -1.9762
 4032TIP3   OH212059   3.550   1.244   0.561  0.0133  0.0093 -0.2478
 4032TIP3    H112060   3.499   1.324   0.551 -1.6933 -0.7118  1.9591
 4032TIP3    H212061   3.619   1.267   0.624 -0.7448 -0.3362  0.7279
 4033TIP3   OH212062   4.540   5.527   1.550  0.4147  0.1863 -0.0725
 4033TIP3    H112063   4.523   5.465   1.622 -0.5882  0.6597  0.1089
 4033TIP3    H212064   4.629   5.558   1.566  0.8853 -1.0997 -0.0846
 4034TIP3   OH212065   2.289   2.100   3.873 -0.1017 -0.1328 -0.0340
 4034TIP3    H112066   2.267   2.163   3.804 -1.1091 -0.5965 -0.1428
 4034TIP3    H212067   2.263   2.144   3.955  3.6206  1.6127  0.4181
 4035TIP3   OH212068   2.677   5.835   0.022  0.2747  0.3244  0.4782
 4035TIP3    H112069   2.749   5.821   0.084  0.4971  1.8915  0.6119
 4035TIP3    H212070   2.641   5.920   0.046 -2.4353 -0.9216  1.1891
 4036TIP3   OH212071   5.911   0.488   1.370 -0.2225 -0.4234  0.2781
 4036TIP3    H112072   5.939   0.495   1.279 -1.7391 -0.3785 -0.2064
 4036TIP3    H212073   5.860   0.407   1.374 -1.7797  0.5202  0.6017
 4037TIP3   OH212074   1.374   2.726   3.636 -0.0861 -0.1816 -0.1326
 4037TIP3    H112075   1.381   2.684   3.550 -0.9860 -0.2661 -0.1816
 4037TIP3    H212076   1.450   2.695   3.685  0.0683 -0.6741 -0.6745
 4038TIP3   OH212077   5.019   6.464   4.693 -0.0135  0.3177  0.6521
 4038TIP3    H112078   5.047   6.373   4.696  1.0041  0.5879 -0.1273
 4038TIP3    H212079   5.100   6.515   4.691 -0.5113  1.1433 -1.3445
 4039TIP3   OH212080   3.498   0.979   2.173  1.0447 -0.3862 -0.4710
 4039TIP3    H112081   3.460   1.064   2.196  0.5278 -0.3401 -1.4661
 4039TIP3    H212082   3.462   0.959   2.087 -0.9495 -2.8349  0.8111
 4040TIP3   OH212083   4.441   2.166   5.150  0.1015  0.0604  0.3654
 4040TIP3    H112084   4.421   2.182   5.058 -0.9143 -0.2518  0.5237
 4040TIP3    H212085   4.470   2.075   5.152  0.2758  0.1139  0.3392
 4041TIP3   OH212086   4.792   1.867   2.940  0.0237 -0.6427 -0.2589
 4041TIP3    H112087   4.713   1.866   2.993 -0.3371  0.6576 -0.7397
 4041TIP3    H212088   4.786   1.788   2.886 -1.7813  0.2401 -1.4427
 4042TIP3   OH212089   2.457   2.819   0.455  0.2977  0.1338  0.5108
 4042TIP3    H112090   2.382   2.780   0.499  1.2052 -1.7228  0.5221
 4042TIP3    H212091   2.426   2.904   0.424 -1.5574 -0.2674  1.1601
 4043TIP3   OH212092   1.822   0.885   1.463 -0.0658 -0.0720 -0.2154
 4043TIP3    H112093   1.852   0.900   1.553  0.7921  3.6254 -0.9818
 4043TIP3    H212094   1.867   0.805   1.436 -0.5529 -1.4725  2.6313
 4044TIP3   OH212095   1.105   1.589   2.753 -0.4268 -0.2210  0.1103
 4044TIP3    H112096   1.117   1.586   2.848 -1.9361  0.7529  0.3588
 4044TIP3    H212097   1.011   1.598   2.740 -0.3673 -1.3637 -1.5302
 4045TIP3   OH212098   4.711   6.364   0.951  0.3342 -0.4089  0.5872
 4045TIP3    H112099   4.788   6.316   0.920  1.3604 -0.0827  2.4668
 4045TIP3    H212100   4.731   6.455   0.932 -0.3625 -0.4595 -0.4399
 4046TIP3   OH212101   4.193   0.243   2.152  0.0001  0.5209 -0.0504
 4046TIP3    H112102   4.164   0.285   2.233 -1.2284  0.7230 -0.5760
 4046TIP3    H212103   4.147   0.290   2.082 -0.6022 -0.9872 -0.7261
 4047TIP3   OH212104   0.612   1.052   0.823  0.7537 -0.2451  0.3109
 4047TIP3    H112105   0.688   1.109   0.830  1.7005 -1.4431  0.1459
 4047TIP3    H212106   0.602   1.036   0.729  1.0475 -1.0362  0.4047
 4048TIP3   OH212107   1.885   4.857   1.246  0.2092 -0.5341  0.1172
 4048TIP3    H112108   1.969   4.880   1.285  1.1994  1.3782 -2.8418
 4048TIP3    H212109   1.830   4.935   1.257 -1.3282 -1.7593  2.0265
 4049TIP3   OH212110   5.563   0.582   1.217 -0.1950  0.0961 -0.1087
 4049TIP3    H112111   5.624   0.649   1.248 -1.2188  1.4594 -0.9512
 4049TIP3    H212112   5.616   0.527   1.159  0.3697  0.9071 -0.3823
 4050TIP3   OH212113   7.082   2.611   3.091 -0.3801  0.0636 -0.0897
 4050TIP3    H112114   7.100   2.661   3.170 -1.0267 -0.6410  0.5156
 4050TIP3    H212115   7.161   2.622   3.037  0.2365  0.2159  0.8250
 4051TIP3   OH212116   5.012   6.755   4.178  0.2228  0.5299 -0.0249
 4051TIP3    H112117   5.062   6.677   4.156  0.6896  0.1706  2.0548
 4051TIP3    H212118   4.921   6.730   4.163  0.3320 -0.6012  1.0402
 4052TIP3   OH212119   6.388   5.951   2.880  0.7759  0.0577  0.0985
 4052TIP3    H112120   6.294   5.950   2.901  0.0677 -0.1656 -2.6829
 4052TIP3    H212121   6.428   5.898   2.948 -1.2711 -0.7773  0.7381
 4053TIP3   OH212122   2.805   0.376   2.745 -0.2652 -0.1780  0.1561
 4053TIP3    H112123   2.850   0.307   2.794  0.0155  0.0149  0.1732
 4053TIP3    H212124   2.798   0.448   2.807  1.2813  0.5545 -0.4828
 4054TIP3   OH212125   0.834   0.071   1.576  0.4563 -0.4117  0.1824
 4054TIP3    H112126   0.833   0.130   1.651  0.0640  0.0584 -0.1838
 4054TIP3    H212127   0.926   0.051   1.562  0.6806  0.7306 -0.1518
 4055TIP3   OH212128   6.498   2.184   2.272  0.2005 -0.2208  0.0843
 4055TIP3    H112129   6.527   2.248   2.208  1.6426 -0.2126  0.7131
 4055TIP3    H212130   6.403   2.196   2.277  0.1927  0.4503 -1.2948
 4056TIP3   OH212131   1.692   2.492   0.278 -0.3204 -0.0751  1.1032
 4056TIP3    H112132   1.616   2.520   0.328 -1.4004 -2.2452  0.8138
 4056TIP3    H212133   1.721   2.412   0.322  0.1403 -0.7363 -0.3508
 4057TIP3   OH212134   3.432   0.129   0.563 -0.7838  0.2319  0.1777
 4057TIP3    H112135   3.417   0.195   0.631  1.3277  1.0659 -0.0674
 4057TIP3    H212136   3.472   0.178   0.491  1.2336 -1.3149  0.1402
 4058TIP3   OH212137   5.767   6.264   5.268  0.1257  0.2965  0.5832
 4058TIP3    H112138   5.682   6.241   5.230 -1.6540 -1.0368  4.7922
 4058TIP3    H212139   5.773   6.359   5.257 -1.3784  0.2893 -0.7305
 4059TIP3   OH212140   5.068   2.084   4.702  0.4063 -0.4973 -0.1488
 4059TIP3    H112141   5.158   2.099   4.671  0.0388 -1.0791 -1.6078
 4059TIP3    H212142   5.075   2.083   4.797  1.7252  0.7647 -0.2002
 4060TIP3   OH212143   3.437   3.071   5.124  0.6052 -0.0330 -0.5018
 4060TIP3    H112144   3.442   2.978   5.143  0.2067 -0.1556 -0.9695
 4060TIP3    H212145   3.527   3.103   5.134  0.5305 -0.2086  0.8850
 4061TIP3   OH212146   6.295   2.046   4.650 -0.2002 -0.1507  0.9134
 4061TIP3    H112147   6.220   2.060   4.592  0.4939 -0.8179 -0.1823
 4061TIP3    H212148   6.314   2.133   4.686 -1.1824  0.1135  0.8190
 4062TIP3   OH212149   4.178   4.342   0.242 -0.3164 -0.4365  0.4982
 4062TIP3    H112150   4.147   4.272   0.300  0.4406 -0.4938  0.8458
 4062TIP3    H212151   4.121   4.416   0.262  0.5401 -0.1530  2.0341
 4063TIP3   OH212152   6.237   6.457   1.796  0.2433 -0.0122 -0.2479
 4063TIP3    H112153   6.195   6.426   1.876 -1.0980  1.2074 -0.4170
 4063TIP3    H212154   6.330   6.458   1.816 -0.0287 -0.1978  1.1277
 4064TIP3   OH212155   7.157   2.677   5.821 -0.0183 -0.4735  0.2983
 4064TIP3    H112156   7.163   2.593   5.866 -0.3985 -0.7104 -0.0773
 4064TIP3    H212157   7.163   2.655   5.728  0.6401 -0.0033  0.2225
 4065TIP3   OH212158   3.484   0.797   0.770 -0.5163  0.0118 -0.3295
 4065TIP3    H112159   3.537   0.857   0.718 -0.9891 -0.4122 -1.3359
 4065TIP3    H212160   3.481   0.716   0.719 -1.1498 -0.3624  0.2693
 4066TIP3   OH212161   4.489   5.612   5.456 -0.4883  0.1039 -0.0813
 4066TIP3    H112162   4.483   5.535   5.513 -3.3228 -0.9245 -1.5665
 4066TIP3    H212163   4.542   5.584   5.382  1.1910  0.6755  0.8663
 4067TIP3   OH212164   5.063   3.554   4.880 -0.2538 -0.4320  0.3311
 4067TIP3    H112165   4.973   3.567   4.849  0.1062 -2.0568 -1.6259
 4067TIP3    H212166   5.098   3.484   4.824  2.8267  1.3673 -0.2562
 4068TIP3   OH212167   6.197   0.711   5.284 -0.4613  1.3869  1.0404
 4068TIP3    H112168   6.162   0.718   5.195 -0.6470  2.0237  1.1610
 4068TIP3    H212169   6.265   0.778   5.289  3.0610 -1.7428 -0.1793
 4069TIP3   OH212170   0.719   2.801   3.276  0.1869 -0.2199 -0.2539
 4069TIP3    H112171   0.770   2.723   3.298 -1.8588 -1.2364  1.1534
 4069TIP3    H212172   0.768   2.873   3.315  0.2584 -1.2345  1.6362
 4070TIP3   OH212173   2.362   3.583   2.035 -0.2322  0.2332  0.1451
 4070TIP3    H112174   2.390   3.570   1.945 -0.7160 -0.6365  0.1054
 4070TIP3    H212175   2.393   3.671   2.058 -0.9992  0.8799 -1.1976
 4071TIP3   OH212176   1.154   0.589   3.804 -0.3602 -0.1820  0.0039
 4071TIP3    H112177   1.062   0.565   3.792 -0.3858 -0.4764  0.7338
 4071TIP3    H212178   1.203   0.517   3.764 -0.4520 -0.1476 -0.1680
 4072TIP3   OH212179   1.117   6.413   2.301 -0.4470 -0.0656 -0.0140
 4072TIP3    H112180   1.090   6.328   2.267 -0.4252  0.6665 -1.9696
 4072TIP3    H212181   1.052   6.434   2.368 -0.5376 -1.5221  0.4008
 4073TIP3   OH212182   2.946   2.601   0.916 -0.0112 -0.0283 -0.2415
 4073TIP3    H112183   2.905   2.576   0.833  0.2276 -0.4502 -0.2353
 4073TIP3    H212184   2.937   2.522   0.970 -2.7617  1.1064  1.1568
 4074TIP3   OH212185   6.578   5.360   3.874 -0.1175  0.3624  0.0237
 4074TIP3    H112186   6.566   5.271   3.839 -0.9290 -0.3163  1.9134
 4074TIP3    H212187   6.490   5.386   3.903  0.3760  1.1965  0.8066
 4075TIP3   OH212188   1.708   4.289   3.365  0.0108 -0.1900  0.7938
 4075TIP3    H112189   1.702   4.223   3.434 -0.4638 -0.5727  0.3965
 4075TIP3    H212190   1.755   4.245   3.293  1.5365  0.5776  1.2910
 4076TIP3   OH212191   5.967   2.775   0.742 -0.5405  0.1650  0.0858
 4076TIP3    H112192   6.053   2.806   0.712  0.2497 -0.7338  1.2976
 4076TIP3    H212193   5.947   2.832   0.817  0.0390 -0.9774  1.1466
 4077TIP3   OH212194   6.563   4.963   2.908  0.1450  0.5186 -0.1239
 4077TIP3    H112195   6.607   5.015   2.975 -0.3278  1.1588 -0.2982
 4077TIP3    H212196   6.517   4.895   2.956  3.1825 -1.7005 -0.0396
 4078TIP3   OH212197   0.388   5.012   4.582 -0.1214  0.3956  0.3030
 4078TIP3    H112198   0.476   5.039   4.608 -0.5525  0.7865  1.4299
 4078TIP3    H212199   0.401   4.936   4.525  1.0101  1.4812 -0.9278
 4079TIP3   OH212200   5.298   4.648   5.695 -0.6167  0.2242 -0.8400
 4079TIP3    H112201   5.209   4.615   5.708 -1.0520  1.5542 -0.2864
 4079TIP3    H212202   5.317   4.627   5.604 -1.3975 -0.3090 -0.8964
 4080TIP3   OH212203   5.404   1.251   0.034  0.4804  0.8026  0.3577
 4080TIP3    H112204   5.419   1.179  -0.028  0.5609  1.4877 -0.4391
 4080TIP3    H212205   5.445   1.222   0.115  0.0989 -0.2482  0.1881
 4081TIP3   OH212206   5.826   3.985   1.271 -0.5166 -0.1844 -0.0298
 4081TIP3    H112207   5.891   3.916   1.258  1.0049  0.9804  0.9923
 4081TIP3    H212208   5.768   3.951   1.339 -0.0628 -0.6581  0.1247
 4082TIP3   OH212209   0.290   4.703   4.069 -0.2571  0.0129  0.2856
 4082TIP3    H112210   0.333   4.701   3.983  0.0066  2.0242  0.3101
 4082TIP3    H212211   0.197   4.694   4.049 -0.0606 -1.5893 -0.0110
 4083TIP3   OH212212   4.887   1.482   1.337  0.1196  0.2765  0.1030
 4083TIP3    H112213   4.931   1.510   1.417 -0.2130 -1.4306  0.9193
 4083TIP3    H212214   4.893   1.558   1.279  2.5640  0.7196  0.8176
 4084TIP3   OH212215   6.537   4.659   0.938 -0.5335  0.6013  0.4224
 4084TIP3    H112216   6.558   4.735   0.992 -2.1178  0.1558  1.7611
 4084TIP3    H212217   6.511   4.696   0.853 -2.5247  1.7056  1.4410
 4085TIP3   OH212218   5.306   3.332   3.788  0.2148  0.7617  0.3463
 4085TIP3    H112219   5.332   3.259   3.731 -1.2052  0.6911 -0.2583
 4085TIP3    H212220   5.338   3.307   3.875  0.3442 -0.2769  0.0183
 4086TIP3   OH212221   0.132   4.019   3.263 -0.0179 -0.1946 -0.1991
 4086TIP3    H112222   0.046   4.052   3.235 -0.7287 -1.9775 -0.2212
 4086TIP3    H212223   0.113   3.964   3.339  1.6906  3.3672  3.2140
 4087TIP3   OH212224   2.504   6.165   0.333  0.4441 -0.2611 -0.3545
 4087TIP3    H112225   2.553   6.111   0.271  1.2136 -0.1818  0.1750
 4087TIP3    H212226   2.516   6.121   0.418 -0.5739 -0.3561 -0.2524
 4088TIP3   OH212227   1.770   1.891   1.069 -0.1564 -0.1063 -0.0437
 4088TIP3    H112228   1.768   1.956   0.999 -0.1475  1.1797  1.1224
 4088TIP3    H212229   1.723   1.815   1.033 -0.4532  0.6571 -1.3029
 4089TIP3   OH212230   4.089   6.385   5.540  0.2053  0.2066  0.4037
 4089TIP3    H112231   4.071   6.304   5.589 -0.8704  0.5573  0.6067
 4089TIP3    H212232   4.147   6.357   5.469 -1.8641 -1.1945 -0.8431
 4090TIP3   OH212233   1.498   0.833   3.518  0.1901  0.0368 -0.3251
 4090TIP3    H112234   1.546   0.868   3.444  1.5180  0.5667  0.7368
 4090TIP3    H212235   1.462   0.910   3.562 -0.6762 -0.2767 -0.4652
 4091TIP3   OH212236   2.200   5.777   1.862  0.2330 -0.0799 -0.1765
 4091TIP3    H112237   2.126   5.796   1.805 -1.0554 -1.2351  1.0246
 4091TIP3    H212238   2.244   5.702   1.821  0.9074  0.7636 -1.0222
 4092TIP3   OH212239   6.841   2.167   0.699 -0.2760 -0.1730 -0.0234
 4092TIP3    H112240   6.836   2.130   0.611  0.7442  0.4812 -0.3738
 4092TIP3    H212241   6.857   2.260   0.686 -1.1047  0.1150  0.8604
 4093TIP3   OH212242   6.446   3.300   5.303  0.2331  0.2303 -0.4080
 4093TIP3    H112243   6.498   3.375   5.332 -1.0645  0.6296  0.9975
 4093TIP3    H212244   6.370   3.339   5.259 -1.8544 -0.0296  2.6474
 4094TIP3   OH212245   5.361   2.394   2.335 -0.0113 -0.3336 -0.2643
 4094TIP3    H112246   5.325   2.392   2.424  1.8590 -4.2621  0.6423
 4094TIP3    H212247   5.452   2.422   2.348  0.2029 -0.6976 -0.9505
 4095TIP3   OH212248   1.832   2.039   1.992 -0.5498  0.8362  0.2172
 4095TIP3    H112249   1.838   2.029   1.897  0.6693 -0.6438  0.4159
 4095TIP3    H212250   1.786   2.123   2.004  1.3455  2.2691 -1.6775
 4096TIP3   OH212251   3.232   5.353   2.415  0.2891 -0.3977 -0.0055
 4096TIP3    H112252   3.202   5.416   2.480  0.4299  0.0385 -0.3627
 4096TIP3    H212253   3.275   5.284   2.467 -0.6543 -0.6666  0.4583
 4097TIP3   OH212254   6.377   3.696   0.747 -0.4122 -0.0188 -0.0869
 4097TIP3    H112255   6.370   3.691   0.843  0.2720  1.0416  0.0370
 4097TIP3    H212256   6.287   3.702   0.717 -0.6387 -0.4478  0.4877
 4098TIP3   OH212257   6.873   6.452   2.315 -0.1580 -0.6066  0.0990
 4098TIP3    H112258   6.952   6.500   2.290  1.2723 -2.1413  1.4173
 4098TIP3    H212259   6.833   6.427   2.232 -0.3383  1.7884 -0.6172
 4099TIP3   OH212260   6.441   2.558   2.905 -0.1337 -0.1571 -0.0748
 4099TIP3    H112261   6.424   2.483   2.961  1.0361 -0.5294 -0.1973
 4099TIP3    H212262   6.381   2.626   2.937 -2.0821 -1.4638 -0.7102
 4100TIP3   OH212263   3.242   3.754   5.193 -0.1740  0.0727  0.1368
 4100TIP3    H112264   3.153   3.789   5.191  0.1869  1.0833 -3.0943
 4100TIP3    H212265   3.296   3.823   5.155  1.3342 -2.0115 -1.7614
 4101TIP3   OH212266   4.526   6.628   4.515  0.4334 -0.4678 -0.3684
 4101TIP3    H112267   4.616   6.660   4.507  0.7599 -1.3882 -0.4064
 4101TIP3    H212268   4.486   6.649   4.431  0.5135  0.2289 -0.2401
 4102TIP3   OH212269   7.039   6.621   5.364 -0.1068 -0.2898 -0.2022
 4102TIP3    H112270   7.077   6.609   5.451  0.2586 -1.0680 -0.4615
 4102TIP3    H212271   7.009   6.534   5.338  1.0729 -0.3563 -1.4370
 4103TIP3   OH212272   1.848   0.716   2.165  0.0995 -0.1326  0.1192
 4103TIP3    H112273   1.904   0.767   2.224 -3.6416  1.9788  2.2628
 4103TIP3    H212274   1.831   0.775   2.091 -0.9609  0.1722  0.5827
 4104TIP3   OH212275   6.989   6.759   1.262 -0.1131  0.5127 -0.3216
 4104TIP3    H112276   7.079   6.755   1.232  0.0432  0.5406  0.1391
 4104TIP3    H212277   6.994   6.789   1.352 -0.5864  0.5619 -0.3052
 4105TIP3   OH212278   0.379   5.847   1.890 -0.4457 -0.0965 -0.2103
 4105TIP3    H112279   0.390   5.830   1.984  1.1645 -2.2042 -0.6890
 4105TIP3    H212280   0.312   5.785   1.862 -0.4147  0.0359 -0.5859
 4106TIP3   OH212281   4.718   1.319   5.769 -0.2236 -0.0793  0.5689
 4106TIP3    H112282   4.736   1.315   5.863 -1.2828 -2.4044  0.7472
 4106TIP3    H212283   4.650   1.253   5.755  0.4699 -0.3549 -1.9557
 4107TIP3   OH212284   0.385   0.412   3.405 -0.1609 -0.0091  0.2865
 4107TIP3    H112285   0.434   0.483   3.363 -0.7331  0.6964  0.7921
 4107TIP3    H212286   0.329   0.377   3.336  0.5006 -0.3165 -0.0995
 4108TIP3   OH212287   1.003   4.836   0.996 -0.2378 -0.2893 -0.6087
 4108TIP3    H112288   0.974   4.916   0.952 -0.2015 -0.4360 -0.9047
 4108TIP3    H212289   1.099   4.843   0.998 -0.1339 -0.9484 -1.8717
 4109TIP3   OH212290   7.094   6.054   3.653 -0.3578 -0.1308  0.3377
 4109TIP3    H112291   7.004   6.063   3.623  0.1867 -0.8081 -1.6135
 4109TIP3    H212292   7.118   5.964   3.631  0.2578 -0.5675  2.4917
 4110TIP3   OH212293   6.104   2.814   3.191  0.4449 -0.7234  0.1135
 4110TIP3    H112294   6.064   2.854   3.268 -1.0599  0.0736 -1.0174
 4110TIP3    H212295   6.032   2.804   3.129  1.9909  0.9746 -2.1435
 4111TIP3   OH212296   4.427   0.729   1.093  0.6415 -0.4938  0.1323
 4111TIP3    H112297   4.507   0.777   1.117  0.6290 -1.3261  1.9892
 4111TIP3    H212298   4.403   0.682   1.173 -1.8402 -0.0831 -0.3180
 4112TIP3   OH212299   5.343   5.078   5.857 -0.0147  0.3944 -0.1211
 4112TIP3    H112300   5.343   5.074   5.953  0.7397  0.3448 -0.1184
 4112TIP3    H212301   5.275   5.142   5.836 -0.3280  0.2516  0.4390
 4113TIP3   OH212302   3.755   0.632   5.110  0.2556  0.2196 -0.4966
 4113TIP3    H112303   3.684   0.621   5.174 -0.0079  0.7012 -0.7062
 4113TIP3    H212304   3.812   0.698   5.149 -0.5517  1.4337 -1.3044
 4114TIP3   OH212305   3.381   1.420   5.655 -0.1465 -0.2260 -0.0410
 4114TIP3    H112306   3.355   1.453   5.741  2.1727 -1.7162  1.3344
 4114TIP3    H212307   3.364   1.493   5.596 -1.1947  1.0983  1.7830
 4115TIP3   OH212308   1.123   0.053   0.332 -0.5600 -0.1315 -0.0982
 4115TIP3    H112309   1.214   0.082   0.324 -0.3557 -0.2870  1.4634
 4115TIP3    H212310   1.071   0.128   0.300  0.1059 -0.1366 -1.2305
 4116TIP3   OH212311   0.665   5.855   3.716  0.0208  0.2432  0.0381
 4116TIP3    H112312   0.654   5.899   3.800 -2.4940  0.2058 -0.1894
 4116TIP3    H212313   0.577   5.853   3.678  0.9023 -0.6704 -2.1375
 4117TIP3   OH212314   5.484   0.585   3.176  0.5558  0.2689  0.0492
 4117TIP3    H112315   5.542   0.580   3.252  0.1900  0.3799  0.3448
 4117TIP3    H212316   5.450   0.675   3.178 -0.3357 -0.0533  0.4361
 4118TIP3   OH212317   5.962   4.442   1.046  0.0327 -0.7099  0.4303
 4118TIP3    H112318   6.019   4.475   1.116  0.1370 -2.4113  1.1831
 4118TIP3    H212319   5.941   4.353   1.072 -3.7292  0.0688  0.6404
 4119TIP3   OH212320   4.870   5.066   0.116  0.1322 -0.9002 -0.0586
 4119TIP3    H112321   4.900   5.155   0.097 -1.0034 -0.4821  0.0556
 4119TIP3    H212322   4.906   5.046   0.203  1.8380 -1.2387 -0.7932
 4120TIP3   OH212323   6.213   2.335   0.322  0.0836 -0.0988  0.3560
 4120TIP3    H112324   6.229   2.324   0.229  0.3598 -2.2426  0.6010
 4120TIP3    H212325   6.162   2.416   0.329  1.5482  1.0513 -1.4446
 4121TIP3   OH212326   3.631   5.856   5.155 -0.2308 -0.7255 -0.0419
 4121TIP3    H112327   3.676   5.783   5.198  1.0667 -0.4166 -0.7967
 4121TIP3    H212328   3.629   5.831   5.062 -1.5727 -0.6840 -0.0416
 4122TIP3   OH212329   6.894   4.722   1.484 -0.3145 -0.0196 -0.0025
 4122TIP3    H112330   6.982   4.701   1.456  0.3390  0.2350  1.7147
 4122TIP3    H212331   6.859   4.640   1.519 -1.1581 -0.3676 -1.5801
 4123TIP3   OH212332   1.645   2.324   1.830 -0.1666  0.1995 -0.0022
 4123TIP3    H112333   1.648   2.303   1.736  1.3914 -1.9203  0.4277
 4123TIP3    H212334   1.555   2.307   1.855  0.1775 -2.9484 -0.4627
 4124TIP3   OH212335   3.611   5.042   2.958  0.6178  0.0311 -0.6233
 4124TIP3    H112336   3.643   4.974   3.018  0.7080 -0.2667 -1.0052
 4124TIP3    H212337   3.561   5.101   3.014 -1.2038 -1.4480 -0.5697
 4125TIP3   OH212338   1.750   1.216   0.517 -0.3933  0.1821  0.6227
 4125TIP3    H112339   1.694   1.190   0.590 -1.0842 -0.4252 -0.1135
 4125TIP3    H212340   1.778   1.305   0.540 -1.4067  0.3863  1.1520
 4126TIP3   OH212341   1.056   1.632   4.300 -0.1508  1.0961 -0.0893
 4126TIP3    H112342   1.137   1.653   4.254 -1.0249 -0.1335 -2.3627
 4126TIP3    H212343   1.085   1.593   4.382  1.5814  0.6897 -0.8456
 4127TIP3   OH212344   4.754   6.093   3.660  0.3050  0.1338  0.8276
 4127TIP3    H112345   4.755   6.130   3.572  0.5599  2.8851  1.8881
 4127TIP3    H212346   4.665   6.110   3.692  0.3746 -0.3712  1.3069
 4128TIP3   OH212347   5.152   0.720   0.041 -0.6638 -0.1306  0.6587
 4128TIP3    H112348   5.224   0.659   0.025  1.4834  2.2488  0.6488
 4128TIP3    H212349   5.123   0.748  -0.046 -0.7346 -0.1207  0.6848
 4129TIP3   OH212350   6.887   3.588   2.229  0.4643 -0.3615  0.2047
 4129TIP3    H112351   6.971   3.589   2.184  0.0115 -0.5975 -0.6684
 4129TIP3    H212352   6.873   3.679   2.257  0.4152 -0.0608 -0.7778
 4130TIP3   OH212353   6.463   6.524   3.656 -0.3424 -0.4718  0.6135
 4130TIP3    H112354   6.396   6.466   3.692 -0.8665 -0.3268 -0.1012
 4130TIP3    H212355   6.454   6.516   3.561 -1.2730  1.6520  0.4456
 4131TIP3   OH212356   3.512   6.469   3.816 -0.2119 -0.4611 -0.8779
 4131TIP3    H112357   3.430   6.517   3.805  1.1801  2.5628  0.8914
 4131TIP3    H212358   3.577   6.518   3.766  1.1745 -0.7999  0.4994
 4132TIP3   OH212359   4.562   1.030   5.090  0.6996  0.1825  0.0480
 4132TIP3    H112360   4.530   0.957   5.143 -0.9810  1.2272  0.5513
 4132TIP3    H212361   4.645   0.999   5.054  0.7064 -1.4492  1.3497
 4133TIP3   OH212362   2.615   4.563   4.637 -0.4097  0.3812  0.7736
 4133TIP3    H112363   2.562   4.628   4.683 -2.0052 -0.6129  0.4120
 4133TIP3    H212364   2.570   4.480   4.653  1.7730 -0.7300  1.5405
 4134TIP3   OH212365   1.993   0.928   1.955  0.2766 -0.2406 -0.1134
 4134TIP3    H112366   2.011   0.918   2.049  2.9562 -1.3089 -0.6446
 4134TIP3    H212367   2.029   1.014   1.934  2.3305 -1.1399 -0.6024
 4135TIP3   OH212368   2.127   6.388   1.556 -0.4950 -0.2648  0.0107
 4135TIP3    H112369   2.089   6.352   1.637 -1.1276  0.8734  0.2383
 4135TIP3    H212370   2.191   6.452   1.586 -1.6497  1.1108 -0.3556
 4136TIP3   OH212371   2.164   1.493   0.416  0.0755  0.7899 -0.2997
 4136TIP3    H112372   2.087   1.525   0.368 -0.8844  2.0643  1.9621
 4136TIP3    H212373   2.212   1.572   0.440 -0.3420  0.3540  2.1971
 4137TIP3   OH212374   6.405   4.012  -0.003 -0.5355  0.2184 -0.1979
 4137TIP3    H112375   6.407   3.932  -0.054 -1.1419 -0.0223  0.1414
 4137TIP3    H212376   6.368   3.986   0.081 -1.8910  1.0596 -0.4960
 4138TIP3   OH212377   1.614   2.653   5.108 -0.0693 -0.1446 -0.3502
 4138TIP3    H112378   1.691   2.692   5.151 -1.5664  0.3390  2.0700
 4138TIP3    H212379   1.640   2.563   5.091  1.0602  0.0135  0.3765
 4139TIP3   OH212380   5.989   3.525   1.211  0.3172  0.2944 -0.1903
 4139TIP3    H112381   6.082   3.516   1.192  0.0280 -2.4468 -0.7208
 4139TIP3    H212382   5.947   3.529   1.126 -0.2103 -1.5975 -0.0747
 4140TIP3   OH212383   4.339   4.452   0.994  0.0235 -0.3198 -0.5743
 4140TIP3    H112384   4.322   4.406   0.912  0.1349 -2.6865  0.6529
 4140TIP3    H212385   4.253   4.467   1.032  0.0739 -1.6804  0.1189
 4141TIP3   OH212386   1.099   0.464   0.989  0.2033  0.2648  0.2164
 4141TIP3    H112387   1.077   0.377   0.959  0.3405 -0.4085  1.9233
 4141TIP3    H212388   1.110   0.455   1.084 -0.6622  2.3104  0.5817
 4142TIP3   OH212389   4.669   2.795   5.755 -0.2228 -0.3576  0.1288
 4142TIP3    H112390   4.597   2.733   5.744 -0.2944 -0.0938 -1.0990
 4142TIP3    H212391   4.707   2.803   5.667 -0.0905  1.1700  0.2940
 4143TIP3   OH212392   3.750   0.760   2.777  0.0378 -0.1254 -0.1836
 4143TIP3    H112393   3.780   0.669   2.781  0.7404  0.0625 -0.9242
 4143TIP3    H212394   3.780   0.799   2.860  0.3417 -0.3924 -0.1659
 4144TIP3   OH212395   3.938   4.618   4.790  0.0404  0.2034 -0.1838
 4144TIP3    H112396   3.859   4.566   4.810 -0.1662  0.9080  0.9714
 4144TIP3    H212397   3.910   4.709   4.805  0.7006  0.5648 -1.1066
 4145TIP3   OH212398   1.210   0.826   2.912 -0.1921  0.1545  0.1743
 4145TIP3    H112399   1.216   0.752   2.972  0.4829 -0.0168 -0.0932
 4145TIP3    H212400   1.160   0.793   2.837  1.1147 -0.4229 -0.4850
 4146TIP3   OH212401   3.745   1.597   5.487 -0.2052 -0.1357  0.1565
 4146TIP3    H112402   3.816   1.651   5.521 -0.4260 -0.1601  0.6612
 4146TIP3    H212403   3.692   1.657   5.435  1.3445 -0.5328 -2.0503
 4147TIP3   OH212404   2.037   4.753   0.398  0.4213  0.2636  0.1797
 4147TIP3    H112405   2.098   4.792   0.335  0.2376 -0.9826 -0.7985
 4147TIP3    H212406   1.988   4.827   0.432  1.4906  1.1282 -0.0918
 4148TIP3   OH212407   5.751   6.478   4.087  0.0080 -0.1335  0.4290
 4148TIP3    H112408   5.760   6.525   4.171 -0.5135  0.2491  0.2736
 4148TIP3    H212409   5.836   6.436   4.075  0.5576  0.9243  0.4854
 4149TIP3   OH212410   4.407   2.834   3.278 -0.4467 -0.8667  0.0865
 4149TIP3    H112411   4.369   2.919   3.301 -0.4098 -0.4469 -1.3012
 4149TIP3    H212412   4.332   2.781   3.251 -0.3463 -0.9050 -0.1191
 4150TIP3   OH212413   1.858   6.144   3.063 -0.6928 -0.6552 -0.0996
 4150TIP3    H112414   1.771   6.170   3.033  0.3143 -0.0580 -2.8585
 4150TIP3    H212415   1.859   6.165   3.156 -2.6844  1.6690 -0.4932
 4151TIP3   OH212416   3.162   0.264   1.846 -0.4780 -0.1127 -0.1551
 4151TIP3    H112417   3.141   0.188   1.900 -0.7591  1.3533  1.9502
 4151TIP3    H212418   3.251   0.287   1.871 -0.5221  0.4473 -0.4950
 4152TIP3   OH212419   6.075   1.992   2.043  0.0926  0.1720  0.0861
 4152TIP3    H112420   6.132   1.951   2.108 -0.7100 -0.2098  0.5731
 4152TIP3    H212421   6.124   1.987   1.961 -0.5907 -3.4213 -0.2919
 4153TIP3   OH212422   2.096   6.385   4.449  0.1369 -0.0462 -0.1034
 4153TIP3    H112423   2.160   6.321   4.481 -1.1378 -0.6725  1.3565
 4153TIP3    H212424   2.033   6.333   4.400  0.6967  0.5664 -1.5220
 4154TIP3   OH212425   1.975   0.781   5.179  0.1988  0.1674  0.0005
 4154TIP3    H112426   1.903   0.823   5.225  1.3868 -0.7660  2.9228
 4154TIP3    H212427   2.054   0.811   5.224  1.5638 -0.3043 -1.9048
 4155TIP3   OH212428   0.024   1.305   3.980 -0.7022 -0.3390  0.7537
 4155TIP3    H112429   0.109   1.350   3.989 -1.5098  1.4128  0.1926
 4155TIP3    H212430   0.010   1.264   4.065 -0.4064  1.4819  1.7435
 4156TIP3   OH212431   4.221   3.836   3.186 -0.2953 -0.5034  0.1371
 4156TIP3    H112432   4.303   3.861   3.229 -0.4922  0.1883  0.1223
 4156TIP3    H212433   4.248   3.774   3.117  0.3122  0.2990 -0.3677
 4157TIP3   OH212434   6.986   0.058   5.767 -0.2267 -0.2735  0.3247
 4157TIP3    H112435   7.028   0.081   5.849 -1.7082 -0.5863  1.2130
 4157TIP3    H212436   6.910   0.006   5.792 -3.1476  3.0257 -0.8594
 4158TIP3   OH212437   3.661   3.508   3.538 -0.1957 -0.3275 -0.3288
 4158TIP3    H112438   3.604   3.501   3.462  0.0655 -0.3639 -0.5217
 4158TIP3    H212439   3.606   3.547   3.606 -1.0150 -2.0160  0.0488
 4159TIP3   OH212440   3.092   4.868   4.632 -0.9184  0.0187 -0.0561
 4159TIP3    H112441   3.148   4.913   4.569 -0.6354  0.8822  0.7700
 4159TIP3    H212442   3.107   4.916   4.714 -1.7369 -0.6843  0.5148
 4160TIP3   OH212443   1.402   1.508   2.392  0.4747  0.2279 -0.1644
 4160TIP3    H112444   1.442   1.421   2.386  0.3388  0.0969  0.7160
 4160TIP3    H212445   1.469   1.567   2.355  0.1282 -0.3500 -1.7868
 4161TIP3   OH212446   1.261   6.713   2.759 -0.0215 -0.6893  0.7619
 4161TIP3    H112447   1.225   6.649   2.698  0.5635 -1.7022  1.4541
 4161TIP3    H212448   1.352   6.687   2.772  0.3950  0.6203  0.6314
 4162TIP3   OH212449   0.769   3.126   0.053  0.4681 -0.5284  0.0156
 4162TIP3    H112450   0.732   3.151   0.137  0.4887 -2.8788  0.8089
 4162TIP3    H212451   0.729   3.187  -0.010  1.2341  1.9405  1.7806
 4163TIP3   OH212452   4.225   5.412   3.265  0.2141  0.0069 -0.7593
 4163TIP3    H112453   4.289   5.475   3.296  0.2782 -0.5681  0.3546
 4163TIP3    H212454   4.144   5.437   3.309  0.8928 -2.4248  2.2256
 4164TIP3   OH212455   0.240   4.239   1.565  0.1876 -0.5926 -0.4770
 4164TIP3    H112456   0.284   4.323   1.575 -1.1632 -0.0142  1.0254
 4164TIP3    H212457   0.213   4.215   1.654 -4.0519 -0.0254 -1.3893
 4165TIP3   OH212458   1.885   4.667   5.671  0.7003 -0.4347 -0.7483
 4165TIP3    H112459   1.858   4.741   5.617 -0.4931 -0.0122  0.4067
 4165TIP3    H212460   1.980   4.679   5.682  0.6569  0.4624 -1.2349
 4166TIP3   OH212461   0.802   0.656   0.962  0.1363 -0.1102 -0.0015
 4166TIP3    H112462   0.729   0.660   0.900  0.3565  0.5986 -0.2208
 4166TIP3    H212463   0.784   0.578   1.014 -0.4699 -0.2730 -0.4361
 4167TIP3   OH212464   5.210   0.587   5.739  0.0909 -0.6692 -0.1180
 4167TIP3    H112465   5.196   0.565   5.647  1.2457  0.5316 -0.6142
 4167TIP3    H212466   5.250   0.508   5.776 -0.3579 -1.1541 -0.6422
 4168TIP3   OH212467   4.409   5.778   4.732 -0.5913  0.1024  0.0200
 4168TIP3    H112468   4.444   5.689   4.738  1.6418  0.9284  0.0587
 4168TIP3    H212469   4.379   5.798   4.821 -1.0223 -0.5627  0.0302
 4169TIP3   OH212470   3.516   3.827   0.280 -0.4224  0.1938 -0.1089
 4169TIP3    H112471   3.479   3.893   0.339  0.3694  2.3937 -1.9215
 4169TIP3    H212472   3.472   3.746   0.305 -2.5469  1.6512  1.2773
 4170TIP3   OH212473   0.775   4.613   3.720 -0.4893  0.1075 -1.3389
 4170TIP3    H112474   0.721   4.663   3.781  0.3779 -2.5952  2.0150
 4170TIP3    H212475   0.717   4.544   3.688 -0.0281 -0.6544 -0.5816
 4171TIP3   OH212476   4.680   0.699   0.614 -0.3273  0.0453  0.0213
 4171TIP3    H112477   4.773   0.698   0.592  0.0193 -2.9439  1.1044
 4171TIP3    H212478   4.662   0.788   0.643  2.2580  0.6247  0.0245
 4172TIP3   OH212479   6.477   2.416   2.523  0.0888  0.8327 -0.3851
 4172TIP3    H112480   6.422   2.338   2.536  0.7849  0.6056  1.6076
 4172TIP3    H212481   6.452   2.449   2.437  1.1640 -2.7325 -2.2976
 4173TIP3   OH212482   4.554   4.178   0.462  0.2085 -0.2658 -0.2090
 4173TIP3    H112483   4.577   4.270   0.451 -0.0518 -0.3282 -1.5198
 4173TIP3    H212484   4.636   4.136   0.487  0.5459  0.1827 -0.5428
 4174TIP3   OH212485   1.812   4.441   1.281 -0.6244  0.1764  0.0915
 4174TIP3    H112486   1.862   4.455   1.200  0.4460 -2.1016  0.2912
 4174TIP3    H212487   1.737   4.388   1.253  0.0041 -1.0338  0.6104
 4175TIP3   OH212488   4.560   0.119   3.312  0.3741 -0.4990 -0.0289
 4175TIP3    H112489   4.530   0.189   3.255  0.4345 -0.8468 -0.4972
 4175TIP3    H212490   4.492   0.110   3.379  0.5628  0.2778  0.2739
 4176TIP3   OH212491   5.593   5.829   3.057 -0.3614 -0.0169  0.3894
 4176TIP3    H112492   5.507   5.843   3.018 -0.0743 -0.7905 -0.5777
 4176TIP3    H212493   5.576   5.804   3.147 -1.2675 -1.8603 -0.2353
 4177TIP3   OH212494   6.384   0.278   2.205  0.0684  0.8034 -0.7407
 4177TIP3    H112495   6.468   0.269   2.249 -1.0839  0.8848  1.6393
 4177TIP3    H212496   6.371   0.194   2.161  1.4278  0.8565 -1.3081
 4178TIP3   OH212497   1.231   4.311   2.491  0.0402  0.5897  0.1746
 4178TIP3    H112498   1.155   4.369   2.481  0.4636  1.2453  0.6543
 4178TIP3    H212499   1.194   4.223   2.493 -0.4181  0.5555 -3.4092
 4179TIP3   OH212500   2.507   5.359   2.311  0.1053 -0.1308  0.0619
 4179TIP3    H112501   2.517   5.282   2.366  1.9662  0.3673  0.4909
 4179TIP3    H212502   2.477   5.325   2.227  1.8885 -1.4706 -0.0883
 4180TIP3   OH212503   0.029   5.388   2.852  0.5380 -0.7631 -0.1990
 4180TIP3    H112504   0.121   5.399   2.827 -0.0144 -2.2286 -3.2910
 4180TIP3    H212505  -0.019   5.439   2.787 -0.9622 -3.2848 -1.1993
 4181TIP3   OH212506   2.258   5.431   0.509  0.3567 -0.0423  0.4400
 4181TIP3    H112507   2.249   5.337   0.498 -1.7236  0.2244 -0.5024
 4181TIP3    H212508   2.324   5.441   0.578 -0.4139 -2.2026  1.5546
 4182TIP3   OH212509   0.531   3.028   1.660  1.1517  0.5903 -0.2365
 4182TIP3    H112510   0.556   3.050   1.750 -3.1073  0.2684  1.2580
 4182TIP3    H212511   0.498   2.938   1.666  0.2620  0.7569 -2.0035
 4183TIP3   OH212512   4.048   2.096   4.021 -0.0503 -0.1826  0.1631
 4183TIP3    H112513   4.059   2.125   4.112  2.7206  1.3505 -0.5459
 4183TIP3    H212514   4.107   2.021   4.012  1.2574  0.9134 -0.8181
 4184TIP3   OH212515   6.816   3.583   1.829  0.0354 -0.0067  0.0647
 4184TIP3    H112516   6.858   3.643   1.890 -0.0771 -0.1396  0.2733
 4184TIP3    H212517   6.723   3.606   1.832 -0.0676 -0.4473  0.4459
 4185TIP3   OH212518   1.746   2.213   2.549 -0.0703  0.8519  0.5588
 4185TIP3    H112519   1.702   2.247   2.627  0.5514 -0.0693  1.3353
 4185TIP3    H212520   1.819   2.274   2.535 -1.7726  2.6605 -1.0144
 4186TIP3   OH212521   2.446   0.022   1.201 -0.3189 -0.0524  0.0147
 4186TIP3    H112522   2.462   0.007   1.295 -1.3811  0.3133  0.2640
 4186TIP3    H212523   2.515  -0.028   1.157 -0.0427 -0.5485  0.9754
 4187TIP3   OH212524   5.917   5.692   4.188  0.2256  0.2095 -0.0815
 4187TIP3    H112525   5.893   5.721   4.276  0.6249 -2.0141  0.8096
 4187TIP3    H212526   5.834   5.666   4.148 -0.1815  2.6637 -1.0003
 4188TIP3   OH212527   2.942   0.930   3.180  0.4605  0.4689 -0.1829
 4188TIP3    H112528   2.962   0.866   3.112  2.1134  1.1547 -0.4073
 4188TIP3    H212529   2.945   1.014   3.135 -1.7102  0.7402  0.0990
 4189TIP3   OH212530   5.982   4.015   5.771 -0.0858 -0.1602  0.3461
 4189TIP3    H112531   5.914   3.959   5.809 -1.9630 -0.7927 -3.4835
 4189TIP3    H212532   6.004   4.076   5.842 -2.8925 -1.4469  2.5653
 4190TIP3   OH212533   2.957   4.343   5.560  0.1008  0.7029  0.3947
 4190TIP3    H112534   3.044   4.381   5.547 -0.6034  2.1109 -0.4118
 4190TIP3    H212535   2.912   4.405   5.618 -0.4179  0.0545  0.7038
 4191TIP3   OH212536   4.863   0.777   4.288 -0.0772 -0.4216  0.1394
 4191TIP3    H112537   4.783   0.758   4.239 -0.9265  0.6248  1.0636
 4191TIP3    H212538   4.851   0.733   4.372 -0.0569  0.4046  0.5852
 4192TIP3   OH212539   7.070   2.190   0.104  0.3349  0.3772 -0.6189
 4192TIP3    H112540   7.157   2.174   0.142 -0.1873  1.9721  1.4496
 4192TIP3    H212541   7.026   2.245   0.169 -1.6079  1.0777 -2.4368
 4193TIP3   OH212542   4.285   1.625   3.101  0.1283 -0.8381 -0.4371
 4193TIP3    H112543   4.234   1.554   3.138 -1.8856  0.3766 -0.7488
 4193TIP3    H212544   4.310   1.679   3.177 -0.0340 -0.8172 -0.3992
 4194TIP3   OH212545   0.717   5.741   2.420  0.4114  0.3424 -0.0810
 4194TIP3    H112546   0.736   5.647   2.417 -3.4551 -0.7096  1.9955
 4194TIP3    H212547   0.698   5.764   2.329  1.7313 -0.7777 -0.6675
 4195TIP3   OH212548   1.097   6.337   3.827  0.1381 -0.5305 -0.1650
 4195TIP3    H112549   1.103   6.421   3.782 -1.0410  0.4158  1.3499
 4195TIP3    H212550   1.152   6.347   3.904  1.0538 -1.6489 -0.6461
 4196TIP3   OH212551   2.964   4.038   3.510 -0.1854  0.7469 -0.1642
 4196TIP3    H112552   3.017   3.962   3.485 -1.5401  0.2176 -1.5265
 4196TIP3    H212553   2.905   4.052   3.436 -2.0936  1.1867  1.3707
 4197TIP3   OH212554   1.724   6.006   4.137 -0.6935 -0.0849 -0.3542
 4197TIP3    H112555   1.635   6.026   4.108 -0.8659  2.0013  1.2975
 4197TIP3    H212556   1.781   6.048   4.072 -0.8365 -2.1447 -1.8827
 4198TIP3   OH212557   4.748   4.004   0.537  0.3001  0.3478  0.1638
 4198TIP3    H112558   4.686   3.958   0.595 -0.6434 -1.4012 -2.0663
 4198TIP3    H212559   4.818   3.941   0.523  1.1078  1.1999  0.2901
 4199TIP3   OH212560   3.989   4.892   4.474  0.1472 -0.5398 -0.8633
 4199TIP3    H112561   3.958   4.976   4.507  0.1845 -0.2408 -1.5615
 4199TIP3    H212562   3.909   4.847   4.444 -0.2114 -1.8293  1.7889
 4200TIP3   OH212563   4.012   3.127   5.265 -0.0472  0.2062  0.0446
 4200TIP3    H112564   4.086   3.071   5.241  0.4762  1.2199 -0.7656
 4200TIP3    H212565   4.051   3.194   5.322 -1.0850 -1.6114  3.1626
 4201TIP3   OH212566   7.125   5.641   5.463 -0.2079  0.0043 -0.3940
 4201TIP3    H112567   7.144   5.549   5.444 -0.3556 -0.0377 -0.3385
 4201TIP3    H212568   7.140   5.687   5.381  2.3836  0.3168  0.1675
 4202TIP3   OH212569   2.347   3.385   3.556  0.1850 -0.0827  0.4885
 4202TIP3    H112570   2.381   3.304   3.516 -0.2384  0.1336 -0.3275
 4202TIP3    H212571   2.319   3.358   3.643 -0.7593 -1.0252 -0.0844
 4203TIP3   OH212572   3.444   4.208   2.228  0.0475  0.6784  0.2457
 4203TIP3    H112573   3.432   4.114   2.214 -0.4184  0.6252  0.9557
 4203TIP3    H212574   3.367   4.235   2.278  0.3714  1.3621  0.3890
 4204TIP3   OH212575   1.789   0.387   1.146 -0.4869 -0.4194 -0.1715
 4204TIP3    H112576   1.857   0.323   1.166 -0.5004 -0.5592 -0.5710
 4204TIP3    H212577   1.790   0.447   1.222  0.1878 -0.3285 -0.2420
 4205TIP3   OH212578   5.022   0.596   5.141  0.0418 -1.0266 -0.3151
 4205TIP3    H112579   5.059   0.569   5.225  1.6324  1.8535  0.0331
 4205TIP3    H212580   4.937   0.633   5.163 -0.6647 -2.5235 -0.3743
 4206TIP3   OH212581   4.174   1.369   3.130  0.1607 -0.0516  0.0164
 4206TIP3    H112582   4.240   1.327   3.186 -0.2522 -1.0832 -0.2710
 4206TIP3    H212583   4.102   1.307   3.126 -0.2470  0.4607 -0.8358
 4207TIP3   OH212584   0.476   5.292   3.361  0.4436 -0.0001 -0.3074
 4207TIP3    H112585   0.538   5.219   3.368  0.0662 -0.2124  1.0964
 4207TIP3    H212586   0.393   5.255   3.391  0.3240  1.0975  0.7531
 4208TIP3   OH212587   0.678   1.715   2.372 -0.0062 -0.4471 -0.1716
 4208TIP3    H112588   0.613   1.672   2.316 -0.3063  3.1856 -2.9462
 4208TIP3    H212589   0.746   1.649   2.384 -2.0480 -2.8728 -0.9692
 4209TIP3   OH212590   5.588   2.517   2.447  0.3350  0.7190  0.9418
 4209TIP3    H112591   5.636   2.464   2.511  1.6052  0.3321 -0.2770
 4209TIP3    H212592   5.641   2.512   2.368 -1.3883  0.8434 -0.2798
 4210TIP3   OH212593   6.073   1.043   1.308 -0.5051 -0.3536 -0.3766
 4210TIP3    H112594   6.081   1.122   1.361  0.8696 -0.4993 -0.3213
 4210TIP3    H212595   6.139   1.054   1.239 -0.0634 -1.5847 -0.1750
 4211TIP3   OH212596   7.035   1.988   5.055 -0.2476  0.4349 -0.8013
 4211TIP3    H112597   7.003   2.069   5.096  0.2996 -0.0595  0.6524
 4211TIP3    H212598   7.130   1.999   5.051 -0.3070  0.6351 -2.3575
 4212TIP3   OH212599   6.283   1.108   4.116  0.2333  0.5532 -0.3308
 4212TIP3    H112600   6.319   1.054   4.045  0.5651  1.5087 -0.9058
 4212TIP3    H212601   6.200   1.140   4.081  0.5425  1.2771 -0.4148
 4213TIP3   OH212602   3.789   4.612   5.705 -0.3551  0.0962 -0.5607
 4213TIP3    H112603   3.838   4.669   5.647  0.5722 -0.4802 -0.3595
 4213TIP3    H212604   3.850   4.590   5.775 -0.8645 -0.7078 -0.3571
 4214TIP3   OH212605   2.699   5.395   4.930 -0.9036  0.1217  0.2150
 4214TIP3    H112606   2.731   5.341   4.857 -1.2991 -0.2886  0.3437
 4214TIP3    H212607   2.621   5.349   4.961 -0.7005  0.2670  0.9390
 4215TIP3   OH212608   5.788   1.366   3.357 -0.1934 -0.4312 -0.2486
 4215TIP3    H112609   5.796   1.308   3.432 -0.1118  0.4668  0.4552
 4215TIP3    H212610   5.777   1.453   3.395  0.7063  0.1545 -1.2685
 4216TIP3   OH212611   0.595   4.104   5.841 -0.0694 -0.1672  0.0513
 4216TIP3    H112612   0.587   4.066   5.754  0.3186 -2.4067  0.9196
 4216TIP3    H212613   0.688   4.121   5.852 -0.2668  1.4325 -0.4352
 4217TIP3   OH212614   3.975   1.325   4.248 -0.0829 -0.1824 -0.4017
 4217TIP3    H112615   4.027   1.291   4.320 -0.8745  1.9217  1.2659
 4217TIP3    H212616   4.038   1.375   4.195  0.0266  0.4784  0.3379
 4218TIP3   OH212617   4.454   3.953   2.880 -0.4194  0.2633  0.7199
 4218TIP3    H112618   4.418   3.989   2.961 -2.2272  0.1326  0.0144
 4218TIP3    H212619   4.502   3.875   2.908  0.7741  1.3445  1.8746
 4219TIP3   OH212620   5.612   4.123   1.960 -0.4613 -0.0132  0.3507
 4219TIP3    H112621   5.685   4.110   2.021  0.0856  1.1704 -0.0182
 4219TIP3    H212622   5.638   4.077   1.881  0.2231  0.9602 -0.0151
 4220TIP3   OH212623   2.356   2.296   3.643 -0.5883 -0.5162 -0.3614
 4220TIP3    H112624   2.353   2.206   3.611 -0.9675  0.0071 -1.9252
 4220TIP3    H212625   2.342   2.349   3.564  1.5097  0.9745  0.1706
 4221TIP3   OH212626   2.933   6.276   0.293 -0.3779 -0.1373  0.0286
 4221TIP3    H112627   2.923   6.300   0.385  0.1251  1.5388 -0.3261
 4221TIP3    H212628   2.905   6.353   0.244 -2.2349 -1.5420 -1.3049
 4222TIP3   OH212629   3.390   4.115   3.619 -0.5754 -0.1059 -0.0154
 4222TIP3    H112630   3.422   4.086   3.534 -0.6541 -1.4077  0.3773
 4222TIP3    H212631   3.450   4.185   3.644 -1.5174  1.4375 -1.8502
 4223TIP3   OH212632   4.609   4.939   4.126  0.0129  0.2657 -0.2009
 4223TIP3    H112633   4.698   4.957   4.158 -0.3094  0.2518  0.7346
 4223TIP3    H212634   4.565   5.024   4.128 -0.2974  0.0964  0.3222
 4224TIP3   OH212635   1.065   6.096   4.848  0.4070  0.1815 -0.3204
 4224TIP3    H112636   0.977   6.129   4.830  0.3364 -0.5950 -1.5411
 4224TIP3    H212637   1.122   6.173   4.840 -0.0172  0.4486 -0.8823
 4225TIP3   OH212638   1.603   0.997   3.339 -0.2633 -0.6993  0.5645
 4225TIP3    H112639   1.672   1.037   3.285 -0.9374 -1.5192 -0.9621
 4225TIP3    H212640   1.535   1.064   3.344  0.0012 -0.4459  0.8033
 4226TIP3   OH212641   1.795   3.099   0.454  0.3062  0.1899 -0.4200
 4226TIP3    H112642   1.708   3.068   0.479  0.9194 -0.6315  0.7826
 4226TIP3    H212643   1.826   3.150   0.529  1.9376 -1.8134  0.3661
 4227TIP3   OH212644   4.065   4.231   0.494  0.1305 -0.1620 -0.2037
 4227TIP3    H112645   3.991   4.180   0.527 -0.1151 -0.3337 -0.9952
 4227TIP3    H212646   4.034   4.322   0.497  0.8405  0.0571  1.9254
 4228TIP3   OH212647   5.385   5.819   3.586  0.2859  0.4079  0.3602
 4228TIP3    H112648   5.290   5.817   3.586  0.2979 -0.4334  0.5048
 4228TIP3    H212649   5.409   5.806   3.678  0.5205  2.8830  0.7035
 4229TIP3   OH212650   4.909   1.893   0.922  0.0114  0.7680  0.4573
 4229TIP3    H112651   4.966   1.816   0.926  0.8057  1.3371  0.3723
 4229TIP3    H212652   4.878   1.906   1.011 -2.7405 -1.5318 -0.0317
 4230TIP3   OH212653   4.733   1.406   0.670 -0.4491  0.9088  0.0276
 4230TIP3    H112654   4.640   1.411   0.691 -0.1337  0.0880  1.8092
 4230TIP3    H212655   4.735   1.387   0.576 -2.0334  1.9915 -0.2715
 4231TIP3   OH212656   0.567   3.775   5.182 -0.2482  0.5670  0.0088
 4231TIP3    H112657   0.498   3.712   5.164  0.0879  0.0625  0.4502
 4231TIP3    H212658   0.604   3.747   5.266  1.4539 -0.0645 -0.8888
 4232TIP3   OH212659   1.494   5.229   1.158  0.4734 -0.0464  0.1161
 4232TIP3    H112660   1.513   5.254   1.067  0.6318 -0.8855 -0.0907
 4232TIP3    H212661   1.553   5.282   1.211  0.5747  0.2497 -0.2882
 4233TIP3   OH212662   2.042   1.052   3.705 -0.3325  0.1748  0.8813
 4233TIP3    H112663   1.981   1.040   3.632  1.2791 -0.6891 -0.4176
 4233TIP3    H212664   2.091   1.131   3.682  0.5185 -0.3769  0.7252
 4234TIP3   OH212665   3.762   4.764   1.170  0.6001 -0.1188  0.0505
 4234TIP3    H112666   3.720   4.684   1.139  0.4491  0.2032 -0.5865
 4234TIP3    H212667   3.790   4.744   1.259 -0.4673 -0.5021  0.3076
 4235TIP3   OH212668   3.056   2.236   2.867  0.2174 -0.4227  0.1857
 4235TIP3    H112669   3.118   2.292   2.820 -0.1621  0.0374  0.2246
 4235TIP3    H212670   3.087   2.236   2.957  0.4481 -0.6085  0.1100
 4236TIP3   OH212671   6.812   5.259   2.619  0.0363  0.5129  0.6010
 4236TIP3    H112672   6.897   5.303   2.624 -0.4814  1.5319  0.8361
 4236TIP3    H212673   6.827   5.173   2.658  0.9974  0.6124  0.4798
 4237TIP3   OH212674   0.970   5.039   0.598 -0.4333  0.7657 -0.5492
 4237TIP3    H112675   1.066   5.044   0.608 -0.5247  0.2089  0.9200
 4237TIP3    H212676   0.940   5.128   0.616 -0.2536  0.7205 -0.0023
 4238TIP3   OH212677   3.856   6.636   5.630 -0.2640 -0.4892  0.2187
 4238TIP3    H112678   3.912   6.603   5.560  1.3277  1.7931  0.2939
 4238TIP3    H212679   3.894   6.602   5.711  1.2362  1.1635  0.2818
 4239TIP3   OH212680   4.730   1.272   2.391 -0.2972  0.5075  0.0919
 4239TIP3    H112681   4.685   1.237   2.314  0.2109  1.2648 -0.5695
 4239TIP3    H212682   4.745   1.364   2.370  1.3637  0.3322  0.3619
 4240TIP3   OH212683   4.963   3.337   4.230 -0.1432 -0.8826  0.4732
 4240TIP3    H112684   4.954   3.380   4.145 -0.5830 -1.4537  0.2202
 4240TIP3    H212685   5.043   3.285   4.223  0.0077 -0.6597  0.5328
 4241TIP3   OH212686   2.602   0.479   5.020  0.1158 -0.5033  0.0334
 4241TIP3    H112687   2.577   0.424   4.945 -0.7954 -1.5357  1.0611
 4241TIP3    H212688   2.697   0.470   5.025 -0.0417 -2.2213  0.3370
 4242TIP3   OH212689   3.044   5.562   2.988 -0.0454 -0.0680  0.2053
 4242TIP3    H112690   3.045   5.602   3.075  1.5747 -2.0712  1.1925
 4242TIP3    H212691   3.135   5.564   2.960 -0.0053 -2.3309  0.0054
 4243TIP3   OH212692   4.954   2.762   1.047  0.1496  0.3809 -0.4892
 4243TIP3    H112693   4.997   2.681   1.077  0.7279  0.1518 -1.8721
 4243TIP3    H212694   4.863   2.753   1.075  0.6478  0.2026  1.2036
 4244TIP3   OH212695   5.684   2.472   1.622 -0.1553 -0.2433  0.1704
 4244TIP3    H112696   5.768   2.455   1.665 -0.5486 -0.6400  0.8019
 4244TIP3    H212697   5.679   2.568   1.617  0.8031 -0.2272 -0.8491
 4245TIP3   OH212698   5.019   1.977   4.427  0.4882 -0.4538 -0.2114
 4245TIP3    H112699   5.012   2.003   4.519  1.1512 -0.0148 -0.2773
 4245TIP3    H212700   4.993   1.885   4.426  0.7424 -0.5417  0.4576
 4246TIP3   OH212701   0.977   4.048   5.252 -0.1153  0.2004  0.1575
 4246TIP3    H112702   0.929   3.989   5.193 -2.3016 -0.7302  2.6580
 4246TIP3    H212703   0.993   3.995   5.330  3.0022  1.2700  0.3499
 4247TIP3   OH212704   5.896   6.756   1.480  0.3323 -0.2252 -0.4186
 4247TIP3    H112705   5.974   6.721   1.524  0.4621 -0.5270 -0.8732
 4247TIP3    H212706   5.931   6.805   1.406  0.0930 -0.2969 -0.5795
 4248TIP3   OH212707   3.775   4.745   5.078 -0.0364 -0.1769  0.0007
 4248TIP3    H112708   3.785   4.695   5.159  0.2351 -0.8027 -0.4106
 4248TIP3    H212709   3.846   4.714   5.022 -1.3269 -1.1149 -1.1646
 4249TIP3   OH212710   0.410   0.585   4.622  0.0766 -0.5257  0.1020
 4249TIP3    H112711   0.347   0.535   4.674 -1.8621  0.9019 -0.7445
 4249TIP3    H212712   0.357   0.633   4.559  1.6493  3.0762  1.2202
 4250TIP3   OH212713   4.512   6.160   3.764 -0.2872  1.0430  0.0013
 4250TIP3    H112714   4.465   6.108   3.829  0.4772  2.6069  1.9356
 4250TIP3    H212715   4.476   6.249   3.773 -0.4311  1.2489 -2.0389
 4251TIP3   OH212716   3.447   5.908   0.830 -0.2066 -0.1870  0.2068
 4251TIP3    H112717   3.369   5.919   0.884  0.5208 -1.5414  1.6142
 4251TIP3    H212718   3.414   5.889   0.743 -1.4146  1.4621  0.2545
 4252TIP3   OH212719   4.571   3.442   1.283 -0.4669 -0.2057 -0.5728
 4252TIP3    H112720   4.648   3.482   1.324 -0.7556 -0.9630  0.7738
 4252TIP3    H212721   4.497   3.487   1.322 -0.7720 -1.5120  0.4591
 4253TIP3   OH212722   4.071   3.256   4.370 -0.3959  0.1357 -0.0432
 4253TIP3    H112723   3.978   3.243   4.390  0.1469 -1.7897  1.4872
 4253TIP3    H212724   4.116   3.187   4.418  1.6513 -0.6740 -2.8751
 4254TIP3   OH212725   3.002   4.316   4.249 -0.2427 -0.1985  0.3591
 4254TIP3    H112726   3.036   4.389   4.301 -0.5223 -0.3734  0.7983
 4254TIP3    H212727   2.928   4.352   4.201  1.0581  0.4120 -1.2833
 4255TIP3   OH212728   6.286   6.534   2.294  0.9458 -0.0541 -0.0768
 4255TIP3    H112729   6.359   6.494   2.247 -1.3545  0.4976 -4.7500
 4255TIP3    H212730   6.300   6.628   2.285 -0.2524  0.0582 -1.0888
 4256TIP3   OH212731   3.339   2.045   2.584 -0.0798  0.1298  0.5530
 4256TIP3    H112732   3.255   2.001   2.594 -0.0431  0.5310  3.8271
 4256TIP3    H212733   3.317   2.132   2.549 -0.5740 -0.8557 -1.7966
 4257TIP3   OH212734   4.732   5.843   4.759  0.3314 -0.6993  0.5442
 4257TIP3    H112735   4.694   5.857   4.845  1.8827  0.0930  1.1466
 4257TIP3    H212736   4.762   5.752   4.761 -1.6423 -1.4177 -0.0331
 4258TIP3   OH212737   0.050   4.250   2.914 -0.4511  0.4468 -0.3942
 4258TIP3    H112738   0.089   4.327   2.956  1.1829  0.8388 -2.4699
 4258TIP3    H212739  -0.012   4.286   2.850  0.6605  0.1332 -1.7017
 4259TIP3   OH212740   3.064   1.553   2.512 -0.3293  0.1147 -0.4752
 4259TIP3    H112741   3.025   1.631   2.551  1.2329  1.1332 -0.8838
 4259TIP3    H212742   3.136   1.585   2.458  1.8422 -1.7373  1.1274
 4260TIP3   OH212743   2.663   2.393   4.596  0.4079 -0.5022 -0.4222
 4260TIP3    H112744   2.664   2.401   4.500 -0.3242 -2.2786 -0.6072
 4260TIP3    H212745   2.575   2.360   4.616  0.8038 -0.8497  0.8065
 4261TIP3   OH212746   2.000   1.315   2.161  0.0343  0.8208  0.0793
 4261TIP3    H112747   2.078   1.335   2.213  0.4453 -2.5467  0.9583
 4261TIP3    H212748   1.938   1.279   2.223 -0.6938 -0.2732 -1.2236
 4262TIP3   OH212749   2.299   5.224   4.878  0.3547 -0.1455  0.1479
 4262TIP3    H112750   2.351   5.157   4.924  1.0514 -0.5080 -1.1168
 4262TIP3    H212751   2.323   5.306   4.921 -1.1493 -0.7515  2.2865
 4263TIP3   OH212752   1.642   3.160   3.022 -0.2781  0.5269 -0.1281
 4263TIP3    H112753   1.579   3.218   2.981 -0.4946  0.5923  0.2946
 4263TIP3    H212754   1.648   3.085   2.963  0.0356  0.9920 -0.6992
 4264TIP3   OH212755   4.078   3.885   3.408 -0.9007 -0.0810  0.2156
 4264TIP3    H112756   4.105   3.846   3.325 -0.1544  0.7534  0.0448
 4264TIP3    H212757   4.159   3.894   3.459 -1.2188  0.1913  0.6916
 4265TIP3   OH212758   3.442   4.519   1.695 -0.0062  0.0509  0.0352
 4265TIP3    H112759   3.517   4.464   1.714  1.0914  1.9951  1.8570
 4265TIP3    H212760   3.371   4.458   1.674  2.0155 -1.8392 -1.6833
 4266TIP3   OH212761   3.757   1.715   5.106 -0.3762 -0.4199 -0.1897
 4266TIP3    H112762   3.739   1.664   5.026  2.7094 -1.6557 -0.2510
 4266TIP3    H212763   3.818   1.660   5.155 -1.4346  0.7618  2.6075
 4267TIP3   OH212764   4.234   2.605   5.568  0.2527 -0.2010  0.2489
 4267TIP3    H112765   4.203   2.572   5.484  0.4517 -2.5449  1.0280
 4267TIP3    H212766   4.170   2.672   5.592 -1.2125 -1.2237 -0.6259
 4268TIP3   OH212767   3.593   2.501   4.804 -0.2282 -0.6082 -0.0292
 4268TIP3    H112768   3.627   2.589   4.788  0.8337 -1.2267 -1.3859
 4268TIP3    H212769   3.664   2.456   4.849 -0.5424 -0.9364  0.1436
 4269TIP3   OH212770   6.117   6.328   1.996 -0.5504  0.2125  0.2817
 4269TIP3    H112771   6.155   6.258   2.049 -0.2510  1.3914  1.6964
 4269TIP3    H212772   6.023   6.319   2.008 -0.5822 -0.6552 -0.5092
 4270TIP3   OH212773   5.708   3.875   4.810 -0.2589 -1.0929  0.2668
 4270TIP3    H112774   5.720   3.922   4.893 -0.1846  0.9086 -0.8015
 4270TIP3    H212775   5.795   3.878   4.769 -0.7839 -0.0810 -0.8265
 4271TIP3   OH212776   2.410   6.001   1.817  0.5653  0.0518 -0.3920
 4271TIP3    H112777   2.355   5.924   1.808  0.5635  0.1342 -1.1531
 4271TIP3    H212778   2.349   6.075   1.810  0.3935  0.1309  1.5272
 4272TIP3   OH212779   5.576   5.584   2.034 -1.4992 -0.3107  0.0442
 4272TIP3    H112780   5.533   5.651   1.982 -1.4612  0.2873  0.7617
 4272TIP3    H212781   5.506   5.543   2.084 -1.2543  0.8347  1.4034
 4273TIP3   OH212782   2.668   2.602   3.309 -0.0835  0.1906  0.1856
 4273TIP3    H112783   2.574   2.611   3.290 -0.1785 -1.6043 -0.2882
 4273TIP3    H212784   2.670   2.557   3.394  0.3547  0.0765  0.1125
 4274TIP3   OH212785   4.808   1.158   4.340 -0.1916 -0.4683  0.6091
 4274TIP3    H112786   4.831   1.248   4.364  0.6426 -0.1727 -1.1508
 4274TIP3    H212787   4.835   1.105   4.415 -2.0950  0.8777  2.3354
 4275TIP3   OH212788   3.352   1.669   5.544  0.0676  0.1085 -0.3528
 4275TIP3    H112789   3.276   1.716   5.510  0.1599  0.9909  0.6518
 4275TIP3    H212790   3.427   1.724   5.521  0.2770 -0.0508 -0.0558
 4276TIP3   OH212791   2.027   4.789  -0.010  0.3202  0.5788  0.2748
 4276TIP3    H112792   1.973   4.865  -0.033 -0.7280  0.0731  0.9594
 4276TIP3    H212793   2.079   4.819   0.065 -1.2127  0.2078  1.5512
 4277TIP3   OH212794   5.453   0.705   2.841  0.6427 -0.3916  0.7859
 4277TIP3    H112795   5.499   0.627   2.873  2.0668 -0.5820 -1.5313
 4277TIP3    H212796   5.506   0.778   2.873  1.4786 -0.5462 -0.1779
 4278TIP3   OH212797   3.754   6.652   0.050  0.2744 -0.0669  0.5489
 4278TIP3    H112798   3.770   6.720  -0.016 -2.3134  1.1791  1.0699
 4278TIP3    H212799   3.816   6.582   0.028 -0.2269  0.4045 -3.0240
 4279TIP3   OH212800   5.861   4.249   3.461 -0.1185 -0.1602 -0.3745
 4279TIP3    H112801   5.828   4.339   3.462  1.9925  0.7559 -2.6589
 4279TIP3    H212802   5.906   4.241   3.377 -0.3121 -3.4173 -0.2914
 4280TIP3   OH212803   0.423   4.792   3.048 -0.1815  0.4047  0.7711
 4280TIP3    H112804   0.463   4.852   2.986  0.1302 -1.4748 -0.9271
 4280TIP3    H212805   0.477   4.801   3.127  1.2527  0.6951 -0.1972
 4281TIP3   OH212806   4.067   4.879   5.758 -0.2732  0.3835 -0.3462
 4281TIP3    H112807   4.114   4.798   5.777  2.4975  1.8146 -0.5540
 4281TIP3    H212808   4.008   4.891   5.832 -0.4695 -1.5853 -0.1299
 4282TIP3   OH212809   4.097   6.569   4.508 -0.3481 -0.2994  0.5084
 4282TIP3    H112810   4.178   6.537   4.469 -0.0175  1.8333 -0.6934
 4282TIP3    H212811   4.117   6.580   4.601  1.3244  1.6923 -0.0160
 4283TIP3   OH212812   3.052   0.908   1.381  0.4873 -0.2449  0.0082
 4283TIP3    H112813   2.978   0.935   1.434  0.0542 -0.4269 -0.4985
 4283TIP3    H212814   3.034   0.943   1.294  1.0250 -0.2350 -0.1021
 4284TIP3   OH212815   7.190   6.293   1.123  0.4019  0.8503  0.3473
 4284TIP3    H112816   7.115   6.271   1.179 -0.6728  1.5967 -0.7682
 4284TIP3    H212817   7.264   6.249   1.165 -0.2691  1.7189  2.6187
 4285TIP3   OH212818   3.803   6.149   1.007  0.2640 -0.0182 -0.0840
 4285TIP3    H112819   3.818   6.071   1.060  1.4697 -0.4377 -1.0045
 4285TIP3    H212820   3.796   6.220   1.071 -1.4902 -0.9170  0.8132
 4286TIP3   OH212821   6.756   2.688   4.386 -0.0945 -0.3604 -0.4823
 4286TIP3    H112822   6.803   2.608   4.406  1.9492  1.3002  1.9457
 4286TIP3    H212823   6.694   2.699   4.458 -0.2192  0.3241 -0.6796
 4287TIP3   OH212824   2.949   5.438   0.885 -0.0050  0.6376 -0.5159
 4287TIP3    H112825   2.912   5.520   0.854 -1.7281 -0.7631 -2.4758
 4287TIP3    H212826   2.874   5.390   0.921  0.8889 -0.2197  0.2566
 4288TIP3   OH212827   7.142   2.346   5.817  0.7013 -0.0612  0.3999
 4288TIP3    H112828   7.105   2.392   5.741 -0.7313 -0.1263  1.0195
 4288TIP3    H212829   7.210   2.290   5.781  1.2743  1.2331 -0.6010
 4289TIP3   OH212830   2.180   6.346   3.832 -0.6542 -0.2422 -0.0001
 4289TIP3    H112831   2.220   6.288   3.766 -0.8872 -1.6349  1.0343
 4289TIP3    H212832   2.150   6.286   3.901 -0.7761  1.1488  1.1876
 4290TIP3   OH212833   3.467   0.658   3.641  0.0835 -0.1361 -0.1180
 4290TIP3    H112834   3.501   0.687   3.726  0.3235  1.8397 -0.8543
 4290TIP3    H212835   3.440   0.738   3.597  0.3745 -1.0782 -2.1013
 4291TIP3   OH212836   7.018   4.934   1.294  0.0419 -0.0850 -0.0954
 4291TIP3    H112837   6.946   4.889   1.337  1.0476 -1.1490  0.5207
 4291TIP3    H212838   7.075   4.864   1.261  3.0868  0.4878  3.2486
 4292TIP3   OH212839   2.844   3.463   5.085  0.9183  0.0486  0.0965
 4292TIP3    H112840   2.781   3.508   5.141 -1.9017 -1.8513 -1.3149
 4292TIP3    H212841   2.858   3.524   5.012 -0.2792  0.0246 -0.1784
 4293TIP3   OH212842   5.853   3.445   4.460  0.3438  0.4406 -0.8072
 4293TIP3    H112843   5.770   3.401   4.476  0.4558  0.5320  0.0953
 4293TIP3    H212844   5.848   3.474   4.369 -0.5293  0.2823 -0.8169
 4294TIP3   OH212845   5.442   5.477   0.483 -0.0323 -0.1794  0.1631
 4294TIP3    H112846   5.411   5.398   0.527  2.5584 -0.2286  2.0703
 4294TIP3    H212847   5.361   5.524   0.460 -1.5895 -2.4016  0.6928
 4295TIP3   OH212848   6.110   1.447   0.588 -0.1201 -0.7341  0.3963
 4295TIP3    H112849   6.072   1.453   0.675  2.5539 -1.0041  1.6804
 4295TIP3    H212850   6.112   1.353   0.569  1.8396 -0.9233  1.3271
 4296TIP3   OH212851   6.303   6.618   4.832  0.0748  0.1538 -0.2507
 4296TIP3    H112852   6.319   6.663   4.915  1.8153  0.1665 -0.5610
 4296TIP3    H212853   6.239   6.674   4.786 -0.2143  0.6062  0.6912
 4297TIP3   OH212854   0.470   2.400   2.250  0.1682 -0.1765 -0.0815
 4297TIP3    H112855   0.518   2.321   2.276 -0.0653 -0.4994 -0.6343
 4297TIP3    H212856   0.444   2.439   2.333 -2.1196 -2.1392  0.2275
 4298TIP3   OH212857   5.477   3.335   0.336  0.0635 -0.1925 -0.1113
 4298TIP3    H112858   5.527   3.259   0.364 -0.7154 -0.6063  0.1745
 4298TIP3    H212859   5.420   3.302   0.266  0.7133  0.4394 -0.9673
 4299TIP3   OH212860   4.430   6.426   0.743 -0.4110 -0.4800  0.8347
 4299TIP3    H112861   4.409   6.519   0.749 -1.4543 -0.6549  0.1241
 4299TIP3    H212862   4.526   6.423   0.733 -0.4640  0.5589 -0.0916
 4300TIP3   OH212863   6.471   3.942   3.598 -0.0290 -0.8607 -0.9803
 4300TIP3    H112864   6.508   4.009   3.656 -2.9682 -1.6776  2.1833
 4300TIP3    H212865   6.450   3.989   3.518 -1.3231  1.9595  0.8540
 4301TIP3   OH212866   4.052   5.026   3.941  0.2010 -0.2451 -0.3851
 4301TIP3    H112867   4.024   5.032   4.032  0.1049  0.5620 -0.4604
 4301TIP3    H212868   4.073   5.116   3.916  1.0666 -0.5795 -0.8997
 4302TIP3   OH212869   4.952   1.567   0.735  0.2691  0.4005  0.2559
 4302TIP3    H112870   4.962   1.615   0.653 -0.0333  1.2697  0.7219
 4302TIP3    H212871   4.866   1.526   0.729  0.0461  0.8560  0.3403
 4303TIP3   OH212872   7.082   5.940   0.650 -0.4843 -0.5896 -0.2199
 4303TIP3    H112873   7.137   5.988   0.712  0.4158 -3.1417  1.1057
 4303TIP3    H212874   7.065   6.003   0.580  1.8835  1.1494  0.6114
 4304TIP3   OH212875   5.947   3.785   4.695 -0.3902 -0.1435 -0.0603
 4304TIP3    H112876   6.017   3.833   4.650 -1.8333  0.3121 -1.9690
 4304TIP3    H212877   5.985   3.762   4.780  2.2216 -0.3113 -1.1661
 4305TIP3   OH212878   0.711   5.428   2.113 -0.6341 -0.2171 -0.1185
 4305TIP3    H112879   0.798   5.417   2.076 -0.4926 -1.8915  0.6115
 4305TIP3    H212880   0.669   5.342   2.101 -1.2031 -0.2792  1.9219
 4306TIP3   OH212881   5.646   1.691   2.215 -0.3241 -0.3511  0.5677
 4306TIP3    H112882   5.665   1.602   2.185 -1.3755 -0.3097 -0.2652
 4306TIP3    H212883   5.622   1.680   2.307 -0.3837 -0.9167  0.4902
 4307TIP3   OH212884   1.028   0.089   4.850 -0.1491 -0.0350 -0.5293
 4307TIP3    H112885   0.951   0.092   4.907 -1.4592 -0.6720 -2.1781
 4307TIP3    H212886   1.086   0.024   4.891 -0.8176 -0.0994  0.3371
 4308TIP3   OH212887   6.270   3.249   5.598 -0.2810 -0.5012 -0.2225
 4308TIP3    H112888   6.327   3.326   5.606 -1.3448  0.3062 -0.1681
 4308TIP3    H212889   6.245   3.228   5.687 -1.0995 -0.0356 -0.3297
 4309TIP3   OH212890   1.709   1.889   3.131 -0.5721  0.1030  0.0891
 4309TIP3    H112891   1.777   1.873   3.196 -0.6048 -1.3922 -0.2261
 4309TIP3    H212892   1.744   1.854   3.050 -2.1937 -1.9323  0.1838
 4310TIP3   OH212893   7.103   5.396   5.328  0.0686 -0.6567 -0.3597
 4310TIP3    H112894   7.039   5.445   5.276  0.3022 -0.9612 -0.9447
 4310TIP3    H212895   7.145   5.337   5.265  1.5268  0.1386 -0.1680
 4311TIP3   OH212896   2.122   6.190   1.063 -0.0081 -0.0910  0.3986
 4311TIP3    H112897   2.107   6.284   1.068  0.4606 -0.0338  0.8284
 4311TIP3    H212898   2.162   6.168   1.147  0.2896 -0.6008  0.1241
 4312TIP3   OH212899   1.469   4.887   2.483 -0.0422 -0.5146 -0.4801
 4312TIP3    H112900   1.499   4.974   2.509  0.1450 -0.0569 -2.1020
 4312TIP3    H212901   1.432   4.849   2.562  0.8213  0.6325  0.5068
 4313TIP3   OH212902   7.108   4.210   4.857  0.1606 -0.2606  0.4553
 4313TIP3    H112903   7.178   4.159   4.818  0.8000  0.3843  0.7346
 4313TIP3    H212904   7.043   4.218   4.788  0.9298  0.1991 -0.2280
 4314TIP3   OH212905   3.818   0.090   0.485  0.5949 -0.3488 -0.2185
 4314TIP3    H112906   3.881   0.090   0.557  1.3523 -0.8294 -0.8662
 4314TIP3    H212907   3.787  -0.000   0.481 -1.0433  0.1236  0.8503
 4315TIP3   OH212908   5.081   0.740   2.623 -0.4590  0.1275  0.6140
 4315TIP3    H112909   5.142   0.724   2.550 -1.3740  1.9871 -0.6199
 4315TIP3    H212910   5.137   0.743   2.700  1.0274  1.4813 -0.4421
 4316TIP3   OH212911   2.297   1.247   0.443  0.2602 -0.2127  0.3236
 4316TIP3    H112912   2.233   1.313   0.472  0.1020 -0.1804 -0.0910
 4316TIP3    H212913   2.370   1.255   0.505 -0.4909 -0.8292  1.3300
 4317TIP3   OH212914   2.192   2.740   0.485 -0.3212  0.1513 -0.3205
 4317TIP3    H112915   2.115   2.781   0.448  1.3473  1.9391 -2.0501
 4317TIP3    H212916   2.195   2.653   0.445 -2.2935 -0.6467  1.1076
 4318TIP3   OH212917   0.857   4.031   5.737  0.2471  0.6554 -0.3676
 4318TIP3    H112918   0.927   4.070   5.685  0.0180  1.3772 -0.1566
 4318TIP3    H212919   0.895   3.952   5.775  0.8955  0.9612 -0.3752
 4319TIP3   OH212920   0.393   0.842   2.272  0.2163 -0.3555  0.2128
 4319TIP3    H112921   0.361   0.900   2.341 -0.8620  0.9136 -1.2925
 4319TIP3    H212922   0.313   0.807   2.232  0.7778 -0.0254 -1.2402
 4320TIP3   OH212923   3.965   6.286   3.422 -0.3322 -0.3573  0.1687
 4320TIP3    H112924   3.925   6.229   3.487  0.1014 -0.8591  0.0022
 4320TIP3    H212925   4.050   6.246   3.405  1.0770  1.6529  1.8801
 4321TIP3   OH212926   6.116   3.707   3.469  0.4584 -0.3701  0.1532
 4321TIP3    H112927   6.209   3.687   3.464  0.8822  0.8243  2.1324
 4321TIP3    H212928   6.107   3.759   3.549 -2.1460 -1.8323  0.9323
 4322TIP3   OH212929   5.116   0.652   3.370  0.2216 -0.0708 -1.0846
 4322TIP3    H112930   5.187   0.589   3.379  1.9700  2.0441  1.2172
 4322TIP3    H212931   5.116   0.701   3.452 -1.9177  2.0501 -2.2104
 4323TIP3   OH212932   1.223   2.207   5.025 -0.0100  0.1149 -1.2077
 4323TIP3    H112933   1.302   2.197   5.077 -0.4290  0.2889 -0.5269
 4323TIP3    H212934   1.247   2.270   4.957 -0.1732  1.8724  0.2998
 4324TIP3   OH212935   5.402   2.866   3.294 -0.6812  0.5690 -0.5298
 4324TIP3    H112936   5.360   2.951   3.282 -2.2446  0.0621  0.9838
 4324TIP3    H212937   5.355   2.826   3.367 -0.1781 -1.7316 -1.3881
 4325TIP3   OH212938   6.770   5.189   1.805 -0.0796  0.0475  0.5898
 4325TIP3    H112939   6.783   5.269   1.856 -1.6368 -0.5561  2.0051
 4325TIP3    H212940   6.693   5.147   1.844 -1.5423 -0.3390 -2.3960
 4326TIP3   OH212941   2.612   3.265   1.843  0.3672  0.1670 -0.3942
 4326TIP3    H112942   2.699   3.290   1.814  0.6820  1.5013  1.5166
 4326TIP3    H212943   2.598   3.178   1.806  0.9305  1.4274 -3.8929
 4327TIP3   OH212944   4.685   5.469   4.993 -0.2424  0.0135 -0.0128
 4327TIP3    H112945   4.633   5.419   4.930  1.2603 -0.3025 -1.0400
 4327TIP3    H212946   4.750   5.407   5.026  1.1012  1.0148 -0.6615
 4328TIP3   OH212947   4.864   2.274   4.347  0.5647  1.1239 -0.2285
 4328TIP3    H112948   4.853   2.189   4.389  0.2798  0.8146 -0.9282
 4328TIP3    H212949   4.938   2.262   4.287  0.5157  1.3650 -0.3384
 4329TIP3   OH212950   2.421   2.226   5.120  0.0903  0.3543  0.3597
 4329TIP3    H112951   2.342   2.188   5.158 -0.4847 -1.0962 -2.0981
 4329TIP3    H212952   2.476   2.150   5.100  2.1706  1.3256  1.9818
 4330TIP3   OH212953   3.615   2.410   4.333 -0.1390  0.1347 -0.0626
 4330TIP3    H112954   3.627   2.328   4.285 -0.1300 -0.2988  0.6726
 4330TIP3    H212955   3.625   2.478   4.266  4.2507 -0.2009 -0.0426
 4331TIP3   OH212956   0.666   4.082   1.746 -0.0230 -0.3020 -0.5306
 4331TIP3    H112957   0.710   4.095   1.830  0.7454 -1.9611 -0.6245
 4331TIP3    H212958   0.725   4.120   1.682  0.6719 -1.3103 -0.5240
 4332TIP3   OH212959   0.191   1.657   3.504 -0.7299 -0.5234  0.0413
 4332TIP3    H112960   0.130   1.692   3.439  0.4420 -0.8140 -1.2611
 4332TIP3    H212961   0.238   1.734   3.537  0.6576 -0.5933 -1.5868
 4333TIP3   OH212962   0.399   4.674   2.549  0.4708 -0.5747  0.7545
 4333TIP3    H112963   0.372   4.765   2.565  1.7580 -0.4230  2.2557
 4333TIP3    H212964   0.326   4.621   2.582 -0.2321 -0.1135 -0.0107
 4334TIP3   OH212965   2.142   5.043   2.412  0.2255 -0.0826  0.6734
 4334TIP3    H112966   2.126   5.066   2.503 -1.5012 -1.5744  0.7947
 4334TIP3    H212967   2.103   5.115   2.362  0.2784  0.2404  1.0917
 4335TIP3   OH212968   5.078   1.871   2.191  0.2048 -0.8270  0.1822
 4335TIP3    H112969   5.103   1.791   2.145 -2.6162 -0.1487 -2.9035
 4335TIP3    H212970   5.038   1.840   2.272 -1.0682 -2.6545 -1.0486
 4336TIP3   OH212971   1.725   5.377   2.601  0.3670  0.3340 -0.5381
 4336TIP3    H112972   1.666   5.451   2.611  1.2735  0.8954  0.9891
 4336TIP3    H212973   1.787   5.404   2.533  0.2483  0.6825 -0.5080
 4337TIP3   OH212974   6.454   1.652   5.242  0.3850 -0.3234  0.0508
 4337TIP3    H112975   6.467   1.558   5.235  1.4433 -0.2650  0.9760
 4337TIP3    H212976   6.542   1.689   5.242  0.0590  0.5173  1.5019
 4338TIP3   OH212977   3.660   5.372   1.971  0.1329  0.1401 -0.0224
 4338TIP3    H112978   3.569   5.404   1.973 -0.0742 -0.4650  0.4005
 4338TIP3    H212979   3.710   5.446   1.939 -0.6657  0.1357 -1.3829
 4339TIP3   OH212980   5.290   2.017   5.244 -0.4036 -0.2096 -0.0496
 4339TIP3    H112981   5.377   1.994   5.276 -0.0881  1.5155  0.4655
 4339TIP3    H212982   5.306   2.083   5.176 -1.2672 -0.7266 -0.7848
 4340TIP3   OH212983   0.429   1.753   0.048  0.4491  0.1937  0.2245
 4340TIP3    H112984   0.381   1.732  -0.032  0.6763 -2.1160  0.6120
 4340TIP3    H212985   0.448   1.846   0.041 -0.8159  0.3629 -1.7048
 4341TIP3   OH212986   4.879   4.212   0.639  0.2728 -0.2103  0.4655
 4341TIP3    H112987   4.843   4.291   0.599  0.5253 -0.1526  0.3469
 4341TIP3    H212988   4.818   4.143   0.615  1.3252 -0.5153 -1.5414
 4342TIP3   OH212989   4.483   2.081   3.926  0.1208 -0.4731 -0.8071
 4342TIP3    H112990   4.522   2.141   3.862  0.3529  0.4187  0.1558
 4342TIP3    H212991   4.555   2.024   3.954  0.2593 -0.1733 -0.5558
 4343TIP3   OH212992   5.987   3.566   2.060  0.5939  0.5049 -0.0527
 4343TIP3    H112993   5.951   3.485   2.098  0.2606  0.6942  0.0348
 4343TIP3    H212994   6.009   3.620   2.135  1.8884  0.0477 -0.0708
 4344TIP3   OH212995   7.034   1.147   4.868 -0.1830 -0.2299 -0.2037
 4344TIP3    H112996   7.014   1.081   4.934 -0.9779 -0.6991 -0.8933
 4344TIP3    H212997   7.128   1.140   4.856 -0.0908 -0.4510  0.5481
 4345TIP3   OH212998   6.834   1.375   3.435  0.7238  0.6598 -0.5642
 4345TIP3    H112999   6.909   1.345   3.384  1.0369  0.5510 -0.0422
 4345TIP3    H213000   6.760   1.370   3.374  0.9188 -0.3668 -0.7243
 4346TIP3   OH213001   5.851   6.302   1.985 -0.0514  0.3682  0.4007
 4346TIP3    H113002   5.842   6.232   1.920 -0.3096  0.6682  0.1142
 4346TIP3    H213003   5.802   6.376   1.948  3.3667  2.0684 -1.1789
 4347TIP3   OH213004   0.270   2.002   4.311  0.2290  0.1809 -0.6307
 4347TIP3    H113005   0.275   1.967   4.223 -1.0545  2.6705 -1.7982
 4347TIP3    H213006   0.308   1.934   4.367  1.8991 -1.0945 -3.1660
 4348TIP3   OH213007   1.827   5.257   4.550  0.7008  0.2939  0.0133
 4348TIP3    H113008   1.759   5.190   4.544  0.0721  0.9479 -0.3111
 4348TIP3    H213009   1.786   5.336   4.516  1.7427  0.6125 -0.5502
 4349TIP3   OH213010   0.326   0.640   1.939 -0.9208  0.2869 -0.2575
 4349TIP3    H113011   0.307   0.554   1.901 -0.2950 -0.8956  1.9419
 4349TIP3    H213012   0.335   0.624   2.033  0.0928  2.6122  0.1279
 4350TIP3   OH213013   4.532   5.079   1.391 -0.1898  0.4837  0.4053
 4350TIP3    H113014   4.519   5.144   1.323  0.8923  0.7078  0.4015
 4350TIP3    H213015   4.569   5.003   1.346 -3.0582 -0.8674  0.0867
 4351TIP3   OH213016   1.567   0.589   0.718  0.8732  0.0428  0.2013
 4351TIP3    H113017   1.524   0.594   0.803 -0.5310  0.0001 -0.4760
 4351TIP3    H213018   1.644   0.646   0.727  0.9471 -0.2291  1.5833
 4352TIP3   OH213019   4.430   2.666   4.706 -0.3413 -0.0932  0.5750
 4352TIP3    H113020   4.335   2.660   4.697 -0.2148 -2.3283  0.2857
 4352TIP3    H213021   4.456   2.733   4.642 -1.8256  1.9236  1.9286
 4353TIP3   OH213022   7.077   0.213   4.219 -0.5130 -0.2221  0.5215
 4353TIP3    H113023   7.023   0.258   4.283  0.7429  0.5019  1.1030
 4353TIP3    H213024   7.109   0.135   4.265 -0.8993 -0.5509  0.2403
 4354TIP3   OH213025   3.640   2.273   2.242  0.5850  0.3747  0.3814
 4354TIP3    H113026   3.618   2.179   2.241  3.2599 -0.3552  1.0971
 4354TIP3    H213027   3.557   2.317   2.227 -0.8450 -2.1054  0.4058
 4355TIP3   OH213028   3.168   4.225   3.488 -0.1843 -0.4460 -0.1995
 4355TIP3    H113029   3.081   4.192   3.511  0.0369 -2.1807 -1.6963
 4355TIP3    H213030   3.227   4.178   3.547  0.0177 -1.9098 -1.5143
 4356TIP3   OH213031   5.057   6.622   0.217  0.1745  0.2089  0.0695
 4356TIP3    H113032   5.062   6.623   0.312  1.1246 -1.2824  0.0741
 4356TIP3    H213033   5.141   6.583   0.189  1.2795  3.3751 -1.5166
 4357TIP3   OH213034   1.459   6.002   4.039  0.5378  0.0636  0.2325
 4357TIP3    H113035   1.423   6.075   4.089  0.2271  0.4925 -0.5830
 4357TIP3    H213036   1.468   6.036   3.950  0.1482 -0.9642 -0.2240
 4358TIP3   OH213037   0.760   3.786   0.791 -0.2936  0.3075  0.1446
 4358TIP3    H113038   0.690   3.736   0.749 -0.0686 -1.1091  1.3802
 4358TIP3    H213039   0.715   3.838   0.858 -0.1668 -0.8997  1.2067
 4359TIP3   OH213040   3.191   0.168   0.909  0.1715 -0.2222 -0.1587
 4359TIP3    H113041   3.248   0.224   0.857  0.7309  0.1525  0.8378
 4359TIP3    H213042   3.102   0.200   0.889  0.3303 -0.4415 -1.2789
 4360TIP3   OH213043   2.975   5.268   3.534  0.1427  0.2656  0.5053
 4360TIP3    H113044   3.031   5.306   3.466 -1.0067  0.7552 -0.2234
 4360TIP3    H213045   2.887   5.268   3.494 -0.1566 -1.8423  1.0244
 4361TIP3   OH213046   3.198   2.542   5.510  0.2028 -0.5468 -0.4312
 4361TIP3    H113047   3.186   2.460   5.558  0.2277 -0.0657  0.4005
 4361TIP3    H213048   3.111   2.563   5.476  0.1372 -0.7626 -0.3986
 4362TIP3   OH213049   4.972   1.838   4.112 -0.2207  0.5662  0.0980
 4362TIP3    H113050   4.958   1.750   4.147 -2.7678  0.2891 -1.3552
 4362TIP3    H213051   5.067   1.847   4.108  0.1812 -2.6301 -0.8523
 4363TIP3   OH213052   1.328   3.343   0.060 -0.2639 -0.6629 -0.4026
 4363TIP3    H113053   1.302   3.321   0.149  0.4522  0.6531  0.1595
 4363TIP3    H213054   1.416   3.307   0.051 -0.1161 -0.3152 -0.3746
 4364TIP3   OH213055   4.461   5.212   2.262  0.1140  0.3781  0.0030
 4364TIP3    H113056   4.374   5.233   2.295 -0.3103  0.1309 -0.9301
 4364TIP3    H213057   4.490   5.137   2.314 -0.4795  0.0886 -0.0851
 4365TIP3   OH213058   6.461   2.539   3.925 -0.0757 -0.1681 -0.2735
 4365TIP3    H113059   6.532   2.533   3.862  0.6995 -0.1810  0.5812
 4365TIP3    H213060   6.421   2.451   3.924  2.5481 -1.5668  2.1834
 4366TIP3   OH213061   2.730   1.266   3.065 -0.2042 -0.1141  0.1524
 4366TIP3    H113062   2.823   1.245   3.058 -0.0976  0.3956 -0.0476
 4366TIP3    H213063   2.694   1.247   2.979 -0.6748 -2.0475  0.7286
 4367TIP3   OH213064   3.695   4.586   3.273  0.1032 -0.1142  0.3099
 4367TIP3    H113065   3.738   4.632   3.345  0.6909 -1.2390  0.6923
 4367TIP3    H213066   3.764   4.571   3.209  0.1308 -1.2562  0.5914
 4368TIP3   OH213067   3.191   4.972   0.353  0.5285  0.5432  0.2948
 4368TIP3    H113068   3.225   4.904   0.295 -0.5993  0.8178 -0.7344
 4368TIP3    H213069   3.208   5.054   0.307  0.1598  0.8190  0.6407
 4369TIP3   OH213070   0.553   4.650   0.356  0.2604 -0.5448 -0.1581
 4369TIP3    H113071   0.633   4.597   0.348  0.3997 -0.4257  0.3674
 4369TIP3    H213072   0.579   4.724   0.411 -0.0967 -0.2604 -0.3657
 4370TIP3   OH213073   4.819   4.582   4.537  0.4776 -0.2789  0.3548
 4370TIP3    H113074   4.913   4.563   4.538  0.7073  0.6999 -0.8591
 4370TIP3    H213075   4.778   4.501   4.507  1.0325 -0.3620 -0.1828
 4371TIP3   OH213076   1.575   1.104   0.713 -0.0504  0.3971 -0.0302
 4371TIP3    H113077   1.598   1.159   0.788 -0.4156 -0.2659  0.5827
 4371TIP3    H213078   1.581   1.014   0.747  0.4750  0.0623 -0.9954
 4372TIP3   OH213079   6.992   1.113   3.525 -0.1094  0.4887 -0.9655
 4372TIP3    H113080   6.973   1.036   3.472  0.9817  0.5353 -1.4426
 4372TIP3    H213081   7.085   1.131   3.510  0.4824 -0.0292  1.6664
 4373TIP3   OH213082   4.053   0.945   2.244 -0.4142  0.4697  0.2299
 4373TIP3    H113083   4.014   0.884   2.307 -2.2560  0.4043 -0.9198
 4373TIP3    H213084   4.033   0.909   2.158 -0.9853  2.3379 -0.4795
 4374TIP3   OH213085   4.093   2.780   3.197  0.3006 -0.0916  0.4637
 4374TIP3    H113086   4.043   2.861   3.205  0.1924 -0.1340  0.2104
 4374TIP3    H213087   4.102   2.749   3.288 -0.3086 -0.1884  0.4969
 4375TIP3   OH213088   0.575   2.412   0.746 -0.7653  0.4151  0.1752
 4375TIP3    H113089   0.665   2.416   0.714 -0.5869  1.6979  0.7894
 4375TIP3    H213090   0.577   2.344   0.813 -0.4252 -0.0765 -0.3222
 4376TIP3   OH213091   5.712   2.702   0.328  0.3435  0.3976 -0.0961
 4376TIP3    H113092   5.688   2.774   0.269  0.1655  0.4314  0.0166
 4376TIP3    H213093   5.793   2.732   0.370  0.2372  0.5571 -0.0057
 4377TIP3   OH213094   2.054   5.894   2.436 -0.1456 -0.3234 -0.7884
 4377TIP3    H113095   2.150   5.887   2.430  0.0118 -2.4277  2.1552
 4377TIP3    H213096   2.034   5.878   2.528 -3.3590  0.3086 -1.2638
 4378TIP3   OH213097   4.936   6.293   1.958  0.5098 -0.5960  0.0644
 4378TIP3    H113098   5.006   6.232   1.981  0.3986 -0.0978  1.9002
 4378TIP3    H213099   4.904   6.325   2.043 -0.2612  1.0734 -0.8230
 4379TIP3   OH213100   3.487   1.768   4.064 -0.0563 -0.0135 -0.6543
 4379TIP3    H113101   3.402   1.724   4.067  0.0126 -0.1291 -0.2863
 4379TIP3    H213102   3.513   1.765   3.972  0.8397 -2.4628 -0.4056
 4380TIP3   OH213103   3.850   4.894   1.801  0.2065 -0.4615 -0.2439
 4380TIP3    H113104   3.783   4.830   1.777 -0.9432  0.1675  1.1477
 4380TIP3    H213105   3.805   4.955   1.860  1.4323  1.2712 -1.0236
 4381TIP3   OH213106   1.653   2.551   3.465 -0.1534 -0.1393  0.0646
 4381TIP3    H113107   1.661   2.496   3.386  0.7983  0.2124 -0.0994
 4381TIP3    H213108   1.588   2.506   3.519  0.0301 -1.0086 -0.4169
 4382TIP3   OH213109   3.210   0.583   3.852  0.1472  0.0469  0.4413
 4382TIP3    H113110   3.206   0.490   3.874 -0.5624  0.3603  1.7289
 4382TIP3    H213111   3.301   0.607   3.868  0.0147 -0.1116  1.4673
 4383TIP3   OH213112   0.459   2.534   1.044  0.1290 -0.5406  0.6244
 4383TIP3    H113113   0.373   2.495   1.028 -0.6849  1.6173 -0.8463
 4383TIP3    H213114   0.466   2.603   0.978  0.5224  3.1298  4.0852
 4384TIP3   OH213115   4.011   6.500   1.843 -0.1489 -0.5893  0.7315
 4384TIP3    H113116   4.101   6.468   1.831 -0.7196 -1.7610 -0.6268
 4384TIP3    H213117   3.960   6.421   1.862 -1.3360 -0.3559 -1.2104
 4385TIP3   OH213118   2.808   2.245   0.611  0.2516 -0.2436 -0.3475
 4385TIP3    H113119   2.823   2.235   0.517  2.1691 -0.9548 -0.0223
 4385TIP3    H213120   2.764   2.163   0.636 -1.0280  0.2982 -0.7226
 4386TIP3   OH213121   3.655   6.222   4.172 -0.2229  0.5537 -0.0030
 4386TIP3    H113122   3.605   6.167   4.232  0.4950 -1.1160 -0.8707
 4386TIP3    H213123   3.595   6.292   4.148 -0.9109  0.6007  1.7165
 4387TIP3   OH213124   6.933   2.102   4.782 -0.0233  0.1636  0.1759
 4387TIP3    H113125   6.971   2.067   4.862  0.3603  0.1698 -0.0011
 4387TIP3    H213126   6.935   2.029   4.720  2.5832  0.9889 -0.8166
 4388TIP3   OH213127   5.378   2.576   5.722 -0.0610  0.4206  0.0139
 4388TIP3    H113128   5.450   2.559   5.662  0.1147 -0.1530  0.3870
 4388TIP3    H213129   5.301   2.587   5.665 -0.4400 -2.7302 -0.2507
 4389TIP3   OH213130   5.370   6.219   5.444  0.2851  0.2960  0.6024
 4389TIP3    H113131   5.333   6.177   5.366 -0.3075  0.3236  0.8584
 4389TIP3    H213132   5.293   6.250   5.492  0.6173 -0.1403  1.4327
 4390TIP3   OH213133   6.650   6.367   3.183  0.3810 -0.0117 -0.1661
 4390TIP3    H113134   6.564   6.353   3.144  0.6817 -0.8632 -0.5447
 4390TIP3    H213135   6.712   6.350   3.113  0.9057 -0.8716  0.4775
 4391TIP3   OH213136   0.558   2.940   3.794  0.0621 -0.1786  0.7499
 4391TIP3    H113137   0.624   2.924   3.727  0.2735  0.1780  0.8672
 4391TIP3    H213138   0.579   2.877   3.863  0.8279  0.4994  1.1678
 4392TIP3   OH213139   6.790   2.426   4.511 -0.4667 -0.1258 -0.0674
 4392TIP3    H113140   6.808   2.355   4.450  1.3020  1.3784 -1.4152
 4392TIP3    H213141   6.770   2.383   4.594 -0.9205 -2.1835 -1.1793
 4393TIP3   OH213142   0.193   2.724   3.477  0.7751 -0.2296  0.4804
 4393TIP3    H113143   0.245   2.787   3.529  1.0814 -1.2411  1.4301
 4393TIP3    H213144   0.236   2.640   3.492  0.1255 -0.7429 -0.4658
 4394TIP3   OH213145   2.624   3.037   0.612  0.2919 -0.1897  0.5345
 4394TIP3    H113146   2.579   2.965   0.567 -0.7362 -0.1853  1.5126
 4394TIP3    H213147   2.589   3.035   0.701  1.5537  0.4256  1.0642
 4395TIP3   OH213148   2.018   1.210   1.885  0.3009  0.0958 -0.1678
 4395TIP3    H113149   2.006   1.294   1.840 -2.6378 -0.9635 -1.6424
 4395TIP3    H213150   1.975   1.221   1.970 -0.2542  0.0862 -0.4375
 4396TIP3   OH213151   2.808   1.340   1.193 -0.3219  0.2164  0.1566
 4396TIP3    H113152   2.749   1.290   1.136  0.7134 -0.8531 -0.0275
 4396TIP3    H213153   2.773   1.326   1.281 -0.6589  0.0468 -0.0021
 4397TIP3   OH213154   6.082   5.598   4.548  0.1412 -0.5231 -0.2698
 4397TIP3    H113155   5.987   5.597   4.562  0.0644 -0.8772 -0.8115
 4397TIP3    H213156   6.100   5.686   4.516  0.4455  0.6608  2.7988
 4398TIP3   OH213157   2.175   5.996   1.599  0.7118  0.0958 -0.4169
 4398TIP3    H113158   2.094   5.974   1.551  0.5329 -1.1245  0.3991
 4398TIP3    H213159   2.144   6.035   1.680  0.8614 -1.5165  0.4601
 4399TIP3   OH213160   6.977   5.721   5.676 -0.1558  0.6709  0.4523
 4399TIP3    H113161   6.932   5.640   5.699 -3.5180  1.7096 -1.7612
 4399TIP3    H213162   7.036   5.696   5.604  1.1665 -0.2758  1.8078
 4400TIP3   OH213163   3.302   2.175   4.759  0.0969  0.0262 -0.0187
 4400TIP3    H113164   3.235   2.201   4.696 -0.6952  1.3489  1.3072
 4400TIP3    H213165   3.330   2.257   4.800  2.7621 -0.4541 -0.7054
 4401TIP3   OH213166   3.719   0.293   0.119 -0.2043 -0.2101 -0.3548
 4401TIP3    H113167   3.744   0.358   0.053  0.3164  1.3005  1.2440
 4401TIP3    H213168   3.802   0.255   0.148  0.3824  3.2168  3.3633
 4402TIP3   OH213169   3.281   6.765   1.185 -0.1476  0.1854  0.5835
 4402TIP3    H113170   3.202   6.776   1.133  0.2844  1.8110  0.2254
 4402TIP3    H213171   3.280   6.837   1.248  0.8134 -0.0421  0.8893
 4403TIP3   OH213172   0.096   3.715   4.871 -0.2207 -0.3662  0.6906
 4403TIP3    H113173   0.074   3.695   4.962 -1.8373  1.5543  0.7819
 4403TIP3    H213174   0.038   3.659   4.820  0.5971 -1.3501  0.7988
 4404TIP3   OH213175   6.105   0.301   2.220  0.3260  0.2306  0.0738
 4404TIP3    H113176   6.048   0.242   2.171  1.3039 -0.5399 -0.1675
 4404TIP3    H213177   6.189   0.297   2.173  0.7936  0.7674  0.8519
 4405TIP3   OH213178   6.362   4.989   0.119  0.4634 -0.0169 -0.3829
 4405TIP3    H113179   6.399   5.077   0.124  0.6524  0.0730 -2.3795
 4405TIP3    H213180   6.334   4.969   0.208  0.8580  1.8618  0.2032
 4406TIP3   OH213181   2.218   5.759   0.777  0.3337  0.4816  0.4712
 4406TIP3    H113182   2.180   5.699   0.842  1.2461 -0.8574 -0.1674
 4406TIP3    H213183   2.217   5.844   0.820  0.7562 -0.3237  2.1940
 4407TIP3   OH213184   6.761   6.374   2.080  0.4896  0.0951 -0.8472
 4407TIP3    H113185   6.786   6.395   1.990 -1.1033 -0.3142 -1.4141
 4407TIP3    H213186   6.798   6.288   2.096  0.6443  0.1005 -1.1678
 4408TIP3   OH213187   3.772   5.330   5.202  0.7003 -0.0129 -0.1071
 4408TIP3    H113188   3.788   5.264   5.135  1.8880 -0.1577  0.3056
 4408TIP3    H213189   3.767   5.280   5.284  1.7418  0.4064  0.2231
 4409TIP3   OH213190   0.811   3.221   2.850  0.2099  0.1779 -0.0859
 4409TIP3    H113191   0.796   3.243   2.758  2.0001 -0.0349 -0.4576
 4409TIP3    H213192   0.831   3.128   2.850 -0.5694 -0.0055  0.6389
 4410TIP3   OH213193   3.466   2.811   5.079  0.7579 -0.1101  0.3133
 4410TIP3    H113194   3.468   2.764   5.162  1.4993 -0.6145  0.0206
 4410TIP3    H213195   3.386   2.781   5.036  0.7373 -0.3775  0.5391
 4411TIP3   OH213196   2.988   5.489   1.829 -0.0805 -0.2333 -0.0234
 4411TIP3    H113197   2.976   5.552   1.899 -1.3966  1.0765 -1.3524
 4411TIP3    H213198   3.004   5.542   1.751 -0.0983 -1.5737 -0.9723
 4412TIP3   OH213199   0.198   1.547   4.035  0.1596 -0.0331 -0.0729
 4412TIP3    H113200   0.159   1.612   4.093 -2.5582 -0.5756 -1.0907
 4412TIP3    H213201   0.224   1.596   3.958  0.2147  0.1734  0.0772
 4413TIP3   OH213202   6.072   5.253   0.184  0.7462  0.4139 -0.1329
 4413TIP3    H113203   6.160   5.266   0.220  0.7492  1.5471 -0.5112
 4413TIP3    H213204   6.024   5.206   0.253  2.4084 -2.8087 -0.9805
 4414TIP3   OH213205   2.328   4.553   5.312 -0.1259  0.0706 -0.2242
 4414TIP3    H113206   2.330   4.499   5.391 -0.3780 -0.8251 -0.8121
 4414TIP3    H213207   2.377   4.631   5.335 -2.8923  1.3357  1.8837
 4415TIP3   OH213208   0.474   4.426   3.982 -0.3529  0.1871  0.0014
 4415TIP3    H113209   0.408   4.460   4.043  2.0227  1.8386  1.8395
 4415TIP3    H213210   0.506   4.346   4.024  1.1267  1.2049  0.9053
 4416TIP3   OH213211   1.908   1.651   4.663  0.4863  0.1167  0.0795
 4416TIP3    H113212   1.900   1.671   4.569  0.7015  1.1573  0.2793
 4416TIP3    H213213   1.889   1.557   4.668 -0.5020  0.2465 -0.8797
 4417TIP3   OH213214   4.904   5.476   3.622 -0.2686 -0.0006  0.2154
 4417TIP3    H113215   4.998   5.496   3.629  0.1071 -1.3095 -0.7522
 4417TIP3    H213216   4.869   5.497   3.708  0.2180  3.7901 -0.3277
 4418TIP3   OH213217   6.843   2.790   4.721  0.1470 -0.1757  0.6019
 4418TIP3    H113218   6.924   2.744   4.703  0.3058  0.4756 -0.4120
 4418TIP3    H213219   6.840   2.860   4.656 -0.9896  0.1076  0.9374
 4419TIP3   OH213220   3.260   2.888   3.609  0.1512  0.1876  0.6750
 4419TIP3    H113221   3.266   2.927   3.521 -0.4434  1.4435  1.1740
 4419TIP3    H213222   3.324   2.936   3.661 -0.3867  0.3025  1.2373
 4420TIP3   OH213223   1.561   6.017   4.845  0.0219 -0.0720 -0.0099
 4420TIP3    H113224   1.517   5.991   4.926 -1.1891 -0.1002 -0.6602
 4420TIP3    H213225   1.593   5.935   4.808  3.4790  0.1619  1.9723
 4421TIP3   OH213226   4.472   1.320   4.784  0.3839 -0.2663 -0.4238
 4421TIP3    H113227   4.377   1.319   4.778  0.3077  2.0277 -0.5677
 4421TIP3    H213228   4.490   1.334   4.877  0.5488  0.1463 -0.5151
 4422TIP3   OH213229   3.138   0.605   0.066 -0.3062 -0.4427  0.4449
 4422TIP3    H113230   3.199   0.678   0.076 -1.0917  0.1724  0.8783
 4422TIP3    H213231   3.130   0.568   0.154 -2.1963  0.8533  0.8881
 4423TIP3   OH213232   1.836   2.246   2.243 -0.4036  0.2217 -0.1018
 4423TIP3    H113233   1.796   2.333   2.247 -0.1766  0.3463 -0.5166
 4423TIP3    H213234   1.799   2.199   2.318 -0.6740  0.6127  0.0107
 4424TIP3   OH213235   4.567   0.251   4.025 -0.2468 -0.2917 -0.4258
 4424TIP3    H113236   4.513   0.260   4.103 -0.8669 -0.8127 -0.7862
 4424TIP3    H213237   4.657   0.258   4.057 -0.4487 -1.5695  0.4989
 4425TIP3   OH213238   4.484   3.058   4.153 -0.4618 -0.3454 -0.1095
 4425TIP3    H113239   4.485   2.965   4.176  0.9340 -0.5099 -0.7437
 4425TIP3    H213240   4.438   3.100   4.225  1.6595 -1.1394  1.8110
 4426TIP3   OH213241   6.110   3.455   3.982 -0.3237 -0.4426  0.5730
 4426TIP3    H113242   6.127   3.548   3.970 -1.1690 -0.0450  2.1197
 4426TIP3    H213243   6.024   3.440   3.943 -0.8309 -0.2326  1.5636
 4427TIP3   OH213244   1.159   4.458   5.435 -0.8713 -0.1677  0.0637
 4427TIP3    H113245   1.170   4.527   5.500  0.0612  1.2215 -1.5071
 4427TIP3    H213246   1.241   4.409   5.439 -0.8893 -0.1986  0.0550
 4428TIP3   OH213247   3.017   6.220   5.206  0.2281  0.0692 -0.5537
 4428TIP3    H113248   2.994   6.291   5.147  1.6802  0.6361 -0.4772
 4428TIP3    H213249   3.065   6.263   5.277  0.8902 -0.9512 -0.3669
 4429TIP3   OH213250   2.786   0.599   0.665  0.1473 -0.3077 -0.3278
 4429TIP3    H113251   2.847   0.602   0.739 -2.9311  0.3216  2.3790
 4429TIP3    H213252   2.794   0.510   0.631  0.6611 -1.0791  1.6937
 4430TIP3   OH213253   5.059   4.869   3.436 -0.0920 -0.5713 -0.7143
 4430TIP3    H113254   5.076   4.835   3.349 -0.1312  0.7835 -1.2786
 4430TIP3    H213255   4.964   4.883   3.439  0.0065  0.1325 -0.7494
 4431TIP3   OH213256   3.595   5.617   0.426 -0.1709  0.3795 -0.2551
 4431TIP3    H113257   3.572   5.693   0.479 -2.3073  0.8440 -1.7140
 4431TIP3    H213258   3.655   5.651   0.359 -0.6487  0.6545 -0.5444
 4432TIP3   OH213259   5.403   6.596   2.332  0.0446 -0.0631  0.4568
 4432TIP3    H113260   5.461   6.581   2.257 -1.2577  2.0988 -1.0862
 4432TIP3    H213261   5.462   6.623   2.402  1.0150  1.8247 -0.9909
 4433TIP3   OH213262   6.370   4.987   1.286  0.1151 -0.3810  0.3728
 4433TIP3    H113263   6.324   5.012   1.366  0.2992  0.5549  0.1981
 4433TIP3    H213264   6.458   4.963   1.315  0.3381  0.4467  0.4047
 4434TIP3   OH213265   2.802  -0.010   2.373  0.3382 -0.0595  0.2326
 4434TIP3    H113266   2.862  -0.019   2.446  0.2925 -2.1351  0.0632
 4434TIP3    H213267   2.854   0.034   2.305  1.0270 -0.0273  0.7682
 4435TIP3   OH213268   2.337   4.489   4.259  0.4967 -0.3296 -0.1018
 4435TIP3    H113269   2.266   4.434   4.224 -0.8636  1.4710 -0.3437
 4435TIP3    H213270   2.303   4.521   4.343  0.8367  0.8708 -0.4069
 4436TIP3   OH213271   3.814   4.050   0.587  0.2828  0.3256 -0.2203
 4436TIP3    H113272   3.727   4.046   0.626 -0.2552  0.1253 -1.4110
 4436TIP3    H213273   3.803   4.012   0.500  1.4069  0.9651 -0.6607
 4437TIP3   OH213274   3.289   5.223   0.639 -0.4192  0.2858 -0.2742
 4437TIP3    H113275   3.286   5.130   0.662 -0.8805  0.8381  2.1214
 4437TIP3    H213276   3.245   5.268   0.712 -0.8587  2.3423 -1.7024
 4438TIP3   OH213277   2.231   0.312   0.989  0.1763  0.3744 -0.8903
 4438TIP3    H113278   2.259   0.223   0.967  0.8652  0.1469  0.7600
 4438TIP3    H213279   2.174   0.338   0.916 -1.7965 -2.2476 -0.4261
 4439TIP3   OH213280   1.681   3.189   5.645 -0.0958  0.1280  0.7962
 4439TIP3    H113281   1.672   3.284   5.637 -1.1406 -0.0697 -1.3277
 4439TIP3    H213282   1.649   3.169   5.733 -0.0553  1.7195  1.2102
 4440TIP3   OH213283   4.569   6.493   2.590  0.0563  0.1139  0.2961
 4440TIP3    H113284   4.487   6.447   2.608  1.0088 -1.1094  1.8046
 4440TIP3    H213285   4.637   6.439   2.633  1.4780  1.8257  0.3249
 4441TIP3   OH213286   3.508   6.559   3.414 -0.0227 -0.3244 -0.2487
 4441TIP3    H113287   3.430   6.507   3.436  0.5886 -1.0323  0.3284
 4441TIP3    H213288   3.576   6.494   3.396  0.6689  0.2734  0.1345
 4442TIP3   OH213289   3.767   1.835   3.660 -0.2272  0.0144 -0.3690
 4442TIP3    H113290   3.819   1.901   3.706 -2.4350  0.4550  1.6967
 4442TIP3    H213291   3.830   1.766   3.638  1.4968  1.2071  0.5952
 4443TIP3   OH213292   4.714   0.200   2.446 -0.3008 -0.5448  0.0383
 4443TIP3    H113293   4.636   0.167   2.401 -0.1817 -0.9524  0.1286
 4443TIP3    H213294   4.737   0.131   2.508 -0.6885  0.1716  1.0024
 4444TIP3   OH213295   6.136   0.537   1.539  0.9399 -0.1672  0.6767
 4444TIP3    H113296   6.063   0.557   1.480  2.0979  0.8923 -0.4550
 4444TIP3    H213297   6.098   0.477   1.604 -0.9179  0.3196  0.1124
 4445TIP3   OH213298   2.374   0.643   4.644  0.0991  0.2885 -0.2394
 4445TIP3    H113299   2.320   0.667   4.720 -2.4578  0.5886 -2.0464
 4445TIP3    H213300   2.329   0.569   4.604  1.9049 -0.4678 -0.9988
 4446TIP3   OH213301   6.272   2.714   3.801 -0.4346  0.1844 -0.3246
 4446TIP3    H113302   6.197   2.656   3.792 -0.1914 -0.2184  0.1468
 4446TIP3    H213303   6.343   2.657   3.831 -0.2642  0.7656  0.4229
 4447TIP3   OH213304   1.931   0.527   2.002 -0.3259  0.4468  0.2764
 4447TIP3    H113305   1.875   0.454   2.027  0.6655 -0.2268  0.5806
 4447TIP3    H213306   1.903   0.598   2.061 -2.1239  0.7323 -0.8381
 4448TIP3   OH213307   2.680   1.520   5.077  0.0211  0.1010 -0.0654
 4448TIP3    H113308   2.720   1.442   5.115 -0.5035 -0.5807 -0.8847
 4448TIP3    H213309   2.717   1.593   5.128  1.3238 -0.5898  0.0186
 4449TIP3   OH213310   2.037   6.148   5.383  0.6380 -0.3799 -0.0229
 4449TIP3    H113311   2.078   6.063   5.396 -0.5126 -1.1466 -1.1702
 4449TIP3    H213312   2.094   6.194   5.321  0.3634 -0.9834 -0.7231
 4450TIP3   OH213313   0.267   3.842   4.235 -0.1451  0.4883  0.0514
 4450TIP3    H113314   0.347   3.895   4.226  0.6145 -0.5898  0.3178
 4450TIP3    H213315   0.297   3.760   4.274 -0.8249 -1.2382 -2.7827
 4451TIP3   OH213316   5.031   1.409   2.430 -0.8734 -0.0307 -0.4730
 4451TIP3    H113317   5.125   1.397   2.420 -0.7351  0.2661  0.4162
 4451TIP3    H213318   4.998   1.418   2.340 -0.0990 -0.4125 -0.8026
 4452TIP3   OH213319   4.285   3.147   1.783 -0.2104 -0.2859 -0.0757
 4452TIP3    H113320   4.312   3.182   1.698  0.0045  0.3996  0.2681
 4452TIP3    H213321   4.336   3.197   1.847  0.1945 -1.3103  0.4334
 4453TIP3   OH213322   3.071   0.405   4.649  0.0980  0.0884 -0.2724
 4453TIP3    H113323   3.132   0.332   4.636 -1.2816 -1.5433  1.7075
 4453TIP3    H213324   3.045   0.430   4.560  2.8513  0.2301 -1.1465
 4454TIP3   OH213325   5.511   5.432   5.073  0.1645 -0.5604 -0.7116
 4454TIP3    H113326   5.588   5.409   5.022  0.8650  1.2008 -0.4950
 4454TIP3    H213327   5.529   5.395   5.160  0.8139 -0.0781 -0.6352
 4455TIP3   OH213328   5.340   3.483   2.485  0.2011 -0.1814 -0.4697
 4455TIP3    H113329   5.422   3.530   2.465  0.0157  0.1040 -0.5725
 4455TIP3    H213330   5.333   3.486   2.580 -1.0599  2.2142 -0.5431
 4456TIP3   OH213331   6.841   4.410   5.664 -0.3217  0.0478  0.1897
 4456TIP3    H113332   6.850   4.504   5.677  0.3528  0.0215 -0.0669
 4456TIP3    H213333   6.912   4.386   5.604  0.6885 -0.9284  1.6965
 4457TIP3   OH213334   5.023   3.608   0.953  0.1346  0.1753 -0.0893
 4457TIP3    H113335   4.974   3.653   1.022  0.0931  1.5652 -0.9962
 4457TIP3    H213336   5.031   3.518   0.984 -2.2131  0.1204  0.5213
 4458TIP3   OH213337   2.959   1.633   3.834  0.7751 -0.5226 -0.1233
 4458TIP3    H113338   2.932   1.590   3.752  1.6029  0.0852 -0.7352
 4458TIP3    H213339   3.051   1.655   3.819  1.2722 -1.4213  1.4212
 4459TIP3   OH213340   5.895   1.329   1.867  0.3325 -0.4249  0.1449
 4459TIP3    H113341   5.827   1.293   1.811  0.1869 -0.2488  0.2068
 4459TIP3    H213342   5.852   1.402   1.912  0.1365 -1.2096  1.2672
 4460TIP3   OH213343   0.467   5.584   1.988 -0.2215  0.1274 -0.1440
 4460TIP3    H113344   0.560   5.577   2.009 -0.2797 -0.0508  0.0612
 4460TIP3    H213345   0.435   5.654   2.045 -0.6000 -1.0535  1.1577
 4461TIP3   OH213346   0.832   2.274   1.484 -0.1922  0.2455  0.2224
 4461TIP3    H113347   0.791   2.193   1.513  0.8492  0.0561  1.2397
 4461TIP3    H213348   0.921   2.270   1.519 -0.2595  2.0403  0.7063
 4462TIP3   OH213349   2.792   6.643   5.339  0.5494 -0.3616 -0.3097
 4462TIP3    H113350   2.807   6.714   5.276  0.3884 -1.3781 -1.5161
 4462TIP3    H213351   2.762   6.688   5.419  2.3438  1.0911 -0.3816
 4463TIP3   OH213352   6.445   2.523   1.994 -0.0977 -0.0348 -0.0416
 4463TIP3    H113353   6.497   2.531   2.074  1.7787 -0.4128 -1.1482
 4463TIP3    H213354   6.493   2.574   1.929 -1.4913  0.1338 -0.9877
 4464TIP3   OH213355   3.262   4.023   4.659  0.1397 -0.0188 -0.5140
 4464TIP3    H113356   3.241   3.934   4.690  1.7190 -0.4774 -0.6981
 4464TIP3    H213357   3.235   4.080   4.731 -1.4349 -0.5701 -0.6208
 4465TIP3   OH213358   1.065   1.359   5.125 -0.2738 -0.4003 -0.1502
 4465TIP3    H113359   1.040   1.267   5.126  0.4107 -0.5854  0.4880
 4465TIP3    H213360   1.127   1.368   5.197  1.1203  0.1421 -1.3693
 4466TIP3   OH213361   7.103   5.873   2.559  0.2459  0.1539  0.2365
 4466TIP3    H113362   7.193   5.841   2.568 -0.1031 -0.7350  0.6530
 4466TIP3    H213363   7.100   5.912   2.471  1.6342  2.2015  1.0158
 4467TIP3   OH213364   0.666   5.299  -0.011  0.1083 -0.1970  0.1915
 4467TIP3    H113365   0.638   5.363   0.054  1.0153 -1.3891  1.8278
 4467TIP3    H213366   0.611   5.222   0.006 -1.3589  0.2230 -2.0989
 4468TIP3   OH213367   1.812   5.248   0.097  0.1490 -0.4286 -0.1467
 4468TIP3    H113368   1.898   5.282   0.073  0.6612  0.0966  2.1977
 4468TIP3    H213369   1.754   5.325   0.096  0.7104  0.1254  2.4566
 4469TIP3   OH213370   4.668   5.231   2.879 -0.1975  0.4002 -0.1520
 4469TIP3    H113371   4.756   5.242   2.917 -0.0300  0.6458 -0.6065
 4469TIP3    H213372   4.667   5.288   2.803 -0.1915 -0.7985 -1.0894
 4470TIP3   OH213373   6.811   0.521   2.574 -0.6563  0.5882 -0.0260
 4470TIP3    H113374   6.792   0.429   2.592  0.4901 -0.1458 -2.1957
 4470TIP3    H213375   6.724   0.563   2.570 -1.2271 -0.5224  0.3841
 4471TIP3   OH213376   6.228   2.589   4.222  0.0779 -0.0162  0.5695
 4471TIP3    H113377   6.295   2.569   4.287  0.1566 -1.1442  0.1676
 4471TIP3    H213378   6.178   2.507   4.213 -1.2138  0.7360  0.6959
 4472TIP3   OH213379   5.567   4.985   4.076 -0.5694 -0.3704 -0.4037
 4472TIP3    H113380   5.480   4.946   4.086 -1.2593  1.1784  0.0028
 4472TIP3    H213381   5.592   5.012   4.164  0.0280 -0.1893 -0.6193
 4473TIP3   OH213382   2.255   3.972   1.082 -0.1173 -0.4987 -0.3291
 4473TIP3    H113383   2.245   3.984   1.177  0.7963 -0.4703 -0.2269
 4473TIP3    H213384   2.306   4.048   1.054 -1.2480  0.0409 -1.0304
 4474TIP3   OH213385   0.204   5.756   3.613 -0.2822  0.8262 -0.3205
 4474TIP3    H113386   0.109   5.765   3.607 -0.1655  1.6330 -1.2554
 4474TIP3    H213387   0.229   5.714   3.531 -0.1088 -2.4182  1.2415
 4475TIP3   OH213388   1.994   4.109   3.719 -0.2109 -0.2087 -0.1826
 4475TIP3    H113389   2.021   4.102   3.627 -2.6393  1.5307 -1.1714
 4475TIP3    H213390   1.922   4.047   3.727  1.7414 -2.4031  1.4366
 4476TIP3   OH213391   1.862   4.085   1.924  0.0499  0.1694  0.1721
 4476TIP3    H113392   1.882   4.012   1.983  0.2476  0.7799  0.8684
 4476TIP3    H213393   1.803   4.141   1.974 -0.7584  0.0770 -0.6623
 4477TIP3   OH213394   3.921   1.230   3.985  0.0656 -0.0079  0.6413
 4477TIP3    H113395   4.003   1.271   3.958 -0.6015  0.9184 -0.0353
 4477TIP3    H213396   3.926   1.229   4.081  0.9451 -0.1608  0.6066
 4478TIP3   OH213397   0.619   1.081   1.745 -0.0181  0.3737  0.1529
 4478TIP3    H113398   0.712   1.065   1.762  0.4379 -1.1599 -2.9529
 4478TIP3    H213399   0.574   1.012   1.792  0.6194 -0.2337 -0.1101
 4479TIP3   OH213400   6.966   4.309   1.333  0.5969 -0.0659  0.4060
 4479TIP3    H113401   7.002   4.368   1.267  0.2509  0.4029  0.6369
 4479TIP3    H213402   7.041   4.258   1.363  0.6339 -0.8659 -0.9279
 4480TIP3   OH213403   3.958   3.167   2.359  0.2384  0.5425  0.0655
 4480TIP3    H113404   3.992   3.227   2.427  1.5246  0.7478 -0.7198
 4480TIP3    H213405   3.914   3.225   2.296 -0.5917  0.3950  0.4989
 4481TIP3   OH213406   1.968   2.898   2.546  0.0908  0.1041  0.3207
 4481TIP3    H113407   2.029   2.941   2.486 -0.2885  0.2094  0.0063
 4481TIP3    H213408   2.014   2.818   2.573  0.1017 -0.1492 -0.4298
 4482TIP3   OH213409   4.418   5.409   2.845  0.1119 -0.1347  0.5782
 4482TIP3    H113410   4.483   5.478   2.859 -0.0004 -0.0949  0.9232
 4482TIP3    H213411   4.451   5.334   2.895  0.3442 -0.4000  0.0246
 4483TIP3   OH213412   0.084   2.239   4.839  0.1447 -0.5356 -0.1129
 4483TIP3    H113413   0.157   2.177   4.843  0.7758  0.1567 -0.5795
 4483TIP3    H213414   0.078   2.275   4.927 -0.1256 -1.1408  0.1194
 4484TIP3   OH213415   6.678   6.051   1.137  0.1873 -0.1607 -0.1890
 4484TIP3    H113416   6.588   6.019   1.131 -0.5520  1.9340 -0.9803
 4484TIP3    H213417   6.700   6.079   1.048  0.2325  2.7943  0.6536
 4485TIP3   OH213418   0.585   1.516   4.119  0.0823  0.5395 -0.2492
 4485TIP3    H113419   0.539   1.433   4.127  0.5404  0.4613  2.5312
 4485TIP3    H213420   0.677   1.495   4.136  0.2462  1.5271  0.2055
 4486TIP3   OH213421   3.595   0.060   0.901  0.2394  0.3439 -0.4597
 4486TIP3    H113422   3.609   0.152   0.880 -0.3128  0.5263 -0.0496
 4486TIP3    H213423   3.520   0.060   0.961  0.3737 -0.3528 -0.2832
 4487TIP3   OH213424   5.886   0.859   3.732 -0.5891  0.2234 -1.0904
 4487TIP3    H113425   5.868   0.765   3.731 -1.0288  0.2429  0.7958
 4487TIP3    H213426   5.941   0.874   3.655 -0.0665 -1.6718 -1.1400
 4488TIP3   OH213427   1.971   5.175   1.792  0.5687 -0.1727 -0.2938
 4488TIP3    H113428   1.996   5.267   1.793 -0.7300  0.2074 -0.1822
 4488TIP3    H213429   1.997   5.144   1.705 -1.8325  1.1978 -1.6295
 4489TIP3   OH213430   2.261   0.829   5.184 -0.0250 -1.0183  0.1844
 4489TIP3    H113431   2.317   0.777   5.243  2.1446  0.5467 -0.3882
 4489TIP3    H213432   2.306   0.913   5.177 -1.1002 -0.5877 -2.4162
 4490TIP3   OH213433   5.725   4.489   5.073  0.2084  0.2917  0.2059
 4490TIP3    H113434   5.740   4.482   5.167 -1.3371 -0.1449  0.4367
 4490TIP3    H213435   5.694   4.579   5.060  0.1037  0.2502  0.1651
 4491TIP3   OH213436   4.245   5.619   5.765 -0.1388 -0.4120 -0.0913
 4491TIP3    H113437   4.245   5.567   5.846 -0.4115 -0.4595 -0.1201
 4491TIP3    H213438   4.324   5.673   5.772  0.5349 -1.3281 -0.3804
 4492TIP3   OH213439   6.018   0.524   3.545  0.5087 -0.5463  0.3085
 4492TIP3    H113440   5.934   0.568   3.534 -0.5432 -2.1183  1.7266
 4492TIP3    H213441   6.020   0.458   3.476  1.4237  0.6318 -0.8561
 4493TIP3   OH213442   0.363   0.083   1.563 -0.3017 -0.2599  0.2231
 4493TIP3    H113443   0.294   0.022   1.591 -1.8801  1.2585 -0.1563
 4493TIP3    H213444   0.371   0.069   1.469 -0.6874  0.1139  0.1304
 4494TIP3   OH213445   1.306   5.760   4.709  0.4740  0.0234 -0.6206
 4494TIP3    H113446   1.399   5.772   4.687  0.2866  2.0388 -0.5327
 4494TIP3    H213447   1.259   5.815   4.646 -0.7644 -1.6346 -1.2279
 4495TIP3   OH213448   5.100   5.631   4.879 -0.4493  0.3554  0.0276
 4495TIP3    H113449   5.123   5.716   4.842 -1.8372  1.1530  0.9417
 4495TIP3    H213450   5.075   5.578   4.803  1.6694  0.2931 -0.7068
 4496TIP3   OH213451   0.758   5.038   4.161 -0.7580  0.1228 -0.7073
 4496TIP3    H113452   0.799   4.962   4.204 -2.6926 -0.3947  0.3608
 4496TIP3    H213453   0.665   5.017   4.160 -1.2785  2.2170 -0.9908
 4497TIP3   OH213454   6.784   4.249   1.569  0.2212 -0.2981  0.0164
 4497TIP3    H113455   6.728   4.174   1.554 -0.8556  0.8309 -1.9947
 4497TIP3    H213456   6.841   4.253   1.492 -0.1352  1.2592 -0.2016
 4498TIP3   OH213457   3.650   4.548   3.928 -0.3624 -0.5636 -0.0935
 4498TIP3    H113458   3.581   4.497   3.885 -0.5501 -0.6619  0.3249
 4498TIP3    H213459   3.653   4.515   4.017  1.2992 -1.6485 -0.5140
 4499TIP3   OH213460   1.092   2.137   2.400  0.0050 -0.4358  0.1101
 4499TIP3    H113461   1.159   2.205   2.392 -2.1459  1.9450  0.7969
 4499TIP3    H213462   1.138   2.062   2.436  1.8859  1.8735  3.0221
 4500TIP3   OH213463   3.096   0.652   5.766 -0.0942 -0.1842  0.0167
 4500TIP3    H113464   3.012   0.668   5.723  1.4127  3.1742 -2.2204
 4500TIP3    H213465   3.120   0.737   5.804  2.4248 -0.8757  0.1766
 4501TIP3   OH213466   1.546   1.124   0.039 -0.1137 -0.4909 -0.5346
 4501TIP3    H113467   1.541   1.039   0.083 -0.3599  0.0451  0.4926
 4501TIP3    H213468   1.545   1.188   0.110  0.4586  0.3645 -1.2816
 4502TIP3   OH213469   0.799   0.472   1.643  0.2496  0.4509  0.1602
 4502TIP3    H113470   0.736   0.405   1.671  1.0008 -0.1600  0.4229
 4502TIP3    H213471   0.745   0.547   1.617 -0.7684 -0.9016 -1.9684
 4503TIP3   OH213472   6.958   6.546   4.218  0.2057 -0.0500 -0.3342
 4503TIP3    H113473   7.049   6.532   4.192 -0.4140 -3.5971 -1.0703
 4503TIP3    H213474   6.937   6.634   4.185  2.3348 -0.5083 -3.3384
 4504TIP3   OH213475   1.143   5.623   3.282 -0.3317  0.0888 -0.3087
 4504TIP3    H113476   1.108   5.679   3.352 -1.7074 -0.5792 -0.4325
 4504TIP3    H213477   1.139   5.677   3.204  0.2997  0.5092 -0.0586
 4505TIP3   OH213478   7.122   3.978   0.800  0.0439  0.0802  0.0558
 4505TIP3    H113479   7.168   4.055   0.768 -1.8206  0.7078 -1.2739
 4505TIP3    H213480   7.091   3.934   0.721 -1.0491 -0.6681  0.8704
 4506TIP3   OH213481   0.477   6.316   1.504  0.5660  0.8129  0.1326
 4506TIP3    H113482   0.476   6.357   1.591  0.6629  0.3952  0.3315
 4506TIP3    H213483   0.535   6.240   1.514 -1.1517 -0.5245  0.2891
 4507TIP3   OH213484   1.126   1.987   4.913 -0.4176 -0.3362  0.6357
 4507TIP3    H113485   1.199   1.932   4.940  1.3575  0.5828 -1.8525
 4507TIP3    H213486   1.146   2.073   4.950 -0.9488 -0.3790  1.0285
 4508TIP3   OH213487   7.058   3.554   0.285  0.0021  0.0826 -0.1128
 4508TIP3    H113488   7.074   3.648   0.286  0.6176 -0.0190  0.4919
 4508TIP3    H213489   7.120   3.520   0.220 -0.4204  0.1293 -0.5390
 4509TIP3   OH213490   1.959   3.709   1.744  0.2030  0.5392  0.1596
 4509TIP3    H113491   1.900   3.768   1.791 -2.5376  0.7238 -3.0695
 4509TIP3    H213492   1.978   3.639   1.807 -3.4899  0.5313  1.5686
 4510TIP3   OH213493   6.053   3.691   2.318  0.3970 -0.8936  0.5008
 4510TIP3    H113494   6.116   3.619   2.311  0.2290 -0.9166 -1.4240
 4510TIP3    H213495   6.105   3.768   2.339  1.6209 -0.3607 -3.5494
 4511TIP3   OH213496   7.195   2.963   3.394 -0.1157 -0.0471  0.8245
 4511TIP3    H113497   7.274   2.915   3.418  1.0558  0.3282 -1.9785
 4511TIP3    H213498   7.133   2.895   3.368  0.2782 -0.2181  0.3186
 4512TIP3   OH213499   1.772   1.325   1.246 -0.2668  0.0312 -0.3353
 4512TIP3    H113500   1.686   1.291   1.273 -0.7508 -0.5776 -2.4220
 4512TIP3    H213501   1.833   1.255   1.267 -0.7389 -0.7377 -1.4178
 4513TIP3   OH213502   1.114   5.776   0.561 -0.6636  0.1780 -0.0197
 4513TIP3    H113503   1.104   5.844   0.494  0.3183 -0.4149 -0.8021
 4513TIP3    H213504   1.024   5.748   0.580 -0.9355 -0.4331 -1.9593
 4514TIP3   OH213505   6.821   5.203   0.125  0.4610  0.3704  0.6050
 4514TIP3    H113506   6.844   5.144   0.197 -1.4092 -0.2854  0.7333
 4514TIP3    H213507   6.882   5.276   0.133  3.2248 -1.7288  0.1320
 4515TIP3   OH213508   2.555   4.084   3.180  0.0675  0.2919  0.0550
 4515TIP3    H113509   2.528   4.059   3.092  0.8502 -0.9007  0.1257
 4515TIP3    H213510   2.489   4.046   3.238 -0.3293  0.8946  0.0116
 4516TIP3   OH213511   6.008   6.325   4.082  0.6482 -0.6264  0.0870
 4516TIP3    H113512   6.006   6.255   4.017 -0.1833  0.3434 -0.9980
 4516TIP3    H213513   6.059   6.290   4.154  1.1626 -1.9448 -0.8719
 4517TIP3   OH213514   4.526   5.177   5.795  0.7051 -0.7659  0.3852
 4517TIP3    H113515   4.551   5.156   5.704  1.9395  1.3773  0.1662
 4517TIP3    H213516   4.431   5.168   5.796  0.5370  0.1941 -1.4610
 4518TIP3   OH213517   3.842   3.976   5.482 -0.2680  0.3323  0.0422
 4518TIP3    H113518   3.839   3.939   5.570  1.2894  0.0096 -0.0188
 4518TIP3    H213519   3.881   4.063   5.493  1.2894 -0.2670 -0.4624
 4519TIP3   OH213520   3.727   2.639   0.697 -0.1978 -0.3072 -0.5326
 4519TIP3    H113521   3.644   2.641   0.650 -0.0553 -0.3960 -0.7893
 4519TIP3    H213522   3.745   2.546   0.710 -0.6293 -0.2733  0.4012
 4520TIP3   OH213523   5.996   1.687   4.225 -0.1785 -0.5454  0.1297
 4520TIP3    H113524   5.926   1.666   4.287 -0.3852 -0.0517  0.0638
 4520TIP3    H213525   5.954   1.742   4.159  0.8678  2.2421  1.6175
 4521TIP3   OH213526   1.472   0.295   0.334 -0.3014  0.1345  0.1208
 4521TIP3    H113527   1.412   0.363   0.366  1.2303  1.3267  0.6057
 4521TIP3    H213528   1.509   0.332   0.255  0.3826 -0.2413  0.2604
 4522TIP3   OH213529   1.701   4.901   0.894 -0.1691 -0.2690  0.0960
 4522TIP3    H113530   1.758   4.837   0.936  1.5858  0.3089 -1.2586
 4522TIP3    H213531   1.699   4.874   0.802 -0.2442  1.0202 -0.2974
 4523TIP3   OH213532   4.579   0.106   0.560  0.0477 -0.5209  0.1577
 4523TIP3    H113533   4.578   0.080   0.468 -1.3303 -1.1130  0.3198
 4523TIP3    H213534   4.504   0.165   0.569  0.8863  0.5105  0.6466
 4524TIP3   OH213535   5.347   0.470   3.392  0.2830 -0.1253 -0.7266
 4524TIP3    H113536   5.390   0.490   3.309  1.1994  0.1680 -0.1891
 4524TIP3    H213537   5.358   0.375   3.403 -0.5014 -0.2923 -1.2941
 4525TIP3   OH213538   1.282   6.323   5.131 -0.5158 -0.1299  0.0687
 4525TIP3    H113539   1.197   6.362   5.154 -1.1895 -1.8992  0.8010
 4525TIP3    H213540   1.326   6.310   5.215 -0.8231 -1.9794 -0.0230
 4526TIP3   OH213541   3.446   3.307   3.677  0.5159 -0.1994 -0.0089
 4526TIP3    H113542   3.524   3.341   3.720  0.8693 -2.4307  1.3367
 4526TIP3    H213543   3.469   3.301   3.585  0.7671  2.0963 -0.1338
 4527TIP3   OH213544   5.041   0.332   0.764 -0.5896  0.3576  0.0084
 4527TIP3    H113545   5.038   0.428   0.762 -0.0662  0.3915  0.4842
 4527TIP3    H213546   4.950   0.305   0.749 -0.8734  0.9495  0.5817
 4528TIP3   OH213547   5.285   6.575   4.707 -0.2633  0.6774 -0.5812
 4528TIP3    H113548   5.263   6.662   4.674 -0.8486  0.6735 -0.2060
 4528TIP3    H213549   5.283   6.584   4.802  0.0234  0.3381 -0.5380
 4529TIP3   OH213550   1.206   5.290   3.592 -0.3372 -0.0884  0.3447
 4529TIP3    H113551   1.231   5.359   3.654 -1.8994  0.4778  0.3726
 4529TIP3    H213552   1.117   5.267   3.616 -2.0140  1.9180 -3.2080
 4530TIP3   OH213553   0.439   3.329   3.320 -0.0097 -0.1209 -0.2562
 4530TIP3    H113554   0.451   3.271   3.396  0.4696  0.4946  0.1471
 4530TIP3    H213555   0.393   3.404   3.355 -0.1397 -0.0098 -0.6649
 4531TIP3   OH213556   6.704   2.192   2.606  0.4548 -0.2057 -0.4257
 4531TIP3    H113557   6.650   2.266   2.578  1.4493  1.3404  1.5099
 4531TIP3    H213558   6.789   2.231   2.628  1.1431 -1.9894  0.2933
 4532TIP3   OH213559   6.388   0.421   4.613 -0.0005  0.7363  0.3801
 4532TIP3    H113560   6.469   0.373   4.633 -0.8678  0.0387  2.4859
 4532TIP3    H213561   6.416   0.512   4.602  1.1742  0.3740  0.2800
 4533TIP3   OH213562   2.695   5.732   2.277 -0.4570 -0.0511 -0.0020
 4533TIP3    H113563   2.656   5.698   2.358 -4.4549  1.1181 -1.2173
 4533TIP3    H213564   2.635   5.705   2.208  1.0635  1.7566 -2.1912
 4534TIP3   OH213565   4.596   4.596   4.049 -0.1138  0.3752 -0.0383
 4534TIP3    H113566   4.685   4.615   4.081  0.1000 -1.4912  0.5860
 4534TIP3    H213567   4.542   4.665   4.088  1.0290  1.4891 -0.3536
 4535TIP3   OH213568   0.699   5.846   1.451 -0.5578 -0.3527  0.4654
 4535TIP3    H113569   0.668   5.775   1.508  0.7522 -0.6165  0.9009
 4535TIP3    H213570   0.793   5.849   1.468 -0.0150 -0.8151 -2.1295
 4536TIP3   OH213571   5.885   1.314   0.756  0.0022  0.1806  0.1147
 4536TIP3    H113572   5.864   1.325   0.663 -1.3271  1.2558  0.5091
 4536TIP3    H213573   5.946   1.240   0.758 -0.4163 -0.2567 -1.5483
 4537TIP3   OH213574   3.447   2.106   0.456 -0.0341  0.2256 -0.2197
 4537TIP3    H113575   3.512   2.172   0.433 -0.2625 -0.1385 -2.0541
 4537TIP3    H213576   3.492   2.048   0.518  1.1111  0.4744 -0.7943
 4538TIP3   OH213577   0.651   3.565   0.434 -0.3774 -0.5078 -0.2187
 4538TIP3    H113578   0.733   3.526   0.405  0.2335 -0.1598  0.9737
 4538TIP3    H213579   0.618   3.504   0.501 -0.7114 -0.2603 -0.1522
 4539TIP3   OH213580   1.743   4.918   4.098 -0.2603  0.1430  0.0099
 4539TIP3    H113581   1.775   4.830   4.119 -0.1934  0.1410 -0.1044
 4539TIP3    H213582   1.721   4.915   4.005  0.0785  0.3506 -0.0790
 4540TIP3   OH213583   1.689   4.702   3.662 -0.0485  0.0365  0.3618
 4540TIP3    H113584   1.658   4.770   3.602 -1.2541 -1.2493 -0.5280
 4540TIP3    H213585   1.734   4.639   3.606  1.7407  0.4118  1.2738
 4541TIP3   OH213586   1.936   2.199   3.864  0.5577  0.6367 -0.0500
 4541TIP3    H113587   1.985   2.243   3.933  0.0102  0.8643  0.2026
 4541TIP3    H213588   2.003   2.161   3.807  1.0178  0.4829  0.5807
 4542TIP3   OH213589   2.047   1.471   3.442  0.4611 -0.5944 -0.6197
 4542TIP3    H113590   2.114   1.534   3.413  1.7899 -1.1630  1.0394
 4542TIP3    H213591   2.085   1.430   3.520 -2.6307  0.4387  1.6101
 4543TIP3   OH213592   3.279   1.145   0.840 -0.1523 -0.2532  0.2213
 4543TIP3    H113593   3.362   1.192   0.850  0.1324 -0.6373 -0.2859
 4543TIP3    H213594   3.263   1.106   0.926 -0.5949  1.0775  0.7701
 4544TIP3   OH213595   7.065   3.051   2.907  0.2684 -0.3411 -0.0166
 4544TIP3    H113596   7.084   3.087   2.993  2.7150  1.5813 -1.2338
 4544TIP3    H213597   6.979   3.087   2.885 -0.2441 -0.6015  1.4577
 4545TIP3   OH213598   2.970   2.067   4.760  0.5198  0.4411 -0.2520
 4545TIP3    H113599   2.923   1.984   4.751 -1.7736  1.6583 -0.4839
 4545TIP3    H213600   3.028   2.054   4.834 -1.8686 -0.5395  1.5985
 4546TIP3   OH213601   3.412   5.907   1.123  0.0898 -0.5405 -0.2745
 4546TIP3    H113602   3.481   5.856   1.165 -0.5163 -0.6181  0.6667
 4546TIP3    H213603   3.448   5.995   1.115  0.6697 -0.8158 -0.7307
 4547TIP3   OH213604   2.033   5.294   5.795 -0.5493 -0.1881 -0.1122
 4547TIP3    H113605   1.961   5.314   5.855 -1.1328 -0.3157 -0.7546
 4547TIP3    H213606   2.043   5.199   5.800 -0.5857 -0.1968 -0.1979
 4548TIP3   OH213607   1.265   5.120   0.585 -0.0390 -0.6997 -0.0208
 4548TIP3    H113608   1.332   5.086   0.526  0.6520  1.3813 -0.5330
 4548TIP3    H213609   1.294   5.093   0.672  2.5563  1.6192 -0.0195
 4549TIP3   OH213610   2.719   2.092   2.859  0.3032 -0.7226  0.5694
 4549TIP3    H113611   2.812   2.107   2.840  0.0243  0.8533  0.3084
 4549TIP3    H213612   2.716   2.004   2.896  1.8706 -0.8920  0.3636
 4550TIP3   OH213613   2.151   2.379   5.734  0.4550  0.2929 -0.4766
 4550TIP3    H113614   2.129   2.324   5.658  0.6495  0.8328 -0.9253
 4550TIP3    H213615   2.108   2.462   5.717  0.7103  0.5027 -0.1118
 4551TIP3   OH213616   2.948   2.160   0.950 -0.1206  0.1838  0.1099
 4551TIP3    H113617   2.940   2.217   1.026  1.6369  0.7572 -0.0877
 4551TIP3    H213618   3.008   2.207   0.891 -1.7509 -0.0364 -1.8313
 4552TIP3   OH213619   1.501   4.395   4.062  0.3513  0.1126  0.0069
 4552TIP3    H113620   1.454   4.382   4.144  1.1185 -0.4680  0.3742
 4552TIP3    H213621   1.511   4.490   4.053 -2.5420  0.4234 -1.0641
 4553TIP3   OH213622   6.747   2.092   2.320 -0.3176  0.5475  0.0395
 4553TIP3    H113623   6.658   2.114   2.295 -0.7654 -0.2143  0.9261
 4553TIP3    H213624   6.738   2.033   2.395  0.8723 -1.0547 -1.0057
 4554TIP3   OH213625   4.196   0.497   0.517  0.9371 -0.4596 -0.5278
 4554TIP3    H113626   4.152   0.555   0.578  0.6586  0.4208 -1.5244
 4554TIP3    H213627   4.138   0.421   0.509  0.4894 -0.1253 -0.4596
 4555TIP3   OH213628   1.608   4.387   3.784 -0.0491  0.0683 -0.3363
 4555TIP3    H113629   1.599   4.482   3.788  2.6853  0.4158 -1.0502
 4555TIP3    H213630   1.628   4.361   3.874  3.5414  0.7896 -0.7999
 4556TIP3   OH213631   3.121   3.834   1.604  0.2384 -0.1774 -0.4998
 4556TIP3    H113632   3.202   3.859   1.559 -0.0816 -0.5362 -1.2992
 4556TIP3    H213633   3.078   3.918   1.622  0.6918  0.0048 -0.2567
 4557TIP3   OH213634   3.351   5.323   5.034  0.6436  0.2712 -0.2809
 4557TIP3    H113635   3.378   5.401   5.082 -0.3376  0.7712 -0.5121
 4557TIP3    H213636   3.256   5.330   5.030  0.2365 -2.3708  2.1220
 4558TIP3   OH213637   0.309   2.342   2.023 -0.1321 -0.2735  0.0981
 4558TIP3    H113638   0.379   2.347   2.087 -0.0863  1.5671 -0.0474
 4558TIP3    H213639   0.315   2.424   1.974 -2.0184 -0.3194 -0.2920
 4559TIP3   OH213640   7.142   1.153   2.997  0.0751 -0.3917 -0.6986
 4559TIP3    H113641   7.195   1.178   3.073  1.6295  1.2641 -2.2444
 4559TIP3    H213642   7.197   1.093   2.947 -2.0808 -4.0581  0.8670
 4560TIP3   OH213643   0.649   0.738   2.520  0.0696  0.2004 -0.5051
 4560TIP3    H113644   0.586   0.688   2.470 -1.4472  0.2957  1.1916
 4560TIP3    H213645   0.694   0.674   2.575 -1.3893  0.5291  1.1634
 4561TIP3   OH213646   0.824   1.118   2.848  0.4038 -0.4726  0.1463
 4561TIP3    H113647   0.865   1.138   2.932  1.5982 -0.0652 -0.5144
 4561TIP3    H213648   0.892   1.136   2.783 -1.0755  1.0595 -1.0646
 4562TIP3   OH213649   5.225   2.143   1.545 -0.1241  0.1287 -0.0487
 4562TIP3    H113650   5.241   2.169   1.636 -1.1217 -1.0493  0.4893
 4562TIP3    H213651   5.247   2.050   1.541  0.1914  0.2327 -1.0971
 4563TIP3   OH213652   6.992   3.841   3.080  0.4104  0.3452 -0.3141
 4563TIP3    H113653   6.948   3.780   3.022  0.0935 -1.6928  1.8889
 4563TIP3    H213654   7.085   3.820   3.071  0.4342  0.5778 -0.6346
 4564TIP3   OH213655   5.298   4.848   1.635  0.4405  0.0139  0.1283
 4564TIP3    H113656   5.238   4.881   1.702 -0.1536  0.4513 -0.6123
 4564TIP3    H213657   5.375   4.819   1.685  0.2405  0.8437  0.9515
 4565TIP3   OH213658   2.565   3.520   3.889  0.0791  0.0563 -0.7487
 4565TIP3    H113659   2.480   3.487   3.918  0.3492 -1.6618 -1.7650
 4565TIP3    H213660   2.552   3.539   3.796  0.6393  0.3474 -0.7668
 4566TIP3   OH213661   2.332   4.363   4.845 -0.0286  0.2324 -0.3728
 4566TIP3    H113662   2.368   4.415   4.917  0.5864 -1.7993  0.8758
 4566TIP3    H213663   2.403   4.359   4.781 -0.5419  1.9696 -1.0811
 4567TIP3   OH213664   1.045   3.145   0.145 -0.2397 -0.1028 -0.0034
 4567TIP3    H113665   1.074   3.062   0.108 -0.0385  0.2795 -0.7413
 4567TIP3    H213666   0.949   3.140   0.143 -0.2292 -0.2048 -0.3090
 4568TIP3   OH213667   5.415   3.704   3.372  0.2862 -0.0744 -0.1229
 4568TIP3    H113668   5.327   3.743   3.373  1.0397  1.7021  1.0038
 4568TIP3    H213669   5.468   3.764   3.424  2.0747 -1.3829 -0.3724
 4569TIP3   OH213670   6.035   0.434   1.127 -0.0923 -0.3355 -0.1612
 4569TIP3    H113671   5.980   0.356   1.119 -2.1003  0.8634  0.8922
 4569TIP3    H213672   6.111   0.405   1.177 -0.9781 -1.5499  0.5434
 4570TIP3   OH213673   3.734   3.842   5.702 -0.4403 -0.5021 -0.1316
 4570TIP3    H113674   3.695   3.797   5.628 -1.1823 -0.8076  0.4315
 4570TIP3    H213675   3.664   3.846   5.767 -0.6137  2.0831 -0.4034
 4571TIP3   OH213676   0.936   5.012   2.106 -0.4428  0.3162 -0.3598
 4571TIP3    H113677   0.861   4.990   2.161  1.0011 -0.5861  1.3389
 4571TIP3    H213678   0.942   4.940   2.043  0.0041 -0.4865  0.5936
 4572TIP3   OH213679   2.691   5.305   1.024  0.5371  0.4745  0.1369
 4572TIP3    H113680   2.613   5.340   1.066  0.1335 -0.4123  0.1393
 4572TIP3    H213681   2.657   5.254   0.950  1.0757 -0.3754  0.4643
 4573TIP3   OH213682   0.313   4.926   2.521 -0.2347  0.6765 -0.3298
 4573TIP3    H113683   0.316   4.946   2.427 -1.5652  1.3612 -0.2488
 4573TIP3    H213684   0.258   4.994   2.558  0.5443  0.6026  1.0210
 4574TIP3   OH213685   6.766   2.824   5.649 -0.3408  0.2484  0.3567
 4574TIP3    H113686   6.774   2.728   5.648 -2.9839 -0.0498 -1.0822
 4574TIP3    H213687   6.830   2.852   5.715  2.2044 -2.2774 -0.7992
 4575TIP3   OH213688   3.500   6.304   2.584  0.8247 -0.2498 -0.1821
 4575TIP3    H113689   3.565   6.361   2.626  0.8470 -1.9991  2.3744
 4575TIP3    H213690   3.423   6.312   2.639 -0.6800  0.5377 -2.2669
 4576TIP3   OH213691   2.134   4.954   4.906 -0.2627 -0.0019 -0.0875
 4576TIP3    H113692   2.143   4.860   4.890 -2.8648 -0.8434  2.4232
 4576TIP3    H213693   2.055   4.979   4.859 -0.9405  0.3185  1.1758
 4577TIP3   OH213694   5.332   6.108   0.323 -0.1528  0.0919  0.3383
 4577TIP3    H113695   5.415   6.073   0.357 -0.0015 -0.8048 -0.8952
 4577TIP3    H213696   5.348   6.122   0.230 -1.8065 -1.4503 -0.2263
 4578TIP3   OH213697   0.861   4.088   0.427 -0.4656 -0.1475 -0.6150
 4578TIP3    H113698   0.899   4.027   0.491  0.4289  2.2500  1.3037
 4578TIP3    H213699   0.767   4.087   0.446 -0.5097 -1.0775 -0.7998
 4579TIP3   OH213700   2.883   4.922   0.745 -0.4769 -0.0342 -0.2158
 4579TIP3    H113701   2.852   4.831   0.738 -0.8687 -0.0720  1.5592
 4579TIP3    H213702   2.810   4.974   0.710 -1.1182 -0.3147  0.6660
 4580TIP3   OH213703   2.064   3.693   4.847 -0.0981 -0.3159 -0.3928
 4580TIP3    H113704   2.124   3.765   4.832  0.4559 -0.7909 -0.4771
 4580TIP3    H213705   2.014   3.685   4.766 -0.7566  0.5130 -0.0880
 4581TIP3   OH213706   1.497   5.740   1.074 -0.3926  0.2970  0.3188
 4581TIP3    H113707   1.450   5.794   1.010  1.2419  0.8126 -0.5088
 4581TIP3    H213708   1.453   5.757   1.157 -3.0982 -1.0111 -0.7324
 4582TIP3   OH213709   1.923   3.425   5.720 -0.0981 -0.1956 -0.3496
 4582TIP3    H113710   1.943   3.421   5.627  0.1021 -0.4907 -0.2954
 4582TIP3    H213711   1.925   3.518   5.741 -1.0983 -0.0474 -0.8429
 4583TIP3   OH213712   1.465   2.149   5.151  0.6168  0.0533 -0.2152
 4583TIP3    H113713   1.550   2.155   5.107  0.7499 -1.3980 -0.1983
 4583TIP3    H213714   1.484   2.106   5.234 -0.0250  0.4170  0.1232
 4584TIP3   OH213715   4.890   6.546   1.401  0.1912 -0.4768 -0.2286
 4584TIP3    H113716   4.950   6.551   1.327  0.0346 -0.2771 -0.3409
 4584TIP3    H213717   4.888   6.453   1.424  0.9879 -0.4146  0.1387
 4585TIP3   OH213718   5.997   6.422   5.132 -0.2599 -0.2395  0.4553
 4585TIP3    H113719   6.076   6.463   5.167 -0.1201 -1.2894  1.3947
 4585TIP3    H213720   5.927   6.452   5.189 -0.4097  0.0080  0.1408
 4586TIP3   OH213721   4.966   0.037   3.605  0.2800 -0.1592 -0.0107
 4586TIP3    H113722   4.962   0.050   3.700 -1.3535 -1.9539  0.2268
 4586TIP3    H213723   4.882   0.071   3.573  0.1697 -0.9508 -0.5980
 4587TIP3   OH213724   1.891   5.828   4.884 -0.0098 -0.3443 -0.1556
 4587TIP3    H113725   1.979   5.864   4.896 -0.1921  0.5255 -1.2653
 4587TIP3    H213726   1.844   5.853   4.964  1.2209 -2.4290  1.3254
 4588TIP3   OH213727   6.977   5.584   3.916 -0.1493 -0.2390 -0.1953
 4588TIP3    H113728   7.016   5.511   3.965 -0.5444 -1.2083 -1.2802
 4588TIP3    H213729   7.038   5.600   3.843  0.5382  1.3267  0.6674
 4589TIP3   OH213730   4.137   6.647   4.793 -0.3047  0.0220 -0.0859
 4589TIP3    H113731   4.088   6.715   4.839  1.2647  1.5861 -0.5996
 4589TIP3    H213732   4.204   6.695   4.744  1.8910 -1.9850  0.7540
 4590TIP3   OH213733   4.154   6.329   4.862  0.2071  0.2756  0.0318
 4590TIP3    H113734   4.224   6.393   4.846  0.2798  0.1214 -0.2785
 4590TIP3    H213735   4.121   6.308   4.775  0.3258 -0.2663  0.1135
 4591TIP3   OH213736   6.313   5.580   1.860  0.0489 -0.2755 -0.0521
 4591TIP3    H113737   6.281   5.497   1.824 -1.3262 -0.3665  1.2552
 4591TIP3    H213738   6.241   5.641   1.847 -1.1005 -0.6204  3.4650
 4592TIP3   OH213739   1.494   0.474   3.976  0.1483  0.1012 -0.7556
 4592TIP3    H113740   1.437   0.516   4.040  2.2791 -0.5863  1.7733
 4592TIP3    H213741   1.514   0.543   3.913 -1.7220  0.9142 -0.5215
 4593TIP3   OH213742   6.119   3.322   2.489 -0.2912  0.2114  0.8986
 4593TIP3    H113743   6.157   3.382   2.425 -0.5318  0.4661  0.9912
 4593TIP3    H213744   6.146   3.235   2.459  1.0228  0.4270  1.4059
 4594TIP3   OH213745   5.020   3.566   4.412  0.1523  0.0345 -0.0310
 4594TIP3    H113746   5.010   3.476   4.382 -0.6737  0.1682 -0.1820
 4594TIP3    H213747   5.111   3.572   4.440 -0.3026 -1.4634  2.0537
 4595TIP3   OH213748   3.777   6.692   4.094  0.3220  0.4893 -0.0955
 4595TIP3    H113749   3.799   6.685   4.002  0.8868 -0.9840  0.1200
 4595TIP3    H213750   3.857   6.722   4.137  0.4536 -0.0627  0.0603
 4596TIP3   OH213751   6.074   1.911   0.068 -0.2424  0.1700 -0.1528
 4596TIP3    H113752   6.074   1.836   0.009  2.5773  0.2177 -0.3749
 4596TIP3    H213753   6.022   1.884   0.143  0.4898 -1.9077 -0.3497
 4597TIP3   OH213754   5.731   5.650   4.946 -0.3751 -0.0350 -0.0246
 4597TIP3    H113755   5.664   5.706   4.908  2.0555  3.5292  0.4322
 4597TIP3    H213756   5.799   5.643   4.879  0.5387 -0.1642  0.8770
 4598TIP3   OH213757   2.469   3.715   2.652 -0.3325 -0.1716  0.0125
 4598TIP3    H113758   2.393   3.766   2.679 -0.3694 -0.6391  0.7942
 4598TIP3    H213759   2.527   3.780   2.611 -1.5624  0.0299 -1.5273
 4599TIP3   OH213760   3.872   2.769   4.732 -0.5286  0.0715 -0.2301
 4599TIP3    H113761   3.791   2.761   4.782  0.2126  1.3247  1.2791
 4599TIP3    H213762   3.940   2.777   4.799  0.7104  0.2435 -1.4651
 4600TIP3   OH213763   0.433   6.772   3.025 -0.1147 -0.3025  0.2713
 4600TIP3    H113764   0.487   6.701   2.990  0.8710  0.4526  0.2345
 4600TIP3    H213765   0.485   6.810   3.095 -1.0556 -0.2321  0.9465
 4601TIP3   OH213766   2.177   4.940   4.056  0.3250  0.6727 -0.0080
 4601TIP3    H113767   2.245   4.877   4.079 -0.6294  0.0041  1.0879
 4601TIP3    H213768   2.140   4.967   4.139 -0.3000  1.5378 -0.5529
 4602TIP3   OH213769   1.329   1.361   2.957 -0.4067  0.0339 -0.2938
 4602TIP3    H113770   1.336   1.406   2.873  0.4041  0.5555  0.0417
 4602TIP3    H213771   1.320   1.268   2.934 -1.5616  0.2865 -0.9763
 4603TIP3   OH213772   6.334   2.776   4.803 -0.1042 -0.2175  0.4374
 4603TIP3    H113773   6.310   2.828   4.880 -0.0630 -1.4803  1.3424
 4603TIP3    H213774   6.359   2.691   4.839  1.4488 -0.3520 -0.8494
 4604TIP3   OH213775   5.653   1.955   4.274 -0.5992 -0.1192 -0.1499
 4604TIP3    H113776   5.681   1.865   4.290 -0.6233 -0.0430  0.3373
 4604TIP3    H213777   5.649   1.962   4.179 -0.2377 -0.5229 -0.1999
 4605TIP3   OH213778   6.346   5.346   0.318 -0.4488 -0.5744  0.0218
 4605TIP3    H113779   6.419   5.317   0.263  0.7525 -1.4369  1.9574
 4605TIP3    H213780   6.379   5.426   0.361  0.0007 -1.7567  2.0153
 4606TIP3   OH213781   0.784   2.964   4.377  0.3750  0.7588 -0.4840
 4606TIP3    H113782   0.706   2.922   4.413  0.5702 -0.4482 -1.4293
 4606TIP3    H213783   0.843   2.892   4.357  2.1921  1.6932  1.1809
 4607TIP3   OH213784   6.910   2.929   3.592  0.6151 -0.2618  0.3980
 4607TIP3    H113785   7.005   2.943   3.602  0.4166  1.8674 -0.1397
 4607TIP3    H213786   6.886   2.877   3.668  2.0774 -0.0439  1.0618
 4608TIP3   OH213787   6.440   2.938   1.821 -0.1161  1.2174 -0.1736
 4608TIP3    H113788   6.435   3.013   1.762  0.7367  0.5714 -1.1130
 4608TIP3    H213789   6.529   2.905   1.809 -0.4940  0.0370  0.1963
 4609TIP3   OH213790   2.203   0.809   3.699  0.2735 -0.3243  0.3218
 4609TIP3    H113791   2.141   0.882   3.700  1.0238  0.3246  0.4683
 4609TIP3    H213792   2.280   0.842   3.747  1.4144 -0.5006 -1.3044
 4610TIP3   OH213793   3.021   4.018   2.247 -0.6478 -0.7704 -0.2001
 4610TIP3    H113794   3.005   4.004   2.154 -2.4385 -0.1236 -0.0187
 4610TIP3    H213795   3.082   4.092   2.250  0.6017 -1.7337 -0.8653
 4611TIP3   OH213796   2.210   0.340   0.698 -0.2704  0.0739  0.9768
 4611TIP3    H113797   2.147   0.388   0.645  0.2709  0.0953  0.3321
 4611TIP3    H213798   2.285   0.400   0.705  0.8658 -1.0801 -0.7802
 4612TIP3   OH213799   4.507   5.983   5.194 -0.1597  0.1345 -0.0805
 4612TIP3    H113800   4.524   5.890   5.182 -0.9515 -0.1838  1.0147
 4612TIP3    H213801   4.413   5.987   5.213 -0.1579  1.1718 -0.2470
 4613TIP3   OH213802   0.127   2.902   5.891 -0.6823 -0.1293 -0.2344
 4613TIP3    H113803   0.080   2.985   5.902 -0.7831  0.2137 -2.7445
 4613TIP3    H213804   0.061   2.842   5.856  0.1580 -0.3125 -1.5519
 4614TIP3   OH213805   1.711   6.700   5.327 -0.2433  0.3371  0.0818
 4614TIP3    H113806   1.666   6.618   5.308  1.3704 -0.5432 -0.0977
 4614TIP3    H213807   1.722   6.743   5.243  1.3984 -0.6332 -0.2464
 4615TIP3   OH213808   1.994   4.107   4.179 -0.2013  0.2606  0.2719
 4615TIP3    H113809   2.040   4.032   4.217 -1.4182 -0.9278 -0.5121
 4615TIP3    H213810   1.938   4.139   4.250 -0.6495 -0.4010  0.2196
 4616TIP3   OH213811   5.735   4.657   2.786 -0.3056 -0.1248 -0.2687
 4616TIP3    H113812   5.715   4.748   2.808 -0.1604  0.0781 -0.9374
 4616TIP3    H213813   5.784   4.624   2.861 -0.0367  0.4644 -0.1815
 4617TIP3   OH213814   4.881   4.333   1.902 -0.4368  0.0069  0.2217
 4617TIP3    H113815   4.821   4.270   1.942 -0.4515 -0.6186 -0.7577
 4617TIP3    H213816   4.849   4.344   1.813  0.9257 -0.3838 -0.3468
 4618TIP3   OH213817   6.546   2.061   2.999 -0.0300 -0.4779  0.1660
 4618TIP3    H113818   6.557   2.109   3.081  3.1706  2.7381 -1.8373
 4618TIP3    H213819   6.595   1.979   3.012  0.8055  0.1826  1.3436
 4619TIP3   OH213820   7.066   1.903   2.051 -0.1247 -0.1452 -0.7366
 4619TIP3    H113821   7.028   1.933   1.968  0.3046  0.5827 -0.6835
 4619TIP3    H213822   7.151   1.866   2.025 -0.3622 -0.7052 -0.7203
 4620TIP3   OH213823   5.080   5.338   2.339  0.4785 -0.0096 -0.1555
 4620TIP3    H113824   5.144   5.400   2.302  1.4132 -0.6194  0.4036
 4620TIP3    H213825   5.100   5.255   2.297 -2.7223  0.5391 -3.2551
 4621TIP3   OH213826   5.581   5.227   2.671 -0.1303 -0.5029  0.1068
 4621TIP3    H113827   5.658   5.183   2.634 -0.1510  0.5154 -1.2441
 4621TIP3    H213828   5.512   5.212   2.606 -0.8320 -0.6712  0.8872
 4622TIP3   OH213829   2.264   4.335   3.149 -0.1968 -0.1737  0.2422
 4622TIP3    H113830   2.194   4.271   3.165 -0.2475  0.0161  0.7723
 4622TIP3    H213831   2.261   4.394   3.224  0.7969 -0.3911  0.4669
 4623TIP3   OH213832   5.712   2.383   2.668 -0.3352 -0.0815  0.1419
 4623TIP3    H113833   5.742   2.298   2.634 -2.2419 -0.5714 -0.4121
 4623TIP3    H213834   5.677   2.363   2.755  1.9268  0.7008  1.3174
 4624TIP3   OH213835   1.443   4.579   5.804  0.7202 -0.3767 -0.0921
 4624TIP3    H113836   1.515   4.636   5.828 -0.0311  0.4252  0.3130
 4624TIP3    H213837   1.464   4.495   5.846  2.6893 -0.9816 -2.1012
 4625TIP3   OH213838   0.909   0.084   5.803 -0.0793  0.0946  0.2312
 4625TIP3    H113839   0.852   0.011   5.825 -0.1384  0.7164  2.3225
 4625TIP3    H213840   0.886   0.106   5.713  0.1394 -2.5991 -0.5613
 4626TIP3   OH213841   1.261   3.390   3.183 -0.6694 -0.2115  0.1804
 4626TIP3    H113842   1.216   3.363   3.103 -1.6343 -0.1197  0.6867
 4626TIP3    H213843   1.207   3.460   3.219 -0.9938 -1.1757  1.6347
 4627TIP3   OH213844   2.756   0.496   2.341  0.3099  0.3050  0.3583
 4627TIP3    H113845   2.669   0.457   2.342  0.7384 -0.9001  3.6414
 4627TIP3    H213846   2.744   0.583   2.378  0.5104  0.0458  1.0453
 4628TIP3   OH213847   6.397   0.867   5.830 -0.0462  0.2908 -0.4742
 4628TIP3    H113848   6.319   0.828   5.791 -1.4143  1.3725  1.0449
 4628TIP3    H213849   6.434   0.797   5.885 -1.7774  0.6847  1.2723
 4629TIP3   OH213850   5.492   4.526   1.579  0.3673  0.1301  0.2547
 4629TIP3    H113851   5.482   4.609   1.532  2.1252  0.9562  1.2531
 4629TIP3    H213852   5.424   4.470   1.542  0.3970  1.3629 -1.8414
 4630TIP3   OH213853   4.835   3.087   2.690 -0.1646 -0.1567 -0.2523
 4630TIP3    H113854   4.830   3.165   2.635 -0.6396 -0.0103 -0.0104
 4630TIP3    H213855   4.744   3.063   2.706 -0.0269 -0.4087  0.1721
 4631TIP3   OH213856   5.494   3.489   4.335 -0.7887  0.3329 -0.2216
 4631TIP3    H113857   5.529   3.576   4.355  0.8926 -0.7923  2.2392
 4631TIP3    H213858   5.571   3.433   4.329 -1.9046 -1.2751 -0.1910
 4632TIP3   OH213859   0.692   0.036   5.457 -0.3191  0.2525  0.3150
 4632TIP3    H113860   0.678   0.032   5.551 -1.2049  0.5268  0.2035
 4632TIP3    H213861   0.620  -0.015   5.419 -0.0818  0.3058 -0.2168
 4633TIP3   OH213862   6.379   2.060   3.979 -0.2784  0.0100 -0.1644
 4633TIP3    H113863   6.421   1.976   3.999  0.1828  0.2700 -0.0154
 4633TIP3    H213864   6.331   2.082   4.059  0.5274  0.4317  0.2182
 4634TIP3   OH213865   6.376   4.653   2.958  0.3797 -0.2074 -0.0698
 4634TIP3    H113866   6.360   4.637   3.051  1.5227  3.2527  0.8692
 4634TIP3    H213867   6.289   4.671   2.921  0.0703 -0.1908  0.6567
 4635TIP3   OH213868   0.270   1.138   1.963 -0.3613 -0.0347  0.3078
 4635TIP3    H113869   0.292   1.119   2.054 -0.7799  1.3726  0.7260
 4635TIP3    H213870   0.198   1.078   1.943 -0.6998  0.0833  1.1239
 4636TIP3   OH213871   1.619   1.317   2.444  0.0034 -0.4094  0.0466
 4636TIP3    H113872   1.689   1.383   2.445 -0.4933  0.1204  0.8181
 4636TIP3    H213873   1.576   1.327   2.528 -0.5473 -1.2339 -0.1317
 4637TIP3   OH213874   1.470   2.247   0.789  0.1321 -0.6471  0.1749
 4637TIP3    H113875   1.545   2.269   0.733 -0.5681 -1.2355 -1.0146
 4637TIP3    H213876   1.436   2.332   0.817 -0.8860 -0.2186 -2.1476
 4638TIP3   OH213877   3.290   5.868   0.617  0.4350 -0.3671 -0.8773
 4638TIP3    H113878   3.304   5.783   0.575  0.6145 -0.3718 -0.8049
 4638TIP3    H213879   3.209   5.900   0.577  0.5807 -0.3916 -1.1944
 4639TIP3   OH213880   6.488   4.897   4.550  0.5553  0.7812  0.2522
 4639TIP3    H113881   6.402   4.939   4.551  0.9462  1.6862 -1.1871
 4639TIP3    H213882   6.470   4.803   4.556 -0.5853  0.9088 -0.8477
 4640TIP3   OH213883   1.612   4.551   0.915  0.0990 -0.2933  0.1770
 4640TIP3    H113884   1.639   4.487   0.850 -0.7032  0.8224 -1.3210
 4640TIP3    H213885   1.693   4.595   0.941  0.3105  0.0540 -0.9962
 4641TIP3   OH213886   3.981   0.318   1.682 -0.5092  0.1992 -0.4361
 4641TIP3    H113887   3.929   0.241   1.660 -0.0960 -0.4177  0.6534
 4641TIP3    H213888   3.965   0.332   1.776 -0.6505  1.5059 -0.6368
 4642TIP3   OH213889   0.452   3.667   0.968  0.3497 -0.2094 -0.1001
 4642TIP3    H113890   0.373   3.648   1.019  1.1807  0.6144  1.5801
 4642TIP3    H213891   0.480   3.753   0.999  1.0950  0.1771 -1.7427
 4643TIP3   OH213892   4.286   5.778   5.283  0.2295 -0.4481 -0.2813
 4643TIP3    H113893   4.284   5.831   5.363  0.2837 -0.3364 -0.3531
 4643TIP3    H213894   4.356   5.715   5.298  1.0885  0.3627 -0.7325
 4644TIP3   OH213895   3.311   3.786   3.317  0.3399 -0.5744 -0.4623
 4644TIP3    H113896   3.277   3.818   3.401  0.7391  0.7814 -0.7938
 4644TIP3    H213897   3.240   3.804   3.255  0.8242  0.3554 -0.7746
 4645TIP3   OH213898   6.186   3.998   1.534 -0.0956  0.0151 -0.2197
 4645TIP3    H113899   6.252   4.057   1.497  0.9268 -0.9003  0.1165
 4645TIP3    H213900   6.178   3.928   1.469  0.7450 -0.9099  0.6493
 4646TIP3   OH213901   4.078   3.546   4.926  0.0041  0.3032  0.2828
 4646TIP3    H113902   3.999   3.569   4.877 -0.0093 -1.3098 -0.4965
 4646TIP3    H213903   4.084   3.451   4.920  1.8075  0.3561  0.6416
 4647TIP3   OH213904   3.808   3.030   4.653 -0.5651  0.1211  0.3854
 4647TIP3    H113905   3.797   3.056   4.744  2.3080 -0.3340  0.9557
 4647TIP3    H213906   3.846   2.942   4.657  0.4807  0.4556 -1.1786
 4648TIP3   OH213907   2.959   3.404   2.459  0.4962 -0.2420 -0.0998
 4648TIP3    H113908   2.890   3.353   2.416  0.2059  0.6485 -0.7069
 4648TIP3    H213909   3.020   3.426   2.389  0.0656  1.1430 -0.0704
 4649TIP3   OH213910   6.043   4.023   4.958 -0.2065  0.3990  0.1961
 4649TIP3    H113911   6.074   3.960   5.022  1.5255 -1.2310 -2.0592
 4649TIP3    H213912   5.948   4.011   4.957  0.0602 -2.6173 -0.4307
 4650TIP3   OH213913   1.467   4.149   5.081 -0.5118 -0.2301  0.1843
 4650TIP3    H113914   1.406   4.128   5.152  1.5249  0.0161  2.1599
 4650TIP3    H213915   1.492   4.063   5.046  0.0617 -0.5330  1.2659
 4651TIP3   OH213916   2.869   3.312   0.911  0.4000  0.0494  0.3776
 4651TIP3    H113917   2.865   3.254   0.835 -0.2283  1.3172 -0.5956
 4651TIP3    H213918   2.960   3.307   0.940  0.4866 -0.9804 -0.0349
 4652TIP3   OH213919   1.670   4.900   3.482 -0.6542 -0.0214 -0.3494
 4652TIP3    H113920   1.684   4.878   3.390 -0.0296  1.0262 -0.5201
 4652TIP3    H213921   1.728   4.975   3.498  0.3314 -1.0749  1.2782
 4653TIP3   OH213922   1.769   6.477   2.790  0.7142  0.0509  0.1889
 4653TIP3    H113923   1.864   6.466   2.799  0.8438 -1.3677 -2.1070
 4653TIP3    H213924   1.747   6.431   2.708 -1.9931  0.1189  0.7820
 4654TIP3   OH213925   5.588   2.969   5.041 -0.4963 -0.5035 -0.5044
 4654TIP3    H113926   5.594   2.995   4.949 -3.0747  1.3835 -0.2246
 4654TIP3    H213927   5.558   2.878   5.038  1.3477 -1.1408 -1.4725
 4655TIP3   OH213928   2.554   6.046   4.128  0.8742  0.3315 -0.3756
 4655TIP3    H113929   2.610   6.119   4.103  2.8186 -0.3639  1.6142
 4655TIP3    H213930   2.514   6.017   4.046  3.0571  1.1999 -1.8293
 4656TIP3   OH213931   2.706   6.098   0.172  0.0175  0.3091  0.2207
 4656TIP3    H113932   2.744   6.131   0.090 -0.7738  3.1029  0.8590
 4656TIP3    H213933   2.769   6.124   0.239 -0.4080  0.0379  0.7271
 4657TIP3   OH213934   1.664   0.577   4.311  0.1943 -0.5319  0.1769
 4657TIP3    H113935   1.571   0.594   4.319  0.8316  2.8051  2.5103
 4657TIP3    H213936   1.697   0.648   4.255  1.7479  0.5091  2.3020
 4658TIP3   OH213937   3.526   5.245   3.125  0.3430  0.1982  0.1623
 4658TIP3    H113938   3.523   5.192   3.204 -0.4000 -1.4931 -0.9409
 4658TIP3    H213939   3.456   5.309   3.136  0.4447  0.1786  0.9834
 4659TIP3   OH213940   1.704   5.946   2.071  0.3639 -0.5583  0.3234
 4659TIP3    H113941   1.669   6.029   2.038  1.0288 -0.6727 -0.7228
 4659TIP3    H213942   1.780   5.971   2.123  1.2588 -0.5619 -0.9480
 4660TIP3   OH213943   2.175   6.286   3.359 -0.1218 -0.6541  0.0827
 4660TIP3    H113944   2.255   6.301   3.309 -0.7194 -3.7956 -2.0920
 4660TIP3    H213945   2.109   6.265   3.293 -1.7628 -1.9123  2.0038
 4661TIP3   OH213946   2.373   4.256   2.873  0.3053 -0.4343  0.1996
 4661TIP3    H113947   2.346   4.277   2.963  0.9137 -0.4612  0.3890
 4661TIP3    H213948   2.418   4.172   2.880  1.5655  0.2049  0.0937
 4662TIP3   OH213949   0.290   6.576   4.563 -0.0082  0.3270 -0.6185
 4662TIP3    H113950   0.381   6.587   4.591  0.5158 -2.3715 -0.9720
 4662TIP3    H213951   0.264   6.662   4.532  2.0691  1.4255  0.4717
 4663TIP3   OH213952   2.260   4.623   1.937 -0.1609  0.2298 -0.0302
 4663TIP3    H113953   2.187   4.684   1.942 -0.7434 -0.4000 -0.7243
 4663TIP3    H213954   2.282   4.618   1.844 -0.9269 -1.5386 -0.1613
 4664TIP3   OH213955   1.917   0.028   3.441  0.5824  0.5108 -0.6705
 4664TIP3    H113956   1.881   0.094   3.381  2.0765  0.8763 -1.2274
 4664TIP3    H213957   1.914  -0.054   3.392 -2.1290 -0.0932  0.3537
 4665TIP3   OH213958   4.920   6.428   3.238 -0.7961  0.2748  0.4993
 4665TIP3    H113959   4.977   6.410   3.162  0.9170  1.0757  1.5280
 4665TIP3    H213960   4.890   6.518   3.225 -1.0912  0.1648  0.4151
 4666TIP3   OH213961   5.524   2.027   4.814  0.3973 -0.4255 -0.2722
 4666TIP3    H113962   5.456   1.960   4.802 -0.0630 -0.5638  2.5185
 4666TIP3    H213963   5.606   1.978   4.815  0.1594 -0.8280  0.5495
 4667TIP3   OH213964   6.395   6.703   1.485  0.4655 -0.1160 -0.4792
 4667TIP3    H113965   6.382   6.634   1.421 -0.4043 -0.2396 -0.1854
 4667TIP3    H213966   6.464   6.758   1.448 -0.4892  0.2160 -1.8600
 4668TIP3   OH213967   4.176   4.867   3.685  0.6473  0.4280  0.6341
 4668TIP3    H113968   4.174   4.912   3.601 -1.0198  0.8130  0.8498
 4668TIP3    H213969   4.127   4.924   3.744 -1.3286 -1.5035  0.9783
 4669TIP3   OH213970   0.787   0.973  -0.023 -0.3088 -0.1746  0.6313
 4669TIP3    H113971   0.809   1.019   0.058 -0.4365  0.7122  0.1639
 4669TIP3    H213972   0.830   0.887  -0.013  1.7070  0.7702  0.6226
 4670TIP3   OH213973   1.461   4.976   0.479 -0.5535 -0.1151  1.0527
 4670TIP3    H113974   1.436   4.945   0.566  0.5393 -2.2895  0.6684
 4670TIP3    H213975   1.465   4.896   0.425 -1.1035  1.1600 -0.9766
 4671TIP3   OH213976   5.797   1.470   5.151 -0.3743  0.1091  0.4473
 4671TIP3    H113977   5.800   1.536   5.220  0.0901 -1.1449  1.6713
 4671TIP3    H213978   5.710   1.430   5.160  0.0076 -0.6407  0.8854
 4672TIP3   OH213979   6.344   1.184   2.322 -0.4090 -0.2685  0.6058
 4672TIP3    H113980   6.401   1.195   2.398  0.5610  1.8169 -0.3467
 4672TIP3    H213981   6.258   1.164   2.359  0.3667 -0.8848  2.1650
 4673TIP3   OH213982   2.648   1.789   2.165  0.3583 -0.6834 -0.6609
 4673TIP3    H113983   2.603   1.853   2.109  2.1477 -0.4640 -1.9380
 4673TIP3    H213984   2.605   1.705   2.145 -0.5993 -0.2173 -0.5709
 4674TIP3   OH213985   0.967   1.379   2.571  0.4729  0.4096  0.0893
 4674TIP3    H113986   0.962   1.474   2.559  0.4436  0.0627 -3.4649
 4674TIP3    H213987   0.888   1.344   2.529  0.1507 -1.2174  1.8876
 4675TIP3   OH213988   6.398   5.886   1.781 -0.4742 -0.1371  0.0578
 4675TIP3    H113989   6.404   5.932   1.865  4.1595  0.2478 -0.2089
 4675TIP3    H213990   6.428   5.797   1.799 -1.2128 -0.5977 -0.8796
 4676TIP3   OH213991   5.563   3.102   3.070  0.2848 -0.0541 -0.6251
 4676TIP3    H113992   5.551   3.007   3.082 -1.4829  0.1495 -0.4755
 4676TIP3    H213993   5.638   3.109   3.010 -0.8523 -1.6516 -2.3725
 4677TIP3   OH213994   7.060   0.458   3.980 -0.6557 -0.0990 -0.1164
 4677TIP3    H113995   7.099   0.434   3.896 -2.0352 -1.5873 -0.3736
 4677TIP3    H213996   7.129   0.441   4.044 -0.2682 -0.9247 -0.7353
 4678TIP3   OH213997   0.820   3.461   4.569 -0.7416  0.1269 -0.5726
 4678TIP3    H113998   0.753   3.428   4.509 -0.6288  2.2305 -1.9369
 4678TIP3    H213999   0.773   3.518   4.629 -0.4500  0.0553 -0.2720
 4679TIP3   OH214000   4.710   2.453   4.979  0.1266 -0.2182  0.4566
 4679TIP3    H114001   4.689   2.469   4.887 -0.7876  0.0293  0.6958
 4679TIP3    H214002   4.765   2.527   5.004 -1.7086  1.0828  0.7765
 4680TIP3   OH214003   1.757   3.859   2.464 -0.0733 -0.6254 -0.1374
 4680TIP3    H114004   1.797   3.913   2.532 -2.8933  0.3721  0.8490
 4680TIP3    H214005   1.769   3.769   2.494  1.0730 -0.3464  0.2817
 4681TIP3   OH214006   1.376   2.847   0.801 -0.3405 -0.0569  0.3981
 4681TIP3    H114007   1.385   2.942   0.801 -0.5043 -0.0409  0.5305
 4681TIP3    H214008   1.437   2.817   0.734 -0.7979  0.1915 -0.1444
 4682TIP3   OH214009   6.916   6.207   2.427  0.5686 -0.4890  0.0474
 4682TIP3    H114010   6.934   6.281   2.369  0.9053 -1.0051 -0.5126
 4682TIP3    H214011   6.999   6.189   2.471 -0.2980  1.7786  2.9776
 4683TIP3   OH214012   2.727   5.864   3.509  0.3070 -0.4081  0.4112
 4683TIP3    H114013   2.701   5.934   3.448  0.6680 -0.3218  0.3524
 4683TIP3    H214014   2.646   5.819   3.529  0.1199 -0.1819  0.1808
 4684TIP3   OH214015   1.590   0.049   2.128  0.0781  0.3652  0.2082
 4684TIP3    H114016   1.507   0.064   2.173  0.1060  0.7694  0.1241
 4684TIP3    H214017   1.567   0.053   2.035  0.4068  1.6993  0.1725
 4685TIP3   OH214018   5.873   1.649   5.352  0.8184 -0.1408 -0.3127
 4685TIP3    H114019   5.857   1.591   5.426  0.4694 -0.4078 -0.5948
 4685TIP3    H214020   5.897   1.733   5.392  0.0730 -0.1227  0.1084
 4686TIP3   OH214021   2.476   3.241   1.072  0.0822 -0.4318  0.5114
 4686TIP3    H114022   2.446   3.210   0.987 -2.0760 -0.9265  1.3854
 4686TIP3    H214023   2.532   3.170   1.104  1.3568 -0.0021 -0.6892
 4687TIP3   OH214024   2.220   3.699   5.829  0.0924  0.0162  0.0780
 4687TIP3    H114025   2.244   3.607   5.818  0.9962  0.4314 -1.7745
 4687TIP3    H214026   2.126   3.697   5.846  0.2664 -1.2922  0.9885
 4688TIP3   OH214027   5.639   4.247   4.625  0.1156  0.1676 -0.0686
 4688TIP3    H114028   5.731   4.270   4.643  0.0967  0.6791 -0.5719
 4688TIP3    H214029   5.589   4.313   4.673  0.0355  0.5383 -0.6582
 4689TIP3   OH214030   1.073   4.336   0.939  0.0020  0.2474  0.2298
 4689TIP3    H114031   1.015   4.404   0.904  0.6837  0.3567 -0.7429
 4689TIP3    H214032   1.152   4.383   0.965 -1.2079  0.4803  3.9325
 4690TIP3   OH214033   5.822   5.720   3.775  0.2941 -0.6298 -0.6581
 4690TIP3    H114034   5.873   5.709   3.855 -0.2509  0.5844 -0.1034
 4690TIP3    H214035   5.802   5.631   3.746  0.2128 -1.0877  0.7494
 4691TIP3   OH214036   1.026   3.074   3.651 -0.1235 -0.0137 -0.2123
 4691TIP3    H114037   1.100   3.086   3.710 -1.4604 -0.6661  1.6618
 4691TIP3    H214038   0.972   3.152   3.662 -0.2721 -0.0268 -0.7698
 4692TIP3   OH214039   5.929   1.563   4.576  0.2509  0.4044  0.2853
 4692TIP3    H114040   5.899   1.475   4.599 -0.7638  0.4065 -0.8855
 4692TIP3    H214041   5.853   1.604   4.535  1.0475  1.4188 -0.2275
 4693TIP3   OH214042   4.594   1.274   3.316 -0.9428  0.2895  0.0967
 4693TIP3    H114043   4.684   1.262   3.287 -0.7548  0.0440  0.7534
 4693TIP3    H214044   4.592   1.364   3.350 -0.7492  0.0513  0.7499
 4694TIP3   OH214045   6.798   4.895   0.930 -0.4785 -0.6516 -0.4241
 4694TIP3    H114046   6.884   4.870   0.897 -0.6579  0.7715 -2.1582
 4694TIP3    H214047   6.810   4.985   0.962 -1.0886 -0.8253  0.3088
 4695TIP3   OH214048   3.883   5.667   4.851 -0.1951  0.4719 -0.1451
 4695TIP3    H114049   3.853   5.663   4.760 -1.0682 -0.4025  0.1671
 4695TIP3    H214050   3.939   5.590   4.862 -0.9248  0.0001  0.3370
 4696TIP3   OH214051   7.070   3.912   0.491  0.0808 -0.0082 -0.2071
 4696TIP3    H114052   7.085   3.871   0.406  1.3728  1.7291 -0.9014
 4696TIP3    H214053   6.977   3.933   0.492  0.0544 -0.0456 -1.2044
 4697TIP3   OH214054   1.078   4.210   1.336 -0.2638 -0.0047  0.3868
 4697TIP3    H114055   1.083   4.306   1.338  0.5415 -0.0050 -0.5498
 4697TIP3    H214056   1.106   4.182   1.423 -2.2385  0.6411  1.2876
 4698TIP3   OH214057   5.839   3.955   0.415  0.0620  0.3234 -0.3568
 4698TIP3    H114058   5.833   3.876   0.361  1.4542  0.5572 -0.9226
 4698TIP3    H214059   5.793   4.022   0.365  1.5152  0.5889 -1.4345
 4699TIP3   OH214060   3.575   0.562   1.334  0.6844  0.0590 -0.2378
 4699TIP3    H114061   3.565   0.474   1.373 -0.4851 -0.3031 -1.2947
 4699TIP3    H214062   3.488   0.601   1.343  0.8712  0.6346 -0.9150
 4700TIP3   OH214063   0.615   1.721   3.470 -0.1507 -0.2796 -0.1157
 4700TIP3    H114064   0.651   1.803   3.435  0.7586 -0.9399 -0.7740
 4700TIP3    H214065   0.556   1.690   3.401  1.6249 -1.5712 -1.1266
 4701TIP3   OH214066   0.559   2.858   4.450 -0.0844  0.3793  0.0392
 4701TIP3    H114067   0.591   2.772   4.479  2.6449  0.8437 -1.2096
 4701TIP3    H214068   0.476   2.839   4.406  0.1133 -1.5113  0.3842
 4702TIP3   OH214069   2.873   2.128   2.275 -0.1969  0.5431 -0.0065
 4702TIP3    H114070   2.879   2.034   2.258  0.0904  0.6087 -0.2836
 4702TIP3    H214071   2.927   2.142   2.352 -0.5848  0.4164  0.2903
 4703TIP3   OH214072   6.756   6.355   4.183 -0.3684 -0.2317  0.2087
 4703TIP3    H114073   6.768   6.335   4.090  0.5498  0.7479  0.0927
 4703TIP3    H214074   6.813   6.430   4.199 -1.2591  0.2400  1.3463
 4704TIP3   OH214075   1.472   5.107   3.223 -0.3945  0.3877 -0.4535
 4704TIP3    H114076   1.449   5.067   3.139 -1.1784  2.0516 -1.0776
 4704TIP3    H214077   1.411   5.068   3.286 -0.1888 -0.4433 -0.7683
 4705TIP3   OH214078   1.713   1.372   4.123 -0.6473 -0.0124 -0.6930
 4705TIP3    H114079   1.751   1.345   4.039  0.0554  0.4059 -0.5174
 4705TIP3    H214080   1.631   1.323   4.129 -0.4896 -0.3808 -1.4205
 4706TIP3   OH214081   2.131   6.130   4.011 -0.1340 -0.4359 -0.1519
 4706TIP3    H114082   2.216   6.093   4.035 -0.1774 -0.4042  0.0515
 4706TIP3    H214083   2.067   6.070   4.048 -0.2171  0.3923  1.1042
 4707TIP3   OH214084   6.890   0.272   5.639  0.5396 -0.6340 -0.0232
 4707TIP3    H114085   6.795   0.276   5.634  0.5197  0.4443  0.7061
 4707TIP3    H214086   6.908   0.191   5.687  0.0364 -1.3073 -0.9581
 4708TIP3   OH214087   3.859   5.450   4.340 -0.3929  1.1745  0.2272
 4708TIP3    H114088   3.943   5.447   4.295 -0.0664 -0.2429  0.8593
 4708TIP3    H214089   3.817   5.530   4.308  0.0028  0.4767 -2.2579
 4709TIP3   OH214090   2.005   4.729   2.921 -0.3483 -0.6419 -0.1055
 4709TIP3    H114091   2.002   4.740   3.016 -1.0482 -0.9043 -0.0863
 4709TIP3    H214092   1.940   4.792   2.888  1.4053  1.0066 -0.5814
 4710TIP3   OH214093   0.136   3.039   0.164  0.0756 -0.1558  0.8175
 4710TIP3    H114094   0.166   2.972   0.226  1.7277  0.3612  0.6010
 4710TIP3    H214095   0.046   3.012   0.144  0.7882 -2.5502  0.4314
 4711TIP3   OH214096   4.163   6.694   0.361 -0.4700 -0.6151 -0.1287
 4711TIP3    H114097   4.110   6.652   0.429  0.7211 -1.5179  0.2867
 4711TIP3    H214098   4.201   6.770   0.405 -0.4731 -0.6479 -0.0686
 4712TIP3   OH214099   3.189   5.889   4.414  0.0174  0.4741  0.1305
 4712TIP3    H114100   3.095   5.870   4.419 -0.1911  1.3003 -0.4409
 4712TIP3    H214101   3.223   5.828   4.349  0.0235 -0.3026  0.8359
 4713TIP3   OH214102   5.386   1.316   4.483  0.2471  0.0331  0.5480
 4713TIP3    H114103   5.452   1.354   4.542  0.9734 -0.5608  0.1387
 4713TIP3    H214104   5.406   1.353   4.398  0.9508 -1.2215  0.1459
 4714TIP3   OH214105   2.396   0.939   5.645  0.3468 -0.3810  0.5549
 4714TIP3    H114106   2.458   0.868   5.634 -1.1842 -1.6491 -0.4312
 4714TIP3    H214107   2.416   1.000   5.573  1.8873  0.4193  1.6124
 4715TIP3   OH214108   5.779   5.652   4.563  0.2912 -0.5907  0.0494
 4715TIP3    H114109   5.783   5.583   4.629  0.5810 -0.4487  0.1807
 4715TIP3    H214110   5.690   5.645   4.527 -0.0131 -0.4140  0.7390
 4716TIP3   OH214111   1.217   5.497   2.033  0.4321 -0.1834 -0.0185
 4716TIP3    H114112   1.261   5.582   2.028  0.6851 -0.3646 -1.1426
 4716TIP3    H214113   1.287   5.435   2.051  0.6116 -0.4224 -1.4282
 4717TIP3   OH214114   1.941   5.939   1.229  0.1299 -0.2332  0.0782
 4717TIP3    H114115   1.908   5.934   1.319 -0.5969 -0.5709 -0.2088
 4717TIP3    H214116   1.874   5.898   1.176 -0.4242  1.7696 -0.8799
 4718TIP3   OH214117   0.680   5.193   3.618  0.5921  0.4621 -0.3172
 4718TIP3    H114118   0.651   5.200   3.708 -0.6450 -1.5146 -0.4985
 4718TIP3    H214119   0.715   5.279   3.597  0.9882  0.9410  2.0539
 4719TIP3   OH214120   6.965   1.878   0.189  0.0920  0.5077 -0.6934
 4719TIP3    H114121   6.877   1.916   0.189 -0.0234  0.2510 -0.2297
 4719TIP3    H214122   7.022   1.951   0.166 -0.3486  0.3957 -2.2615
 4720TIP3   OH214123   5.272   3.724   0.234  0.1780 -0.1470 -0.8280
 4720TIP3    H114124   5.363   3.707   0.259  0.8794  0.7794 -2.5872
 4720TIP3    H214125   5.256   3.815   0.258 -1.2507 -1.0341  2.0159
 4721TIP3   OH214126   3.584   0.372   2.558  0.1526  0.2599 -0.3238
 4721TIP3    H114127   3.529   0.313   2.506 -2.1978  0.9040  1.2311
 4721TIP3    H214128   3.531   0.452   2.567  1.6252  1.1667  0.7500
 4722TIP3   OH214129   0.422   3.920   3.743  0.3190 -0.5133  0.2854
 4722TIP3    H114130   0.475   3.841   3.751  0.0716 -1.0004 -2.0758
 4722TIP3    H214131   0.402   3.945   3.833  1.1418 -2.6251  1.1201
 4723TIP3   OH214132   1.177   3.392   5.474 -0.0772 -0.0951 -0.7393
 4723TIP3    H114133   1.174   3.410   5.568  0.7285  0.3628 -0.7893
 4723TIP3    H214134   1.086   3.398   5.446 -0.4310 -0.9700  0.1336
 4724TIP3   OH214135   3.888   4.527   4.251  0.2618  0.8017  0.1578
 4724TIP3    H114136   3.966   4.492   4.209 -1.6490 -2.3190 -1.1999
 4724TIP3    H214137   3.888   4.489   4.339 -0.3878 -0.4320 -0.3477
 4725TIP3   OH214138   4.534   0.293   4.822 -0.0333 -0.5578  0.2198
 4725TIP3    H114139   4.463   0.293   4.758 -0.9761  0.1081  1.2426
 4725TIP3    H214140   4.545   0.201   4.846  0.3706 -0.8199 -0.9325
 4726TIP3   OH214141   0.362   3.124   3.878 -0.0054 -0.2374 -0.4800
 4726TIP3    H114142   0.402   3.040   3.856  0.0762 -0.2944 -0.1304
 4726TIP3    H214143   0.318   3.152   3.798 -0.3523 -0.7949 -0.4890
 4727TIP3   OH214144   3.708   3.335   2.926  0.8395  0.0138 -0.1209
 4727TIP3    H114145   3.698   3.428   2.945  1.2767  0.4100 -1.6655
 4727TIP3    H214146   3.621   3.306   2.899  1.2406  0.6543 -2.2522
 4728TIP3   OH214147   3.666   5.861   3.753 -0.2712  0.2885  0.2665
 4728TIP3    H114148   3.761   5.851   3.754 -0.3793 -1.1702 -0.7185
 4728TIP3    H214149   3.647   5.917   3.828  1.3038  0.0621  0.8785
 4729TIP3   OH214150   5.473   6.432   4.543  0.1445 -0.5524  0.0904
 4729TIP3    H114151   5.419   6.469   4.613 -1.2603 -3.6587  0.8073
 4729TIP3    H214152   5.555   6.409   4.586  0.4426  0.2549 -0.0207
 4730TIP3   OH214153   6.693   0.088   0.513 -0.3033  0.3289  0.6354
 4730TIP3    H114154   6.714   0.040   0.593  0.1592 -1.4859 -0.5311
 4730TIP3    H214155   6.777   0.110   0.474 -0.4846  2.4520  1.2788
 4731TIP3   OH214156   2.783   5.399   3.997 -0.3713  0.1091  0.1754
 4731TIP3    H114157   2.851   5.390   3.930 -0.2579 -0.7457  0.3975
 4731TIP3    H214158   2.785   5.492   4.020  2.6642 -0.2898  2.1841
 4732TIP3   OH214159   3.325   3.506   3.964  0.1179 -0.3211  0.2760
 4732TIP3    H114160   3.360   3.592   3.988  0.0026  0.3929 -1.9045
 4732TIP3    H214161   3.322   3.507   3.868 -2.3452 -1.7674  0.2527
 4733TIP3   OH214162   4.595   4.027   3.554 -0.6287  0.2037  0.1881
 4733TIP3    H114163   4.583   4.107   3.607 -2.7619  0.7799 -1.0304
 4733TIP3    H214164   4.681   4.038   3.514 -0.8223  1.8964  0.1269
 4734TIP3   OH214165   4.953   3.180   5.106 -0.2101  0.5529 -0.8972
 4734TIP3    H114166   4.935   3.102   5.054 -1.9172 -0.1456  0.6542
 4734TIP3    H214167   5.038   3.163   5.148 -0.0657  0.0108 -1.4050
 4735TIP3   OH214168   2.952   3.709   4.985  0.0869  0.3550  0.4114
 4735TIP3    H114169   2.957   3.755   5.070  0.3226  0.2648  0.4468
 4735TIP3    H214170   2.882   3.755   4.938  0.1949  0.6360  0.5182
 4736TIP3   OH214171   4.051   2.442   3.054  0.1137 -0.2941  0.0062
 4736TIP3    H114172   4.084   2.508   2.994 -0.4491  0.6515  0.7093
 4736TIP3    H214173   3.993   2.388   3.001 -1.4638  1.3597 -0.0582
 4737TIP3   OH214174   5.776   4.359   2.570  0.6316 -0.1049  0.3732
 4737TIP3    H114175   5.691   4.403   2.572  0.8126  0.4890 -2.0166
 4737TIP3    H214176   5.759   4.276   2.526  1.3760  0.3251 -0.7722
 4738TIP3   OH214177   2.453   0.119   3.941 -0.2028  0.0188 -0.1808
 4738TIP3    H114178   2.548   0.124   3.949 -0.2866  0.3561  0.6556
 4738TIP3    H214179   2.422   0.100   4.029 -0.8860 -0.5566 -0.5322
 4739TIP3   OH214180   2.909   3.715   3.667 -0.1316 -0.5957 -0.3327
 4739TIP3    H114181   2.949   3.798   3.693  0.3800 -0.4107 -1.5942
 4739TIP3    H214182   2.925   3.656   3.740 -0.4363  0.3819  0.5558
 4740TIP3   OH214183   4.468   2.457   3.008  0.3130 -0.1988 -0.9147
 4740TIP3    H114184   4.422   2.373   2.998  2.0663 -1.1924 -1.1941
 4740TIP3    H214185   4.399   2.520   3.027 -1.0014 -1.8471  0.1202
 4741TIP3   OH214186   3.946   3.337   3.831  0.1873 -0.4462 -0.8449
 4741TIP3    H114187   3.930   3.270   3.898 -1.4840  0.6849 -0.0386
 4741TIP3    H214188   4.030   3.376   3.857  1.0893 -2.0397 -1.2198
 4742TIP3   OH214189   0.354   1.464   5.522  0.2298  0.9385 -0.4074
 4742TIP3    H114190   0.280   1.499   5.572 -1.1193 -0.4861 -1.2810
 4742TIP3    H214191   0.325   1.470   5.431  0.6688 -0.7771 -0.6875
 4743TIP3   OH214192   0.134   4.168   4.647 -0.5511 -0.1845 -0.2430
 4743TIP3    H114193   0.117   4.094   4.706  3.2295  0.6510  2.2957
 4743TIP3    H214194   0.196   4.134   4.583 -1.3395  0.0110 -1.1290
 4744TIP3   OH214195   5.658   4.351   1.426  0.8421 -0.6366 -0.0569
 4744TIP3    H114196   5.651   4.406   1.348  2.2442 -0.1418  0.1346
 4744TIP3    H214197   5.599   4.391   1.490 -0.7103 -1.3448 -0.9975
 4745TIP3   OH214198   1.779   5.094   1.248 -0.5510  0.2462 -0.0293
 4745TIP3    H114199   1.783   5.182   1.286 -1.6064  0.8153 -1.1677
 4745TIP3    H214200   1.691   5.063   1.268 -0.5434 -0.1301 -0.5599
 4746TIP3   OH214201   4.642   1.635   4.036  0.5507  0.2698 -0.3577
 4746TIP3    H114202   4.564   1.579   4.037 -0.8515  2.0960 -1.0133
 4746TIP3    H214203   4.695   1.604   4.109  0.0795 -2.1701 -0.9576
 4747TIP3   OH214204   5.185   5.239   4.886  0.3759  0.0271  0.1344
 4747TIP3    H114205   5.183   5.165   4.946 -0.6717 -0.3086 -0.2981
 4747TIP3    H214206   5.277   5.244   4.858  0.5650 -0.7640  0.5664
 4748TIP3   OH214207   2.248   2.698   5.412 -0.0364  0.1075 -0.4793
 4748TIP3    H114208   2.255   2.606   5.436  3.3454  0.4571  0.3803
 4748TIP3    H214209   2.229   2.743   5.495 -0.2520  0.2967 -0.6305
 4749TIP3   OH214210   5.816   4.833   2.080 -0.2475  0.2617 -0.2834
 4749TIP3    H114211   5.858   4.811   2.163 -0.2740  1.1097 -0.0326
 4749TIP3    H214212   5.874   4.899   2.042 -0.2103 -0.1595 -0.9683
 4750TIP3   OH214213   7.138   2.194   1.014 -0.4484 -0.2443  0.0135
 4750TIP3    H114214   7.133   2.286   1.043 -0.5517 -0.4124  0.5493
 4750TIP3    H214215   7.177   2.198   0.927  0.2062  0.2523  0.3263
 4751TIP3   OH214216   0.024   1.745   2.224 -0.1246  0.2612  0.2511
 4751TIP3    H114217  -0.035   1.821   2.228  0.3332  0.6885 -0.7927
 4751TIP3    H214218   0.044   1.725   2.315 -2.2377 -0.1835  0.6590
 4752TIP3   OH214219   4.397   4.468   2.817 -0.1494 -0.1141  0.5327
 4752TIP3    H114220   4.436   4.407   2.755 -1.2730 -0.5224  0.2069
 4752TIP3    H214221   4.430   4.554   2.791 -0.7956 -0.2515 -0.7986
 4753TIP3   OH214222   6.198   1.158   0.584 -0.1461 -0.3947 -0.1559
 4753TIP3    H114223   6.146   1.132   0.660 -0.8604 -0.3731 -0.6272
 4753TIP3    H214224   6.257   1.084   0.567  1.1640  0.2271  1.3825
 4754TIP3   OH214225   7.243   2.766   4.708  0.7882  0.0496  0.5107
 4754TIP3    H114226   7.169   2.815   4.672  1.1027  0.9341  1.0447
 4754TIP3    H214227   7.203   2.705   4.770  0.4030 -0.3048 -0.0747
 4755TIP3   OH214228   2.341   5.879   5.900  0.3205 -0.7943 -0.3321
 4755TIP3    H114229   2.279   5.951   5.886  0.8157 -0.1819  0.5547
 4755TIP3    H214230   2.337   5.829   5.819 -0.8952 -0.4305 -0.5257
 4756TIP3   OH214231   0.506   5.936   4.614 -0.1023 -0.7636 -0.0960
 4756TIP3    H114232   0.421   5.901   4.588  0.8491 -2.6345 -0.8256
 4756TIP3    H214233   0.504   5.934   4.710 -0.4740 -1.8394 -0.1139
 4757TIP3   OH214234   4.476   1.342   0.745 -0.3496  0.4817  0.6455
 4757TIP3    H114235   4.412   1.271   0.755 -0.7134  0.7766  0.4371
 4757TIP3    H214236   4.467   1.392   0.827 -1.3506  1.2949  0.0652
 4758TIP3   OH214237   2.789   2.805   1.001 -0.5083  0.5417 -0.4395
 4758TIP3    H114238   2.845   2.864   1.052  2.7602 -0.8620 -2.1070
 4758TIP3    H214239   2.844   2.728   0.985 -3.0023 -1.0158 -2.1563
 4759TIP3   OH214240   6.003   3.940   5.503  0.2256  0.5249  0.2470
 4759TIP3    H114241   6.022   3.970   5.591  3.5218  2.8245 -1.0575
 4759TIP3    H214242   6.077   3.970   5.450 -1.6109 -0.6270 -3.3561
 4760TIP3   OH214243   4.164   1.518   4.091  0.1056 -0.0042 -0.0830
 4760TIP3    H114244   4.235   1.582   4.093 -0.3749  0.5692 -0.8897
 4760TIP3    H214245   4.101   1.554   4.029 -0.3247 -1.1023 -0.3023
 4761TIP3   OH214246   6.529   1.225   4.950 -0.3678  0.1356  0.2740
 4761TIP3    H114247   6.445   1.231   4.996 -1.0151  1.1762 -0.9630
 4761TIP3    H214248   6.588   1.281   5.000 -0.4175 -0.5622  1.1242
 4762TIP3   OH214249   2.559   0.289   0.063 -0.2912  0.1485  0.0469
 4762TIP3    H114250   2.567   0.379   0.093 -2.2423  0.2557  0.3746
 4762TIP3    H214251   2.466   0.279   0.042 -0.0690 -1.7093 -0.2026
 4763TIP3   OH214252   2.901   6.460   0.098  0.4153  0.4342  0.0008
 4763TIP3    H114253   2.844   6.536   0.086  0.1042  0.1467 -0.3707
 4763TIP3    H214254   2.862   6.392   0.043  0.9908  0.1635 -0.0818
 4764TIP3   OH214255   6.397   6.478   0.741 -0.2475 -0.0177  0.4044
 4764TIP3    H114256   6.354   6.555   0.703  1.3067  0.8188  0.2300
 4764TIP3    H214257   6.453   6.514   0.810 -0.1960 -1.1025  0.9389
 4765TIP3   OH214258   5.822   3.567   5.252  0.1185  0.2568 -0.4147
 4765TIP3    H114259   5.802   3.558   5.159 -1.7777  0.5157 -0.0867
 4765TIP3    H214260   5.744   3.609   5.289  0.1635 -1.2300  1.5353
 4766TIP3   OH214261   6.290   2.392   1.720  0.6752 -0.2711 -0.5226
 4766TIP3    H114262   6.332   2.461   1.770 -1.8731  1.1420 -0.1458
 4766TIP3    H214263   6.309   2.311   1.767  0.9409  0.6261  0.9450
 4767TIP3   OH214264   0.751   2.209   5.368 -0.2744  0.1428 -0.1940
 4767TIP3    H114265   0.734   2.264   5.444 -0.4598  1.0576 -0.8782
 4767TIP3    H214266   0.826   2.155   5.393  0.6516  1.5240  0.0816
 4768TIP3   OH214267   6.170   2.119   5.465  0.5698  1.1966  0.8223
 4768TIP3    H114268   6.170   2.102   5.559  0.7435 -0.4364  0.5507
 4768TIP3    H214269   6.083   2.156   5.448 -0.6148 -1.2153  1.2147
 4769TIP3   OH214270   6.355   0.386   4.925  0.6221 -0.0911 -0.1443
 4769TIP3    H114271   6.440   0.424   4.947  0.6523 -0.5941  0.6391
 4769TIP3    H214272   6.341   0.318   4.991 -1.8012  2.0301  1.7627
 4770TIP3   OH214273   2.074   0.324   4.813  0.2897  0.0454  0.4409
 4770TIP3    H114274   2.145   0.284   4.862 -0.8445 -1.2694  1.0817
 4770TIP3    H214275   2.027   0.251   4.774 -1.7034  0.7355  1.4255
 4771TIP3   OH214276   1.928   4.365   3.797  0.1434 -0.1843  0.2225
 4771TIP3    H114277   1.880   4.402   3.724 -0.7754 -0.2757  0.7711
 4771TIP3    H214278   1.948   4.276   3.770  1.1140  0.2348 -0.5131
 4772TIP3   OH214279   6.291   6.071   5.780 -0.0696 -0.1036 -0.5844
 4772TIP3    H114280   6.240   6.016   5.720  0.7847 -0.4028 -1.0623
 4772TIP3    H214281   6.365   6.101   5.727  0.6279 -0.2583  0.2783
 4773TIP3   OH214282   5.086   3.300   0.690 -0.6604  0.6475 -0.1416
 4773TIP3    H114283   5.154   3.341   0.637  0.8307  0.3506  1.4601
 4773TIP3    H214284   5.075   3.213   0.652  3.3905 -1.2220  2.2901
 4774TIP3   OH214285   1.728   3.390   4.774 -0.2967 -0.3723  0.4964
 4774TIP3    H114286   1.774   3.388   4.691  0.7465  1.5551  0.9528
 4774TIP3    H214287   1.789   3.435   4.834 -0.4876 -2.7432  2.6596
 4775TIP3   OH214288   1.647   4.371   0.210 -0.3330 -0.5894  0.0382
 4775TIP3    H114289   1.637   4.299   0.148 -1.5524  0.1012 -0.6015
 4775TIP3    H214290   1.723   4.419   0.178 -1.7284  0.5287 -1.7671
 4776TIP3   OH214291   1.537   2.947   4.521  0.1525 -0.0280 -0.4614
 4776TIP3    H114292   1.530   2.878   4.586 -0.9157 -1.2150 -1.7748
 4776TIP3    H214293   1.476   3.015   4.550 -1.2659 -1.0967 -0.8407
 4777TIP3   OH214294   4.897   3.697   2.371  1.1805 -0.2946  0.0100
 4777TIP3    H114295   4.949   3.777   2.377  0.2765  0.2719  0.5776
 4777TIP3    H214296   4.813   3.725   2.335  1.0997 -1.1138 -0.4637
 4778TIP3   OH214297   5.943   4.848   5.641  0.0631 -0.2915 -0.2918
 4778TIP3    H114298   6.037   4.853   5.657  0.1781 -1.5660 -0.4532
 4778TIP3    H214299   5.935   4.820   5.550 -0.3904 -2.2926  0.2959
 4779TIP3   OH214300   2.506   1.171   0.617  0.1572 -0.1033 -0.1067
 4779TIP3    H114301   2.472   1.176   0.706 -0.1512 -2.3605 -0.0423
 4779TIP3    H214302   2.599   1.193   0.625  0.2887 -0.9509  0.9178
 4780TIP3   OH214303   3.050   0.747   4.555  0.1898 -0.1801 -0.4313
 4780TIP3    H114304   3.044   0.657   4.523 -2.2796 -0.5360  0.8117
 4780TIP3    H214305   2.970   0.789   4.525  2.1527  2.3230 -2.7275
 4781TIP3   OH214306   6.490   5.476   5.086 -0.4109 -0.5288 -0.2216
 4781TIP3    H114307   6.474   5.569   5.099 -1.3360 -0.7983  0.7135
 4781TIP3    H214308   6.576   5.472   5.045 -1.2604  0.8242 -2.2682
 4782TIP3   OH214309   0.539   4.456   0.871  0.0240 -0.0679 -0.3781
 4782TIP3    H114310   0.495   4.379   0.906  0.2095 -1.1506 -2.3805
 4782TIP3    H214311   0.474   4.525   0.875 -0.0473 -0.2084  1.7397
 4783TIP3   OH214312   4.036   0.744   1.147 -0.2743 -0.5046 -0.5433
 4783TIP3    H114313   3.944   0.715   1.147 -0.2840 -0.5404  0.8452
 4783TIP3    H214314   4.058   0.753   1.240 -0.1995  3.7401 -0.7962
 4784TIP3   OH214315   6.303   3.151   0.970  0.1870  0.3613 -0.4458
 4784TIP3    H114316   6.326   3.119   0.882  0.1214 -0.2086 -0.2625
 4784TIP3    H214317   6.382   3.137   1.022 -0.4519 -1.3998  0.1320
 4785TIP3   OH214318   0.071   4.807   1.247  0.5911  0.6732  0.0641
 4785TIP3    H114319   0.089   4.842   1.160  2.7748 -0.1933  0.0981
 4785TIP3    H214320   0.154   4.817   1.295 -0.2401  0.1428  1.6960
 4786TIP3   OH214321   5.966   1.399   4.140  0.1082 -0.4727 -0.2842
 4786TIP3    H114322   5.966   1.494   4.144  0.8032 -0.4908  0.2565
 4786TIP3    H214323   5.899   1.372   4.203  0.9036 -0.3695  0.6289
 4787TIP3   OH214324   1.438   0.056   4.120 -0.0620  0.0243  0.1321
 4787TIP3    H114325   1.478   0.141   4.098 -0.1045  0.1300  0.4611
 4787TIP3    H214326   1.505  -0.008   4.096 -1.0682 -0.0602 -2.7627
 4788TIP3   OH214327   5.974   6.433   0.570  0.0547 -0.4767 -0.1354
 4788TIP3    H114328   5.916   6.481   0.511  0.6734  0.7692  0.2317
 4788TIP3    H214329   6.036   6.499   0.602  1.7824 -1.7948 -0.6330
 4789TIP3   OH214330   6.729   5.138   1.537 -0.0967 -0.1230  0.1959
 4789TIP3    H114331   6.722   5.160   1.630  0.7684 -1.1484  0.5213
 4789TIP3    H214332   6.778   5.211   1.499  2.0550 -1.0133  1.1077
 4790TIP3   OH214333   2.831   5.681   2.853  0.2608 -0.0168  0.3273
 4790TIP3    H114334   2.890   5.625   2.903 -0.7139  0.4447  2.0873
 4790TIP3    H214335   2.781   5.621   2.797  2.6717 -0.3633 -1.6116
 4791TIP3   OH214336   0.656   1.849   0.414 -0.6217  0.2415  0.6911
 4791TIP3    H114337   0.588   1.798   0.369 -0.3991 -0.5246  1.2048
 4791TIP3    H214338   0.635   1.940   0.393 -0.0373 -0.0974 -1.6731
 4792TIP3   OH214339   6.543   1.036   5.703 -0.2596 -0.2272 -0.2434
 4792TIP3    H114340   6.499   0.962   5.746 -0.7782  0.8240  1.0811
 4792TIP3    H214341   6.473   1.077   5.652 -0.1923 -0.1007 -0.2312
 4793TIP3   OH214342   3.583   0.737   2.293  0.3313 -0.2050 -0.0899
 4793TIP3    H114343   3.600   0.744   2.386  0.8264 -0.5855 -0.1478
 4793TIP3    H214344   3.546   0.821   2.268 -1.0482 -0.5471  0.7107
 4794TIP3   OH214345   0.066   1.182   3.259 -0.1917  0.0710  0.0824
 4794TIP3    H114346   0.086   1.089   3.271  0.6298  0.3908  1.3802
 4794TIP3    H214347   0.116   1.226   3.327 -0.6593  1.4674 -0.4469
 4795TIP3   OH214348   2.670   3.852   2.556  0.3695  0.3154 -0.4727
 4795TIP3    H114349   2.698   3.940   2.582  1.1199  0.1159 -0.5669
 4795TIP3    H214350   2.732   3.827   2.488  0.4326 -0.4546 -0.1431
 4796TIP3   OH214351   2.754   0.803   3.009 -0.4335 -0.1746  0.3952
 4796TIP3    H114352   2.791   0.884   2.975 -1.3523  0.0673 -0.0653
 4796TIP3    H214353   2.674   0.830   3.054 -1.2662 -0.9193 -0.5946
 4797TIP3   OH214354   0.190   5.278   3.684 -0.3040 -0.0969 -0.3179
 4797TIP3    H114355   0.118   5.261   3.745 -0.1965 -1.6753 -0.5935
 4797TIP3    H214356   0.256   5.322   3.737 -1.5414  1.6238 -0.1186
 4798TIP3   OH214357   3.366   5.445   1.675  0.1348  0.0226 -0.0179
 4798TIP3    H114358   3.456   5.466   1.650 -0.2492  0.9298 -0.6888
 4798TIP3    H214359   3.335   5.523   1.721 -0.4589 -0.1141 -0.1786
 4799TIP3   OH214360   4.490   0.036   5.704 -0.3616  0.1635 -0.4130
 4799TIP3    H114361   4.425  -0.007   5.647  0.3452 -1.3046 -0.1704
 4799TIP3    H214362   4.535   0.097   5.646  0.1690 -1.1161 -1.4176
 4800TIP3   OH214363   0.799   5.470   3.614  0.0104 -0.8002 -0.2608
 4800TIP3    H114364   0.851   5.459   3.694 -0.4700  0.5473  0.2674
 4800TIP3    H214365   0.862   5.502   3.549  0.1872 -0.8564 -0.1186
 4801TIP3   OH214366   6.329   4.416   1.522  0.0472  0.0476  0.2393
 4801TIP3    H114367   6.392   4.488   1.514  1.0252 -0.9101 -1.2330
 4801TIP3    H214368   6.267   4.446   1.588  0.8914  1.8885  0.2712
 4802TIP3   OH214369   3.975   3.736   5.691  0.3607 -0.2178  0.1984
 4802TIP3    H114370   3.909   3.803   5.707  1.1259  0.7724 -0.6692
 4802TIP3    H214371   3.927   3.666   5.646 -0.0097  0.7031 -0.8742
 4803TIP3   OH214372   7.047   6.394   3.864 -0.1101  0.1382 -0.1074
 4803TIP3    H114373   7.055   6.404   3.769 -0.9997  2.5854 -0.0099
 4803TIP3    H214374   7.062   6.301   3.880 -2.0979 -0.7956 -2.8847
 4804TIP3   OH214375   3.130   2.412   4.654 -0.2598 -0.6098 -0.1948
 4804TIP3    H114376   3.113   2.348   4.585  1.7135 -2.0885  0.5959
 4804TIP3    H214377   3.043   2.432   4.690 -0.9242 -3.4766  0.0355
 4805TIP3   OH214378   5.520   3.723   2.146  0.1155  0.2577  0.2561
 4805TIP3    H114379   5.442   3.721   2.090  0.1376  0.2010  0.2270
 4805TIP3    H214380   5.593   3.706   2.087  0.1012 -0.1902  0.3615
 4806TIP3   OH214381   5.356   0.007   5.163 -0.2982 -0.2780 -0.3692
 4806TIP3    H114382   5.370  -0.074   5.115  0.5037 -1.6644  2.0656
 4806TIP3    H214383   5.371   0.076   5.098  0.9443 -2.0202 -2.0369
 4807TIP3   OH214384   1.788   3.610   2.576 -0.0062  0.0040  0.1870
 4807TIP3    H114385   1.734   3.609   2.655  1.0363  0.1868  0.9217
 4807TIP3    H214386   1.789   3.518   2.547 -0.8035  0.0204  0.0892
 4808TIP3   OH214387   3.128   5.701   4.657 -0.4375  0.0106  0.1378
 4808TIP3    H114388   3.224   5.700   4.650 -0.5301  0.5105 -1.9414
 4808TIP3    H214389   3.108   5.774   4.715  0.4462 -0.7718  1.4768
 4809TIP3   OH214390   0.193   5.572   4.657  0.5152  1.1821  0.6466
 4809TIP3    H114391   0.217   5.659   4.688  0.1762  1.3189  0.5350
 4809TIP3    H214392   0.106   5.557   4.694  1.8510 -0.5041  3.4959
 4810TIP3   OH214393   3.058   3.302   0.226 -0.4673  0.6265 -0.3838
 4810TIP3    H114394   3.016   3.230   0.179 -0.0875  0.1179  0.0348
 4810TIP3    H214395   2.988   3.340   0.280  0.0272 -1.7868  2.2139
 4811TIP3   OH214396   6.596   3.492   5.414  0.2616  0.0886  0.0365
 4811TIP3    H114397   6.651   3.473   5.338 -0.2576  3.1297 -1.2407
 4811TIP3    H214398   6.658   3.513   5.484  0.7318 -0.0149 -0.3438
 4812TIP3   OH214399   2.964   1.107   2.769  0.4277  0.2663 -0.5807
 4812TIP3    H114400   3.031   1.042   2.746 -3.1955 -3.6802 -1.0973
 4812TIP3    H214401   2.960   1.165   2.694  4.3277  1.8948  0.2100
 4813TIP3   OH214402   5.212   0.305   4.681 -0.6055  0.4004 -0.0728
 4813TIP3    H114403   5.296   0.277   4.644 -0.2470  0.8874  0.3678
 4813TIP3    H214404   5.148   0.250   4.636  0.1089 -1.6675  1.2686
 4814TIP3   OH214405   0.683   1.986   2.023 -0.1454  0.0394  0.0115
 4814TIP3    H114406   0.680   2.019   1.933  0.4051  0.9120  0.2955
 4814TIP3    H214407   0.664   1.892   2.015 -0.0590  0.0971 -1.0162
 4815TIP3   OH214408   2.494   5.977   3.135 -0.8777  0.1328 -0.0941
 4815TIP3    H114409   2.516   5.921   3.061  0.4799  0.7712 -0.1995
 4815TIP3    H214410   2.400   5.961   3.149 -0.6927 -1.6261 -0.5448
 4816TIP3   OH214411   2.865   5.884   2.122  0.2816  0.4182  0.3933
 4816TIP3    H114412   2.806   5.878   2.048 -0.0018  3.5401  0.2069
 4816TIP3    H214413   2.819   5.841   2.194 -0.2833 -0.9233 -0.7331
 4817TIP3   OH214414   2.361   3.952   4.571  0.0495 -0.5878  0.1609
 4817TIP3    H114415   2.341   3.990   4.486 -0.9300 -0.8657  0.2577
 4817TIP3    H214416   2.450   3.981   4.590  0.1959 -0.3401 -0.8530
 4818TIP3   OH214417   6.002   2.778   1.222  0.1780  0.5968 -0.1172
 4818TIP3    H114418   5.951   2.716   1.275  0.5876 -0.1040 -0.5337
 4818TIP3    H214419   6.041   2.724   1.153 -1.6743  1.6962 -2.1651
 4819TIP3   OH214420   1.570   5.998   1.418  0.2997 -0.3736 -0.3551
 4819TIP3    H114421   1.480   6.030   1.420 -0.1610 -1.6454 -0.1046
 4819TIP3    H214422   1.597   6.008   1.327  0.4098  1.2899 -0.1827
 4820TIP3   OH214423   5.774   4.245   0.094 -0.1182 -0.1665 -0.0611
 4820TIP3    H114424   5.719   4.317   0.064 -0.7328 -0.9553 -0.8613
 4820TIP3    H214425   5.815   4.211   0.015  1.0655  0.0173  0.4532
 4821TIP3   OH214426   0.324   1.400   1.347  0.4101  0.3038  0.2784
 4821TIP3    H114427   0.266   1.374   1.419  1.2759 -0.1019  0.8409
 4821TIP3    H214428   0.322   1.326   1.286 -0.4014  0.6888 -0.1797
 4822TIP3   OH214429   0.204   2.822   2.303 -0.1407  0.1305 -0.5966
 4822TIP3    H114430   0.291   2.802   2.269  0.0220 -1.4421  0.6401
 4822TIP3    H214431   0.214   2.819   2.398 -1.5598 -0.1640 -0.4386
 4823TIP3   OH214432   6.338   3.710   1.624 -0.6528  0.2516  0.0980
 4823TIP3    H114433   6.358   3.788   1.676 -1.9165  0.4714  0.2881
 4823TIP3    H214434   6.423   3.679   1.594 -0.0416  1.1099  0.8773
 4824TIP3   OH214435   5.176   0.851   5.495  0.3046  0.0956  0.1890
 4824TIP3    H114436   5.175   0.756   5.500 -0.0394 -0.0461 -1.6428
 4824TIP3    H214437   5.228   0.870   5.416 -0.8477  1.3356 -0.3183
 4825TIP3   OH214438   3.903   4.882   4.827 -0.3930 -0.1593 -0.1590
 4825TIP3    H114439   3.969   4.900   4.895  1.6984 -0.3951 -2.0361
 4825TIP3    H214440   3.914   4.953   4.764 -1.5205 -0.5741 -0.8550
 4826TIP3   OH214441   0.554   4.208   4.132 -0.0816 -0.2845 -0.1034
 4826TIP3    H114442   0.634   4.172   4.093  0.6354 -0.3759  1.3484
 4826TIP3    H214443   0.579   4.228   4.223 -1.7531 -0.4410  0.4258
 4827TIP3   OH214444   6.682   4.098   3.092 -0.3747  0.4489 -0.0731
 4827TIP3    H114445   6.685   4.003   3.085 -2.1753  0.4266 -1.2912
 4827TIP3    H214446   6.769   4.127   3.065 -0.2175 -0.8030 -1.0060
 4828TIP3   OH214447   6.259   0.619   2.904 -0.0233 -0.3692  0.0326
 4828TIP3    H114448   6.308   0.659   2.976  0.3040 -0.4030 -0.1697
 4828TIP3    H214449   6.323   0.610   2.833  0.0772 -1.8326  0.2866
 4829TIP3   OH214450   5.771   1.324   4.335 -0.2008 -0.6412  0.5056
 4829TIP3    H114451   5.735   1.410   4.355  1.7437  0.1552  0.7489
 4829TIP3    H214452   5.817   1.298   4.415  0.2275 -1.3670  0.0327
 4830TIP3   OH214453   4.458   0.583   3.210  0.2065 -0.4542  0.2609
 4830TIP3    H114454   4.485   0.561   3.299  0.7789  0.8217  0.4217
 4830TIP3    H214455   4.365   0.559   3.207  0.0137  0.0536  1.4175
 4831TIP3   OH214456   4.162   3.738   5.875  0.3001 -0.3092 -0.2831
 4831TIP3    H114457   4.123   3.796   5.940  1.7760  0.7308 -0.2895
 4831TIP3    H214458   4.096   3.731   5.806 -0.3074  0.5181  0.1970
 4832TIP3   OH214459   4.457   0.245   2.322  0.3748 -0.1327  0.3119
 4832TIP3    H114460   4.384   0.227   2.263  0.8435 -1.1093 -0.0068
 4832TIP3    H214461   4.417   0.264   2.406 -0.3703  2.4839 -0.5456
 4833TIP3   OH214462   3.231   3.341   1.524  0.2759 -0.4027  0.2035
 4833TIP3    H114463   3.291   3.279   1.482  2.0872 -0.0109  2.0515
 4833TIP3    H214464   3.239   3.420   1.470  2.5039  0.0667  1.0804
 4834TIP3   OH214465   3.227   2.760   3.278 -0.2537  0.1533 -0.0301
 4834TIP3    H114466   3.217   2.795   3.189 -0.0092 -1.5655 -0.7734
 4834TIP3    H214467   3.256   2.834   3.330  1.1741  0.8418 -1.7208
 4835TIP3   OH214468   1.044   1.554   3.993 -0.0354 -0.3613  0.1073
 4835TIP3    H114469   0.955   1.577   3.967 -0.9212 -3.1052  0.2985
 4835TIP3    H214470   1.037   1.525   4.083  0.7705 -1.8028 -0.2496
 4836TIP3   OH214471   0.097   2.128   0.518 -0.1952  0.2474  0.1603
 4836TIP3    H114472   0.007   2.104   0.497 -0.2588  0.6232 -0.0087
 4836TIP3    H214473   0.144   2.045   0.520 -0.3385  0.1370 -0.7447
 4837TIP3   OH214474   4.550   2.903   3.685  0.7823 -0.2229  0.2351
 4837TIP3    H114475   4.492   2.943   3.621 -1.3695 -0.5809  1.8284
 4837TIP3    H214476   4.567   2.973   3.748 -1.5627 -1.1625  2.0831
 4838TIP3   OH214477   2.028   6.485   0.524  0.1382 -0.1259 -0.5408
 4838TIP3    H114478   2.088   6.529   0.583  0.5715 -0.6070 -0.6086
 4838TIP3    H214479   2.068   6.496   0.437 -0.5352  0.6502 -0.7668
 4839TIP3   OH214480   2.939   0.070   4.284  0.1836  0.5255  0.7120
 4839TIP3    H114481   2.874   0.098   4.219  0.5655 -0.5334 -0.1453
 4839TIP3    H214482   2.907   0.106   4.367 -1.4637  0.0610  0.3009
 4840TIP3   OH214483   5.099   0.065   2.900 -0.0754  0.0637  0.7027
 4840TIP3    H114484   5.008   0.095   2.899 -0.2352 -0.3680 -1.1215
 4840TIP3    H214485   5.101  -0.008   2.838  1.2948 -0.6683  1.5509
 4841TIP3   OH214486   6.903   4.212   2.962 -0.4624 -0.2096  0.2380
 4841TIP3    H114487   6.962   4.274   2.920 -0.4056  1.1936  2.2616
 4841TIP3    H214488   6.961   4.152   3.010 -0.5840 -0.7935 -0.3325
 4842TIP3   OH214489   2.551   5.533   5.727  1.0043 -0.9255 -0.2567
 4842TIP3    H114490   2.568   5.532   5.633 -1.0913 -0.1355 -0.6895
 4842TIP3    H214491   2.584   5.618   5.756 -0.1645 -0.3040 -0.6864
 4843TIP3   OH214492   3.300   3.981   1.414  0.4780 -0.5413  0.1299
 4843TIP3    H114493   3.331   3.921   1.347 -0.6084 -0.3754 -0.5551
 4843TIP3    H214494   3.226   4.026   1.373 -1.1570 -1.4495  1.8773
 4844TIP3   OH214495   1.163   5.971   2.725 -0.5894 -0.0267 -0.1136
 4844TIP3    H114496   1.179   5.993   2.816  1.6414  0.4507 -0.5512
 4844TIP3    H214497   1.103   5.897   2.728 -0.6542  0.0539  1.7143
 4845TIP3   OH214498   4.514   0.927   3.788  0.2485 -0.3657 -0.0095
 4845TIP3    H114499   4.533   1.004   3.735 -0.1487 -1.4788 -1.8720
 4845TIP3    H214500   4.466   0.869   3.729 -2.0566 -0.8592  2.1703
 4846TIP3   OH214501   6.419   3.775   0.150  0.5169  0.1268  0.5673
 4846TIP3    H114502   6.468   3.730   0.081 -0.1762 -0.0165  0.1613
 4846TIP3    H214503   6.486   3.808   0.210  1.1406  0.4623 -0.3017
 4847TIP3   OH214504   3.208   5.888   3.349  0.7594 -0.2347  0.0485
 4847TIP3    H114505   3.201   5.980   3.371  1.1657 -0.4690  1.2148
 4847TIP3    H214506   3.302   5.873   3.337  0.7084 -0.5190 -0.0125
 4848TIP3   OH214507   3.528   4.427   5.237  0.1278 -0.2338  0.1731
 4848TIP3    H114508   3.458   4.492   5.232 -0.3487 -0.7816 -0.5318
 4848TIP3    H214509   3.493   4.359   5.295  0.3194 -0.2359  0.2887
 4849TIP3   OH214510   4.915   2.755   0.641  0.2860  0.0717  0.1939
 4849TIP3    H114511   4.899   2.676   0.694  2.0171 -0.7252 -0.4241
 4849TIP3    H214512   5.003   2.783   0.666  0.1383  1.1508 -0.4588
 4850TIP3   OH214513   7.058   3.175   4.646 -0.1522 -0.1737 -0.3100
 4850TIP3    H114514   6.992   3.228   4.691 -2.0147  0.5880 -3.6344
 4850TIP3    H214515   7.008   3.115   4.592  1.9596 -2.1867 -0.2135
 4851TIP3   OH214516   1.516   4.697   2.815  0.1673 -0.5059 -0.3636
 4851TIP3    H114517   1.434   4.712   2.768  0.5171  0.1623 -0.7824
 4851TIP3    H214518   1.509   4.607   2.848 -0.6510 -0.5202 -0.5458
 4852TIP3   OH214519   7.099   2.512   5.584 -0.1027  0.4415  0.2687
 4852TIP3    H114520   7.160   2.581   5.559  0.7660 -0.1960  0.5684
 4852TIP3    H214521   7.101   2.450   5.510  1.8518 -1.0350  1.4629
 4853TIP3   OH214522   0.615   6.513   3.975  0.1039  0.2453  0.3956
 4853TIP3    H114523   0.690   6.572   3.986  1.3289 -0.8061 -1.8616
 4853TIP3    H214524   0.605   6.503   3.881 -1.3927 -1.5374  0.6859
 4854TIP3   OH214525   4.229   0.654   3.776  0.1747 -0.6246  0.1622
 4854TIP3    H114526   4.185   0.629   3.858  0.4761 -0.8717  0.2507
 4854TIP3    H214527   4.205   0.586   3.714  0.2507 -0.6396  0.1491
 4855TIP3   OH214528   0.616   5.500   3.011 -0.2921  0.4511  0.7056
 4855TIP3    H114529   0.533   5.464   3.043 -0.2519 -0.7222 -0.4409
 4855TIP3    H214530   0.683   5.438   3.042  0.0795  0.9548  0.9321
 4856TIP3   OH214531   1.549   4.835   2.219 -0.9399  0.1473 -0.1268
 4856TIP3    H114532   1.525   4.892   2.293  1.2144 -0.2787  1.0100
 4856TIP3    H214533   1.590   4.759   2.260  0.1689 -0.1843 -1.7544
 4857TIP3   OH214534   2.942   5.271   1.174 -0.1373  0.2246  0.0378
 4857TIP3    H114535   3.011   5.337   1.183  0.1912  0.0122 -0.8187
 4857TIP3    H214536   2.871   5.317   1.129 -0.0385  0.0867 -0.2605
 4858TIP3   OH214537   3.015   2.582   1.826 -0.2954 -0.1977 -0.2771
 4858TIP3    H114538   2.955   2.511   1.805  0.4478 -0.6931 -0.7427
 4858TIP3    H214539   3.099   2.555   1.789 -0.0521  1.0129 -0.6520
 4859TIP3   OH214540   2.536   4.237   5.386  0.4570  0.1710  0.2271
 4859TIP3    H114541   2.457   4.217   5.335  0.0655 -1.2625  1.3151
 4859TIP3    H214542   2.504   4.276   5.467  0.9705  1.0097  0.0331
 4860TIP3   OH214543   0.245   2.361   0.411 -0.2216 -0.4264 -0.6910
 4860TIP3    H114544   0.206   2.282   0.449  0.0365  0.1736  0.9349
 4860TIP3    H214545   0.170   2.417   0.389 -0.3755 -0.7247 -0.9255
 4861TIP3   OH214546   2.959   0.393   3.381 -0.3439 -0.1910  0.2228
 4861TIP3    H114547   2.992   0.315   3.425 -0.2835  1.2310  2.8577
 4861TIP3    H214548   2.866   0.394   3.400 -1.0930 -1.4210 -2.8299
 4862TIP3   OH214549   5.722   0.984   0.062  0.2211  0.6780  0.5767
 4862TIP3    H114550   5.729   1.026  -0.024  0.7507  0.1158  0.3376
 4862TIP3    H214551   5.661   1.039   0.111 -0.0254  1.0462 -0.1352
 4863TIP3   OH214552   5.003   0.187   4.562  0.5578  0.1555  0.4616
 4863TIP3    H114553   4.950   0.165   4.639 -1.5601  1.6458 -0.4674
 4863TIP3    H214554   4.992   0.112   4.504  0.5501 -0.1218  0.8157
 4864TIP3   OH214555   5.170   4.012   3.473 -0.0143 -0.4123 -0.2744
 4864TIP3    H114556   5.201   3.950   3.539  1.6882 -0.0790 -0.7232
 4864TIP3    H214557   5.222   3.992   3.395 -0.6867  0.4324 -0.9577
 4865TIP3   OH214558   7.127   2.745   0.230  0.2761  0.3693  0.0895
 4865TIP3    H114559   7.034   2.760   0.219  0.5040  1.9933  0.2235
 4865TIP3    H214560   7.169   2.798   0.163  1.1277  0.2746  0.5288
 4866TIP3   OH214561   6.982   6.341   0.363  0.5326  0.5524  0.0347
 4866TIP3    H114562   7.044   6.355   0.435 -1.4397  0.4345  1.8628
 4866TIP3    H214563   6.908   6.397   0.385 -0.9232 -0.9236 -0.9006
 4867TIP3   OH214564   5.680   0.442   1.004 -0.2295  0.2199 -0.0196
 4867TIP3    H114565   5.637   0.493   0.936 -0.6696 -0.7789 -0.5052
 4867TIP3    H214566   5.772   0.465   0.997 -0.4592  1.2215  0.0268
 4868TIP3   OH214567   4.287   4.450   2.014 -0.3917 -1.2080 -0.0319
 4868TIP3    H114568   4.336   4.418   2.089  0.3712  2.2502  1.1528
 4868TIP3    H214569   4.352   4.460   1.944  0.0016  0.3068  0.5121
 4869TIP3   OH214570   0.241   0.938   3.292 -0.0368  0.1971 -0.3668
 4869TIP3    H114571   0.276   0.997   3.358 -0.7871  1.7546 -1.2960
 4869TIP3    H214572   0.310   0.934   3.225 -0.4109  0.8741 -0.7975
 4870TIP3   OH214573   3.272   3.682   0.104  0.3378 -0.1457 -0.2856
 4870TIP3    H114574   3.302   3.618   0.039  0.2495  1.6784 -2.2305
 4870TIP3    H214575   3.317   3.763   0.081 -0.4465  0.8154  1.3661
 4871TIP3   OH214576   0.418   1.672   2.219  0.3006  0.0206  0.4124
 4871TIP3    H114577   0.394   1.579   2.221  0.4790 -0.0283  0.2790
 4871TIP3    H214578   0.465   1.682   2.137  0.9539  0.0671  0.7884
 4872TIP3   OH214579   4.191   2.738   1.654 -0.7803 -0.0176 -0.3466
 4872TIP3    H114580   4.107   2.696   1.635 -1.3378  0.8149  0.2047
 4872TIP3    H214581   4.208   2.793   1.578 -1.5229  1.0064  0.2032
 4873TIP3   OH214582   4.377   3.971   1.713  0.2509 -0.0483 -0.1058
 4873TIP3    H114583   4.296   4.011   1.745  1.0262  0.6505  1.0888
 4873TIP3    H214584   4.349   3.892   1.668 -1.3830  1.7947 -2.6583
 4874TIP3   OH214585   4.342   0.607   5.002 -0.6273  0.0615 -0.3839
 4874TIP3    H114586   4.268   0.557   4.967 -2.6681  1.8737  1.0949
 4874TIP3    H214587   4.367   0.665   4.930 -0.6465 -0.5425 -0.8902
 4875TIP3   OH214588   6.677   6.337   5.835 -0.0952  0.2697 -0.8216
 4875TIP3    H114589   6.662   6.338   5.740 -1.6186  0.3903 -0.6120
 4875TIP3    H214590   6.693   6.245   5.855 -0.2795  0.1693 -1.1252
 4876TIP3   OH214591   4.153   0.081   3.293  0.6605 -0.0844  0.1617
 4876TIP3    H114592   4.162   0.103   3.200  2.6499  0.4143  0.4212
 4876TIP3    H214593   4.172  -0.013   3.297  0.8822 -0.0458  0.0796
 4877TIP3   OH214594   3.286   3.452   2.474 -0.6569 -0.0012  0.2188
 4877TIP3    H114595   3.245   3.460   2.388  0.5388  1.6583 -0.2519
 4877TIP3    H214596   3.344   3.376   2.466 -0.5422  0.1536 -0.4454
 4878TIP3   OH214597   6.912   6.235   1.741  0.1092 -0.1554 -0.2280
 4878TIP3    H114598   6.862   6.170   1.694  0.0908 -0.0494 -0.3557
 4878TIP3    H214599   6.985   6.186   1.780 -0.5098 -0.4407  0.5879
 4879TIP3   OH214600   0.469   6.110   0.064 -0.7408  0.3751  0.3281
 4879TIP3    H114601   0.419   6.046   0.115 -2.1460  2.1034  1.2171
 4879TIP3    H214602   0.493   6.063  -0.016 -0.0081 -1.8599  1.7560
 4880TIP3   OH214603   4.912   6.172   0.887  0.0214 -0.4777 -0.2048
 4880TIP3    H114604   4.989   6.151   0.941 -0.1101  1.2009  0.7138
 4880TIP3    H214605   4.842   6.117   0.922  0.5519 -1.2667 -0.3656
 4881TIP3   OH214606   0.028   0.431   2.858  0.5545  0.1669 -0.3920
 4881TIP3    H114607   0.058   0.363   2.918  1.6373 -0.7046 -1.8509
 4881TIP3    H214608   0.092   0.502   2.868  1.2580 -0.3469 -1.1362
 4882TIP3   OH214609   5.935   1.396   2.393  0.0351 -0.0921 -0.1599
 4882TIP3    H114610   5.945   1.303   2.414  0.9243  0.4250  1.9659
 4882TIP3    H214611   5.885   1.431   2.467  1.2237  1.4198 -0.0303
 4883TIP3   OH214612   3.454   1.851   1.958 -0.2072 -0.0083 -0.4515
 4883TIP3    H114613   3.467   1.946   1.964  1.1338 -0.2042  0.0088
 4883TIP3    H214614   3.542   1.814   1.965 -0.3482 -1.1826 -3.4654
 4884TIP3   OH214615   0.196   1.097   2.213 -0.4092  0.0417 -0.2772
 4884TIP3    H114616   0.167   1.035   2.280  0.4074  0.1685  0.2000
 4884TIP3    H214617   0.132   1.169   2.218 -1.0681 -0.5149 -0.4886
 4885TIP3   OH214618   6.833   3.816   5.694  0.5938  0.5745  0.1100
 4885TIP3    H114619   6.886   3.866   5.757 -0.9208  0.0924  1.8767
 4885TIP3    H214620   6.761   3.875   5.671 -1.0058 -0.5191  1.9300
 4886TIP3   OH214621   1.573   1.978   2.131  0.1099  0.1477  0.2256
 4886TIP3    H114622   1.657   1.937   2.150  1.0145  0.9429 -1.7394
 4886TIP3    H214623   1.580   2.065   2.170 -0.0578  0.0005  0.5891
 4887TIP3   OH214624   1.842   3.642   3.625  0.1496  0.0493 -0.3127
 4887TIP3    H114625   1.753   3.649   3.590 -0.6945 -1.6128  1.2984
 4887TIP3    H214626   1.863   3.730   3.654 -0.8352  0.5406 -1.0316
 4888TIP3   OH214627   1.250   2.426   3.758 -0.0264  0.0216  0.6837
 4888TIP3    H114628   1.278   2.379   3.837  0.3289  0.5102  0.8531
 4888TIP3    H214629   1.331   2.441   3.709 -0.4507 -2.0450 -0.7845
 4889TIP3   OH214630   4.594   4.838   0.189  0.0972 -0.3494 -0.4480
 4889TIP3    H114631   4.628   4.751   0.171 -0.8461 -0.8280  0.0338
 4889TIP3    H214632   4.652   4.897   0.140 -1.1619 -1.4474 -3.4697
 4890TIP3   OH214633   3.784   1.116   3.780 -0.1846 -0.1527 -0.0466
 4890TIP3    H114634   3.853   1.112   3.846  0.1170 -2.4077 -0.4265
 4890TIP3    H214635   3.706   1.140   3.829  0.1140 -1.4061  1.1117
 4891TIP3   OH214636   3.862   5.004   3.586 -0.3552  0.3787  0.1899
 4891TIP3    H114637   3.900   5.078   3.538 -1.0840  1.1006  0.6885
 4891TIP3    H214638   3.871   4.930   3.527  2.9150  0.1978  0.7124
 4892TIP3   OH214639   3.665   2.794   0.102 -0.8432  0.0117  0.0286
 4892TIP3    H114640   3.600   2.799   0.032 -2.2019 -0.3760  1.2064
 4892TIP3    H214641   3.628   2.846   0.174  0.9954  1.2620  0.1272
 4893TIP3   OH214642   3.858   0.925   4.032 -0.3780 -0.2378  0.3719
 4893TIP3    H114643   3.863   0.896   4.123  0.7289  1.8198  1.0292
 4893TIP3    H214644   3.943   0.967   4.015 -1.5712  1.8943 -0.6982
 4894TIP3   OH214645   0.553   6.317   4.470  0.2488 -0.2423  0.1724
 4894TIP3    H114646   0.604   6.398   4.468 -1.3402  0.7937 -0.1408
 4894TIP3    H214647   0.554   6.285   4.379  1.3335 -0.9008  0.3988
 4895TIP3   OH214648   0.371   5.772   2.429  0.0045  0.2294 -0.3396
 4895TIP3    H114649   0.422   5.800   2.505 -0.4042  1.3884 -0.4635
 4895TIP3    H214650   0.349   5.681   2.446 -1.1619  0.8094  1.5491
 4896TIP3   OH214651   0.119   1.601   1.750  0.5797  0.0439  0.3990
 4896TIP3    H114652   0.142   1.539   1.819  0.8013 -0.7590 -0.3736
 4896TIP3    H214653   0.031   1.576   1.724  1.4742 -1.4007 -1.4188
 4897TIP3   OH214654   6.839   3.771   1.162 -0.1655 -0.2124 -0.9732
 4897TIP3    H114655   6.860   3.679   1.145 -2.2959 -1.6829  2.9737
 4897TIP3    H214656   6.889   3.792   1.242 -0.9564  1.5379 -0.8913
 4898TIP3   OH214657   1.346   1.240   0.641 -0.4402  0.4281 -0.2169
 4898TIP3    H114658   1.381   1.325   0.615 -0.8114  0.6527  0.0161
 4898TIP3    H214659   1.422   1.182   0.643 -0.3931  0.4076 -1.7832
 4899TIP3   OH214660   6.696   2.400   2.923 -0.5043  0.1087  0.0833
 4899TIP3    H114661   6.607   2.381   2.951 -0.6705  2.0669  1.0472
 4899TIP3    H214662   6.687   2.456   2.846 -0.2275  2.2840  1.5403
 4900TIP3   OH214663   5.152   4.632   1.920 -0.5831 -0.0049 -0.1396
 4900TIP3    H114664   5.070   4.590   1.944 -0.5474  0.1227  0.2048
 4900TIP3    H214665   5.193   4.570   1.859  0.0322 -1.0515  1.2934
 4901TIP3   OH214666   0.123   1.581   5.678  0.0999 -0.1047  0.0320
 4901TIP3    H114667   0.114   1.675   5.694  1.5154 -0.0036  0.3314
 4901TIP3    H214668   0.047   1.559   5.625 -1.6163  0.7016  2.0292
 4902TIP3   OH214669   3.792   2.815   1.391  0.0724  0.0722  0.2071
 4902TIP3    H114670   3.736   2.742   1.418 -1.0133  0.5397 -0.7242
 4902TIP3    H214671   3.870   2.772   1.356 -0.9754 -0.7288 -1.2701
 4903TIP3   OH214672   6.579   1.788   4.539  0.5380  0.0202 -0.5262
 4903TIP3    H114673   6.588   1.863   4.598  0.3662  0.2525 -0.7912
 4903TIP3    H214674   6.491   1.797   4.503  0.3122 -0.6078 -0.1591
 4904TIP3   OH214675   1.911   6.386   4.244 -0.1423 -0.5375 -0.0018
 4904TIP3    H114676   1.862   6.468   4.257  2.1378  0.6818  1.6849
 4904TIP3    H214677   1.935   6.387   4.151  1.8763  2.0662  0.4201
 4905TIP3   OH214678   6.465   0.463   0.118  0.6983 -0.3108  0.1651
 4905TIP3    H114679   6.482   0.369   0.110 -2.0126 -0.8143 -0.8182
 4905TIP3    H214680   6.492   0.500   0.034 -4.3523 -1.4767 -2.3691
 4906TIP3   OH214681   4.393   6.147   0.829  0.1349 -0.3004  0.2766
 4906TIP3    H114682   4.383   6.242   0.820  2.6419 -0.0241 -0.3667
 4906TIP3    H214683   4.421   6.118   0.742  1.9069 -1.1986  1.0964
 4907TIP3   OH214684   3.107   3.800   3.127  0.4209  0.2546 -0.7037
 4907TIP3    H114685   3.095   3.730   3.062 -0.7404 -0.3744  0.1474
 4907TIP3    H214686   3.105   3.881   3.076 -0.7867 -0.2113 -1.4409
 4908TIP3   OH214687   6.399   1.367   5.594 -0.2229  0.1497  0.0064
 4908TIP3    H114688   6.475   1.330   5.548  0.7774  0.5573  1.2867
 4908TIP3    H214689   6.327   1.355   5.533  0.6483 -1.2576 -0.8073
 4909TIP3   OH214690   1.758   6.766   3.642  0.5229 -0.0832  0.8243
 4909TIP3    H114691   1.715   6.681   3.629 -0.2645  0.2699  1.0818
 4909TIP3    H214692   1.691   6.821   3.681  1.3517  0.3508  1.6779
 4910TIP3   OH214693   1.474   3.860   4.117  0.2499  0.6884  0.3651
 4910TIP3    H114694   1.514   3.857   4.030  2.0737  1.9590  1.0858
 4910TIP3    H214695   1.438   3.949   4.123 -0.9052  0.2252  0.4992
 4911TIP3   OH214696   0.133   5.900   5.255 -0.3994  0.2190  0.3071
 4911TIP3    H114697   0.038   5.906   5.245 -0.4784 -1.9672 -0.9100
 4911TIP3    H214698   0.152   5.806   5.249  1.8385  0.6000  0.5412
 4912TIP3   OH214699   6.209   0.174   0.888  0.1044 -0.6364 -0.2017
 4912TIP3    H114700   6.302   0.166   0.912  0.5049 -1.0462 -1.7801
 4912TIP3    H214701   6.207   0.242   0.821 -0.8477 -0.1585  0.2907
 4913TIP3   OH214702   0.972   2.902   1.656  0.6576  0.0784  0.0928
 4913TIP3    H114703   0.940   2.944   1.736  0.4674  1.0756 -0.4967
 4913TIP3    H214704   0.895   2.861   1.618  1.0434 -1.8246  1.2457
 4914TIP3   OH214705   5.657   1.437   2.170 -0.4096 -0.2271  0.6182
 4914TIP3    H114706   5.610   1.369   2.122 -0.5343 -0.5570  1.1961
 4914TIP3    H214707   5.718   1.389   2.226  2.4061  0.2105 -1.7959
 4915TIP3   OH214708   0.086   1.467   2.433  0.3098  0.1901 -0.2368
 4915TIP3    H114709   0.139   1.542   2.459  2.2543 -1.4076  0.6313
 4915TIP3    H214710   0.010   1.471   2.491 -0.0744  1.9375 -0.7972
 4916TIP3   OH214711   3.043   1.966   1.592 -0.3154  0.4854  0.0771
 4916TIP3    H114712   3.087   2.051   1.588  1.9666 -0.6324 -0.9975
 4916TIP3    H214713   3.081   1.922   1.669 -1.9021  0.6273  0.9679
 4917TIP3   OH214714   6.319   1.820   0.630  0.1440 -0.1793 -0.4352
 4917TIP3    H114715   6.236   1.826   0.583 -0.7811  2.5623  1.3428
 4917TIP3    H214716   6.386   1.837   0.563 -0.6509 -2.2938 -1.8640
 4918TIP3   OH214717   6.228   4.451   3.973  0.1634  0.0218  0.0260
 4918TIP3    H114718   6.314   4.462   3.933 -0.4331 -0.2437 -1.3742
 4918TIP3    H214719   6.168   4.440   3.899 -0.6971 -2.6669  0.9754
 4919TIP3   OH214720   1.885   6.074   3.911 -0.2593 -0.0183 -0.6657
 4919TIP3    H114721   1.972   6.080   3.872 -0.3859  0.9458 -0.8377
 4919TIP3    H214722   1.862   5.981   3.904  0.5845 -0.2160 -0.9824
 4920TIP3   OH214723   1.343   1.912   2.957  0.4805 -0.1047 -0.2003
 4920TIP3    H114724   1.282   1.963   2.903 -1.6198 -1.3179  0.9110
 4920TIP3    H214725   1.430   1.941   2.928 -0.5775  1.2883 -2.2607
 4921TIP3   OH214726   6.114   1.601   3.494 -0.2443  0.3843  0.3675
 4921TIP3    H114727   6.102   1.686   3.452 -0.8522  0.7882  1.3074
 4921TIP3    H214728   6.189   1.613   3.552 -0.1301  0.1869  0.2583
 4922TIP3   OH214729   5.445   5.051   5.580  0.1736  0.3583 -0.3433
 4922TIP3    H114730   5.497   5.125   5.547 -0.8742  2.2633  1.9896
 4922TIP3    H214731   5.431   5.072   5.672 -1.1557 -2.2321  0.1073
 4923TIP3   OH214732   6.272   4.976   4.953 -0.1429  0.4815 -0.4835
 4923TIP3    H114733   6.323   5.052   4.982 -0.1016 -0.0389  0.8945
 4923TIP3    H214734   6.189   5.014   4.922  0.5868  1.2257 -1.6166
 4924TIP3   OH214735   2.114   2.509   1.337 -0.0506 -0.1871  0.3210
 4924TIP3    H114736   2.072   2.511   1.423  1.0197 -1.9057  0.9360
 4924TIP3    H214737   2.112   2.600   1.307  0.2940  0.5982  2.5211
 4925TIP3   OH214738   6.502   2.410   4.622  0.1264 -0.2655 -0.1255
 4925TIP3    H114739   6.518   2.503   4.641 -0.4834  0.1232 -1.3952
 4925TIP3    H214740   6.565   2.364   4.676 -0.1348  0.8445  1.1886
 4926TIP3   OH214741   2.131   5.315   1.371 -0.2158  0.3970 -0.0898
 4926TIP3    H114742   2.050   5.359   1.344 -1.1648  0.0019  1.9097
 4926TIP3    H214743   2.101   5.241   1.424  1.4574 -0.0685  0.2498
 4927TIP3   OH214744   4.931   5.011   5.869  0.3207  0.4629  0.5207
 4927TIP3    H114745   4.944   4.935   5.812 -0.2822 -0.9094  2.1156
 4927TIP3    H214746   5.015   5.057   5.867  1.1421 -0.9496  0.4724
 4928TIP3   OH214747   6.473   0.167   4.418  0.0687 -0.0474  0.3151
 4928TIP3    H114748   6.445   0.103   4.352  1.2800  0.9880 -1.3023
 4928TIP3    H214749   6.392   0.208   4.448 -0.5054 -0.3474 -0.7678
 4929TIP3   OH214750   1.848   1.491   2.446  0.9684 -0.6837 -0.0038
 4929TIP3    H114751   1.860   1.579   2.411 -0.7128 -0.1639  0.6056
 4929TIP3    H214752   1.932   1.468   2.484  1.2034  1.0374  0.6245
 4930TIP3   OH214753   2.609   2.293   3.470  0.8267 -0.0046  0.2841
 4930TIP3    H114754   2.528   2.266   3.427  0.6011  0.9518  0.0865
 4930TIP3    H214755   2.658   2.212   3.482 -0.4636 -0.7058  1.0599
 4931TIP3   OH214756   3.735   3.202   5.632 -0.1193 -0.2039  0.3050
 4931TIP3    H114757   3.689   3.151   5.566  1.5506 -1.2559 -0.0937
 4931TIP3    H214758   3.809   3.148   5.658  0.8905  1.4066  0.9465
 4932TIP3   OH214759  -0.000   4.607   1.655 -0.5677  0.0464 -0.2493
 4932TIP3    H114760   0.018   4.700   1.641 -0.7088 -0.0326 -1.0460
 4932TIP3    H214761  -0.016   4.573   1.567  2.4232 -1.3586 -0.3835
 4933TIP3   OH214762   2.771   5.168   3.267  0.0288 -0.1257  0.4083
 4933TIP3    H114763   2.704   5.157   3.334  0.0946 -0.2655  0.4533
 4933TIP3    H214764   2.729   5.141   3.185  0.1958 -0.7662  0.5208
 4934TIP3   OH214765   6.997   1.916   5.648 -0.0272  0.1951 -0.1342
 4934TIP3    H114766   7.005   1.861   5.570  0.1012  0.4569 -0.3103
 4934TIP3    H214767   6.943   1.990   5.619  0.3243  0.4791 -0.0831
 4935TIP3   OH214768   0.766   1.977   5.112  0.3938  0.3020 -0.2567
 4935TIP3    H114769   0.755   2.069   5.137  1.1006 -0.2198  2.1904
 4935TIP3    H214770   0.849   1.951   5.151  0.1723 -1.4244 -0.8571
 4936TIP3   OH214771   6.655   2.278   1.186  0.3746  0.9248 -0.3182
 4936TIP3    H114772   6.626   2.318   1.104 -1.9894 -1.0665 -0.5613
 4936TIP3    H214773   6.710   2.204   1.159  1.2615  1.4613 -0.0156
 4937TIP3   OH214774   5.413   3.893   4.803  0.6185  0.1337  0.0740
 4937TIP3    H114775   5.350   3.946   4.754  0.9979  0.1473 -0.4068
 4937TIP3    H214776   5.497   3.938   4.789  0.8505 -0.2834  0.1220
 4938TIP3   OH214777   1.527   6.508   5.610 -0.8686  0.6291 -0.2516
 4938TIP3    H114778   1.472   6.556   5.673 -2.1415 -0.2284 -0.6847
 4938TIP3    H214779   1.493   6.419   5.611 -1.4256  0.7571 -2.7070
 4939TIP3   OH214780   0.432   5.641   4.893 -0.2676  0.0444 -0.0241
 4939TIP3    H114781   0.478   5.621   4.811  0.1719  2.9679 -0.6164
 4939TIP3    H214782   0.502   5.655   4.957 -0.5030  0.2200  0.1982
 4940TIP3   OH214783   3.506   6.340   5.347 -0.2822  0.2248 -0.2176
 4940TIP3    H114784   3.421   6.303   5.371  0.1415 -0.0950  0.8232
 4940TIP3    H214785   3.551   6.267   5.304 -0.8235  0.6301 -1.5211
 4941TIP3   OH214786   1.440   4.518   5.509  0.7266 -0.0567  0.4013
 4941TIP3    H114787   1.487   4.574   5.570 -0.6801  1.6473 -0.0272
 4941TIP3    H214788   1.509   4.479   5.455  1.8151  0.2284  1.5493
 4942TIP3   OH214789   3.828   6.256   5.602  0.1515 -0.2140  0.3686
 4942TIP3    H114790   3.869   6.319   5.661  0.0615 -0.6019  0.8507
 4942TIP3    H214791   3.901   6.214   5.556  0.1954  2.8772 -2.8283
 4943TIP3   OH214792   5.094   5.739   3.322  0.6540  0.2593  0.1745
 4943TIP3    H114793   5.069   5.771   3.235  1.3122  0.9835  0.2419
 4943TIP3    H214794   5.012   5.707   3.360  0.6511 -1.9034 -1.4424
 4944TIP3   OH214795   6.904   0.980   4.165 -0.6113  0.1557 -0.9355
 4944TIP3    H114796   6.907   1.067   4.203 -1.8304  0.1914 -0.8662
 4944TIP3    H214797   6.943   0.990   4.078 -0.8982  0.8199 -0.9961
 4945TIP3   OH214798   2.433   4.482   5.068 -0.2354 -0.5183  0.2930
 4945TIP3    H114799   2.368   4.509   5.134 -0.9128 -0.2241 -0.4830
 4945TIP3    H214800   2.496   4.430   5.118 -1.5575 -1.6077  0.9145
 4946TIP3   OH214801   0.275   3.784   0.743 -0.1921 -0.6739 -0.1796
 4946TIP3    H114802   0.343   3.727   0.777  0.3009 -0.1749 -0.3136
 4946TIP3    H214803   0.319   3.868   0.727 -0.9771 -0.1342  0.3750
 4947TIP3   OH214804   6.588   1.081   4.722 -0.4019 -0.3066  0.2882
 4947TIP3    H114805   6.589   1.111   4.813 -1.0764 -0.0115  0.2031
 4947TIP3    H214806   6.659   1.130   4.680  0.6381 -1.2429  0.8941
 4948TIP3   OH214807   1.091   1.322   0.888 -0.3945  0.0401  0.5670
 4948TIP3    H114808   1.137   1.342   0.807  0.5351  0.3922  1.1655
 4948TIP3    H214809   1.101   1.400   0.941 -0.2761 -0.4914  1.3441
 4949TIP3   OH214810   3.157   2.536   4.158 -0.2992  0.0388  0.0456
 4949TIP3    H114811   3.127   2.455   4.200 -1.6650  1.1285  1.3027
 4949TIP3    H214812   3.161   2.515   4.064 -0.3508 -1.5543  0.3853
 4950TIP3   OH214813   6.484   6.071   4.485 -0.1086  0.4606  0.7560
 4950TIP3    H114814   6.482   6.144   4.422 -1.1222  0.8261  1.1802
 4950TIP3    H214815   6.449   5.997   4.436 -0.1957  0.5583  0.6697
 4951TIP3   OH214816   2.271   3.146   4.223  0.2403  0.1771 -0.6494
 4951TIP3    H114817   2.234   3.117   4.307 -0.4009  1.2560 -0.5459
 4951TIP3    H214818   2.231   3.087   4.158  0.7350 -0.6605 -0.2200
 4952TIP3   OH214819   0.023   2.577   4.050  0.7746 -0.1559 -0.7411
 4952TIP3    H114820   0.066   2.654   4.086  1.2037 -0.1689 -1.2059
 4952TIP3    H214821   0.050   2.505   4.107 -1.6505  0.3731  1.2552
 4953TIP3   OH214822   4.288   3.724   1.689  0.0331  0.4537 -0.2395
 4953TIP3    H114823   4.378   3.694   1.696  0.0020  0.3481 -0.2951
 4953TIP3    H214824   4.262   3.742   1.780 -0.2659 -0.6236 -0.0909
 4954TIP3   OH214825   6.794   2.569   3.149  0.0530 -0.7920 -0.0645
 4954TIP3    H114826   6.846   2.640   3.113  0.3437 -1.1480 -0.3636
 4954TIP3    H214827   6.734   2.545   3.078  0.5878 -1.4582 -0.3056
 4955TIP3   OH214828   3.121   2.587   2.457  0.0406 -0.2638 -0.4341
 4955TIP3    H114829   3.088   2.499   2.475  2.0335 -1.3159 -1.5427
 4955TIP3    H214830   3.061   2.623   2.392 -0.1828 -1.2380 -0.7823
 4956TIP3   OH214831   7.128   4.485   0.460 -0.1320  0.0685  0.2299
 4956TIP3    H114832   7.197   4.532   0.413 -0.1078 -0.8256 -0.6607
 4956TIP3    H214833   7.175   4.420   0.512 -0.3053 -0.9561 -0.8509
 4957TIP3   OH214834   3.659   2.729   5.522  0.3489 -0.2043  0.3110
 4957TIP3    H114835   3.632   2.649   5.569  0.7732 -0.6713 -0.2239
 4957TIP3    H214836   3.742   2.705   5.481 -0.0008  0.2052 -0.6549
 4958TIP3   OH214837   6.158   0.804   5.704  0.3152  0.4479  0.6478
 4958TIP3    H114838   6.143   0.710   5.720 -1.2613  0.7344  1.1025
 4958TIP3    H214839   6.099   0.825   5.631  0.6820  1.0765  0.5286
 4959TIP3   OH214840   6.247   0.349   0.601 -0.1273  0.4511  0.2817
 4959TIP3    H114841   6.189   0.362   0.526 -0.5228  0.4642  0.5877
 4959TIP3    H214842   6.328   0.315   0.562 -0.2202  0.7434 -0.1822
 4960TIP3   OH214843   0.517   0.812   3.667 -0.2318  0.5690  0.2897
 4960TIP3    H114844   0.492   0.850   3.751 -1.5359 -0.0200  0.1876
 4960TIP3    H214845   0.578   0.742   3.689 -0.6856  0.3213  0.7587
 4961TIP3   OH214846   1.348   5.911   0.918 -0.4198 -0.9884  0.7267
 4961TIP3    H114847   1.268   5.961   0.906 -0.1976 -0.8623 -0.2691
 4961TIP3    H214848   1.366   5.872   0.833  1.3855  0.1897  0.5207
 4962TIP3   OH214849   7.120   3.029   1.150 -0.1207 -0.3426 -0.7025
 4962TIP3    H114850   7.064   3.054   1.223  0.8435  1.3296 -0.4922
 4962TIP3    H214851   7.184   2.969   1.189  0.5252  0.7095 -0.0867
 4963TIP3   OH214852   4.387   2.228   0.830  0.2305 -0.3731 -0.6508
 4963TIP3    H114853   4.387   2.138   0.862 -0.5710  0.3880  1.6960
 4963TIP3    H214854   4.473   2.240   0.791  0.3261 -2.1625 -1.0577
 4964TIP3   OH214855   5.841   5.270   4.166  0.4257 -0.3983 -0.6140
 4964TIP3    H114856   5.754   5.260   4.129  1.0030 -2.2293 -1.6180
 4964TIP3    H214857   5.858   5.186   4.210  1.3482  0.2505  0.3088
 4965TIP3   OH214858   5.377   3.419   1.411 -0.5732  0.1461  0.7015
 4965TIP3    H114859   5.409   3.470   1.337  0.8117 -1.0559  0.4195
 4965TIP3    H214860   5.379   3.480   1.485 -1.4093  1.1839 -0.1036
 4966TIP3   OH214861   6.286   4.422   3.348 -0.4256  0.1751  0.0568
 4966TIP3    H114862   6.381   4.428   3.346 -0.4613  2.0647  1.2421
 4966TIP3    H214863   6.257   4.469   3.269 -0.3763  1.7617  0.9392
 4967TIP3   OH214864   1.814   3.955   4.050  0.1165 -0.4856  0.0248
 4967TIP3    H114865   1.745   4.018   4.071  2.2905  2.1307 -0.1712
 4967TIP3    H214866   1.892   3.989   4.093  1.5387 -2.8460 -0.5017
 4968TIP3   OH214867   3.315   4.483   0.117 -0.2206  0.1771 -0.9427
 4968TIP3    H114868   3.240   4.518   0.069  0.1330  1.8130 -0.3788
 4968TIP3    H214869   3.295   4.390   0.129 -1.0112  0.0496 -2.8969
 4969TIP3   OH214870   1.092   1.246   1.293 -0.0168 -0.3832 -0.2352
 4969TIP3    H114871   1.001   1.220   1.276  0.1517 -0.4481 -1.0551
 4969TIP3    H214872   1.143   1.166   1.278  0.3612  0.0741 -1.5219
 4970TIP3   OH214873   1.628   5.493   0.688 -0.1294 -0.1830  0.0979
 4970TIP3    H114874   1.561   5.465   0.750 -0.5543  0.2678 -0.1541
 4970TIP3    H214875   1.685   5.551   0.739 -0.8663  0.7225 -0.1089
 4971TIP3   OH214876   4.824   3.063   2.154 -0.4166  0.8764 -0.0837
 4971TIP3    H114877   4.786   2.984   2.116  1.0872  0.9069 -1.7994
 4971TIP3    H214878   4.759   3.094   2.216 -0.6682 -2.1875  1.3227
 4972TIP3   OH214879   3.866   3.475   5.881  0.1524 -0.5533  0.1652
 4972TIP3    H114880   3.831   3.563   5.896  0.2505 -0.5037  0.1058
 4972TIP3    H214881   3.876   3.470   5.786  1.5361 -0.0902  0.2742
 4973TIP3   OH214882   5.577   4.823   0.844 -0.1432  1.2614 -0.1444
 4973TIP3    H114883   5.609   4.912   0.858 -0.2868  1.2728  0.1177
 4973TIP3    H214884   5.654   4.767   0.859 -0.5187  1.1995  1.7342
 4974TIP3   OH214885   1.374   5.573   5.205 -0.0639 -0.2177  0.1594
 4974TIP3    H114886   1.333   5.495   5.167  1.9386 -1.4414  0.3292
 4974TIP3    H214887   1.468   5.555   5.199  0.4156  1.5019  1.6750
 4975TIP3   OH214888   1.995   2.416   5.367  0.2091 -0.5691  0.2457
 4975TIP3    H114889   2.023   2.459   5.286 -0.5490 -0.7725 -0.1383
 4975TIP3    H214890   2.036   2.330   5.363  0.7868 -0.3065  0.4490
 4976TIP3   OH214891   5.034   4.524   5.194 -0.3332  0.2678  0.3937
 4976TIP3    H114892   5.104   4.587   5.210 -1.1701  0.8925  1.8065
 4976TIP3    H214893   5.080   4.444   5.166  1.0250  0.4701  1.8337
 4977TIP3   OH214894   0.942   3.864   2.504  0.3633 -0.3281  0.4820
 4977TIP3    H114895   0.876   3.867   2.574  0.1080 -0.6946  0.2609
 4977TIP3    H214896   0.994   3.787   2.524 -0.5367 -1.2206 -0.4532
 4978TIP3   OH214897   5.778   1.148   2.930  0.1936  0.6150 -0.3346
 4978TIP3    H114898   5.809   1.226   2.884  1.3516  0.5094  0.2137
 4978TIP3    H214899   5.809   1.160   3.019 -1.1171  0.3233  0.1757
 4979TIP3   OH214900   0.913   2.479   1.206  0.4989  0.0843  0.5853
 4979TIP3    H114901   0.917   2.477   1.301 -0.8331  1.4221  0.7015
 4979TIP3    H214902   0.829   2.438   1.184  0.1624  1.0114  0.0846
 4980TIP3   OH214903   6.782   6.480   1.818 -0.7614  0.4365  0.5135
 4980TIP3    H114904   6.837   6.418   1.771 -0.2466  0.7217  0.7278
 4980TIP3    H214905   6.722   6.515   1.751 -0.8445 -0.0543  0.3301
 4981TIP3   OH214906   1.759   1.528   0.686 -0.0874  0.4228 -0.0477
 4981TIP3    H114907   1.838   1.475   0.679 -0.5527 -0.3428  0.3443
 4981TIP3    H214908   1.787   1.617   0.663  1.1683  0.4300  1.3522
 4982TIP3   OH214909   4.593   5.432   2.393 -0.3860  0.2277  0.0986
 4982TIP3    H114910   4.518   5.373   2.390  0.7141 -1.2289 -0.2175
 4982TIP3    H214911   4.642   5.413   2.313  0.7739  0.5103  0.7068
 4983TIP3   OH214912   4.545   2.474   5.332 -0.0773 -0.0103  0.1023
 4983TIP3    H114913   4.492   2.498   5.256  0.4148 -0.7065 -0.4811
 4983TIP3    H214914   4.614   2.541   5.334  0.3884 -0.4446 -0.5829
 4984TIP3   OH214915   5.027   1.651   3.639 -0.1843 -0.4325 -0.4651
 4984TIP3    H114916   4.943   1.605   3.639  0.4796 -1.7234  0.1653
 4984TIP3    H214917   5.063   1.635   3.727 -0.3607  2.2222  0.1815
 4985TIP3   OH214918   3.610   3.337   1.217  0.5276  0.3193  0.1296
 4985TIP3    H114919   3.533   3.289   1.247 -0.4318  1.2971 -0.6778
 4985TIP3    H214920   3.623   3.308   1.127  2.3043 -1.2673  0.8343
 4986TIP3   OH214921   2.771   5.041   5.685 -0.2789 -0.3235  0.2940
 4986TIP3    H114922   2.695   5.057   5.629 -0.9126 -1.5023  0.7844
 4986TIP3    H214923   2.846   5.068   5.631 -1.1087  3.1771  0.6625
 4987TIP3   OH214924   0.395   4.563   4.940 -0.0238 -0.4981  0.0161
 4987TIP3    H114925   0.347   4.501   4.995 -0.1468  0.5288  1.0896
 4987TIP3    H214926   0.379   4.649   4.980  1.8297  0.0008 -0.2146
 4988TIP3   OH214927   4.683   5.757   3.804  0.1197 -0.0358  0.8828
 4988TIP3    H114928   4.590   5.759   3.826  0.4094 -1.5283  2.4998
 4988TIP3    H214929   4.688   5.693   3.732  0.0257 -0.9584  1.6776
 4989TIP3   OH214930   4.538   1.683   1.309 -0.1374 -0.2991 -0.4761
 4989TIP3    H114931   4.621   1.731   1.301 -0.6324  0.4486 -1.2704
 4989TIP3    H214932   4.504   1.678   1.220 -1.9410  1.2250  0.0584
 4990TIP3   OH214933   2.021   2.603   3.364 -0.1022 -0.4032 -0.5828
 4990TIP3    H114934   2.084   2.669   3.335 -0.5226 -0.1895 -1.0277
 4990TIP3    H214935   1.960   2.652   3.421  0.3139 -0.6745  0.1040
 4991TIP3   OH214936   1.118   1.994   5.638 -0.1015  0.0820  0.2032
 4991TIP3    H114937   1.147   1.999   5.547 -1.9628 -1.4061 -0.5430
 4991TIP3    H214938   1.049   2.061   5.644 -1.2883 -1.0735 -0.0671
 4992TIP3   OH214939   4.068   3.856   2.548  0.5417 -0.4763 -0.0834
 4992TIP3    H114940   4.108   3.849   2.635  0.4604  0.2469  0.0158
 4992TIP3    H214941   4.053   3.949   2.536  1.0116 -0.5296 -1.0936
 4993TIP3   OH214942   0.015   6.101   0.869 -0.1528 -0.3827 -0.6684
 4993TIP3    H114943   0.003   6.193   0.894  1.0355  0.1713 -1.9560
 4993TIP3    H214944   0.109   6.094   0.851 -0.4822 -1.4325 -2.1246
 4994TIP3   OH214945   4.617   3.527   3.661  0.3467 -0.0318 -0.6309
 4994TIP3    H114946   4.702   3.486   3.651  1.0774  0.5247  2.3441
 4994TIP3    H214947   4.555   3.454   3.668  1.3177 -0.7130  2.1627
 4995TIP3   OH214948   0.786   3.132   2.109  0.4106 -0.2740  0.3060
 4995TIP3    H114949   0.754   3.176   2.188  0.6867 -1.7219  1.2527
 4995TIP3    H214950   0.875   3.164   2.099  0.1836  0.3523  0.2479
 4996TIP3   OH214951   5.367   2.319   2.799 -0.7050 -0.2450  0.0318
 4996TIP3    H114952   5.301   2.293   2.864  0.0309 -1.4005  0.3329
 4996TIP3    H214953   5.449   2.281   2.831  0.0068  0.6552 -0.6659
 4997TIP3   OH214954   0.599   4.728   1.954 -0.0806 -0.4204 -0.3929
 4997TIP3    H114955   0.565   4.763   2.036 -2.1352 -2.0690 -0.4510
 4997TIP3    H214956   0.659   4.795   1.921 -2.7676  2.4219  0.1116
 4998TIP3   OH214957   6.533   1.707   1.808 -0.3062  0.4095 -0.4661
 4998TIP3    H114958   6.469   1.651   1.763 -0.4367 -0.0263  0.2398
 4998TIP3    H214959   6.578   1.753   1.738  0.8798 -1.7214 -1.1970
 4999TIP3   OH214960   2.055   2.313   0.664 -0.2880 -0.2550  0.3384
 4999TIP3    H114961   2.024   2.223   0.657 -2.7673  0.3793  1.7111
 4999TIP3    H214962   2.115   2.312   0.739  1.3060 -1.0610 -0.8758
 5000TIP3   OH214963   1.147   6.221   4.497  0.0608 -0.0535 -0.3395
 5000TIP3    H114964   1.119   6.301   4.540  1.2694  0.6530 -0.8176
 5000TIP3    H214965   1.218   6.188   4.551  0.4796 -0.0521 -0.8785
 5001TIP3   OH214966   3.859   4.464   4.522  0.3300 -0.6879  0.4455
 5001TIP3    H114967   3.946   4.479   4.558  0.3446  0.5328 -0.0343
 5001TIP3    H214968   3.837   4.375   4.547  1.4699 -0.8029  1.0854
 5002TIP3   OH214969   5.476   3.650   5.640  0.1782 -0.1641  0.4254
 5002TIP3    H114970   5.445   3.740   5.639  0.4455 -0.0446 -1.3856
 5002TIP3    H214971   5.406   3.601   5.683 -0.1583  0.8455  1.0409
 5003TIP3   OH214972   5.519   5.141   0.087 -0.6554  0.8360  0.5984
 5003TIP3    H114973   5.601   5.093   0.078 -0.4257  1.6534 -2.9673
 5003TIP3    H214974   5.541   5.231   0.063 -2.5494  1.0896 -0.3851
 5004TIP3   OH214975   3.852   5.279   2.409  0.2050 -0.2890 -0.1420
 5004TIP3    H114976   3.918   5.299   2.476 -0.0770 -1.2489  0.4544
 5004TIP3    H214977   3.897   5.219   2.349 -0.3942 -1.7349  0.8157
 5005TIP3   OH214978   4.424   6.425   3.793 -0.4977  0.6117  0.0084
 5005TIP3    H114979   4.330   6.442   3.786 -0.5725 -0.0046 -0.5349
 5005TIP3    H214980   4.465   6.497   3.745 -0.7343  0.3489 -0.5967
 5006TIP3   OH214981   2.900   4.712   4.475  0.0585 -0.7406 -0.2836
 5006TIP3    H114982   2.941   4.777   4.532 -1.5714 -1.3245  1.6923
 5006TIP3    H214983   2.897   4.753   4.389 -1.1791  1.9865  0.9321
 5007TIP3   OH214984   5.425   0.270   2.334 -0.3322 -0.3769 -0.2644
 5007TIP3    H114985   5.516   0.248   2.357 -0.3232 -1.7488 -1.5344
 5007TIP3    H214986   5.378   0.187   2.337 -1.0553 -0.0627 -1.8488
 5008TIP3   OH214987   1.255   6.474   4.015  0.1715 -0.2743 -0.4430
 5008TIP3    H114988   1.319   6.500   4.081  0.8856  1.1777 -1.6398
 5008TIP3    H214989   1.170   6.481   4.060  0.7997 -3.3118  1.5021
 5009TIP3   OH214990   0.417   4.524   0.178 -0.2530 -0.2590 -0.5604
 5009TIP3    H114991   0.455   4.568   0.254 -1.0153  0.2283 -0.4517
 5009TIP3    H214992   0.443   4.433   0.188  1.3385  0.1309 -0.7800
 5010TIP3   OH214993   2.301   5.582   4.270 -0.0540 -0.5289  0.2751
 5010TIP3    H114994   2.313   5.665   4.316 -0.2668 -0.9675  1.1578
 5010TIP3    H214995   2.244   5.531   4.329 -0.7960 -0.9031 -0.7429
 5011TIP3   OH214996   2.100   1.552   2.873  0.1806 -0.1399  0.3081
 5011TIP3    H114997   2.044   1.493   2.924 -0.1490  1.9246  2.4866
 5011TIP3    H214998   2.175   1.570   2.930  0.4563  1.2477 -0.4424
 5012TIP3   OH214999   2.356   5.014   1.173 -0.6555  0.1825 -0.3998
 5012TIP3    H115000   2.372   5.105   1.200 -2.3947 -0.1508  2.1453
 5012TIP3    H215001   2.339   5.019   1.079  4.3440  1.7074 -1.5186
 5013TIP3   OH215002   2.840   5.755   1.603  0.3869  0.0087  0.3710
 5013TIP3    H115003   2.766   5.814   1.589  2.0756  2.3466  0.6409
 5013TIP3    H215004   2.887   5.757   1.519  2.1885  1.7418  1.3209
 5014TIP3   OH215005   7.052   0.799   3.518 -0.1375 -0.0166 -0.2590
 5014TIP3    H115006   7.082   0.717   3.556 -1.3299 -0.6963 -0.7453
 5014TIP3    H215007   7.092   0.867   3.572  0.9176 -0.9050  0.1035
 5015TIP3   OH215008   0.407   6.406   0.915  0.0369 -0.2278  0.1414
 5015TIP3    H115009   0.359   6.391   0.996 -0.5321  0.3490 -0.0812
 5015TIP3    H215010   0.494   6.370   0.931  0.9498  2.5219  2.0889
 5016TIP3   OH215011   6.625   0.960   4.186 -0.7804  0.5399  0.4467
 5016TIP3    H115012   6.647   0.977   4.278 -1.3163  0.4759  0.5892
 5016TIP3    H215013   6.704   0.921   4.149 -1.0971 -0.9531  1.2856
 5017TIP3   OH215014   2.168   0.434   0.160 -0.6084  0.3445  0.7381
 5017TIP3    H115015   2.214   0.371   0.104  0.5232  1.4240  0.4206
 5017TIP3    H215016   2.087   0.455   0.112 -1.7044 -1.8563  1.4764
 5018TIP3   OH215017   3.608   3.729   3.957  0.8085 -0.6176  0.6747
 5018TIP3    H115018   3.677   3.792   3.979 -0.3075  1.0606 -0.3647
 5018TIP3    H215019   3.556   3.721   4.037  0.3936  0.5906  0.5480
 5019TIP3   OH215020   6.915   5.518   3.085  0.2063 -0.1714 -0.1683
 5019TIP3    H115021   6.824   5.490   3.084 -0.0759  0.5795  1.6829
 5019TIP3    H215022   6.965   5.437   3.072 -0.6771 -0.8836  0.7816
 5020TIP3   OH215023   6.925   5.749   0.298 -0.0139 -0.1817  0.6215
 5020TIP3    H115024   7.006   5.778   0.256 -2.0643  0.8307 -3.0290
 5020TIP3    H215025   6.948   5.663   0.335  2.7979  0.2734  0.1944
 5021TIP3   OH215026   0.316   4.071   2.831  0.6073 -0.3331  0.0242
 5021TIP3    H115027   0.251   4.009   2.798  0.0974 -0.9703  2.0579
 5021TIP3    H215028   0.265   4.148   2.855  1.1118  0.5469 -1.5563
 5022TIP3   OH215029   5.733   2.858   3.458 -0.2136  0.7002  0.0993
 5022TIP3    H115030   5.702   2.871   3.548  0.9531  1.3773  0.4230
 5022TIP3    H215031   5.683   2.782   3.427 -0.8034  0.5912  1.2355
 5023TIP3   OH215032   1.738   3.016   2.509 -0.1277  0.0186 -0.3180
 5023TIP3    H115033   1.748   3.026   2.414 -1.0965  1.4075 -0.3030
 5023TIP3    H215034   1.820   2.974   2.537  0.7205  0.7250 -1.6033
 5024TIP3   OH215035   0.511   5.390   5.665  0.2354  0.4679  0.5098
 5024TIP3    H115036   0.536   5.317   5.609  1.8631  1.1928  0.2356
 5024TIP3    H215037   0.488   5.461   5.605  0.5116  0.7719  0.7553
 5025TIP3   OH215038   5.323   2.145   0.400 -0.0683 -0.4930 -0.7490
 5025TIP3    H115039   5.249   2.149   0.340 -0.4806  1.5354 -0.1677
 5025TIP3    H215040   5.373   2.224   0.382 -0.4511  0.4351  1.8678
 5026TIP3   OH215041   0.121   3.451   0.715  0.0499  0.0826  0.9131
 5026TIP3    H115042   0.188   3.457   0.783  0.2398 -0.2715  0.7624
 5026TIP3    H215043   0.039   3.469   0.760  0.1257 -0.5613  1.3307
 5027TIP3   OH215044   1.218   0.495   0.760  0.3188  0.1234  0.5186
 5027TIP3    H115045   1.167   0.470   0.837  0.2372  0.0360  0.4362
 5027TIP3    H215046   1.183   0.580   0.734  0.8978  0.5407  1.0672
 5028TIP3   OH215047   6.798   2.362   2.236  0.0465  0.1373 -0.4615
 5028TIP3    H115048   6.783   2.278   2.280  0.4189 -1.0436 -2.4786
 5028TIP3    H215049   6.797   2.427   2.307  0.1067 -1.5925  1.1945
 5029TIP3   OH215050   4.343   3.043   4.772 -0.2517 -0.1997 -0.5066
 5029TIP3    H115051   4.437   3.029   4.759 -0.3966 -0.6972 -1.0703
 5029TIP3    H215052   4.326   3.128   4.732  0.0442  0.1280  0.0470
 5030TIP3   OH215053   0.877   4.140   1.917  0.8434  0.4061 -0.7301
 5030TIP3    H115054   0.860   4.098   2.001 -0.4034  0.0398 -1.1435
 5030TIP3    H215055   0.933   4.215   1.938  0.7697  0.1651  0.3789
 5031TIP3   OH215056   0.776   5.117   1.012 -0.4252 -0.6191 -0.6530
 5031TIP3    H115057   0.848   5.179   1.023 -0.9821  0.0260 -0.5961
 5031TIP3    H215058   0.710   5.144   1.075 -0.3380 -1.7941 -0.0229
 5032TIP3   OH215059   5.409   5.327   3.649  0.1508  0.0616 -0.1674
 5032TIP3    H115060   5.479   5.313   3.585 -0.6725  0.3339 -1.1588
 5032TIP3    H215061   5.380   5.239   3.673 -0.2423 -0.0450 -0.9899
 5033TIP3   OH215062   5.382   3.000   0.776  0.1961 -0.3610 -0.0325
 5033TIP3    H115063   5.378   3.039   0.863 -1.4429  2.4437 -1.2286
 5033TIP3    H215064   5.455   2.938   0.781 -0.2081 -0.7579  3.4370
 5034TIP3   OH215065   0.304   0.731   0.330  0.2344 -0.1877  0.8770
 5034TIP3    H115066   0.344   0.701   0.412  0.8648 -0.7881  0.3633
 5034TIP3    H215067   0.276   0.651   0.286  1.0435  0.0186 -0.0651
 5035TIP3   OH215068   5.241   0.171   3.357  0.3391  0.0440  0.0514
 5035TIP3    H115069   5.169   0.156   3.296 -0.0255  1.4625  0.0971
 5035TIP3    H215070   5.198   0.187   3.441  0.7795 -0.3419  0.3589
 5036TIP3   OH215071   6.086   6.215   4.361 -0.3938  0.0978  0.0648
 5036TIP3    H115072   5.996   6.247   4.364 -0.2207  0.5567  0.5942
 5036TIP3    H215073   6.130   6.260   4.433  0.7801  1.4871 -1.4300
 5037TIP3   OH215074   4.083   1.550   5.761  0.4536 -0.0565 -0.5472
 5037TIP3    H115075   4.135   1.629   5.779  0.4537  0.1355 -1.3485
 5037TIP3    H215076   4.031   1.538   5.840  0.6343  0.6101 -0.3142
 5038TIP3   OH215077   4.516   1.389   1.028 -0.3216 -0.4217 -0.3954
 5038TIP3    H115078   4.423   1.389   1.052 -0.3334  0.5113 -0.4051
 5038TIP3    H215079   4.550   1.470   1.065  0.2971 -0.3312 -1.1448
 5039TIP3   OH215080   3.530   6.314   0.137 -0.0737  0.6148 -0.2529
 5039TIP3    H115081   3.584   6.343   0.211  0.4149 -0.9889  0.0560
 5039TIP3    H215082   3.591   6.269   0.079 -0.7781  0.2973 -0.7578
 5040TIP3   OH215083   6.813   3.854   0.889 -0.0283 -0.0794  0.2315
 5040TIP3    H115084   6.815   3.950   0.891  0.7793 -0.0767 -0.2271
 5040TIP3    H215085   6.833   3.827   0.978 -1.3242  0.1783  0.6160
 5041TIP3   OH215086   3.889   2.883   1.670 -0.5953  0.8524 -0.4103
 5041TIP3    H115087   3.859   2.824   1.740 -1.4829  0.7421 -0.8771
 5041TIP3    H215088   3.839   2.856   1.593 -0.8554  2.0799 -0.6813
 5042TIP3   OH215089   3.196   3.561   0.349  0.0805  0.2044  0.5224
 5042TIP3    H115090   3.120   3.528   0.301 -0.0171  0.8382  0.2215
 5042TIP3    H215091   3.246   3.609   0.283  0.3558  0.4152  0.8852
 5043TIP3   OH215092   3.509   6.651   4.111 -0.2114  0.2866  0.2518
 5043TIP3    H115093   3.604   6.646   4.099 -0.2067 -0.7663  0.5831
 5043TIP3    H215094   3.478   6.563   4.088 -0.9443  0.1926  1.5254
 5044TIP3   OH215095   6.786   4.871   0.058 -0.6891  0.2754  0.5371
 5044TIP3    H115096   6.790   4.928   0.134  0.5802  0.5549  0.2791
 5044TIP3    H215097   6.806   4.784   0.092 -0.3815  0.3566  0.5624
 5045TIP3   OH215098   6.365   3.726   2.541  0.2508  0.4399  0.2466
 5045TIP3    H115099   6.450   3.688   2.519 -0.0373 -0.1707  0.1820
 5045TIP3    H215100   6.310   3.651   2.563 -0.9682  0.5891 -2.0379
 5046TIP3   OH215101   0.221   6.247   3.255 -0.0475  0.4167 -0.4171
 5046TIP3    H115102   0.178   6.305   3.192 -0.1355  1.2481  0.3825
 5046TIP3    H215103   0.293   6.299   3.291 -0.8888  0.5397  1.2305
 5047TIP3   OH215104   2.388   5.844   0.203  0.3176  0.1341 -0.1190
 5047TIP3    H115105   2.408   5.775   0.267 -0.0722 -0.4167 -0.5799
 5047TIP3    H215106   2.424   5.811   0.121 -1.2617 -0.2535 -0.6808
 5048TIP3   OH215107   2.722   3.622   5.298 -0.4028  0.4295 -0.1410
 5048TIP3    H115108   2.701   3.669   5.378 -1.3115  0.2505 -0.2645
 5048TIP3    H215109   2.738   3.691   5.233  2.1237  0.6239  0.5838
 5049TIP3   OH215110   4.668   6.279   4.304 -0.0745  0.4481 -0.0842
 5049TIP3    H115111   4.687   6.278   4.398  0.0515  0.2012 -0.1127
 5049TIP3    H215112   4.753   6.267   4.262 -0.2296 -0.2075 -0.2201
 5050TIP3   OH215113   2.654   1.576   4.620 -0.4857 -0.3130 -0.1738
 5050TIP3    H115114   2.693   1.578   4.533  0.2714 -1.2270  0.1348
 5050TIP3    H215115   2.565   1.543   4.606 -1.1225  1.5289 -0.8425
 5051TIP3   OH215116   1.090   1.963   4.435 -0.5916 -0.0582 -0.0463
 5051TIP3    H115117   0.997   1.954   4.411 -0.1797 -3.2620 -0.8492
 5051TIP3    H215118   1.104   1.895   4.501  1.2420  0.2504 -0.0910
 5052TIP3   OH215119   4.979   4.619   3.196 -0.0341  0.2113 -0.7513
 5052TIP3    H115120   5.012   4.531   3.176  1.4936  0.6204 -0.1626
 5052TIP3    H215121   4.944   4.611   3.285  2.8844  0.8441  0.5596
 5053TIP3   OH215122   1.504   4.289   0.697  0.1080 -0.6319  0.4903
 5053TIP3    H115123   1.562   4.284   0.622 -0.1116 -0.6649  0.3222
 5053TIP3    H215124   1.554   4.252   0.770  1.4876  2.1336  1.0736
 5054TIP3   OH215125   0.573   5.278   2.807  0.0135  0.3120 -0.0295
 5054TIP3    H115126   0.655   5.239   2.839 -0.7585 -0.7861  0.6676
 5054TIP3    H215127   0.596   5.369   2.788  1.0869  0.3816  1.4312
 5055TIP3   OH215128   5.213   4.501   2.315  0.2281  0.0402  0.4308
 5055TIP3    H115129   5.266   4.488   2.237  0.9462 -2.1281  1.2103
 5055TIP3    H215130   5.270   4.475   2.387 -1.3005 -0.6477  1.4487
 5056TIP3   OH215131   7.083   4.534   3.856 -0.0306 -0.2402 -0.1297
 5056TIP3    H115132   7.150   4.467   3.868 -1.0968 -1.4360 -0.4942
 5056TIP3    H215133   7.090   4.558   3.763  2.2057  2.2938  0.5902
 5057TIP3   OH215134   4.155   3.984   0.180  0.3156 -0.0739  0.4301
 5057TIP3    H115135   4.246   3.996   0.208 -0.2373  3.7109  1.0529
 5057TIP3    H215136   4.131   3.898   0.214  2.3005  0.7058  4.3411
 5058TIP3   OH215137   0.167   1.888   1.482  0.4274  0.4779 -0.5034
 5058TIP3    H115138   0.091   1.847   1.523  0.3541  1.5600  0.5033
 5058TIP3    H215139   0.242   1.841   1.519  0.3702  1.5011  1.0284
 5059TIP3   OH215140   3.626   5.346   2.884  0.4251 -0.0921 -0.1881
 5059TIP3    H115141   3.588   5.317   2.967 -0.4185  1.9949  0.2091
 5059TIP3    H215142   3.691   5.412   2.909 -0.4769  1.2213 -1.2150
 5060TIP3   OH215143   1.721   1.236   1.856  0.0182 -0.4290  0.4529
 5060TIP3    H115144   1.649   1.296   1.879  0.9500  0.8255  0.2091
 5060TIP3    H215145   1.736   1.252   1.763  0.5242 -0.7925  0.4713
 5061TIP3   OH215146   1.171   6.043   2.470  0.0398  0.6471  0.5904
 5061TIP3    H115147   1.184   5.993   2.551  2.1980 -1.6409 -1.0154
 5061TIP3    H215148   1.081   6.022   2.444 -0.1705  0.2014  1.6185
 5062TIP3   OH215149   1.891   1.718   5.569  0.4362  0.5112  0.6041
 5062TIP3    H115150   1.986   1.718   5.581  0.3890  0.4741  0.9839
 5062TIP3    H215151   1.856   1.753   5.651  0.0483 -1.0047  1.1277
 5063TIP3   OH215152   4.773   2.870   1.476 -0.1387 -0.3171  0.0890
 5063TIP3    H115153   4.854   2.921   1.485  0.5886 -1.0708 -1.7034
 5063TIP3    H215154   4.776   2.837   1.386 -1.9529 -1.2178  0.3236
 5064TIP3   OH215155   6.922   1.948   4.553  0.7164 -0.2557  0.3005
 5064TIP3    H115156   6.965   2.029   4.526 -0.1763  0.1658  0.0966
 5064TIP3    H215157   6.836   1.951   4.510  0.5754 -1.1936  0.4887
 5065TIP3   OH215158   6.129   5.556   1.156  0.2912  0.0089 -0.4219
 5065TIP3    H115159   6.146   5.545   1.249 -0.2053  2.1785 -0.0308
 5065TIP3    H215160   6.214   5.539   1.114  0.7841  0.1021  0.5244
 5066TIP3   OH215161   2.876   4.402   4.530 -0.0972  0.0089 -0.5651
 5066TIP3    H115162   2.962   4.435   4.555 -1.0281  0.5013  2.3921
 5066TIP3    H215163   2.861   4.327   4.587 -1.8743  0.3525 -0.5087
 5067TIP3   OH215164   1.676   2.597   2.017 -0.1181 -0.3546  0.0365
 5067TIP3    H115165   1.649   2.552   1.937 -1.1305 -0.3600  0.3744
 5067TIP3    H215166   1.716   2.679   1.987 -2.8854  0.9182 -0.4134
 5068TIP3   OH215167   6.309   6.640   5.469 -0.1194 -0.3077 -0.2472
 5068TIP3    H115168   6.313   6.546   5.488 -0.1887 -0.5305 -1.2780
 5068TIP3    H215169   6.288   6.680   5.553  1.9095 -1.0135  0.6579
 5069TIP3   OH215170   4.174   2.542   5.257  0.4646 -0.4550 -0.6163
 5069TIP3    H115171   4.189   2.510   5.168  0.1962  0.6296 -1.0687
 5069TIP3    H215172   4.183   2.465   5.313 -1.9006 -1.6805 -1.8287
 5070TIP3   OH215173   5.789   4.436   5.730  0.4954  0.2948 -0.7740
 5070TIP3    H115174   5.786   4.527   5.703  0.7348 -0.0649 -2.1059
 5070TIP3    H215175   5.844   4.436   5.808  0.4152  1.3011 -0.7077
 5071TIP3   OH215176   2.545   5.573   1.823 -0.3513 -0.3504  0.1593
 5071TIP3    H115177   2.588   5.658   1.815  0.6319 -0.9748 -2.3474
 5071TIP3    H215178   2.617   5.509   1.821 -1.0767 -1.2783  1.8381
 5072TIP3   OH215179   3.900   4.276   4.067  0.0156 -0.1748 -0.0586
 5072TIP3    H115180   3.822   4.240   4.109  0.4156 -1.0522 -0.0425
 5072TIP3    H215181   3.973   4.225   4.103  0.3748 -0.9485 -1.7821
 5073TIP3   OH215182   2.342   6.757   2.562  0.2846 -0.2668  0.1160
 5073TIP3    H115183   2.304   6.703   2.632  1.1990 -0.7787  0.2421
 5073TIP3    H215184   2.418   6.707   2.533  1.7263  1.3896  0.8928
 5074TIP3   OH215185   1.983   6.269   0.823 -0.0319  0.4636 -0.2599
 5074TIP3    H115186   1.983   6.359   0.855 -2.1964  0.1259  0.8365
 5074TIP3    H215187   2.021   6.218   0.895  1.0815  0.4395 -0.8335
 5075TIP3   OH215188   3.786   5.092   3.855  0.0954 -0.2745 -0.8740
 5075TIP3    H115189   3.804   5.045   3.773 -0.5010 -1.5606 -0.2993
 5075TIP3    H215190   3.865   5.080   3.907  0.9964  1.6419 -1.7109
 5076TIP3   OH215191   1.214   6.023   0.154 -0.0734  0.1310 -0.3386
 5076TIP3    H115192   1.147   6.052   0.092 -0.6171  1.9189  0.9829
 5076TIP3    H215193   1.296   6.061   0.120 -0.2376  0.4549 -0.3791
 5077TIP3   OH215194   5.642   0.886   0.998 -0.3708  1.1018  0.1986
 5077TIP3    H115195   5.727   0.872   1.040  0.1556  1.8802 -0.5716
 5077TIP3    H215196   5.600   0.800   0.998  0.1005  0.8619  1.2563
 5078TIP3   OH215197   0.435   5.926   3.566 -0.1738  0.2095 -0.0773
 5078TIP3    H115198   0.361   5.869   3.582  0.0759 -0.7530 -2.1156
 5078TIP3    H215199   0.468   5.901   3.480  2.1641  1.0003  0.4953
 5079TIP3   OH215200   0.947   1.592   3.646 -0.0483 -0.0744 -0.3449
 5079TIP3    H115201   0.997   1.511   3.652 -0.6709 -0.4004  0.6870
 5079TIP3    H215202   0.868   1.569   3.598  0.6910  0.4107 -1.8554
 5080TIP3   OH215203   0.900   0.831   4.808  0.4758 -0.0530 -0.1371
 5080TIP3    H115204   0.865   0.753   4.766  0.9643 -1.0125  1.1721
 5080TIP3    H215205   0.831   0.896   4.798 -0.5926 -1.1204  0.1043
 5081TIP3   OH215206   4.188   5.190   4.742 -0.2148  0.0212  0.2149
 5081TIP3    H115207   4.224   5.169   4.828  1.4786 -1.3528 -0.7500
 5081TIP3    H215208   4.110   5.135   4.735 -0.1225 -0.1809  0.7251
 5082TIP3   OH215209   4.790   0.194   0.707  0.6549 -0.4830  0.5226
 5082TIP3    H115210   4.728   0.159   0.643  2.4611 -0.1594 -1.4918
 5082TIP3    H215211   4.753   0.168   0.792 -2.3382 -0.0680 -0.5361
 5083TIP3   OH215212   0.169   0.493   1.210 -0.2603 -0.4217  0.4149
 5083TIP3    H115213   0.121   0.569   1.243 -1.6707 -0.1107 -2.0934
 5083TIP3    H215214   0.248   0.529   1.171  0.7409 -0.6566  2.1155
 5084TIP3   OH215215   3.074   0.823   0.963 -0.4694 -1.0818  0.3078
 5084TIP3    H115216   2.996   0.871   0.992 -0.1679 -0.5268  0.2289
 5084TIP3    H215217   3.147   0.874   0.999 -0.1316 -1.2454 -0.1434
 5085TIP3   OH215218   2.064   2.320   4.068 -0.0724 -0.4347 -0.1702
 5085TIP3    H115219   2.131   2.358   4.012  0.0934 -1.1916 -0.4884
 5085TIP3    H215220   2.053   2.384   4.138  0.0445  0.2999 -0.8149
 5086TIP3   OH215221   1.757   1.331   1.557 -0.3906  0.6150 -0.2387
 5086TIP3    H115222   1.695   1.287   1.499  0.2398 -0.1567 -0.3405
 5086TIP3    H215223   1.758   1.422   1.526 -2.0062  0.8239  0.2256
 5087TIP3   OH215224   3.227   3.242   0.019 -0.2426  0.0471  0.5895
 5087TIP3    H115225   3.261   3.153   0.020 -2.0111 -0.6900 -0.2685
 5087TIP3    H215226   3.194   3.256   0.108 -0.3890 -0.3432  0.5993
 5088TIP3   OH215227   6.202   1.000   3.544  0.3905  0.8826  0.0752
 5088TIP3    H115228   6.169   0.922   3.589 -1.8889  1.1243 -0.9981
 5088TIP3    H215229   6.200   1.069   3.610  0.1445  0.5358  0.4351
 5089TIP3   OH215230   5.742   6.114   2.235  0.5102 -0.7473  0.0442
 5089TIP3    H115231   5.786   6.168   2.170  0.0226 -0.3680  0.0223
 5089TIP3    H215232   5.651   6.145   2.234  0.7049 -0.0134  1.6359
 5090TIP3   OH215233   4.999   1.349   2.890  0.1019  0.5862  0.4134
 5090TIP3    H115234   5.009   1.418   2.824  1.7769  0.0878  0.0958
 5090TIP3    H215235   4.928   1.294   2.857 -0.1778  1.2626 -0.1336
 5091TIP3   OH215236   3.166   6.550   0.386  0.3823 -0.2475 -0.1461
 5091TIP3    H115237   3.233   6.618   0.390 -0.4382  0.6025 -0.5073
 5091TIP3    H215238   3.156   6.532   0.293  0.8253 -1.1144 -0.0367
 5092TIP3   OH215239   3.175   4.408   1.633  0.2301 -0.0935  0.0052
 5092TIP3    H115240   3.147   4.403   1.542  0.8179  3.1714 -0.5152
 5092TIP3    H215241   3.122   4.479   1.671  0.7537 -0.6382  1.8987
 5093TIP3   OH215242   4.787   6.628   3.632  0.0729  0.4785 -0.4273
 5093TIP3    H115243   4.718   6.627   3.566  0.4266 -1.1738 -0.8183
 5093TIP3    H215244   4.867   6.608   3.583  0.0387 -3.2641  0.6944
 5094TIP3   OH215245   2.309   5.180   2.094 -0.6009  0.2872  0.0661
 5094TIP3    H115246   2.241   5.219   2.148 -0.6568  0.7908 -0.3650
 5094TIP3    H215247   2.279   5.090   2.080 -0.4397  0.0493  1.1150
 5095TIP3   OH215248   6.879   4.843   0.498 -0.5801  0.4728 -0.2768
 5095TIP3    H115249   6.824   4.900   0.551  2.3282  1.7225  1.6390
 5095TIP3    H215250   6.900   4.770   0.556  1.0062  0.8121 -0.3977
 5096TIP3   OH215251   1.402   3.081   5.068  0.6838 -0.1191 -0.4880
 5096TIP3    H115252   1.468   3.022   5.104 -0.0999 -0.7757 -0.0634
 5096TIP3    H215253   1.391   3.149   5.134  1.1226  0.1312 -0.6764
 5097TIP3   OH215254   3.724   0.051   2.395 -0.3793  0.2686 -0.2446
 5097TIP3    H115255   3.786  -0.009   2.435 -0.9422  0.5725  1.1675
 5097TIP3    H215256   3.643   0.002   2.389 -0.7521  0.7480  0.6072
 5098TIP3   OH215257   3.943   2.885   0.961  0.7198  0.2404  0.1801
 5098TIP3    H115258   3.989   2.864   0.881 -0.5319  0.6667 -0.6878
 5098TIP3    H215259   3.922   2.800   1.000  1.1631  0.0275 -0.0419
 5099TIP3   OH215260   0.679   3.005   5.561  0.3032  0.5803  0.4928
 5099TIP3    H115261   0.662   3.001   5.655 -0.4511 -0.7219  0.3231
 5099TIP3    H215262   0.592   2.999   5.521  0.7394 -0.6968 -0.3161
 5100TIP3   OH215263   0.615   6.271   4.158  0.3214  0.6263  0.1101
 5100TIP3    H115264   0.591   6.339   4.096 -1.1021  1.6748  1.7280
 5100TIP3    H215265   0.696   6.302   4.198  0.6690  0.4548 -0.4466
 5101TIP3   OH215266   0.088   3.863   2.450 -0.9110  0.0552  0.7632
 5101TIP3    H115267   0.027   3.789   2.443  1.6506 -2.1550 -0.0525
 5101TIP3    H215268   0.073   3.915   2.371 -0.2936 -1.7301 -0.6083
 5102TIP3   OH215269   5.352   3.663   5.286 -0.1621  0.6938 -0.3529
 5102TIP3    H115270   5.386   3.749   5.309  0.8915  0.4197 -0.8256
 5102TIP3    H215271   5.264   3.679   5.254 -0.9854  1.3065  2.0157
 5103TIP3   OH215272   2.864   3.256   3.452 -0.6463 -0.3371  0.4653
 5103TIP3    H115273   2.878   3.258   3.546  0.6806  0.3641  0.2884
 5103TIP3    H215274   2.931   3.315   3.417 -1.7014  0.1424 -0.8496
 5104TIP3   OH215275   2.969   1.032   5.030 -0.5015 -0.3925 -0.9008
 5104TIP3    H115276   2.938   0.960   5.085  1.4317 -1.0758 -0.6165
 5104TIP3    H215277   2.942   1.007   4.942 -0.4910 -1.1091 -0.7127
 5105TIP3   OH215278   5.757   1.942   3.404  0.4861  0.2200 -0.1300
 5105TIP3    H115279   5.774   1.971   3.494  0.3189 -0.9686  0.2960
 5105TIP3    H215280   5.662   1.941   3.397  0.4983  0.2135 -0.2965
 5106TIP3   OH215281   6.671   6.534   0.915 -0.2446  0.5926 -0.2835
 5106TIP3    H115282   6.682   6.571   1.002  1.0555 -3.5421  1.5620
 5106TIP3    H215283   6.705   6.601   0.856  1.0285  2.6646  2.5580
 5107TIP3   OH215284   4.487   1.815   5.601 -0.7442  0.3751  0.1158
 5107TIP3    H115285   4.534   1.741   5.640 -0.5454  0.3689 -0.1337
 5107TIP3    H215286   4.512   1.890   5.654 -0.4230  0.3773 -0.0387
 5108TIP3   OH215287   1.909   4.277   4.863  0.0559 -0.0650 -0.3771
 5108TIP3    H115288   1.882   4.189   4.837 -1.0175  0.5752 -1.6152
 5108TIP3    H215289   1.828   4.319   4.892  0.6414  0.3707  0.6817
 5109TIP3   OH215290   5.722   6.178   5.807 -0.3761  0.0434  1.2140
 5109TIP3    H115291   5.666   6.200   5.733  1.6435  1.2336 -0.0638
 5109TIP3    H215292   5.754   6.262   5.839  0.1666 -0.5618  2.3351
 5110TIP3   OH215293   4.702   3.530   5.097 -0.2631 -0.2920  0.0031
 5110TIP3    H115294   4.795   3.515   5.114 -0.0321  2.3219  1.5682
 5110TIP3    H215295   4.700   3.609   5.044 -1.5865 -1.0453 -1.1227
 5111TIP3   OH215296   5.478   1.398   2.901  0.3104  0.9007  0.5017
 5111TIP3    H115297   5.546   1.392   2.968 -0.6674  0.9947  1.5473
 5111TIP3    H215298   5.399   1.364   2.944 -0.5165  1.6612 -0.3549
 5112TIP3   OH215299   5.793   5.051   3.634 -0.1240  0.2513 -0.0850
 5112TIP3    H115300   5.810   4.993   3.708  1.4350 -0.9074 -1.2760
 5112TIP3    H215301   5.850   5.127   3.650  2.0307 -1.0285 -1.1539
 5113TIP3   OH215302   4.185   4.731   4.016  0.2143  0.1536 -0.4159
 5113TIP3    H115303   4.275   4.724   3.985  1.1081  0.7955  1.8476
 5113TIP3    H215304   4.166   4.645   4.054 -0.0567  0.0826 -0.7096
 5114TIP3   OH215305   4.110   0.686   0.687 -0.0697 -0.1334 -0.0924
 5114TIP3    H115306   4.158   0.682   0.770 -0.3429 -1.3389  0.0166
 5114TIP3    H215307   4.046   0.615   0.693 -1.5280  1.0982 -0.4559
 5115TIP3   OH215308   1.989   4.705   0.805 -0.3080  0.4496 -0.6202
 5115TIP3    H115309   1.977   4.619   0.765 -1.4566 -0.0068  0.6394
 5115TIP3    H215310   1.915   4.757   0.772 -1.7041 -0.1467  1.3610
 5116TIP3   OH215311   5.172   3.039   3.969  0.1488 -0.0224 -0.3258
 5116TIP3    H115312   5.171   2.991   3.886 -0.3613 -0.1279 -0.2598
 5116TIP3    H215313   5.182   2.971   4.036  0.5049  0.0574 -0.2953
 5117TIP3   OH215314   1.214   1.283   3.208 -0.3036  0.1182  0.2346
 5117TIP3    H115315   1.238   1.292   3.116 -1.5230  0.0807 -0.1060
 5117TIP3    H215316   1.253   1.360   3.251  1.5263 -0.6210 -0.0108
 5118TIP3   OH215317   5.056   3.230   3.073  0.2340 -0.6811 -0.3558
 5118TIP3    H115318   5.059   3.180   2.991  0.9689 -0.6883 -0.3285
 5118TIP3    H215319   4.972   3.207   3.111 -0.7890  0.4422 -1.8008
 5119TIP3   OH215320   0.679   5.112   0.230 -0.1798  0.2068  0.0280
 5119TIP3    H115321   0.620   5.174   0.271  0.2513 -1.2423  3.1708
 5119TIP3    H215322   0.767   5.146   0.248  0.0629  0.8134 -2.0090
 5120TIP3   OH215323   3.929   1.056   4.632 -0.1941  0.4513  0.0520
 5120TIP3    H115324   3.966   1.107   4.560  1.9615 -1.9099 -0.6602
 5120TIP3    H215325   3.909   1.121   4.699  1.3745  2.3627 -1.2044
 5121TIP3   OH215326   4.683   5.989   0.941  0.1135  0.4278 -0.1534
 5121TIP3    H115327   4.635   6.057   0.988  1.0691  0.0174  1.4757
 5121TIP3    H215328   4.703   5.923   1.007  1.5864 -0.1363 -1.1142
 5122TIP3   OH215329   1.667   2.679   0.059 -0.4507 -0.0321  0.3517
 5122TIP3    H115330   1.672   2.607   0.122 -1.4248  0.9702  1.6295
 5122TIP3    H215331   1.574   2.685   0.037  0.0342 -1.5490 -2.6877
 5123TIP3   OH215332   2.732   2.240   4.861  0.1851  0.7784 -0.7004
 5123TIP3    H115333   2.688   2.282   4.787 -1.2240 -2.4986 -1.9292
 5123TIP3    H215334   2.785   2.171   4.821 -1.8440 -2.1519  1.2750
 5124TIP3   OH215335   0.045   3.812   3.409 -0.0706  0.0895  0.3400
 5124TIP3    H115336   0.017   3.734   3.361 -0.8069 -0.0518  0.9650
 5124TIP3    H215337   0.092   3.777   3.485 -0.2356  0.2594  0.5202
 5125TIP3   OH215338   3.428   3.583   1.497 -0.1558  0.0547  0.4639
 5125TIP3    H115339   3.366   3.589   1.425 -0.1688 -0.7647  0.3928
 5125TIP3    H215340   3.514   3.575   1.455 -0.3733 -3.7413  0.3340
 5126TIP3   OH215341   0.910   5.308   4.137 -0.0266 -0.1273  0.2574
 5126TIP3    H115342   1.000   5.297   4.107 -0.5645 -0.1734 -1.4660
 5126TIP3    H215343   0.877   5.218   4.145 -0.6181 -0.0963 -1.4797
 5127TIP3   OH215344   6.144   0.512   2.531 -0.3596  1.1248 -0.0902
 5127TIP3    H115345   6.194   0.592   2.512  0.9346  0.0427 -1.3976
 5127TIP3    H215346   6.095   0.495   2.451 -0.0282  0.1892 -0.0989
 5128TIP3   OH215347   6.404   2.753   4.090 -0.0549 -0.0806  0.2960
 5128TIP3    H115348   6.341   2.699   4.138  0.4909 -0.7244  0.3053
 5128TIP3    H215349   6.422   2.704   4.010  1.4912 -0.6150  0.9309
 5129TIP3   OH215350   2.342   0.962   0.921 -0.2609 -0.3947  0.4006
 5129TIP3    H115351   2.381   0.951   1.008  0.0011 -0.0253  0.3346
 5129TIP3    H215352   2.337   0.873   0.886  1.4740 -0.3904  0.0181
 5130TIP3   OH215353   6.268   2.175   0.797  0.8346 -0.2057  0.4440
 5130TIP3    H115354   6.336   2.107   0.789  1.0893 -0.1004  1.5694
 5130TIP3    H215355   6.271   2.221   0.713  1.3006 -0.9878  0.0119
 5131TIP3   OH215356   3.942   1.626   4.374 -0.2082 -0.1673  0.7032
 5131TIP3    H115357   4.007   1.687   4.337  0.0913  0.8681  2.7964
 5131TIP3    H215358   3.890   1.599   4.298  0.0473  2.2266 -0.4472
 5132TIP3   OH215359   6.150   3.638   5.389  0.1606 -0.1570 -0.0541
 5132TIP3    H115360   6.188   3.673   5.470 -1.6016  0.2354  0.6420
 5132TIP3    H215361   6.068   3.598   5.416 -0.6187  0.2416 -1.6933
 5133TIP3   OH215362   1.106   2.951   5.693 -0.2111  0.9532 -0.0294
 5133TIP3    H115363   1.104   2.855   5.690 -0.8598  0.9103  0.9983
 5133TIP3    H215364   1.172   2.971   5.760 -0.5900  1.1911  0.2782
 5134TIP3   OH215365   0.582   1.361   1.678 -0.1648  0.5741  0.1431
 5134TIP3    H115366   0.605   1.387   1.589 -0.5369 -0.8125 -0.3900
 5134TIP3    H215367   0.569   1.266   1.672  0.0533  0.4193  1.7309
 5135TIP3   OH215368   4.649   4.648   1.748  0.0698 -0.0609  0.0158
 5135TIP3    H115369   4.692   4.724   1.786 -0.5697  1.1122 -1.5315
 5135TIP3    H215370   4.687   4.639   1.661  0.9320 -2.2145  0.5292
 5136TIP3   OH215371   3.723   0.370   0.484  0.4731 -0.2742  0.0751
 5136TIP3    H115372   3.666   0.364   0.407  2.2161  0.7205 -1.3738
 5136TIP3    H215373   3.798   0.315   0.463  0.7764 -0.3606  1.2857
 5137TIP3   OH215374   1.878   5.939   3.451  1.0895 -0.0648 -0.5515
 5137TIP3    H115375   1.844   5.867   3.505  1.4445  0.1119 -0.0905
 5137TIP3    H215376   1.915   5.895   3.374 -2.5484 -0.1589 -2.4776
 5138TIP3   OH215377   2.647   3.581   3.630 -0.2782  0.0953 -0.0221
 5138TIP3    H115378   2.706   3.653   3.610 -3.3056  2.7015 -0.3729
 5138TIP3    H215379   2.637   3.534   3.547  0.4709  0.2751 -0.2157
 5139TIP3   OH215380   4.029   5.828   5.375  0.4276 -0.1465  0.0970
 5139TIP3    H115381   4.034   5.733   5.389  0.8733 -0.4829 -2.0319
 5139TIP3    H215382   4.116   5.852   5.344  1.0952  1.4429  2.8309
 5140TIP3   OH215383   5.921   3.310   4.697 -0.3126  0.0931  0.2900
 5140TIP3    H115384   5.962   3.339   4.616  1.4547  0.9664  1.4331
 5140TIP3    H215385   5.828   3.327   4.684 -0.2443 -0.9212 -1.9835
 5141TIP3   OH215386   2.718   1.311   1.699 -0.1153 -0.2462  0.1482
 5141TIP3    H115387   2.664   1.238   1.730  1.5830 -0.6587  2.4621
 5141TIP3    H215388   2.666   1.389   1.717 -1.0019 -0.7694 -0.1224
 5142TIP3   OH215389   3.138   1.594   0.638 -0.4593  0.7189  0.7282
 5142TIP3    H115390   3.199   1.655   0.598 -0.8600  0.8903  0.3705
 5142TIP3    H215391   3.191   1.543   0.700  0.4615 -0.4465 -0.9369
 5143TIP3   OH215392   3.298   2.817   5.767  0.0610 -0.2242  0.0398
 5143TIP3    H115393   3.250   2.845   5.690 -1.0793 -2.2356 -0.0463
 5143TIP3    H215394   3.336   2.733   5.743 -0.4504 -0.9806  1.6854
 5144TIP3   OH215395   6.309   4.134   2.459 -0.0719 -0.1214 -0.2070
 5144TIP3    H115396   6.398   4.169   2.451 -0.0892 -0.0447 -0.0541
 5144TIP3    H215397   6.254   4.199   2.413  0.0287 -0.4943 -0.8749
 5145TIP3   OH215398   1.113   6.529   4.254  0.5799  0.1481 -0.3864
 5145TIP3    H115399   1.073   6.546   4.339  0.3278  1.6684 -0.7911
 5145TIP3    H215400   1.191   6.584   4.253 -0.1367  1.1894 -1.6464
 5146TIP3   OH215401   4.461   3.454   5.362 -0.0253  0.4996  0.0924
 5146TIP3    H115402   4.507   3.370   5.355 -0.9368  0.0534 -0.9501
 5146TIP3    H215403   4.371   3.434   5.336  0.3527  2.3171 -3.1446
 5147TIP3   OH215404   5.185   1.650   4.104 -0.1372 -0.0404  0.1571
 5147TIP3    H115405   5.245   1.687   4.169  0.8743 -1.1518 -0.1047
 5147TIP3    H215406   5.110   1.619   4.155  0.6856 -0.9825  0.8351
 5148TIP3   OH215407   5.537   3.826   0.084  0.1389 -0.8611 -0.2844
 5148TIP3    H115408   5.481   3.860   0.015  2.0182  1.0137 -0.9795
 5148TIP3    H215409   5.588   3.756   0.042 -1.0668 -2.0533  0.1558
 5149TIP3   OH215410   1.133   3.400   5.742  0.2872  0.3428  0.0895
 5149TIP3    H115411   1.039   3.396   5.756  0.5532 -1.4954  1.6735
 5149TIP3    H215412   1.166   3.317   5.775  2.5425  1.1846  0.1169
 5150TIP3   OH215413   1.394   1.830   4.827  0.7923  0.0896  0.1268
 5150TIP3    H115414   1.331   1.759   4.828 -0.2791  1.0084 -0.1573
 5150TIP3    H215415   1.386   1.871   4.913  0.4048  0.7087 -0.1987
 5151TIP3   OH215416   5.905   6.037   5.660 -0.2942  0.7342  0.3013
 5151TIP3    H115417   5.887   6.048   5.567  0.2559  0.1739  0.1167
 5151TIP3    H215418   5.822   6.057   5.704 -0.8031  0.1323 -0.3710
 5152TIP3   OH215419   6.271   2.309   4.761  0.3662  0.3523 -0.2069
 5152TIP3    H115420   6.179   2.336   4.752  0.7933  1.9242 -0.1943
 5152TIP3    H215421   6.319   2.391   4.767  1.6815 -0.4559  0.8967
 5153TIP3   OH215422   1.288   1.053   3.635 -0.0649  0.5716 -0.1102
 5153TIP3    H115423   1.208   1.003   3.652  0.5389 -0.6048 -0.6392
 5153TIP3    H215424   1.299   1.109   3.712 -0.5530 -0.3834  0.6612
 5154TIP3   OH215425   1.579   2.163   2.318 -0.5417 -0.0334 -0.0258
 5154TIP3    H115426   1.486   2.182   2.327 -0.5628 -0.0600 -0.1862
 5154TIP3    H215427   1.620   2.207   2.392 -0.4977  1.2507 -0.7891
 5155TIP3   OH215428   7.134   5.091   0.456  0.0807  0.2495 -0.1851
 5155TIP3    H115429   7.200   5.156   0.481 -0.4082  0.8744 -0.4737
 5155TIP3    H215430   7.081   5.080   0.535  0.2841  0.0442 -0.0749
 5156TIP3   OH215431   4.880   0.436   4.367 -0.4184 -0.4332 -0.0990
 5156TIP3    H115432   4.901   0.382   4.443 -1.2716 -0.9049 -0.1793
 5156TIP3    H215433   4.808   0.492   4.397 -0.6466 -0.5046 -0.5069
 5157TIP3   OH215434   2.002   4.503   5.049 -0.0259 -0.3269  0.2377
 5157TIP3    H115435   1.992   4.454   4.968  0.2781 -0.7681  0.4617
 5157TIP3    H215436   1.979   4.440   5.118 -1.3950  0.3541  0.4556
 5158TIP3   OH215437   5.592   4.404   4.839  0.0241  0.4566 -0.0667
 5158TIP3    H115438   5.657   4.397   4.909  0.3559 -1.8635 -0.5196
 5158TIP3    H215439   5.526   4.465   4.872  1.2610  1.0779  1.3438
 5159TIP3   OH215440   0.712   0.187   3.894  0.1751 -0.0289  0.5351
 5159TIP3    H115441   0.771   0.152   3.960  0.8808  0.5165  0.2124
 5159TIP3    H215442   0.627   0.193   3.938  0.1101 -1.7796  0.6903
 5160TIP3   OH215443   4.569   1.660   0.501  0.0545 -0.0946  0.3589
 5160TIP3    H115444   4.535   1.713   0.429  0.8498  0.7398  0.5717
 5160TIP3    H215445   4.587   1.575   0.462 -0.4873  0.0328 -0.1855
 5161TIP3   OH215446   5.466   6.556   1.114  0.0683  0.2848  0.3690
 5161TIP3    H115447   5.470   6.517   1.026  1.0541  1.0002  0.0758
 5161TIP3    H215448   5.502   6.488   1.171 -0.4785 -0.1444  0.2088
 5162TIP3   OH215449   5.786   5.620   0.551  0.1777  0.5021 -0.3888
 5162TIP3    H115450   5.864   5.611   0.606 -0.7795 -0.7289  0.8190
 5162TIP3    H215451   5.743   5.700   0.583 -0.8018 -0.6272  1.3009
 5163TIP3   OH215452   4.057   4.871   0.947  0.0536  0.0625  0.3462
 5163TIP3    H115453   4.102   4.935   0.891  0.7475 -0.7095  0.0008
 5163TIP3    H215454   3.982   4.919   0.983 -0.7544  0.4412 -1.6875
 5164TIP3   OH215455   6.102   1.832   2.875  0.0596  0.8032 -0.0699
 5164TIP3    H115456   6.100   1.747   2.830  2.5147  0.4826  0.2766
 5164TIP3    H215457   6.023   1.832   2.929  0.2862 -1.5511  0.3839
 5165TIP3   OH215458   1.202   3.887   0.987 -0.1779  0.0003  0.1199
 5165TIP3    H115459   1.149   3.953   1.032  1.4075 -0.3802  2.7699
 5165TIP3    H215460   1.139   3.823   0.954 -1.5179  1.0049  0.6588
 5166TIP3   OH215461   1.886   0.144   0.137  0.8723 -0.0014  0.1624
 5166TIP3    H115462   1.953   0.112   0.076 -0.2594 -1.6952 -0.2843
 5166TIP3    H215463   1.835   0.207   0.086  1.2109  0.1652  0.0303
 5167TIP3   OH215464   7.037   5.256   1.912  0.0973  0.1278  0.0584
 5167TIP3    H115465   6.951   5.229   1.945 -0.6796  0.0193 -1.8822
 5167TIP3    H215466   7.020   5.338   1.866  1.0623  0.1990 -0.1866
 5168TIP3   OH215467   0.162   2.797   3.827 -0.6177  0.0148 -0.4435
 5168TIP3    H115468   0.209   2.812   3.909  0.0614 -3.2829 -0.0962
 5168TIP3    H215469   0.222   2.828   3.759  0.1128 -0.0135  0.1786
 5169TIP3   OH215470   2.961   5.918   5.617  0.5416  0.4748 -0.0107
 5169TIP3    H115471   2.912   5.976   5.558  1.8624  0.2309 -1.4215
 5169TIP3    H215472   2.975   5.969   5.696 -1.6707  0.6620  0.3148
 5170TIP3   OH215473   4.727   5.537   0.500  0.2994  0.3000 -0.4963
 5170TIP3    H115474   4.809   5.571   0.536 -0.9864  1.8632  1.1288
 5170TIP3    H215475   4.666   5.535   0.574 -1.6280  0.8202 -1.9693
 5171TIP3   OH215476   1.582   3.910   3.307  0.1884  0.7345 -0.0033
 5171TIP3    H115477   1.549   3.992   3.270 -0.7254  0.4242  0.0873
 5171TIP3    H215478   1.508   3.849   3.299  1.5800 -0.7898 -2.2176
 5172TIP3   OH215479   3.798   4.768   5.454 -0.0434 -0.2538 -0.0668
 5172TIP3    H115480   3.817   4.684   5.414  1.4934  0.2257 -0.4064
 5172TIP3    H215481   3.855   4.830   5.409 -1.0896  0.9799  0.2112
 5173TIP3   OH215482   2.705   1.994   0.710  0.6960 -0.2178 -0.0251
 5173TIP3    H115483   2.799   1.978   0.718  1.0015  0.6793 -1.5070
 5173TIP3    H215484   2.668   1.911   0.683  1.1468 -0.4273 -0.0046
 5174TIP3   OH215485   2.854   4.872   1.565  0.4068 -0.1170 -0.1523
 5174TIP3    H115486   2.841   4.961   1.533  1.4802 -0.5038 -1.7687
 5174TIP3    H215487   2.941   4.848   1.534 -0.5423 -2.3553 -1.2899
 5175TIP3   OH215488   1.733   0.356   2.121 -0.2214  0.4637 -0.4360
 5175TIP3    H115489   1.682   0.298   2.065  0.2331 -0.4937  0.1108
 5175TIP3    H215490   1.673   0.427   2.144 -1.8186 -1.3678  1.3755
 5176TIP3   OH215491   0.626   6.535   3.704 -0.2209 -0.5827 -0.6059
 5176TIP3    H115492   0.707   6.586   3.710  0.3433 -1.5815  1.7843
 5176TIP3    H215493   0.652   6.453   3.662  0.3145 -1.3061  1.0348
 5177TIP3   OH215494   4.162   0.981   1.867 -0.1162 -0.2162  0.4699
 5177TIP3    H115495   4.092   1.031   1.908 -1.7393 -1.9864  0.0216
 5177TIP3    H215496   4.183   1.029   1.787 -1.4620 -0.1028  0.1638
 5178TIP3   OH215497   3.371   1.572   4.725 -0.5792  0.1755 -0.5367
 5178TIP3    H115498   3.315   1.547   4.798  0.3074 -0.3559 -0.0176
 5178TIP3    H215499   3.319   1.634   4.675 -1.3367  0.2858  0.3598
 5179TIP3   OH215500   2.312   5.064   1.654  0.5676  0.0004 -0.4444
 5179TIP3    H115501   2.388   5.118   1.677  1.5174 -0.9462 -1.2478
 5179TIP3    H215502   2.273   5.108   1.579  0.0729  0.7092  0.2204
 5180TIP3   OH215503   0.858   5.956   0.402 -0.1674  0.4121 -0.3132
 5180TIP3    H115504   0.800   6.022   0.440 -0.5907 -0.0890 -0.0744
 5180TIP3    H215505   0.946   5.992   0.412 -0.2647  0.2899  1.1534
 5181TIP3   OH215506   5.767   4.513   0.285  0.4295  0.0342  0.2070
 5181TIP3    H115507   5.819   4.543   0.210 -0.2057 -0.7261 -0.5645
 5181TIP3    H215508   5.779   4.418   0.286  1.2182  0.1291  1.6983
 5182TIP3   OH215509   3.496   5.237   4.801  0.1819  0.0827  0.3259
 5182TIP3    H115510   3.465   5.250   4.891  0.5869 -1.2849  0.6968
 5182TIP3    H215511   3.417   5.241   4.747 -0.3272 -0.8458  0.9683
 5183TIP3   OH215512   1.395   1.459   1.361 -0.3143  0.5582 -0.5116
 5183TIP3    H115513   1.338   1.487   1.289 -1.5077  2.2553  0.9977
 5183TIP3    H215514   1.391   1.531   1.424 -0.2159 -1.2955  1.7680
 5184TIP3   OH215515   2.194   3.122   1.090 -0.3742 -0.1638 -0.5327
 5184TIP3    H115516   2.195   3.199   1.147 -1.4447  0.4089 -1.2615
 5184TIP3    H215517   2.256   3.062   1.131  0.4302  1.0480  0.0907
 5185TIP3   OH215518   2.768   3.929   4.117  0.1718  0.4751 -0.2876
 5185TIP3    H115519   2.773   3.963   4.206 -1.6420 -0.1642  0.0873
 5185TIP3    H215520   2.680   3.950   4.087 -0.1857 -1.6830 -0.9382
 5186TIP3   OH215521   3.730   5.051   2.203 -0.6449  0.3996  0.1617
 5186TIP3    H115522   3.681   4.988   2.150 -1.7068 -0.2969  1.9120
 5186TIP3    H215523   3.666   5.116   2.229  0.1938  1.5766 -0.6155
 5187TIP3   OH215524   5.990   4.254   5.203  0.0366  0.2147 -0.1129
 5187TIP3    H115525   6.072   4.216   5.236  0.0332 -0.7037 -1.1139
 5187TIP3    H215526   5.921   4.206   5.249  0.0195 -1.4643 -1.7611
 5188TIP3   OH215527   5.211   6.782   1.218 -0.2050  0.0518 -0.2393
 5188TIP3    H115528   5.231   6.708   1.276 -0.6697  0.9514  1.1061
 5188TIP3    H215529   5.291   6.793   1.166  0.8986  0.2817  1.4168
 5189TIP3   OH215530   7.108   4.023   3.593 -0.5778  0.5331  0.3644
 5189TIP3    H115531   7.171   3.993   3.527  0.8402  0.4241  1.7091
 5189TIP3    H215532   7.026   3.981   3.568  0.7000 -2.3838  0.6104
 5190TIP3   OH215533   6.592   3.163   5.908  0.1604  0.4471  0.5716
 5190TIP3    H115534   6.599   3.203   5.821 -1.1296 -0.1411  0.1647
 5190TIP3    H215535   6.583   3.070   5.890  1.1535  0.1725  1.4170
 5191TIP3   OH215536   6.183   4.241   1.352 -0.3406 -0.3602 -0.7917
 5191TIP3    H115537   6.254   4.267   1.410 -0.5772 -0.1237 -0.6065
 5191TIP3    H215538   6.147   4.324   1.321 -0.3949 -0.4832 -1.0560
 5192TIP3   OH215539   1.488   3.313   5.187 -0.1196 -0.3482  0.0140
 5192TIP3    H115540   1.557   3.337   5.249 -1.2652  1.4616  0.6727
 5192TIP3    H215541   1.535   3.285   5.109  1.3528 -0.9497  1.0686
 5193TIP3   OH215542   1.524   0.691   3.794 -0.4446  0.3514  0.5837
 5193TIP3    H115543   1.583   0.762   3.820  1.0492 -0.7479  0.3500
 5193TIP3    H215544   1.512   0.704   3.699 -0.3871  0.4317  0.5872
 5194TIP3   OH215545   2.407   1.313   1.805  0.4103  0.1462 -0.5075
 5194TIP3    H115546   2.332   1.302   1.746 -1.1454 -0.5571  1.4947
 5194TIP3    H215547   2.403   1.404   1.832  0.7114  0.2923 -0.9525
 5195TIP3   OH215548   5.604   4.013   1.044 -0.7366 -0.5779 -0.0981
 5195TIP3    H115549   5.674   3.981   1.100 -0.3366 -0.2114 -0.3811
 5195TIP3    H215550   5.551   4.069   1.100 -0.9217 -1.0175  0.1681
 5196TIP3   OH215551   0.243   3.559   5.823  0.3393  0.3665 -0.0342
 5196TIP3    H115552   0.220   3.583   5.913  0.5685  0.6886 -0.0551
 5196TIP3    H215553   0.309   3.490   5.833 -2.2681 -2.2879  0.0144
 5197TIP3   OH215554   2.684   0.746   1.434 -0.0384 -0.4036 -0.2159
 5197TIP3    H115555   2.628   0.782   1.503 -0.6357  1.5640 -1.6343
 5197TIP3    H215556   2.767   0.726   1.478  0.2239  2.4502  0.8008
 5198TIP3   OH215557   4.331   4.204   5.364 -0.7822  0.4685 -0.1670
 5198TIP3    H115558   4.332   4.172   5.454 -1.8043 -0.3944 -0.4374
 5198TIP3    H215559   4.336   4.299   5.372  1.5971  0.3327  0.6948
 5199TIP3   OH215560   3.274   6.019   3.671  0.5579  0.2160 -0.1020
 5199TIP3    H115561   3.269   6.075   3.749  1.5185  0.0378  0.1044
 5199TIP3    H215562   3.311   5.937   3.703  1.2226  0.2382 -0.7909
 5200TIP3   OH215563   4.585   5.380   4.723  0.2017  0.6510 -0.1003
 5200TIP3    H115564   4.576   5.452   4.661 -1.9404 -1.0414 -1.9131
 5200TIP3    H215565   4.511   5.391   4.784  1.2203  1.2573  1.0647
 5201TIP3   OH215566   4.059   2.038   5.702 -0.3239 -0.6574  0.6669
 5201TIP3    H115567   4.029   2.071   5.618 -1.1009 -1.2093  0.7278
 5201TIP3    H215568   4.091   1.950   5.684  1.2263 -0.1229  0.6158
 5202TIP3   OH215569   5.501   4.342   2.784  0.0694  0.0605  0.4779
 5202TIP3    H115570   5.449   4.287   2.726  0.1964 -0.7845  1.1580
 5202TIP3    H215571   5.486   4.431   2.751 -0.3924 -0.3334 -0.4258
 5203TIP3   OH215572   1.100   2.159   1.537  0.2029 -0.0656 -0.4456
 5203TIP3    H115573   1.122   2.133   1.448  1.1308 -0.3427 -0.1469
 5203TIP3    H215574   1.064   2.079   1.577  0.5333 -0.1659 -0.3408
 5204TIP3   OH215575   4.780   5.987   4.208  0.4580 -0.1673  0.2728
 5204TIP3    H115576   4.752   6.010   4.296 -1.2636 -1.8921  0.2479
 5204TIP3    H215577   4.703   6.000   4.153  1.0308 -0.6590 -0.6913
 5205TIP3   OH215578   6.741   4.926   2.288 -0.2174 -0.6109 -0.2828
 5205TIP3    H115579   6.649   4.913   2.311  0.0079  0.2912  1.2657
 5205TIP3    H215580   6.784   4.845   2.315 -0.2154 -0.1721  1.0976
 5206TIP3   OH215581   5.177   1.755   0.892  0.7210 -0.4524  0.5009
 5206TIP3    H115582   5.246   1.689   0.886  0.7846 -0.2618 -2.0064
 5206TIP3    H215583   5.200   1.819   0.825 -0.5524  0.9413  1.3526
 5207TIP3   OH215584   3.431   3.151   4.048  0.1539  0.7194 -0.0990
 5207TIP3    H115585   3.383   3.112   4.121 -1.3535  1.2632 -0.7573
 5207TIP3    H215586   3.522   3.153   4.077 -0.5408  1.9342  2.1954
 5208TIP3   OH215587   0.454   5.016   2.868  0.0283 -0.5464  0.8168
 5208TIP3    H115588   0.419   4.994   2.781  0.7816  1.3961 -0.0280
 5208TIP3    H215589   0.487   5.105   2.858  2.3415 -1.1538  2.4484
 5209TIP3   OH215590   2.093   1.592   1.488 -0.1776 -0.1605 -0.2913
 5209TIP3    H115591   2.133   1.598   1.402 -2.3461  1.2563 -1.2860
 5209TIP3    H215592   2.019   1.652   1.485 -1.1169 -1.0393  2.1347
 5210TIP3   OH215593   5.725   0.500   2.247 -0.2791  0.1014  0.3352
 5210TIP3    H115594   5.714   0.411   2.213  4.0087 -0.6559  0.4583
 5210TIP3    H215595   5.684   0.556   2.180  0.9071 -1.7668 -2.1050
 5211TIP3   OH215596   3.547   6.595   0.630  0.4655  0.3735 -0.6974
 5211TIP3    H115597   3.555   6.520   0.689  0.2455  0.2443 -0.8341
 5211TIP3    H215598   3.587   6.667   0.679  0.7961  0.1404 -0.6189
 5212TIP3   OH215599   0.364   3.382   3.064 -0.0039 -0.3727  0.1385
 5212TIP3    H115600   0.304   3.449   3.097 -0.1415 -0.5335  0.2140
 5212TIP3    H215601   0.408   3.349   3.143  0.8359  0.3726 -0.0029
 5213TIP3   OH215602   5.733   6.621   4.748  0.5598 -0.5331  0.3254
 5213TIP3    H115603   5.805   6.601   4.689  1.1410 -0.1243  0.8727
 5213TIP3    H215604   5.755   6.708   4.783 -1.6329  0.9359 -1.6450
 5214TIP3   OH215605   0.614   3.302   3.608 -0.3691  0.6106  0.1143
 5214TIP3    H115606   0.705   3.299   3.638 -0.3112  1.7837  0.1246
 5214TIP3    H215607   0.597   3.215   3.574  0.4173  0.0547  1.0915
 5215TIP3   OH215608   2.673   0.360   4.373  0.4048 -0.0543 -0.3611
 5215TIP3    H115609   2.606   0.335   4.310 -0.1683  0.9273 -0.1603
 5215TIP3    H215610   2.640   0.440   4.414  1.3781  0.0682  0.2384
 5216TIP3   OH215611   2.325   3.752   1.653 -0.2641  0.2054  0.1610
 5216TIP3    H115612   2.330   3.674   1.598  0.2301 -0.0806  0.6018
 5216TIP3    H215613   2.258   3.807   1.611 -0.7930 -0.5582 -0.0172
 5217TIP3   OH215614   0.259   1.850   2.714 -0.0055 -0.0741 -0.1362
 5217TIP3    H115615   0.220   1.804   2.640 -2.5285  1.4441  0.0910
 5217TIP3    H215616   0.322   1.910   2.675  0.2682 -0.8063 -0.8267
 5218TIP3   OH215617   4.246   6.695   1.534 -0.0014  0.3221 -0.1779
 5218TIP3    H115618   4.305   6.717   1.462 -1.5063 -0.3916 -1.7188
 5218TIP3    H215619   4.190   6.773   1.544  0.0683  0.3392  0.0853
 5219TIP3   OH215620   2.934   5.543   4.756  0.4654 -0.2772  0.1278
 5219TIP3    H115621   2.863   5.586   4.803 -1.5086 -0.9181 -2.0765
 5219TIP3    H215622   2.998   5.612   4.740 -0.7111  0.8616  0.2162
 5220TIP3   OH215623   4.177   3.609   3.481  0.0523 -0.1257 -0.2674
 5220TIP3    H115624   4.251   3.558   3.446  0.7304  1.3724 -1.1279
 5220TIP3    H215625   4.201   3.628   3.571 -0.6843 -2.1389  0.4138
 5221TIP3   OH215626   2.370   2.511   4.303  0.0604  0.2329  0.1150
 5221TIP3    H115627   2.453   2.483   4.264  0.1648 -1.6107  1.5058
 5221TIP3    H215628   2.386   2.601   4.331  0.1622  1.4366 -3.3772
 5222TIP3   OH215629   0.775   0.261   4.225 -0.5193 -0.0552 -0.3350
 5222TIP3    H115630   0.774   0.239   4.318 -0.3035 -1.0357 -0.5603
 5222TIP3    H215631   0.864   0.239   4.196  0.0196  1.9645 -0.3847
 5223TIP3   OH215632   6.881   5.102   1.109 -0.0224  0.5047  0.3775
 5223TIP3    H115633   6.817   5.108   1.180  0.0027 -0.0292  0.4543
 5223TIP3    H215634   6.950   5.046   1.145  2.4969  4.1572  1.8008
 5224TIP3   OH215635   3.274   0.084   5.193 -0.0895 -0.3646 -0.4939
 5224TIP3    H115636   3.312   0.020   5.134 -0.4832 -0.2605 -0.8623
 5224TIP3    H215637   3.196   0.041   5.228  1.2349 -1.2370  1.5546
 5225TIP3   OH215638   1.849   4.939   2.517 -0.2874 -0.1595  0.0022
 5225TIP3    H115639   1.912   4.995   2.562 -0.2566 -0.3645  0.2157
 5225TIP3    H215640   1.807   4.889   2.587 -2.1279  1.3823  0.0849
 5226TIP3   OH215641   4.737   3.676   5.357  0.1006  0.1522  0.5606
 5226TIP3    H115642   4.786   3.743   5.310 -2.4177  1.1465 -0.8449
 5226TIP3    H215643   4.700   3.621   5.289 -0.0825 -1.0415  1.5944
 5227TIP3   OH215644   2.229   4.873   0.222  0.7587  0.0948 -0.5016
 5227TIP3    H115645   2.305   4.880   0.165 -0.8787 -0.9738 -2.9945
 5227TIP3    H215646   2.175   4.950   0.200 -0.6256 -1.1497 -1.6515
 5228TIP3   OH215647   1.012   2.534   0.520  0.1193 -0.3671  0.1629
 5228TIP3    H115648   1.084   2.589   0.550  0.6533 -1.4443  0.9362
 5228TIP3    H215649   1.054   2.467   0.464 -0.4474 -0.2815 -0.3806
 5229TIP3   OH215650   1.903   3.132   5.183 -0.4941  0.2127 -0.2704
 5229TIP3    H115651   1.826   3.174   5.145 -1.2603  0.3229  1.3403
 5229TIP3    H215652   1.978   3.179   5.145 -1.1879 -0.0360 -2.0165
 5230TIP3   OH215653   5.117   5.874   4.207 -0.3501  0.1245  0.1034
 5230TIP3    H115654   5.086   5.901   4.120  1.5230  1.5003 -0.1849
 5230TIP3    H215655   5.152   5.954   4.246 -1.5811 -0.3498  2.3720
 5231TIP3   OH215656   1.284   0.072   2.295 -0.3063 -0.5794  0.6470
 5231TIP3    H115657   1.331   0.149   2.326 -2.1555  0.3190  1.3792
 5231TIP3    H215658   1.248   0.098   2.210  1.0747 -1.5203 -0.2719
 5232TIP3   OH215659   6.343   0.917   0.490 -0.6562  0.4325  0.6812
 5232TIP3    H115660   6.350   0.834   0.442  1.3923  0.9446 -0.0048
 5232TIP3    H215661   6.331   0.983   0.422  0.0849  0.9270  1.0158
 5233TIP3   OH215662   7.049   3.462   5.770  0.2680 -0.6658 -0.1838
 5233TIP3    H115663   7.076   3.552   5.753  0.5680 -1.1157 -2.4845
 5233TIP3    H215664   7.030   3.459   5.863  0.5140  1.6995 -0.0099
 5234TIP3   OH215665   3.448   5.536   4.450  0.1377 -0.2006 -0.0486
 5234TIP3    H115666   3.509   5.484   4.398 -0.3986  0.7162 -1.6617
 5234TIP3    H215667   3.371   5.480   4.459  0.8885 -1.0550  1.3266
 5235TIP3   OH215668   7.212   3.495   1.199  0.2876  0.4747 -0.0708
 5235TIP3    H115669   7.228   3.589   1.185 -0.5237  0.7258  0.5849
 5235TIP3    H215670   7.118   3.489   1.214  0.0962 -0.6552 -1.5577
 5236TIP3   OH215671   6.058   1.962   0.758 -0.3321 -0.9310  0.3145
 5236TIP3    H115672   6.061   1.936   0.667 -1.5436  0.4641 -0.1680
 5236TIP3    H215673   6.129   2.026   0.767 -0.8632 -0.2992  0.0714
 5237TIP3   OH215674   6.566   3.360   1.884  0.2004  0.4504 -0.2118
 5237TIP3    H115675   6.604   3.447   1.869  0.9066  0.1595 -0.1526
 5237TIP3    H215676   6.640   3.307   1.915 -0.0647 -0.3589 -0.9339
 5238TIP3   OH215677   2.482   3.975   2.945 -0.1951 -0.3572  0.9066
 5238TIP3    H115678   2.422   3.907   2.915  1.6804 -2.0611  0.8504
 5238TIP3    H215679   2.567   3.950   2.908  1.3482 -0.1505  4.0247
 5239TIP3   OH215680   2.337   4.499   3.371 -0.5595 -0.1633 -0.5181
 5239TIP3    H115681   2.343   4.574   3.430  1.4478 -0.4592 -0.2691
 5239TIP3    H215682   2.375   4.427   3.420  0.1312 -0.6826 -1.7610
 5240TIP3   OH215683   5.427   6.317   0.014 -0.1300 -0.2664 -0.0094
 5240TIP3    H115684   5.505   6.300   0.067  0.3780  2.0409  0.0807
 5240TIP3    H215685   5.456   6.378  -0.053 -1.3736 -1.1071 -1.3729
 5241TIP3   OH215686   2.809   6.409   3.021  0.0574 -0.0846  0.4987
 5241TIP3    H115687   2.793   6.452   3.105  0.8211  0.3454  0.4349
 5241TIP3    H215688   2.886   6.453   2.986 -0.3078 -0.2006 -0.4742
 5242TIP3   OH215689   0.913   5.735   3.813  0.0983  0.2503  0.1393
 5242TIP3    H115690   0.840   5.780   3.768  0.8463  1.7334  0.3556
 5242TIP3    H215691   0.991   5.779   3.780  0.8204 -0.4768  0.8659
 5243TIP3   OH215692   6.246   5.420   3.082 -0.0753  0.6257  0.0384
 5243TIP3    H115693   6.323   5.474   3.063  0.4433 -0.1856 -0.2071
 5243TIP3    H215694   6.282   5.334   3.102 -0.8361  0.5588  1.2237
 5244TIP3   OH215695   2.170   5.393   4.430 -0.4496 -0.2063  0.2893
 5244TIP3    H115696   2.127   5.410   4.514  0.1120 -0.7308  0.6946
 5244TIP3    H215697   2.264   5.398   4.449 -0.2893 -1.5632 -0.0185
 5245TIP3   OH215698   3.701   5.303   0.532 -0.2482 -0.2229 -0.0155
 5245TIP3    H115699   3.753   5.353   0.469 -1.7885  0.9610 -0.4087
 5245TIP3    H215700   3.696   5.216   0.494 -0.6289  0.3120 -1.2365
 5246TIP3   OH215701   3.252   1.367   2.633 -0.2773 -0.0470  0.0734
 5246TIP3    H115702   3.329   1.349   2.579  0.1891 -1.0951  1.0176
 5246TIP3    H215703   3.200   1.428   2.582 -0.2427 -1.5506 -1.8978
 5247TIP3   OH215704   2.178   6.325   5.215 -0.5858  0.2479 -0.2219
 5247TIP3    H115705   2.132   6.402   5.247 -0.3016 -0.2081  1.3478
 5247TIP3    H215706   2.237   6.359   5.147 -1.1749  1.2408 -0.2625
 5248TIP3   OH215707   3.151   5.068   4.831  0.3262  0.9817 -0.3589
 5248TIP3    H115708   3.176   5.152   4.868 -0.1937  0.5978  0.9149
 5248TIP3    H215709   3.186   5.003   4.892 -1.5713  0.3733  0.1657
 5249TIP3   OH215710   1.585   5.071   2.006  0.0300 -0.3216  0.5421
 5249TIP3    H115711   1.540   5.020   1.937 -4.2094  1.2128  1.8251
 5249TIP3    H215712   1.617   5.005   2.067 -0.8057 -1.5835 -0.3181
 5250TIP3   OH215713   5.457   1.001   5.607 -0.5581 -0.2692 -0.2701
 5250TIP3    H115714   5.532   0.943   5.619 -0.5508  0.0691  1.6734
 5250TIP3    H215715   5.492   1.075   5.556  1.1517  1.0468  2.5595
 5251TIP3   OH215716   6.070   5.050   1.337 -0.0385 -0.5723  0.1563
 5251TIP3    H115717   6.115   5.118   1.388  0.6267 -1.5341  0.8823
 5251TIP3    H215718   6.095   5.068   1.246  1.5903 -0.8822  0.5087
 5252TIP3   OH215719   4.465   4.333   4.109 -0.4289 -0.1704 -0.4414
 5252TIP3    H115720   4.485   4.386   4.186 -1.8796  0.5287 -0.5246
 5252TIP3    H215721   4.467   4.395   4.036 -1.3508 -0.3746 -0.6488
 5253TIP3   OH215722   2.328   3.213   2.702  0.4654 -0.4469  0.3221
 5253TIP3    H115723   2.351   3.301   2.671  0.7465 -0.1656  1.2926
 5253TIP3    H215724   2.326   3.159   2.623 -0.0764  0.5090 -0.3382
 5254TIP3   OH215725   0.271   1.367   3.432  0.0891 -0.1632  0.2082
 5254TIP3    H115726   0.321   1.358   3.350  2.5148  1.6161  1.3694
 5254TIP3    H215727   0.261   1.462   3.444 -3.1548 -0.4210  0.3917
 5255TIP3   OH215728   1.374   2.199   1.543 -0.2221 -0.1603  0.4070
 5255TIP3    H115729   1.280   2.184   1.545 -0.2376 -0.0538  0.4781
 5255TIP3    H215730   1.411   2.116   1.513 -0.4218  0.1721 -0.7948
 5256TIP3   OH215731   0.548   5.123   2.393 -0.1302  0.1561  0.0323
 5256TIP3    H115732   0.592   5.135   2.308  1.2493 -0.0394  0.6886
 5256TIP3    H215733   0.492   5.047   2.380  0.2680 -0.0421 -0.6403
 5257TIP3   OH215734   3.073   6.425   5.553 -0.3657  0.2657 -0.7060
 5257TIP3    H115735   3.101   6.484   5.484  2.9850 -0.8694 -0.4961
 5257TIP3    H215736   3.028   6.481   5.617  0.2875  2.0604 -1.7699
 5258TIP3   OH215737   0.411   4.800   5.071 -0.3616 -0.3253 -0.0290
 5258TIP3    H115738   0.411   4.800   5.167 -1.1910 -0.2089 -0.0251
 5258TIP3    H215739   0.503   4.786   5.047 -0.2174 -0.8127  0.7815
 5259TIP3   OH215740   6.170   5.410   4.388 -0.1520  0.0009  0.0345
 5259TIP3    H115741   6.144   5.461   4.311 -1.5364 -0.2673  0.2908
 5259TIP3    H215742   6.139   5.461   4.462 -0.7279 -0.7467  0.3228
 5260TIP3   OH215743   0.352   5.209   1.685 -0.5696 -0.3021 -0.0378
 5260TIP3    H115744   0.280   5.163   1.641 -0.2064  0.0204 -0.9940
 5260TIP3    H215745   0.368   5.158   1.764 -1.8865 -0.3464  0.2212
 5261TIP3   OH215746   5.606   1.066   2.659  0.2695  0.1639 -0.2163
 5261TIP3    H115747   5.636   1.067   2.749  2.0721 -1.9122 -0.7033
 5261TIP3    H215748   5.584   0.974   2.642 -3.1904  1.0103 -0.9803
 5262TIP3   OH215749   2.980   4.887   5.393  0.7602 -0.0597  0.0945
 5262TIP3    H115750   2.985   4.849   5.481 -0.4444  0.0537  0.2344
 5262TIP3    H215751   2.969   4.981   5.409 -0.6464 -0.1644 -0.1251
 5263TIP3   OH215752   5.267   5.645   3.889 -0.1577 -0.1561 -0.0108
 5263TIP3    H115753   5.321   5.718   3.918 -0.2995 -0.5283  1.2728
 5263TIP3    H215754   5.211   5.682   3.821 -0.3863  0.9994  0.7738
 5264TIP3   OH215755   2.760   6.501   3.692  0.1235 -0.6744 -0.1403
 5264TIP3    H115756   2.669   6.530   3.695  0.9439  2.2500  2.2816
 5264TIP3    H215757   2.758   6.419   3.643 -3.6175 -0.2029 -1.0901
 5265TIP3   OH215758   0.921   1.583   2.394  0.4167  0.8537 -0.2662
 5265TIP3    H115759   0.999   1.614   2.347  1.0055 -1.9226 -1.2901
 5265TIP3    H215760   0.911   1.492   2.367 -2.7283  0.8611  0.5165
 5266TIP3   OH215761   3.281   0.163   4.749  0.6960 -0.4017 -0.7872
 5266TIP3    H115762   3.228   0.161   4.669 -1.3594 -0.9369  0.5212
 5266TIP3    H215763   3.239   0.228   4.805  2.1894  0.0665 -0.1435
 5267TIP3   OH215764   3.696   5.176   5.745  0.1328 -0.0578 -0.4981
 5267TIP3    H115765   3.692   5.158   5.839  3.1873  2.1307  0.1910
 5267TIP3    H215766   3.655   5.262   5.735 -0.3982 -0.3876 -1.2132
 5268TIP3   OH215767   6.557   6.651   5.038 -0.1207  0.1196  0.3583
 5268TIP3    H115768   6.521   6.709   5.106 -0.1707 -1.8314  2.0820
 5268TIP3    H215769   6.635   6.613   5.078  2.9190  2.6090 -2.5163
 5269TIP3   OH215770   1.482   0.301   4.962  0.1764  0.4608  0.1848
 5269TIP3    H115771   1.543   0.373   4.943  0.4990  0.6728  1.8428
 5269TIP3    H215772   1.397   0.344   4.973 -0.1101  0.2816 -1.1266
 5270TIP3   OH215773   3.179   2.078   1.995 -0.2008 -0.4498  0.1091
 5270TIP3    H115774   3.134   1.994   2.008 -1.9326  0.3588 -0.4456
 5270TIP3    H215775   3.252   2.075   2.058  0.5759 -2.8835 -0.7738
 5271TIP3   OH215776   5.632   0.696   5.190 -0.1730 -0.1369 -0.1458
 5271TIP3    H115777   5.645   0.673   5.098  2.0276 -1.0923  0.3431
 5271TIP3    H215778   5.552   0.650   5.216  0.0601 -1.1416 -1.1685
 5272TIP3   OH215779   2.153   0.480   0.460 -0.0691  0.8264 -0.3094
 5272TIP3    H115780   2.156   0.572   0.433 -0.6674  0.5362 -1.4199
 5272TIP3    H215781   2.180   0.431   0.383  3.4308  0.1358  1.1640
 5273TIP3   OH215782   3.484   3.512   5.149 -0.0828  0.0113  0.0677
 5273TIP3    H115783   3.579   3.519   5.140 -0.1688  3.7636  0.2707
 5273TIP3    H215784   3.449   3.539   5.064 -0.9751 -0.6936  0.1953
 5274TIP3   OH215785   1.274   6.292   4.848  0.3966 -0.3930 -0.0128
 5274TIP3    H115786   1.253   6.385   4.842 -0.7602 -0.6868 -1.0548
 5274TIP3    H215787   1.296   6.278   4.940  1.4816  1.0724 -0.0117
 5275TIP3   OH215788   3.982   1.211   2.502 -0.1726 -0.1243  0.3198
 5275TIP3    H115789   3.898   1.186   2.540 -0.6877 -0.0473 -0.7425
 5275TIP3    H215790   4.007   1.290   2.549  0.8675 -1.8369  2.8459
 5276TIP3   OH215791   0.675   5.763   0.770 -0.1470  0.1016 -0.7775
 5276TIP3    H115792   0.629   5.680   0.777  0.1491 -0.0867 -1.0441
 5276TIP3    H215793   0.616   5.827   0.810  0.0928 -0.4158  0.4422
 5277TIP3   OH215794   4.948   4.805   5.659  0.0291 -0.1032  0.4154
 5277TIP3    H115795   5.037   4.841   5.661  0.1042 -0.1594 -1.2212
 5277TIP3    H215796   4.957   4.718   5.621 -0.6309 -0.4420  1.0045
 5278TIP3   OH215797   1.027   1.813   0.116  0.4901 -0.3736  0.5429
 5278TIP3    H115798   0.982   1.794   0.198 -0.4375 -1.5134 -0.1906
 5278TIP3    H215799   0.962   1.859   0.063  0.2760 -1.7155 -0.3999
 5279TIP3   OH215800   5.095   6.455   0.774 -0.0923  0.3772  0.7086
 5279TIP3    H115801   5.120   6.533   0.824 -1.0478  1.7024 -0.7824
 5279TIP3    H215802   5.154   6.455   0.699 -1.5827  1.0002 -0.5008
 5280TIP3   OH215803   0.027   4.247   0.806  0.6412  0.6581 -0.8049
 5280TIP3    H115804   0.058   4.264   0.717  2.2415  2.0828 -0.0349
 5280TIP3    H215805  -0.009   4.330   0.835 -0.6738 -0.0332 -0.3994
 5281TIP3   OH215806   0.393   0.071   2.900 -0.1004  0.0590 -0.3616
 5281TIP3    H115807   0.444   0.130   2.955 -0.1559 -0.1737 -0.0600
 5281TIP3    H215808   0.455   0.005   2.870 -0.2390 -0.2822  0.0876
 5282TIP3   OH215809   0.957   0.529   1.961  0.3887 -0.0132 -0.3624
 5282TIP3    H115810   0.947   0.598   2.027  0.2661 -0.2885 -0.0899
 5282TIP3    H215811   0.893   0.551   1.893 -0.5551 -0.5499  0.3248
 5283TIP3   OH215812   1.029   3.815   2.204  0.2472 -0.4905  0.4931
 5283TIP3    H115813   1.096   3.767   2.155 -0.2062  0.0687 -0.7183
 5283TIP3    H215814   1.041   3.787   2.294  1.4787 -1.1407  0.1577
 5284TIP3   OH215815   1.344   3.387   3.758  0.3125  0.0528 -0.4710
 5284TIP3    H115816   1.355   3.399   3.852  2.3102 -0.3808 -0.5850
 5284TIP3    H215817   1.312   3.298   3.748 -0.3830  0.2666 -0.1984
 5285TIP3   OH215818   6.215   3.882   5.835 -0.4046 -0.4750 -0.0705
 5285TIP3    H115819   6.135   3.929   5.810 -0.5347 -0.2421  0.7756
 5285TIP3    H215820   6.284   3.948   5.831 -0.6945 -0.0094  1.7733
 5286TIP3   OH215821   3.546   1.418   4.209  0.2353 -0.5083 -0.2722
 5286TIP3    H115822   3.504   1.414   4.295 -1.0231  0.5395 -0.7990
 5286TIP3    H215823   3.474   1.436   4.148  1.3494  0.6303 -1.3085
 5287TIP3   OH215824   5.100   5.061   0.544 -0.2180  0.0351 -0.1674
 5287TIP3    H115825   5.031   5.100   0.597 -0.9699 -1.7326  0.2267
 5287TIP3    H215826   5.133   5.133   0.491 -0.7754  1.4215  1.3014
 5288TIP3   OH215827   0.537   1.261   1.027 -0.4513 -0.4218  0.2784
 5288TIP3    H115828   0.623   1.295   1.050 -0.2209  1.5725 -2.8994
 5288TIP3    H215829   0.554   1.196   0.958 -1.4530  0.2698 -0.6620
 5289TIP3   OH215830   0.970   3.118   0.555 -0.5279 -0.3476  0.3752
 5289TIP3    H115831   1.001   3.037   0.515 -1.4900 -1.3208  1.5155
 5289TIP3    H215832   0.889   3.093   0.601 -0.2168  0.9951  1.7341
 5290TIP3   OH215833   5.354   4.071   4.209 -0.1094 -0.1166 -0.1871
 5290TIP3    H115834   5.320   3.982   4.215 -1.0641  0.2802  0.5523
 5290TIP3    H215835   5.422   4.075   4.276  1.2765 -0.8370 -1.5003
 5291TIP3   OH215836   2.675   1.972   5.251  0.5718 -0.1699 -0.2592
 5291TIP3    H115837   2.638   1.974   5.163 -1.8009  0.1711  0.6699
 5291TIP3    H215838   2.642   2.051   5.293  2.7317  0.3486  0.5799
 5292TIP3   OH215839   2.879   2.171   1.232 -0.1596  0.1558 -0.3217
 5292TIP3    H115840   2.913   2.088   1.265 -0.2269 -0.0762 -0.8242
 5292TIP3    H215841   2.799   2.185   1.281 -0.7450 -0.6481 -1.0030
 5293TIP3   OH215842   1.918   6.663   3.841 -0.4785  0.2894  0.5447
 5293TIP3    H115843   1.864   6.684   3.765  1.2317  0.4396 -0.6957
 5293TIP3    H215844   1.995   6.619   3.804 -0.4422 -1.3393  2.3813
 5294TIP3   OH215845   0.850   6.666   3.905 -0.3631  0.1349 -0.1680
 5294TIP3    H115846   0.788   6.704   3.843 -0.1023  1.1745  0.1885
 5294TIP3    H215847   0.933   6.665   3.857 -0.6857 -1.6285 -0.7910
 5295TIP3   OH215848   0.202   0.478   2.185  1.2937  0.0910  0.2111
 5295TIP3    H115849   0.159   0.519   2.259  0.1069 -0.1758 -0.3028
 5295TIP3    H215850   0.151   0.399   2.168  1.3883  0.2617 -1.0158
 5296TIP3   OH215851   6.599   0.299   2.410 -0.8557  0.0564  0.4370
 5296TIP3    H115852   6.522   0.248   2.436 -1.4096  1.0980  0.9194
 5296TIP3    H215853   6.666   0.276   2.473 -0.1713 -2.1747 -0.9898
 5297TIP3   OH215854   0.610   5.156   3.908  0.1880  0.5074  0.1097
 5297TIP3    H115855   0.651   5.071   3.892 -1.1097 -0.2142  0.5017
 5297TIP3    H215856   0.594   5.159   4.002  1.0232  1.5838  0.2443
 5298TIP3   OH215857   3.502   6.438   0.868  0.4531  0.0881  0.1202
 5298TIP3    H115858   3.586   6.460   0.908 -0.6656  2.2385  1.4410
 5298TIP3    H215859   3.482   6.351   0.903 -0.1619  1.5890  3.9721
 5299TIP3   OH215860   3.174   1.202   5.081 -0.0204  0.0213 -0.0857
 5299TIP3    H115861   3.138   1.239   5.162  1.9901 -0.2210  0.9883
 5299TIP3    H215862   3.116   1.129   5.060 -1.4161  0.9806  0.2830
 5300TIP3   OH215863   5.335   1.522   0.525 -0.0994  0.7146  0.1875
 5300TIP3    H115864   5.271   1.452   0.508  0.4421  0.5790 -1.5339
 5300TIP3    H215865   5.363   1.508   0.615 -1.1190 -0.3698  0.3578
 5301TIP3   OH215866   1.900   5.364   3.735 -0.4835 -0.0808  0.4532
 5301TIP3    H115867   1.882   5.329   3.822  1.5988  0.2661  1.0957
 5301TIP3    H215868   1.884   5.291   3.676 -1.6365 -0.4152  1.1557
 5302TIP3   OH215869   3.489   0.166   1.674  0.4340  0.2798  0.7284
 5302TIP3    H115870   3.461   0.212   1.753 -0.3346  1.5777 -0.2403
 5302TIP3    H215871   3.407   0.149   1.627  0.9494  0.3874 -0.2232
 5303TIP3   OH215872   1.591   3.757   5.697  0.3008 -0.6221 -0.3082
 5303TIP3    H115873   1.575   3.683   5.638  1.0885  0.2467 -1.6779
 5303TIP3    H215874   1.632   3.824   5.641  1.0452  0.2660  1.2230
 5304TIP3   OH215875   1.174   1.082   4.727  0.0121  0.5531 -0.2328
 5304TIP3    H115876   1.234   1.150   4.761  0.4161  0.3512 -0.5351
 5304TIP3    H215877   1.172   1.016   4.797 -1.1407  1.3144  0.4882
 5305TIP3   OH215878   4.059   2.753   3.475 -0.2736 -0.0389 -0.8721
 5305TIP3    H115879   3.966   2.766   3.496 -0.4837 -1.8516 -0.5001
 5305TIP3    H215880   4.106   2.804   3.540 -1.0028  0.2565 -0.5654
 5306TIP3   OH215881   2.880   3.125   0.664  0.3519  0.5791  0.3889
 5306TIP3    H115882   2.810   3.070   0.629 -1.3261  2.3531  0.7966
 5306TIP3    H215883   2.927   3.156   0.586 -0.3136  0.6076 -0.0156
 5307TIP3   OH215884   0.812   2.173   0.062 -0.0702  0.2827  0.2608
 5307TIP3    H115885   0.747   2.223   0.011 -1.2277 -1.1081  0.3024
 5307TIP3    H215886   0.892   2.176   0.009 -0.4682  1.1612 -0.3056
 5308TIP3   OH215887   1.258   0.039   5.480 -0.2378  0.2340  0.8648
 5308TIP3    H115888   1.242  -0.037   5.537 -2.4998  0.4509  0.5894
 5308TIP3    H215889   1.319   0.093   5.530  2.8040 -2.4677  0.3804
 5309TIP3   OH215890   1.941   0.804   4.361  0.1255  0.1620 -0.3638
 5309TIP3    H115891   1.930   0.895   4.388  1.9608  0.3757 -0.2137
 5309TIP3    H215892   1.883   0.795   4.285  0.3415  1.6407 -0.7442
 5310TIP3   OH215893   0.488   2.653   4.150 -0.6601  0.1761  0.6642
 5310TIP3    H115894   0.569   2.606   4.172 -0.5235  0.0839 -0.0081
 5310TIP3    H215895   0.420   2.607   4.199 -0.4100 -0.2282  0.6420
 5311TIP3   OH215896   5.287   5.890   1.861 -0.2951  0.2458 -0.2207
 5311TIP3    H115897   5.284   5.983   1.883 -1.9430  0.1755 -0.0763
 5311TIP3    H215898   5.202   5.871   1.822  0.9334 -0.6255 -2.7101
 5312TIP3   OH215899   2.698   4.672   2.767  0.0735 -0.4787 -0.6557
 5312TIP3    H115900   2.640   4.646   2.839 -0.9157  0.0634 -1.2374
 5312TIP3    H215901   2.769   4.719   2.810  1.3057 -3.0234  0.3033
 5313TIP3   OH215902   5.420   6.092   3.910  0.2518  0.1873 -0.4482
 5313TIP3    H115903   5.468   6.010   3.913  0.3272  0.1435 -2.0539
 5313TIP3    H215904   5.330   6.067   3.887 -0.4932  0.3181  1.9917
 5314TIP3   OH215905   3.696   6.069   2.033  0.2139 -0.3002 -0.3188
 5314TIP3    H115906   3.612   6.090   2.074  0.5436  1.3679 -0.4016
 5314TIP3    H215907   3.761   6.096   2.097  0.6944 -0.1207 -0.8728
 5315TIP3   OH215908   1.963   5.358   4.269  0.1984  0.0595  0.4431
 5315TIP3    H115909   2.034   5.374   4.330 -0.3222 -0.3956  1.1816
 5315TIP3    H215910   1.941   5.265   4.281 -0.1522  0.0578 -0.1644
 5316TIP3   OH215911   3.039   2.717   4.967  0.2782  0.4720 -0.0533
 5316TIP3    H115912   3.015   2.632   5.003 -1.6893  0.1839 -1.8647
 5316TIP3    H215913   3.022   2.779   5.038 -1.3346 -0.3065  0.2839
 5317TIP3   OH215914   3.409   0.864   3.446  0.1307  0.0110 -0.4929
 5317TIP3    H115915   3.371   0.899   3.365 -0.1238  0.6274 -0.1155
 5317TIP3    H215916   3.477   0.927   3.470 -0.0053 -0.0048 -0.0610
 5318TIP3   OH215917   2.179   0.676   4.365 -0.7848  0.1013 -0.4658
 5318TIP3    H115918   2.092   0.714   4.363 -0.1654  1.5642 -0.4530
 5318TIP3    H215919   2.192   0.640   4.277 -0.9226  0.9978 -0.8566
 5319TIP3   OH215920   2.651   5.517   4.599 -0.4572  0.1965  0.2486
 5319TIP3    H115921   2.629   5.609   4.583 -0.9001 -0.0633 -0.6789
 5319TIP3    H215922   2.743   5.510   4.572 -0.2470  0.4922  0.8687
 5320TIP3   OH215923   2.598   1.329   3.320 -0.3136 -0.1372  0.3475
 5320TIP3    H115924   2.645   1.321   3.236  0.0627  1.0251  0.4281
 5320TIP3    H215925   2.510   1.297   3.301 -0.1125 -0.2829 -0.3844
 5321TIP3   OH215926   3.504   4.554   4.879 -0.3464  0.3496  0.2195
 5321TIP3    H115927   3.564   4.576   4.808 -1.3328 -1.6651 -1.3566
 5321TIP3    H215928   3.544   4.478   4.922 -1.6329 -1.0130 -0.8456
 5322TIP3   OH215929   3.916   2.100   1.967 -0.5643  0.2931  0.1488
 5322TIP3    H115930   3.962   2.128   1.888  0.6792  2.4231  1.5431
 5322TIP3    H215931   3.892   2.009   1.949  2.1253 -0.1924 -1.6156
 5323TIP3   OH215932   2.752   0.733   2.469  0.1635  0.7958  0.4764
 5323TIP3    H115933   2.714   0.820   2.466  0.6447  1.0023  0.2398
 5323TIP3    H215934   2.845   0.749   2.486  0.6692  0.4330 -1.7309
 5324TIP3   OH215935   2.958   5.626   2.338 -0.1294 -0.1845 -0.3578
 5324TIP3    H115936   2.987   5.706   2.382  0.8978 -0.0436 -1.2546
 5324TIP3    H215937   2.863   5.634   2.333 -0.0776  0.7492  0.0064
 5325TIP3   OH215938   3.839   2.169   2.478 -0.2596  0.1116  0.1354
 5325TIP3    H115939   3.759   2.116   2.469  0.0009 -0.2720  0.0643
 5325TIP3    H215940   3.891   2.147   2.401 -0.0141  0.2394  0.2632
 5326TIP3   OH215941   7.212   3.270   5.670 -0.0832  0.1961 -0.0317
 5326TIP3    H115942   7.214   3.266   5.574 -1.5824  0.8330 -0.1151
 5326TIP3    H215943   7.147   3.338   5.690  1.0741  0.9385  1.4293
 5327TIP3   OH215944   4.530   5.012   2.469 -0.0700  0.4054  0.6365
 5327TIP3    H115945   4.449   4.973   2.504  0.3518 -1.1675 -0.0415
 5327TIP3    H215946   4.594   5.000   2.539 -0.2236  0.9764  0.8827
 5328TIP3   OH215947   5.780   6.692   5.503 -0.3258 -0.2333  0.2504
 5328TIP3    H115948   5.856   6.671   5.556  0.2575 -1.8345 -1.1155
 5328TIP3    H215949   5.709   6.640   5.541 -0.1027 -0.7312  0.0067
 5329TIP3   OH215950   2.990   4.493   2.181  0.7877 -0.1708  0.3424
 5329TIP3    H115951   3.026   4.525   2.263  0.0328 -0.9770  1.0120
 5329TIP3    H215952   2.916   4.552   2.163  1.9337  1.0186 -0.6395
 5330TIP3   OH215953   0.980   6.590   2.994  0.0847  0.0055  0.0173
 5330TIP3    H115954   0.976   6.591   3.090  2.7610 -0.6239  0.2360
 5330TIP3    H215955   1.065   6.550   2.975 -0.5272 -0.1902 -2.6484
 5331TIP3   OH215956   0.023   1.446   5.048  0.4349  0.5559  0.6121
 5331TIP3    H115957   0.104   1.452   4.997 -0.2629 -0.3107 -0.6462
 5331TIP3    H215958  -0.047   1.461   4.984 -0.4682 -0.5392  1.3009
 5332TIP3   OH215959   3.961   0.687   2.358 -0.0042 -0.0486  0.2363
 5332TIP3    H115960   3.952   0.619   2.424  0.1264  0.1319  0.4413
 5332TIP3    H215961   4.048   0.673   2.321  0.6469  0.9169  1.3172
 5333TIP3   OH215962   3.937   1.329   1.236  0.0946 -1.0517  0.5300
 5333TIP3    H115963   3.899   1.241   1.231 -1.6829 -0.4220  1.9305
 5333TIP3    H215964   3.927   1.364   1.147 -2.1121 -1.1652  0.6679
 5334TIP3   OH215965   4.280   1.369   2.386  0.4891  0.1628  0.8453
 5334TIP3    H115966   4.216   1.335   2.447  0.0439 -0.1625  0.2007
 5334TIP3    H215967   4.257   1.462   2.376  0.2677  0.1022  0.7968
 5335TIP3   OH215968   1.689   0.010   5.284 -0.6670  0.4279  0.3261
 5335TIP3    H115969   1.621  -0.026   5.340  0.9130  0.2627  2.2481
 5335TIP3    H215970   1.665   0.102   5.272 -1.0881  0.4314  1.1911
 5336TIP3   OH215971   6.077   5.718   1.874 -0.1524  0.1762 -0.0223
 5336TIP3    H115972   6.015   5.766   1.820 -0.4661 -0.0158  0.1621
 5336TIP3    H215973   6.023   5.678   1.942  0.2666  0.5668  0.5431
 5337TIP3   OH215974   6.390   4.060   3.382 -0.3992 -0.6087  0.2019
 5337TIP3    H115975   6.304   4.053   3.424 -0.6042  0.1335 -0.0752
 5337TIP3    H215976   6.371   4.053   3.289 -0.1712 -0.3038  0.1334
 5338TIP3   OH215977   0.994   0.340   4.758  0.3913 -0.7128 -0.1483
 5338TIP3    H115978   1.008   0.330   4.663  2.0829  0.5079 -0.0866
 5338TIP3    H215979   1.020   0.256   4.795  0.9755 -0.7854 -0.6928
 5339TIP3   OH215980   5.671   6.085   4.902 -0.5987  0.1332 -0.0508
 5339TIP3    H115981   5.626   6.091   4.986  0.2261  1.3552  0.3227
 5339TIP3    H215982   5.759   6.056   4.924  0.0532  1.8207 -0.3217
 5340TIP3   OH215983   4.218   2.357   1.610  0.3728 -0.5663  0.2882
 5340TIP3    H115984   4.300   2.405   1.603  0.7958 -1.3250 -0.1551
 5340TIP3    H215985   4.243   2.265   1.601 -0.5393 -0.8036  0.0187
 5341TIP3   OH215986   0.020   4.676   4.544 -0.9959 -0.5554 -0.1526
 5341TIP3    H115987   0.005   4.753   4.599  0.4915 -1.1224  1.1385
 5341TIP3    H215988   0.072   4.617   4.599 -0.7741 -1.8303 -1.6434
 5342TIP3   OH215989   2.602   3.009   1.153  0.0371 -0.8230  0.3299
 5342TIP3    H115990   2.627   2.996   1.061 -0.6752  0.9865 -0.1762
 5342TIP3    H215991   2.683   3.037   1.196  0.4788 -2.1205  0.3817
 5343TIP3   OH215992   1.415   4.982   0.789 -0.1654  0.2213 -0.1424
 5343TIP3    H115993   1.335   4.936   0.814 -0.5102  0.4944 -0.7047
 5343TIP3    H215994   1.484   4.940   0.839 -0.4115 -1.1660 -0.9220
 5344TIP3   OH215995   0.131   5.630   5.247 -0.5046 -0.5230  0.2928
 5344TIP3    H115996   0.136   5.627   5.152 -1.6963 -1.5784  0.2276
 5344TIP3    H215997   0.160   5.543   5.275  0.9146  0.1365  0.9892
 5345TIP3   OH215998   3.291   6.389   0.599  0.8219  0.4821 -0.5529
 5345TIP3    H115999   3.314   6.447   0.671  0.5528  0.7748 -0.7028
 5345TIP3    H216000   3.236   6.442   0.542  0.0408 -0.1033 -0.3703
 5346TIP3   OH216001   4.625   5.845   1.814  0.0168  0.1095  0.1116
 5346TIP3    H116002   4.689   5.852   1.744 -0.0481  1.0307  0.1276
 5346TIP3    H216003   4.637   5.757   1.849  1.7156  0.4690  0.5290
 5347TIP3   OH216004   3.511   1.426   4.504 -0.1138  0.0294 -0.4602
 5347TIP3    H116005   3.483   1.505   4.552  0.2893  0.7381 -1.3740
 5347TIP3    H216006   3.501   1.355   4.568 -0.4331  0.8230  0.3970
 5348TIP3   OH216007   6.498   6.340   5.063 -0.0496 -0.1639 -0.6725
 5348TIP3    H116008   6.509   6.309   4.972  0.3046  0.7316 -0.9403
 5348TIP3    H216009   6.466   6.430   5.054  0.0859 -0.0354  0.0972
 5349TIP3   OH216010   0.232   6.281   1.324  0.4841  0.2662 -0.0490
 5349TIP3    H116011   0.317   6.291   1.367 -0.3156  0.4852  1.5586
 5349TIP3    H216012   0.168   6.286   1.395 -0.8901  0.1502 -1.2222
 5350TIP3   OH216013   6.538   6.713   2.343  0.0763  0.0227 -0.2216
 5350TIP3    H116014   6.521   6.760   2.262  0.7798  0.8522  0.1000
 5350TIP3    H216015   6.584   6.633   2.316 -1.0714 -0.4807 -0.7624
 5351TIP3   OH216016   4.805   4.635   1.188 -0.2652 -0.2574 -0.3724
 5351TIP3    H116017   4.721   4.612   1.229  0.9670 -0.2597  2.3982
 5351TIP3    H216018   4.860   4.557   1.202  0.5231  0.1299 -1.2109
 5352TIP3   OH216019   5.345   3.125   3.251 -0.9596 -0.0018 -0.3982
 5352TIP3    H116020   5.408   3.136   3.180 -1.0004  0.5125 -0.3598
 5352TIP3    H216021   5.297   3.208   3.253 -1.8487 -0.5088 -0.6347
 5353TIP3   OH216022   1.888   2.370   1.972 -0.2691  0.0405 -0.3264
 5353TIP3    H116023   1.799   2.368   1.936 -0.6671 -0.2477  0.6482
 5353TIP3    H216024   1.878   2.343   2.063  0.7460  0.5730 -0.0408
 5354TIP3   OH216025   2.919   3.534   3.401 -0.2370 -0.5148 -0.4133
 5354TIP3    H116026   2.993   3.514   3.459 -0.3341 -0.7577 -0.3712
 5354TIP3    H216027   2.882   3.615   3.436  0.5217  0.0729 -0.9381
 5355TIP3   OH216028   3.202   1.308   0.099  0.0887  0.0602 -0.3184
 5355TIP3    H116029   3.108   1.313   0.080 -0.1416  0.3396  0.8442
 5355TIP3    H216030   3.244   1.345   0.021 -0.8424  1.7426 -0.0629
 5356TIP3   OH216031   5.933   3.170   1.679 -0.4061 -0.2361  0.2127
 5356TIP3    H116032   5.908   3.165   1.772  0.6701  0.2137  0.5426
 5356TIP3    H216033   6.006   3.231   1.678 -0.9722  0.4551 -1.0693
 5357TIP3   OH216034   6.584   4.370   4.236 -0.4837  0.0825  0.3838
 5357TIP3    H116035   6.577   4.465   4.231  0.2205  0.1338  0.2939
 5357TIP3    H216036   6.502   4.338   4.199 -1.0088  0.6592  1.0209
 5358TIP3   OH216037   3.420   6.769   1.455  0.1358 -0.5591  0.3277
 5358TIP3    H116038   3.478   6.736   1.523  0.7059 -0.7676 -0.2523
 5358TIP3    H216039   3.418   6.699   1.388  1.1081  0.4226 -0.7655
 5359TIP3   OH216040   6.205   4.947   0.753 -0.1894 -0.2637 -0.4193
 5359TIP3    H116041   6.127   4.959   0.698 -0.3568 -0.3950 -0.2108
 5359TIP3    H216042   6.213   5.028   0.802 -0.6340 -0.5352  0.1143
 5360TIP3   OH216043   6.391   5.481   3.403 -0.3265  0.1882 -0.6300
 5360TIP3    H116044   6.335   5.516   3.334  0.0878  1.6823 -0.2418
 5360TIP3    H216045   6.408   5.555   3.460  1.1191 -0.5110 -0.1033
 5361TIP3   OH216046   0.429   4.194   1.775  0.2395 -0.0254  0.4742
 5361TIP3    H116047   0.510   4.154   1.743  1.3431  1.0436  1.7950
 5361TIP3    H216048   0.422   4.276   1.726 -1.0961 -0.9487 -0.9863
 5362TIP3   OH216049   4.329   5.610   2.566 -0.5061 -0.3373 -0.5824
 5362TIP3    H116050   4.340   5.626   2.659  1.0158  0.0179 -0.8042
 5362TIP3    H216051   4.352   5.518   2.554  0.0293 -0.1934 -0.7021
 5363TIP3   OH216052   6.739   3.379   5.160 -0.3233 -0.2643  0.0069
 5363TIP3    H116053   6.828   3.382   5.194 -0.7460 -0.7271  1.2198
 5363TIP3    H216054   6.735   3.297   5.111  0.4157  0.6112 -1.5980
 5364TIP3   OH216055   3.835   1.055   1.320 -0.0593 -0.7601 -0.1706
 5364TIP3    H116056   3.764   1.113   1.292  0.5519  1.0320  1.7086
 5364TIP3    H216057   3.795   0.969   1.324 -2.5749  0.3502  2.0021
 5365TIP3   OH216058   4.145   6.366   0.805  0.4724 -0.5161  0.5894
 5365TIP3    H116059   4.238   6.377   0.787  0.2443  0.4111 -0.1238
 5365TIP3    H216060   4.141   6.327   0.892  1.4851  1.9833  1.8497
 5366TIP3   OH216061   1.709   0.958   0.462 -0.4595 -0.1769  0.2109
 5366TIP3    H116062   1.732   1.050   0.473  2.3916 -0.6368 -0.9692
 5366TIP3    H216063   1.736   0.938   0.372 -0.4026 -2.3119  0.6573
 5367TIP3   OH216064   6.043   0.916   1.824 -0.2907  0.0427 -0.1611
 5367TIP3    H116065   6.102   0.958   1.762  2.0105 -1.7472  0.6453
 5367TIP3    H216066   6.100   0.863   1.879 -2.2659  0.9094  3.0280
 5368TIP3   OH216067   7.041   0.110   3.972  0.0251  0.7902  0.6634
 5368TIP3    H116068   6.963   0.061   3.997  0.7443  0.1962  1.8220
 5368TIP3    H216069   7.052   0.174   4.042  0.5770  0.8782  0.4987
 5369TIP3   OH216070   1.865   3.712   4.639  0.2476 -0.0405  0.4425
 5369TIP3    H116071   1.864   3.783   4.575  2.8467  2.9985  3.4145
 5369TIP3    H216072   1.773   3.702   4.665 -0.6991 -0.5544 -2.7048
 5370TIP3   OH216073   1.447   5.880   5.044 -0.0576  0.0640  0.2235
 5370TIP3    H116074   1.375   5.862   4.982 -0.0462  2.8753 -0.7544
 5370TIP3    H216075   1.420   5.837   5.125 -2.5612  0.4910 -0.3020
 5371TIP3   OH216076   5.294   4.665   3.021  0.7022 -0.3850  0.0671
 5371TIP3    H116077   5.363   4.600   3.032  0.9175 -0.3268 -0.8806
 5371TIP3    H216078   5.229   4.622   2.966  0.7791  0.1458 -0.4414
 5372TIP3   OH216079   0.951   6.479   2.529  0.3058 -0.2550 -0.0523
 5372TIP3    H116080   0.867   6.512   2.561 -0.2117 -0.2752 -1.3366
 5372TIP3    H216081   0.969   6.402   2.584 -0.2980  0.0005  0.5192
 5373TIP3   OH216082   6.537   0.655   4.583  0.1723  0.0793  0.3163
 5373TIP3    H116083   6.591   0.626   4.510 -1.2137  2.1481 -1.6525
 5373TIP3    H216084   6.527   0.750   4.571 -2.6672  0.0328  1.3573
 5374TIP3   OH216085   6.219   6.089   2.152 -0.4095 -0.7865 -0.4372
 5374TIP3    H116086   6.181   6.153   2.213  1.5091  1.8091 -1.7454
 5374TIP3    H216087   6.149   6.025   2.138 -2.5451  1.0896  0.8930
 5375TIP3   OH216088   1.483   6.031   0.120 -0.2688 -0.4042 -0.2464
 5375TIP3    H116089   1.573   6.031   0.150  0.0523 -0.3701 -1.1799
 5375TIP3    H216090   1.489   6.046   0.026 -1.3843  3.6975  0.1298
 5376TIP3   OH216091   3.830   0.475   3.683 -0.2869  0.1693  0.1325
 5376TIP3    H116092   3.784   0.481   3.599  2.7075 -0.3321 -1.7193
 5376TIP3    H216093   3.829   0.565   3.717  0.3241  0.9030 -1.6268
 5377TIP3   OH216094   1.497   4.922   3.020  0.4056 -0.2159  0.2447
 5377TIP3    H116095   1.495   4.980   2.944 -3.0718  0.0209  0.3647
 5377TIP3    H216096   1.511   4.835   2.982 -0.0386  0.0387 -0.5259
 5378TIP3   OH216097   6.645   2.868   0.928 -0.8832 -0.5204  0.4440
 5378TIP3    H116098   6.620   2.795   0.986 -0.5098  0.6211  2.1255
 5378TIP3    H216099   6.607   2.945   0.970 -0.0039  0.4408 -0.4831
 5379TIP3   OH216100   0.477   2.674   3.202 -0.0209 -0.1973 -0.1353
 5379TIP3    H116101   0.542   2.738   3.228 -0.8089 -0.2857  2.3334
 5379TIP3    H216102   0.525   2.591   3.196  0.7469  0.3405 -2.0618
 5380TIP3   OH216103   1.803   5.810   3.679  0.2573  0.2430  0.0808
 5380TIP3    H116104   1.708   5.819   3.669  0.1928 -1.6365 -1.7192
 5380TIP3    H216105   1.815   5.785   3.770 -0.7709  2.2795  0.8357
 5381TIP3   OH216106   1.116   0.201   0.897 -0.2050  0.0373 -0.1646
 5381TIP3    H116107   1.184   0.158   0.845 -0.8524 -0.8850 -0.2563
 5381TIP3    H216108   1.033   0.171   0.859 -0.6773  0.1614  0.7384
 5382TIP3   OH216109   5.726   2.233   3.955  0.4184 -0.1112  0.0724
 5382TIP3    H116110   5.654   2.171   3.966 -0.8769  1.4786  1.0476
 5382TIP3    H216111   5.794   2.201   4.015 -0.0033 -0.8894  0.1526
 5383TIP3   OH216112   5.171   4.871   0.723 -0.5017  0.0848  0.2635
 5383TIP3    H116113   5.226   4.922   0.783  2.1821 -0.4083 -1.6003
 5383TIP3    H216114   5.131   4.936   0.666  0.9132  0.3303 -0.5029
 5384TIP3   OH216115   5.972   3.005   2.598 -0.5176  0.4003  0.3199
 5384TIP3    H116116   5.913   3.079   2.584 -0.1671  0.7160  0.5219
 5384TIP3    H216117   6.057   3.044   2.616  0.0518 -0.0748 -1.2362
 5385TIP3   OH216118   5.165   1.452   4.357  1.1790 -0.1414  0.0143
 5385TIP3    H116119   5.170   1.430   4.264  0.5685 -1.5836  0.2989
 5385TIP3    H216120   5.216   1.383   4.400 -1.5045 -1.6493  1.0141
 5386TIP3   OH216121   5.834   0.016   0.799  0.3216  0.1175  0.0179
 5386TIP3    H116122   5.884  -0.028   0.868  0.2717  0.0938  0.0395
 5386TIP3    H216123   5.837   0.109   0.822 -0.2376  0.0469  0.4118
 5387TIP3   OH216124   1.012   5.100   5.178 -0.2442  0.3510 -0.0698
 5387TIP3    H116125   0.987   5.178   5.228  1.4024  1.4293 -0.8171
 5387TIP3    H216126   0.986   5.121   5.088 -0.6027 -0.3586 -0.1342
 5388TIP3   OH216127   0.834   5.441   4.967 -0.3890 -0.1001 -0.1667
 5388TIP3    H116128   0.905   5.481   5.018 -1.0910  1.5128 -0.3974
 5388TIP3    H216129   0.775   5.404   5.033  0.6894 -1.5736  0.0247
 5389TIP3   OH216130   2.702   2.878   4.078 -0.2085 -0.0241 -0.2738
 5389TIP3    H116131   2.686   2.917   4.164  0.3858 -0.4478  0.0361
 5389TIP3    H216132   2.744   2.948   4.027 -1.3235  0.5000 -0.5037
 5390TIP3   OH216133   5.680   6.722   1.070  0.1871 -0.0217 -0.0146
 5390TIP3    H116134   5.751   6.661   1.088 -0.0380 -0.5265 -0.8090
 5390TIP3    H216135   5.601   6.675   1.097  0.2058  0.9608  1.9456
 5391TIP3   OH216136   5.462   2.600   0.231  0.6473  0.2492 -0.1725
 5391TIP3    H116137   5.483   2.566   0.144 -0.5901  1.4778 -0.9935
 5391TIP3    H216138   5.539   2.651   0.256  0.8225  0.2999 -0.7826
 5392TIP3   OH216139   7.196   4.671   3.589 -0.1293  0.0642 -0.6450
 5392TIP3    H116140   7.236   4.740   3.641 -0.3627 -0.1706 -0.1450
 5392TIP3    H216141   7.112   4.707   3.561 -0.0083  0.1862 -0.8571
 5393TIP3   OH216142   4.319   1.143   1.651 -0.2211  0.5975  0.5712
 5393TIP3    H116143   4.336   1.157   1.558  1.8976  0.0234  0.8126
 5393TIP3    H216144   4.372   1.209   1.695 -1.7185  1.2931  1.3840
 5394TIP3   OH216145   5.752   0.607   3.718 -0.0383  0.2440 -0.3812
 5394TIP3    H116146   5.715   0.601   3.806 -1.2062  0.4184 -0.8527
 5394TIP3    H216147   5.744   0.518   3.683  1.8447 -0.2184  0.2122
 5395TIP3   OH216148   1.112   1.862   0.569 -0.5513 -0.2759  0.1325
 5395TIP3    H116149   1.119   1.952   0.601  1.2446 -1.2010  2.6352
 5395TIP3    H216150   1.038   1.825   0.617 -0.8442 -0.3630 -0.3736
 5396TIP3   OH216151   2.191   3.839   2.647 -0.0962  0.4032 -0.6020
 5396TIP3    H116152   2.173   3.750   2.676 -1.9278  0.7650 -0.4977
 5396TIP3    H216153   2.140   3.895   2.706  1.6891  1.6114 -0.1082
 5397TIP3   OH216154   1.159   6.165   5.798  0.0224 -0.6401 -0.6750
 5397TIP3    H116155   1.222   6.093   5.797  0.6668 -0.1824  1.5512
 5397TIP3    H216156   1.074   6.122   5.800  0.3402 -1.3113 -1.1192
 5398TIP3   OH216157   1.558   6.687   2.493 -0.0123 -0.3568  0.0986
 5398TIP3    H116158   1.635   6.646   2.454 -0.2704 -0.7054 -0.0507
 5398TIP3    H216159   1.542   6.637   2.573  0.3201  0.1478  0.4854
 5399TIP3   OH216160   2.496   0.730   1.651 -0.1083  0.3412 -0.0537
 5399TIP3    H116161   2.408   0.710   1.619 -0.1968  2.0310 -0.9645
 5399TIP3    H216162   2.542   0.646   1.649 -1.4055 -0.3768 -0.5213
 5400TIP3   OH216163   0.040   0.975   3.747 -0.6126 -0.1805  0.0679
 5400TIP3    H116164   0.116   1.018   3.785  0.6029 -1.8928 -0.3055
 5400TIP3    H216165   0.054   0.882   3.765 -2.5508 -0.5488 -0.1448
 5401TIP3   OH216166   4.853   3.385   4.695 -0.2222 -0.0313  0.1936
 5401TIP3    H116167   4.808   3.428   4.769 -1.4614 -1.0475  0.0695
 5401TIP3    H216168   4.812   3.424   4.617 -2.2117 -2.1541  0.0677
 5402TIP3   OH216169   3.091   2.175   3.694  0.3812 -0.1929  0.0794
 5402TIP3    H116170   3.163   2.153   3.753  0.0921  0.7284  0.7984
 5402TIP3    H216171   3.103   2.268   3.675 -0.4501 -0.0981 -0.0241
 5403TIP3   OH216172   2.351   3.666   2.974  0.5414  0.0704  0.0993
 5403TIP3    H116173   2.308   3.593   2.929  1.6306 -0.2286 -0.4914
 5403TIP3    H216174   2.444   3.643   2.975  0.5273 -0.2885  3.1913
 5404TIP3   OH216175   5.985   5.505   1.633  0.3043  0.1564 -0.3223
 5404TIP3    H116176   5.899   5.480   1.667  0.4145  0.1045 -0.0807
 5404TIP3    H216177   5.978   5.599   1.618 -0.3082 -0.0944 -1.8045
 5405TIP3   OH216178   3.050   6.042   1.630 -0.2873  1.0786  0.0479
 5405TIP3    H116179   3.047   5.971   1.694 -0.8392  0.6287 -0.4623
 5405TIP3    H216180   3.141   6.073   1.633 -0.1744  0.7050  0.6589
 5406TIP3   OH216181   3.422   2.279   5.114  0.0950  0.4308 -0.6163
 5406TIP3    H116182   3.366   2.312   5.044  0.2150  0.9969 -0.4569
 5406TIP3    H216183   3.364   2.273   5.190 -0.0844 -0.3833 -0.8076
 5407TIP3   OH216184   2.174   3.017   4.430 -0.1003  0.2363 -0.2305
 5407TIP3    H116185   2.139   3.053   4.512 -0.5410 -0.0492 -0.2888
 5407TIP3    H216186   2.251   2.967   4.457  0.7150  1.4765 -0.1872
 5408TIP3   OH216187   1.343   5.559   0.176  0.8127 -0.0526  0.0880
 5408TIP3    H116188   1.292   5.640   0.171  0.2023 -0.4877 -0.8868
 5408TIP3    H216189   1.280   5.489   0.161  1.6711 -0.6047 -1.1712
 5409TIP3   OH216190   2.297   4.141   5.252 -0.3988  0.1639 -0.1520
 5409TIP3    H116191   2.269   4.142   5.161 -1.4962 -0.7530  0.1500
 5409TIP3    H216192   2.223   4.102   5.300 -0.3876  1.8001  1.3086
 5410TIP3   OH216193   3.058   5.671   3.805 -0.7506 -0.2566  0.0847
 5410TIP3    H116194   3.053   5.579   3.831 -3.8208 -0.5128 -1.0011
 5410TIP3    H216195   3.069   5.668   3.710 -0.8128  0.5039  0.0528
 5411TIP3   OH216196   6.074   0.126   4.506  0.3624  0.2873  0.1014
 5411TIP3    H116197   5.986   0.096   4.530 -0.0007 -0.4582 -1.9726
 5411TIP3    H216198   6.131   0.051   4.522  0.1859 -0.0748 -0.8999
 5412TIP3   OH216199   6.492   2.943   1.457  0.4391  0.5262  0.0303
 5412TIP3    H116200   6.513   3.034   1.479  0.0147  0.2257  1.8763
 5412TIP3    H216201   6.558   2.918   1.394 -0.3671  2.5873 -1.7676
 5413TIP3   OH216202   0.126   6.072   2.115 -0.2208 -0.0664 -0.4231
 5413TIP3    H116203   0.159   6.155   2.150  0.2683  0.1292 -1.3037
 5413TIP3    H216204   0.145   6.008   2.183 -1.4710  0.6771  0.6933
 5414TIP3   OH216205   4.351   0.253   1.621  0.2924 -0.3385 -0.0581
 5414TIP3    H116206   4.444   0.250   1.600  0.2077 -0.3815 -0.4296
 5414TIP3    H216207   4.346   0.221   1.712  0.6649 -0.0853  0.0562
 5415TIP3   OH216208   4.231   2.039   3.401  0.5426 -0.3984 -0.0770
 5415TIP3    H116209   4.143   2.006   3.382  0.8569 -1.4580  0.2798
 5415TIP3    H216210   4.227   2.066   3.493  0.1769  0.9740 -0.4675
 5416TIP3   OH216211   1.177   5.822   3.062  0.1249 -0.5247  0.0841
 5416TIP3    H116212   1.209   5.912   3.058  2.2305 -1.2056  0.7074
 5416TIP3    H216213   1.083   5.832   3.078  0.2260  1.5576 -0.2872
 5417TIP3   OH216214   3.494   6.336   1.212 -0.0921  0.1643 -0.2387
 5417TIP3    H116215   3.477   6.282   1.135  0.8545  0.7873 -0.9106
 5417TIP3    H216216   3.410   6.340   1.258 -0.4287 -1.0123 -0.7171
 5418TIP3   OH216217   0.321   0.127   0.251  0.1635 -0.0132  0.7724
 5418TIP3    H116218   0.227   0.115   0.235  0.2190 -1.4494  1.3737
 5418TIP3    H216219   0.363   0.070   0.187  0.5442 -1.0623  1.9291
 5419TIP3   OH216220   1.217   2.083   0.693 -1.1298 -0.4518 -0.0653
 5419TIP3    H116221   1.205   2.126   0.608  1.5136  1.3812  0.3539
 5419TIP3    H216222   1.283   2.137   0.738  1.0759 -3.9224  1.2889
 5420TIP3   OH216223   3.118   2.437   3.621 -0.2753 -0.0433 -0.3887
 5420TIP3    H116224   3.040   2.432   3.566  0.1759 -0.1862 -1.0353
 5420TIP3    H216225   3.181   2.486   3.568 -0.5320  1.7493  0.8724
 5421TIP3   OH216226   2.309   2.023   3.531 -0.2463 -0.3815  0.5323
 5421TIP3    H116227   2.323   2.076   3.453 -0.7411 -0.0401  0.6744
 5421TIP3    H216228   2.337   1.935   3.505 -0.4811 -0.2855 -0.0509
 5422TIP3   OH216229   0.259   2.520   5.129 -0.5750  0.3879 -0.5256
 5422TIP3    H116230   0.294   2.516   5.218 -1.7405 -1.5674 -0.0938
 5422TIP3    H216231   0.210   2.438   5.119 -2.4738  1.6343 -2.1359
 5423TIP3   OH216232   6.272   5.464  -0.007 -0.2106  0.1399  0.2121
 5423TIP3    H116233   6.348   5.463  -0.065  0.4912 -0.9623  1.0960
 5423TIP3    H216234   6.309   5.456   0.081 -1.2865  1.1128  0.7832
 5424TIP3   OH216235   3.241   4.988   5.109 -0.2346 -0.0273  0.7789
 5424TIP3    H116236   3.235   4.908   5.057 -0.6814 -0.3674  1.3321
 5424TIP3    H216237   3.334   5.002   5.121 -0.1526 -0.4945  0.7170
 5425TIP3   OH216238   0.277   2.483   3.858  0.2806 -0.6304  0.3290
 5425TIP3    H116239   0.190   2.491   3.896 -1.2444 -2.0797 -2.5693
 5425TIP3    H216240   0.317   2.409   3.904 -0.2907 -0.4432  1.1407
 5426TIP3   OH216241   2.426   1.579   4.940  0.4868 -0.1062  0.3897
 5426TIP3    H116242   2.394   1.495   4.974 -0.2154 -0.0565 -0.1351
 5426TIP3    H216243   2.511   1.590   4.983  1.1726 -1.6707 -0.4699
 5427TIP3   OH216244   5.865   0.404   5.783  0.0984  0.2054  0.2029
 5427TIP3    H116245   5.792   0.358   5.824 -0.3286  0.7175  0.0322
 5427TIP3    H216246   5.873   0.364   5.696 -0.7608  0.9353 -0.2341
 5428TIP3   OH216247   2.614   4.179   4.183  0.8551  0.8299  0.1003
 5428TIP3    H116248   2.523   4.169   4.155  1.0979 -1.0822 -0.1306
 5428TIP3    H216249   2.658   4.215   4.106  0.4895  0.8101 -0.1224
 5429TIP3   OH216250   2.426   6.019   2.483  0.5213 -0.2275  0.2392
 5429TIP3    H116251   2.511   6.038   2.523  0.7863  0.3225 -0.5693
 5429TIP3    H216252   2.385   5.957   2.544  1.7042 -0.9088  0.3848
 5430TIP3   OH216253   6.498   5.998   0.763  0.1679  0.4672 -0.5439
 5430TIP3    H116254   6.580   6.006   0.813 -0.6264  0.6051  0.7796
 5430TIP3    H216255   6.481   5.904   0.759 -1.3207  0.5409  2.1410
 5431TIP3   OH216256   0.975   2.495   2.926  0.7916  0.1787  0.5791
 5431TIP3    H116257   1.067   2.470   2.929  0.3718 -1.7876 -0.6993
 5431TIP3    H216258   0.950   2.484   2.834 -0.6868  0.7968  0.8713
 5432TIP3   OH216259   7.171   1.300   5.496  0.0024  0.1557 -0.0230
 5432TIP3    H116260   7.239   1.232   5.495  1.8773  1.9184  0.3458
 5432TIP3    H216261   7.142   1.307   5.406 -0.0082 -0.9318 -0.1142
 5433TIP3   OH216262   1.308   2.876   4.050 -0.2946 -0.0834 -0.0906
 5433TIP3    H116263   1.247   2.803   4.038 -0.5801  0.5394 -3.2252
 5433TIP3    H216264   1.393   2.841   4.024 -0.2694  0.4245 -0.7137
 5434TIP3   OH216265   2.890   5.614   3.472 -0.6845 -0.2586 -0.2180
 5434TIP3    H116266   2.818   5.676   3.485 -0.9814  0.0890 -2.8914
 5434TIP3    H216267   2.848   5.535   3.439 -0.0117 -0.7896  0.1839
 5435TIP3   OH216268   6.295   4.072   3.810 -1.1053  0.4089  0.2201
 5435TIP3    H116269   6.298   4.026   3.726 -1.6940 -1.1761  1.0165
 5435TIP3    H216270   6.275   4.163   3.787 -0.2651  0.2207 -1.4018
 5436TIP3   OH216271   5.239   3.318   4.424 -0.0043  0.4294  0.1470
 5436TIP3    H116272   5.216   3.306   4.332  0.8607  1.1822 -0.1792
 5436TIP3    H216273   5.309   3.382   4.424  1.1835 -0.7937  1.2029
 5437TIP3   OH216274   6.942   6.733   5.838  0.4473  0.1937  0.1862
 5437TIP3    H116275   6.927   6.815   5.886  1.7171 -0.2098  1.3382
 5437TIP3    H216276   7.000   6.758   5.766  1.3766  0.2128  0.9265
 5438TIP3   OH216277   3.425   3.281   3.200 -0.3628  0.0564  0.2273
 5438TIP3    H116278   3.414   3.373   3.224 -0.3999 -0.0094  0.4699
 5438TIP3    H216279   3.349   3.261   3.145 -0.7758 -0.0367  0.8155
 5439TIP3   OH216280   2.613   4.036   4.466  0.3741  0.0666 -0.5373
 5439TIP3    H116281   2.633   3.953   4.510 -2.3715 -1.2852 -1.6133
 5439TIP3    H216282   2.698   4.065   4.431  1.7755 -1.1807  1.5791
 5440TIP3   OH216283   6.417   1.743   0.207 -0.3266 -0.3869 -0.1869
 5440TIP3    H116284   6.395   1.836   0.200  1.8479  0.2321  0.4717
 5440TIP3    H216285   6.336   1.698   0.184 -1.6153  1.6642  0.0263
 5441TIP3   OH216286   1.201   4.587   1.909  0.3723  0.2220  0.0877
 5441TIP3    H116287   1.257   4.626   1.976 -0.8775  0.3549  1.0997
 5441TIP3    H216288   1.117   4.631   1.920 -0.2275 -0.6747 -0.7259
 5442TIP3   OH216289   7.218   5.696   1.370  0.3485  0.0348 -0.0952
 5442TIP3    H116290   7.148   5.710   1.434  0.3271 -0.9702  0.1172
 5442TIP3    H216291   7.199   5.610   1.332  0.0097  0.8725 -1.9270
 5443TIP3   OH216292   1.353   5.652   2.944 -0.2339  0.0930  0.0801
 5443TIP3    H116293   1.382   5.700   2.867  1.6702 -0.7203  0.2435
 5443TIP3    H216294   1.286   5.708   2.983  0.3939  1.5919 -0.9031
 5444TIP3   OH216295   6.607   2.969   3.754 -0.0486 -0.0974 -0.2351
 5444TIP3    H116296   6.645   3.041   3.705 -1.0109  0.2058 -0.5577
 5444TIP3    H216297   6.630   2.987   3.845  0.8379 -0.0927 -0.4566
 5445TIP3   OH216298   0.023   2.894   0.824  0.1919  0.0094  0.2716
 5445TIP3    H116299  -0.008   2.984   0.820 -1.2578 -0.5265 -1.7770
 5445TIP3    H216300   0.032   2.876   0.918 -1.6322  1.5835  0.7928
 5446TIP3   OH216301   5.733   6.297   4.334  0.1669  0.4601 -0.7918
 5446TIP3    H116302   5.763   6.343   4.413 -0.8613  0.2182 -0.2333
 5446TIP3    H216303   5.697   6.366   4.279  0.5287  0.5813 -0.8793
 5447TIP3   OH216304   4.107   5.962   1.324 -0.0344 -0.2590  0.0553
 5447TIP3    H116305   4.201   5.969   1.344 -0.0081 -0.8815  0.1551
 5447TIP3    H216306   4.068   6.037   1.369  0.3516 -0.2727  0.4253
 5448TIP3   OH216307   4.483   2.578   1.998  0.0190 -0.7370 -0.5878
 5448TIP3    H116308   4.464   2.638   1.926  1.6953  0.0580 -0.4164
 5448TIP3    H216309   4.444   2.495   1.972 -1.0689  0.0277 -1.5109
 5449TIP3   OH216310   5.204   3.919   3.214  0.0132  0.3653 -0.1520
 5449TIP3    H116311   5.167   3.832   3.197  0.2733  0.0174  0.9570
 5449TIP3    H216312   5.257   3.938   3.137 -0.4425 -0.2361 -0.6317
 5450TIP3   OH216313   5.533   3.732   0.339 -0.0899 -0.7015 -0.7223
 5450TIP3    H116314   5.579   3.662   0.385 -0.9653  0.1530  1.5753
 5450TIP3    H216315   5.598   3.766   0.277  2.5431  0.4973  2.4214
 5451TIP3   OH216316   3.661   1.558   4.832 -0.2777 -0.1554  0.2647
 5451TIP3    H116317   3.569   1.567   4.807 -0.3868  1.4332  1.1147
 5451TIP3    H216318   3.705   1.631   4.788 -0.2884  2.0586  3.5713
 5452TIP3   OH216319   6.011   0.848   2.190 -0.5767  0.4854  0.5324
 5452TIP3    H116320   5.936   0.855   2.249 -0.1616  0.8771  1.0215
 5452TIP3    H216321   5.972   0.843   2.103 -1.1831  0.2805  0.8098
 5453TIP3   OH216322   1.484   3.023   2.296 -0.4014  0.2320  0.5131
 5453TIP3    H116323   1.450   3.015   2.386 -0.0389  1.5721  0.7955
 5453TIP3    H216324   1.515   2.935   2.274 -1.3869 -0.3490  1.3303
 5454TIP3   OH216325   7.002   1.261   1.135  0.2477 -0.2107  0.0543
 5454TIP3    H116326   6.965   1.337   1.180 -1.4475 -2.0887  2.0133
 5454TIP3    H216327   7.007   1.288   1.043 -0.9841  1.9916  0.5742
 5455TIP3   OH216328   2.777   2.506   2.589 -0.2820  0.3919  0.1536
 5455TIP3    H116329   2.709   2.573   2.586 -1.3572 -0.6723 -0.3137
 5455TIP3    H216330   2.785   2.484   2.682 -1.4826 -0.3149  0.1227
 5456TIP3   OH216331   4.473   0.029   4.900 -0.4154 -0.2738  0.2322
 5456TIP3    H116332   4.476  -0.064   4.878  1.8444  0.1411 -1.5917
 5456TIP3    H216333   4.387   0.042   4.938 -1.3806 -2.8069 -0.8941
 5457TIP3   OH216334   1.521   3.288   1.151 -0.0286  0.0658  1.1065
 5457TIP3    H116335   1.559   3.360   1.101 -0.1348 -0.2003  0.6333
 5457TIP3    H216336   1.427   3.301   1.144 -0.0829 -0.7556  0.0412
 5458TIP3   OH216337   4.614   5.781   1.348 -0.2397 -0.2197  0.3425
 5458TIP3    H116338   4.660   5.709   1.304 -1.6019 -0.9833  0.1051
 5458TIP3    H216339   4.625   5.763   1.442 -0.0718 -0.4003  0.2883
 5459TIP3   OH216340   4.407   3.124   5.811 -0.3355 -0.0128 -0.2779
 5459TIP3    H116341   4.485   3.082   5.848  0.6420  3.2019  1.6567
 5459TIP3    H216342   4.334   3.069   5.842  0.9040 -1.0219  0.9940
 5460TIP3   OH216343   6.990   3.227   2.446  0.0944 -0.0391 -0.4824
 5460TIP3    H116344   7.075   3.215   2.403  0.3750  0.4451 -0.0724
 5460TIP3    H216345   7.007   3.288   2.517 -0.4471 -0.5487  0.0965
 5461TIP3   OH216346   6.276   5.747   4.006  0.1139  0.2174 -0.3183
 5461TIP3    H116347   6.361   5.786   4.024  1.0919 -0.0926 -3.6241
 5461TIP3    H216348   6.232   5.810   3.949 -0.5171 -1.0744 -1.3042
 5462TIP3   OH216349   3.195   4.542   3.234 -0.0212 -0.0086  0.9897
 5462TIP3    H116350   3.179   4.550   3.328 -0.3537 -2.3103  1.1830
 5462TIP3    H216351   3.118   4.495   3.200  1.4430 -1.8904  0.1174
 5463TIP3   OH216352   3.060   0.654   2.688 -0.1019  0.3696  0.5141
 5463TIP3    H116353   3.043   0.594   2.615  0.6879 -0.1028  0.7058
 5463TIP3    H216354   3.078   0.596   2.763 -0.9016  0.8500  1.0858
 5464TIP3   OH216355   4.690   5.986   0.387  0.1000  0.1585 -0.0605
 5464TIP3    H116356   4.776   5.986   0.429 -0.6374 -1.1972  1.5501
 5464TIP3    H216357   4.710   5.992   0.293  2.0953 -1.9627  0.1102
 5465TIP3   OH216358   3.445   2.721   3.916 -0.0246  0.5071 -0.2845
 5465TIP3    H116359   3.471   2.715   3.824 -3.3430 -0.7844 -1.3036
 5465TIP3    H216360   3.351   2.737   3.913 -0.3812 -0.3505  2.8831
 5466TIP3   OH216361   5.084   2.037   4.978 -0.2522  0.2578  0.0204
 5466TIP3    H116362   5.154   1.987   5.020 -0.0209  1.8184  1.6133
 5466TIP3    H216363   5.088   2.123   5.019 -2.8785  0.5232 -0.1113
 5467TIP3   OH216364   6.801   1.303   3.956  0.0148  0.4527 -0.4009
 5467TIP3    H116365   6.827   1.249   4.031  0.4755  0.5128 -0.5113
 5467TIP3    H216366   6.884   1.336   3.921 -0.1852  0.3292 -1.0084
 5468TIP3   OH216367   1.615   6.282   3.969  0.0649 -0.4396  0.1040
 5468TIP3    H116368   1.596   6.245   3.882 -1.0994  2.5954 -1.0553
 5468TIP3    H216369   1.695   6.333   3.957  0.3321 -0.6154  1.0429
 5469TIP3   OH216370   7.065   2.833   5.528 -1.0121  0.7807 -0.1115
 5469TIP3    H116371   7.074   2.798   5.440 -0.7500 -0.4330  0.3742
 5469TIP3    H216372   6.972   2.853   5.537 -1.5523 -1.5561  0.1928
 5470TIP3   OH216373   3.890   4.999   2.648 -0.0552  0.0916  0.0321
 5470TIP3    H116374   3.974   4.990   2.601 -0.1535  2.5709 -0.7615
 5470TIP3    H216375   3.915   5.004   2.740  0.2745 -3.1589  0.2495
 5471TIP3   OH216376   0.156   2.328   3.518  0.0913 -0.0141  0.2994
 5471TIP3    H116377   0.195   2.338   3.430  0.8473  1.2664  0.7452
 5471TIP3    H216378   0.208   2.387   3.573 -1.1459  0.0996  1.3722
 5472TIP3   OH216379   2.695   0.626   4.747  0.3846  0.6617  0.3726
 5472TIP3    H116380   2.659   0.537   4.749 -0.5308  0.7709 -3.1518
 5472TIP3    H216381   2.618   0.683   4.750  0.7226  1.1762 -0.3016
 5473TIP3   OH216382   3.679   3.391   3.822 -0.0305  0.0587 -0.0713
 5473TIP3    H116383   3.755   3.446   3.808 -0.6200  0.5732 -1.4827
 5473TIP3    H216384   3.712   3.301   3.814  0.3575  0.2833 -1.1747
 5474TIP3   OH216385   4.226   4.773   5.400  0.3376  0.3766 -0.3156
 5474TIP3    H116386   4.279   4.836   5.449 -1.2153  1.2090  0.3717
 5474TIP3    H216387   4.201   4.707   5.465 -0.7635  0.8545 -0.2304
 5475TIP3   OH216388   5.381   5.749   5.420  0.2753 -0.5328  0.0814
 5475TIP3    H116389   5.430   5.772   5.499  1.0748  1.5001 -0.9307
 5475TIP3    H216390   5.412   5.661   5.398  0.1374 -1.0832  1.9267
 5476TIP3   OH216391   6.717   5.494   5.354 -0.6711 -0.1097 -0.3035
 5476TIP3    H116392   6.703   5.406   5.319 -0.0792 -0.3776  0.1309
 5476TIP3    H216393   6.809   5.513   5.335 -0.1950 -0.4415  1.4993
 5477TIP3   OH216394   5.474   5.266   4.484  0.1932 -0.1871 -0.2909
 5477TIP3    H116395   5.414   5.337   4.462  0.1099  0.2204  1.1158
 5477TIP3    H216396   5.543   5.270   4.418 -0.9799 -0.2630 -1.5693
 5478TIP3   OH216397   3.501   4.078   1.568  0.2896 -0.0160  0.0760
 5478TIP3    H116398   3.553   3.998   1.571 -0.0881 -0.3918 -2.0116
 5478TIP3    H216399   3.420   4.052   1.526 -0.8024  1.0021  1.4681
 5479TIP3   OH216400   5.803   2.482   3.340  0.0593 -0.3017 -0.3493
 5479TIP3    H116401   5.741   2.441   3.400 -1.0555  1.1459 -0.4556
 5479TIP3    H216402   5.750   2.544   3.290  1.2177 -0.5137 -1.9075
 5480TIP3   OH216403   5.336   4.655   4.327  0.0896 -0.6628 -0.1547
 5480TIP3    H116404   5.347   4.646   4.422  0.9432  2.0609  0.0932
 5480TIP3    H216405   5.426   4.663   4.293 -0.2678  1.2465 -0.7747
 5481TIP3   OH216406   6.179   5.107   2.209 -0.1683 -0.3289 -0.1968
 5481TIP3    H116407   6.161   5.110   2.115  0.1212  0.8235 -0.2349
 5481TIP3    H216408   6.153   5.193   2.241  0.8314 -0.2934  0.5749
 5482TIP3   OH216409   3.885   3.817   1.109 -0.3644 -0.0503  0.5480
 5482TIP3    H116410   3.962   3.763   1.094  0.6756  0.9145  2.2312
 5482TIP3    H216411   3.818   3.756   1.139 -0.3778 -0.9210 -1.0965
 5483TIP3   OH216412   0.058   0.043   0.170 -0.2820  0.4126 -0.2260
 5483TIP3    H116413   0.017   0.029   0.084  0.7049  0.0930 -0.6514
 5483TIP3    H216414   0.090  -0.043   0.195  1.9431  1.0049 -0.8510
 5484TIP3   OH216415   5.525   2.306   5.390  0.3098 -0.1651 -0.9845
 5484TIP3    H116416   5.446   2.352   5.417  1.0801  0.5214  0.2193
 5484TIP3    H216417   5.549   2.252   5.465  0.9999 -0.3240 -1.3094
 5485TIP3   OH216418   5.255   4.286   2.946  0.3701 -0.0882 -0.1575
 5485TIP3    H116419   5.198   4.220   2.908 -0.6435  1.8129 -2.1612
 5485TIP3    H216420   5.338   4.276   2.899  0.0477  0.3904 -0.8362
 5486TIP3   OH216421   0.813   3.946   1.405 -0.4510  0.0712 -0.1544
 5486TIP3    H116422   0.783   3.862   1.440  3.7938 -1.7690 -0.3071
 5486TIP3    H216423   0.778   3.949   1.316 -0.3026 -1.8154 -0.3219
 5487TIP3   OH216424   4.667   2.421   0.357 -0.4075 -0.2331 -0.6491
 5487TIP3    H116425   4.618   2.496   0.389  0.1370 -0.3443  0.5160
 5487TIP3    H216426   4.737   2.458   0.303  0.5056  0.2118  0.7737
 5488TIP3   OH216427   2.339   3.079   1.738  0.1524 -0.7656 -0.0607
 5488TIP3    H116428   2.278   3.055   1.668 -0.6960 -0.6929  0.6412
 5488TIP3    H216429   2.424   3.047   1.707  0.0579  0.4618 -1.7524
 5489TIP3   OH216430   4.137   6.725   2.581 -0.0420 -0.3232 -0.0852
 5489TIP3    H116431   4.074   6.794   2.560 -0.5576 -0.4414  0.9836
 5489TIP3    H216432   4.092   6.644   2.554  0.6151 -0.2526 -1.4600
 5490TIP3   OH216433   3.661   3.704   5.464 -0.1622  0.1176  0.1366
 5490TIP3    H116434   3.628   3.615   5.453 -0.7454  0.2501  0.7306
 5490TIP3    H216435   3.732   3.711   5.400 -0.2981 -0.6736 -0.1200
 5491TIP3   OH216436   3.842   5.642   4.015 -0.1124  0.2721 -0.4371
 5491TIP3    H116437   3.784   5.663   4.089 -1.5207  0.7837 -1.6293
 5491TIP3    H216438   3.786   5.594   3.954  1.4261 -1.4730 -0.5439
 5492TIP3   OH216439   1.186   5.008   2.202  0.0343  0.0558  0.0425
 5492TIP3    H116440   1.223   4.941   2.144  0.1827  0.8179 -0.7707
 5492TIP3    H216441   1.091   5.002   2.187  0.1613  1.4422 -1.6919
 5493TIP3   OH216442   0.451   5.891   1.179  0.5001  0.4895 -0.3209
 5493TIP3    H116443   0.356   5.885   1.179  0.4733  0.8422  0.5229
 5493TIP3    H216444   0.478   5.862   1.266  1.0506  1.8826  0.0089
 5494TIP3   OH216445   0.160   6.154   5.432  0.2614 -0.9310 -0.2942
 5494TIP3    H116446   0.114   6.199   5.361  1.1575  0.0231 -0.2869
 5494TIP3    H216447   0.141   6.061   5.418 -0.8654 -0.6332 -0.8480
 5495TIP3   OH216448   2.120   4.221   0.924 -0.4098  0.1981 -0.7924
 5495TIP3    H116449   2.152   4.137   0.892 -2.7615 -0.3951 -1.8498
 5495TIP3    H216450   2.163   4.286   0.870  1.0223 -0.3290 -0.3265
 5496TIP3   OH216451   0.965   5.645   0.006 -0.5533 -0.1303  0.5145
 5496TIP3    H116452   1.060   5.653  -0.009 -0.4442 -0.5932  0.9690
 5496TIP3    H216453   0.940   5.730   0.042 -0.6970  0.7792 -1.5824
 5497TIP3   OH216454   5.329   2.614   3.726 -0.0761  0.8182  0.4199
 5497TIP3    H116455   5.307   2.580   3.640 -0.1127  2.0472 -0.0704
 5497TIP3    H216456   5.304   2.544   3.786  0.2348 -0.1719 -0.5776
 5498TIP3   OH216457   3.065   0.846   1.714  0.3279  0.0862 -0.0445
 5498TIP3    H116458   3.053   0.784   1.786 -0.5691  1.4350  1.0193
 5498TIP3    H216459   2.999   0.820   1.649 -2.1190  1.5931  1.6445
 5499TIP3   OH216460   1.944   1.230   2.895 -0.3399  0.3238  0.7339
 5499TIP3    H116461   2.016   1.174   2.868 -0.4826 -1.1342  3.0865
 5499TIP3    H216462   1.875   1.214   2.832  0.7855  0.4860 -0.5878
 5500TIP3   OH216463   4.257   5.986   5.461  0.4257 -0.3169  0.1544
 5500TIP3    H116464   4.302   6.070   5.455  2.0124 -1.2229 -2.4840
 5500TIP3    H216465   4.287   5.948   5.544  3.4402 -0.1864 -0.7499
 5501TIP3   OH216466   4.997   4.163   2.884 -0.1285 -0.1827  0.1413
 5501TIP3    H116467   4.915   4.205   2.910  0.7310  1.1501  0.8186
 5501TIP3    H216468   4.971   4.078   2.849 -1.8973  0.6668 -0.7186
 5502TIP3   OH216469   5.519   4.503   3.042  0.1388  0.7132  0.4792
 5502TIP3    H116470   5.566   4.582   3.012  1.4693 -0.0757  0.3867
 5502TIP3    H216471   5.562   4.432   2.995 -0.7016 -0.1215  0.9626
 5503TIP3   OH216472   4.988   4.403   0.205  0.3071 -0.3254 -0.3381
 5503TIP3    H116473   4.933   4.351   0.147 -0.4696  1.1104 -0.9441
 5503TIP3    H216474   4.930   4.471   0.239  1.4507  0.6330 -0.2144
 5504TIP3   OH216475   6.697   1.645   5.832  0.0471  0.6175 -0.0510
 5504TIP3    H116476   6.647   1.695   5.897 -1.4350  0.1233 -0.7609
 5504TIP3    H216477   6.635   1.632   5.760  0.8530 -0.9717 -0.4976
 5505TIP3   OH216478   5.852   1.742   3.114  0.0098 -0.3593  0.2181
 5505TIP3    H116479   5.813   1.811   3.061 -2.2787 -1.6882  0.0106
 5505TIP3    H216480   5.817   1.661   3.077 -0.6424 -1.4040  2.8897
 5506TIP3   OH216481   4.616   5.629   4.512 -0.3765  0.2549 -0.3591
 5506TIP3    H116482   4.659   5.645   4.428 -0.0111  1.5592  0.0594
 5506TIP3    H216483   4.661   5.687   4.573 -0.2189 -1.1330  0.8789
 5507TIP3   OH216484   1.641   4.725   1.966 -0.3643  0.4049  0.1913
 5507TIP3    H116485   1.593   4.754   2.043 -2.8599  0.3007 -1.2170
 5507TIP3    H216486   1.695   4.653   1.997 -0.2370  1.2498  2.0850
 5508TIP3   OH216487   6.802   1.050   5.581 -0.1140 -0.2128  0.3309
 5508TIP3    H116488   6.862   1.108   5.629 -0.2484  0.1266  0.0928
 5508TIP3    H216489   6.736   1.024   5.646 -1.9454  2.4917 -0.2662
 5509TIP3   OH216490   6.723   1.267   0.399 -0.1772  0.0528  0.0235
 5509TIP3    H116491   6.706   1.268   0.493  0.6974  0.8720  0.1909
 5509TIP3    H216492   6.670   1.338   0.363 -2.2260 -1.6071 -0.4733
 5510TIP3   OH216493   6.811   4.033   1.359 -0.1898 -0.6190  0.5644
 5510TIP3    H116494   6.779   4.091   1.290  0.6883 -1.0147 -0.1972
 5510TIP3    H216495   6.745   4.039   1.428  0.9135  2.9924  1.5040
 5511TIP3   OH216496   5.557   1.186   0.588 -0.4899 -0.2713  0.1889
 5511TIP3    H116497   5.524   1.273   0.609  0.8830  0.5377 -0.8925
 5511TIP3    H216498   5.573   1.145   0.674  0.1790  1.0547  0.7115
 5512TIP3   OH216499   0.245   0.945   5.678  0.8207 -0.0568 -0.6914
 5512TIP3    H116500   0.183   0.925   5.748 -0.8074  1.1882 -1.7303
 5512TIP3    H216501   0.308   1.005   5.718  0.6118 -0.2941  0.0082
 5513TIP3   OH216502   2.323   3.625   2.343 -0.2245  0.2971  0.1396
 5513TIP3    H116503   2.265   3.700   2.332 -0.2630  0.1713 -0.5720
 5513TIP3    H216504   2.281   3.555   2.293 -0.1290 -0.1725  0.7003
 5514TIP3   OH216505   7.000   5.731   3.236  0.2353 -0.3519 -0.5511
 5514TIP3    H116506   6.966   5.662   3.180 -0.5741 -1.0491  0.7450
 5514TIP3    H216507   6.927   5.792   3.247 -0.0712 -0.9275  0.8073
 5515TIP3   OH216508   4.314   1.047   2.304 -0.2709  0.5329 -0.0514
 5515TIP3    H116509   4.226   1.012   2.290  0.0383  0.3675 -1.7693
 5515TIP3    H216510   4.303   1.142   2.305 -0.5778  0.4944  0.6408
 5516TIP3   OH216511   2.871   4.591   3.935  0.0617 -0.1922  0.5352
 5516TIP3    H116512   2.852   4.684   3.922  0.7249 -0.0279  0.6732
 5516TIP3    H216513   2.967   4.586   3.933  0.0281 -0.8941  0.3933
 5517TIP3   OH216514   5.623   2.248   1.125  0.4465 -0.3975  0.7484
 5517TIP3    H116515   5.637   2.161   1.089  1.5584 -0.2991  0.9135
 5517TIP3    H216516   5.539   2.242   1.172 -0.7501 -0.6804 -1.3118
 5518TIP3   OH216517   0.061   1.808   1.068  0.4430 -0.1222 -0.0607
 5518TIP3    H116518   0.109   1.728   1.048 -0.6956 -0.5676 -1.1482
 5518TIP3    H216519   0.065   1.860   0.988  1.0033  0.8359  0.5716
 5519TIP3   OH216520   6.700   1.393   4.637 -0.0086 -0.3095 -0.2525
 5519TIP3    H116521   6.746   1.478   4.640  0.3518 -0.5194  1.8896
 5519TIP3    H216522   6.770   1.329   4.651 -0.5745 -0.8089  0.2983
 5520TIP3   OH216523   4.733   2.230   1.498  0.2940 -0.2339 -0.1404
 5520TIP3    H116524   4.694   2.184   1.424  0.1957  0.1420 -0.3226
 5520TIP3    H216525   4.719   2.323   1.480  0.5178 -0.1265  0.2104
 5521TIP3   OH216526   6.976   4.619   0.642 -0.0482 -0.4763  0.0970
 5521TIP3    H116527   6.912   4.548   0.644  1.1668 -1.7112 -1.6539
 5521TIP3    H216528   7.049   4.584   0.590  0.9541  1.7758 -0.1223
 5522TIP3   OH216529   6.347   2.448   3.641 -0.7765 -0.3772  0.1520
 5522TIP3    H116530   6.348   2.355   3.663  0.0382 -0.4034  0.0167
 5522TIP3    H216531   6.383   2.452   3.553  3.6785  0.4546  1.7726
 5523TIP3   OH216532   5.421   1.068   3.822  0.1915  0.6047 -0.3300
 5523TIP3    H116533   5.401   1.093   3.912  1.9930  0.2819  0.2173
 5523TIP3    H216534   5.348   1.101   3.770 -0.9256  0.7235  1.2529
 5524TIP3   OH216535   6.452   4.767   4.862 -0.2480 -0.1745 -0.1222
 5524TIP3    H116536   6.410   4.853   4.864  1.0830  0.4966  1.6062
 5524TIP3    H216537   6.546   4.785   4.854  0.1341 -1.3977  1.0574
 5525TIP3   OH216538   0.899   0.960   1.748  0.5095 -0.4225  0.4461
 5525TIP3    H116539   0.978   0.995   1.705  0.0857 -1.2415 -1.0725
 5525TIP3    H216540   0.924   0.949   1.839  1.9334  0.0086  0.1313
 5526TIP3   OH216541   1.873   5.420   1.306 -0.1552  0.5595 -0.0836
 5526TIP3    H116542   1.890   5.513   1.296 -0.8578  0.8216  1.0305
 5526TIP3    H216543   1.782   5.409   1.278 -0.6487  0.5290  1.4294
 5527TIP3   OH216544   0.921   3.402   4.241 -0.2122  0.3568  0.4107
 5527TIP3    H116545   0.950   3.343   4.310  0.3746  1.9865  1.6390
 5527TIP3    H216546   0.829   3.419   4.261 -0.5022 -0.4679 -0.2009
 5528TIP3   OH216547   2.233   4.392   3.747  0.1382  0.0399  0.2920
 5528TIP3    H116548   2.211   4.356   3.833 -0.2379 -1.2800 -0.3272
 5528TIP3    H216549   2.217   4.486   3.756 -1.1431 -0.2362  1.2995
 5529TIP3   OH216550   2.410   3.731   3.249  0.3245 -0.3159 -0.7123
 5529TIP3    H116551   2.381   3.691   3.167  0.3902 -1.4174 -0.2098
 5529TIP3    H216552   2.502   3.703   3.258  0.0254 -1.0489  0.2333
 5530TIP3   OH216553   2.901   3.668   4.649  0.3607  0.6995 -0.3459
 5530TIP3    H116554   2.855   3.741   4.607  0.7194  1.1994  0.1153
 5530TIP3    H216555   2.849   3.649   4.727  0.9620  1.3098  0.2124
 5531TIP3   OH216556   0.753   3.186   1.305 -0.4995  0.1455 -0.3175
 5531TIP3    H116557   0.830   3.231   1.268  0.2381 -2.3161 -2.0275
 5531TIP3    H216558   0.695   3.174   1.230 -2.2386  1.1975  0.7946
 5532TIP3   OH216559   4.457   4.488   4.360 -0.1917  0.4422  0.4570
 5532TIP3    H116560   4.466   4.580   4.336 -1.5215  0.5454  0.2506
 5532TIP3    H216561   4.439   4.490   4.454  0.7633  0.3160  0.6511
 5533TIP3   OH216562   6.042   4.684   3.869  0.1152 -0.4693 -0.2134
 5533TIP3    H116563   6.107   4.749   3.897  0.1140 -0.9824  1.0859
 5533TIP3    H216564   6.047   4.684   3.774  1.2618  0.2769 -0.1754
 5534TIP3   OH216565   0.413   5.945   5.758 -0.5658  0.1340  0.0656
 5534TIP3    H116566   0.449   6.009   5.696 -0.6412  0.0714 -0.0414
 5534TIP3    H216567   0.355   5.996   5.814 -2.5442 -0.2422 -1.5312
 5535TIP3   OH216568   5.298   5.545   2.381  0.8021  0.5641  0.2402
 5535TIP3    H116569   5.281   5.543   2.475 -3.4425 -0.7580 -0.3492
 5535TIP3    H216570   5.300   5.638   2.359 -1.9056  0.9211  1.2017
 5536TIP3   OH216571   6.947   4.686   5.623  0.5281  0.4507  0.0921
 5536TIP3    H116572   7.019   4.634   5.588  0.0648  0.3524 -0.7465
 5536TIP3    H216573   6.963   4.774   5.590  1.3335  0.8794  1.5436
 5537TIP3   OH216574   6.046   4.812   3.574 -0.2467 -0.0962 -0.4020
 5537TIP3    H116575   6.121   4.762   3.605 -0.3889 -0.2185 -0.2485
 5537TIP3    H216576   6.035   4.882   3.638 -0.8864 -0.6809  0.1539
 5538TIP3   OH216577   5.331   2.292   1.213 -0.3699 -0.0427 -0.0992
 5538TIP3    H116578   5.304   2.327   1.298  2.2329  1.2315  0.2897
 5538TIP3    H216579   5.363   2.204   1.233  0.9099  0.5165  0.4178
 5539TIP3   OH216580   0.535   0.859   5.050  0.0252 -0.4992  0.0507
 5539TIP3    H116581   0.471   0.838   4.982  1.0481 -1.2791 -0.7117
 5539TIP3    H216582   0.489   0.846   5.132 -0.3060 -2.8446 -0.4535
 5540TIP3   OH216583   2.265   2.737   1.696 -0.4798 -0.3316 -0.6006
 5540TIP3    H116584   2.309   2.697   1.771 -0.3677 -0.2964 -0.6470
 5540TIP3    H216585   2.175   2.749   1.724 -0.3896 -0.1322 -0.4008
 5541TIP3   OH216586   2.363   3.293   3.829 -0.5377  0.0093 -0.0065
 5541TIP3    H116587   2.312   3.329   3.901  2.3774  2.1038  1.2179
 5541TIP3    H216588   2.418   3.226   3.871  1.3431  1.4044 -0.1057
 5542TIP3   OH216589   2.136   4.667   5.834  0.2000  0.3620 -0.0623
 5542TIP3    H116590   2.195   4.721   5.782  0.6122  0.6089  0.6491
 5542TIP3    H216591   2.156   4.690   5.925 -0.9834  0.4551  0.1943
 5543TIP3   OH216592   1.034   5.558   2.979 -0.2018 -0.1562 -0.3289
 5543TIP3    H116593   1.030   5.651   3.000  1.7903 -0.5651  2.2488
 5543TIP3    H216594   1.113   5.548   2.925  0.5405 -0.5445  0.7996
 5544TIP3   OH216595   3.913   0.669   1.727 -0.2689  0.0836  0.2617
 5544TIP3    H116596   3.924   0.585   1.682 -0.2383 -0.1462  0.6882
 5544TIP3    H216597   3.975   0.664   1.800 -0.1451  0.5493  0.1861
 5545TIP3   OH216598   2.078   0.217   5.859 -0.0153  0.0557 -0.0135
 5545TIP3    H116599   2.169   0.245   5.864  0.8257 -2.3467 -0.6343
 5545TIP3    H216600   2.063   0.197   5.766 -0.5867 -1.2848  0.3365
 5546TIP3   OH216601   1.208   4.639   4.005  0.0732  0.0272  0.5417
 5546TIP3    H116602   1.289   4.631   4.055  0.8493 -0.6826 -0.7569
 5546TIP3    H216603   1.145   4.583   4.052 -1.0281  3.6462  3.9218
 5547TIP3   OH216604   4.611   0.514   2.335  0.5223 -0.0285  0.2668
 5547TIP3    H116605   4.555   0.455   2.286  0.5542  0.8155 -0.8288
 5547TIP3    H216606   4.553   0.584   2.364  0.8082  0.3326 -0.0146
 5548TIP3   OH216607   0.872   4.172   1.546  0.5192 -0.0673  0.0082
 5548TIP3    H116608   0.951   4.151   1.596 -0.3271 -1.4127  0.8525
 5548TIP3    H216609   0.857   4.095   1.492 -1.0385 -0.4894  0.9836
 5549TIP3   OH216610   6.643   4.609  -0.011  0.4869  0.0996  0.2950
 5549TIP3    H116611   6.562   4.571   0.023 -0.5060  1.7045 -0.1361
 5549TIP3    H216612   6.626   4.704  -0.012  2.6566  0.5521  0.9123
 5550TIP3   OH216613   5.634   3.265   0.974 -0.0132 -1.1782 -0.5454
 5550TIP3    H116614   5.574   3.208   1.021  0.8322 -0.0998  2.0633
 5550TIP3    H216615   5.578   3.323   0.923 -1.0716 -1.6660  0.0447
 5551TIP3   OH216616   0.805   6.590   2.758 -0.2396 -0.1221  0.2144
 5551TIP3    H116617   0.869   6.573   2.828 -0.5547 -0.5828  0.3949
 5551TIP3    H216618   0.728   6.539   2.783 -0.1154 -0.8597 -0.8353
 5552TIP3   OH216619   6.634   6.422   5.507 -0.1457  0.7347  0.4284
 5552TIP3    H116620   6.672   6.510   5.505 -0.2230  0.7842 -2.4616
 5552TIP3    H216621   6.543   6.436   5.533 -0.2225  1.5493 -0.2369
 5553TIP3   OH216622   4.647   6.263   4.596  0.4271 -0.1828  0.3339
 5553TIP3    H116623   4.710   6.191   4.602 -1.2049 -2.0825 -2.8084
 5553TIP3    H216624   4.583   6.245   4.665  0.6718 -1.0646  0.3395
 5554TIP3   OH216625   4.834   4.759   0.558 -0.1750 -0.2277 -0.6900
 5554TIP3    H116626   4.752   4.741   0.604 -0.1121  1.2678  0.0708
 5554TIP3    H216627   4.900   4.713   0.609 -0.1561  1.1231  0.5774
 5555TIP3   OH216628   0.698   0.699   1.829  0.1700  0.2886  0.2789
 5555TIP3    H116629   0.726   0.791   1.819 -1.5749  0.9474  1.0867
 5555TIP3    H216630   0.615   0.694   1.783  0.7111 -1.1776 -0.6032
 5556TIP3   OH216631   2.973   2.834   2.194 -0.2891  0.1936  0.3213
 5556TIP3    H116632   3.026   2.757   2.174  0.5998  0.8121  0.2256
 5556TIP3    H216633   2.920   2.808   2.269  1.5264  0.1505  1.6475
 5557TIP3   OH216634   1.310   3.783   5.193  0.3752  0.2288  0.1682
 5557TIP3    H116635   1.320   3.864   5.242  0.5880 -0.3502  1.1277
 5557TIP3    H216636   1.391   3.734   5.210 -0.5298 -0.9974  1.2226
 5558TIP3   OH216637   3.192   4.762   2.969 -0.1083 -0.5723 -0.3281
 5558TIP3    H116638   3.252   4.827   3.005 -2.1212  1.0573  0.2894
 5558TIP3    H216639   3.197   4.688   3.030  0.3612  0.0506  0.4006
 5559TIP3   OH216640   5.519   1.780   5.073 -0.4369  0.1515  0.0722
 5559TIP3    H116641   5.427   1.760   5.088 -0.9768  1.7726 -0.9080
 5559TIP3    H216642   5.545   1.721   5.002 -0.2777 -1.3058  1.2739
 5560TIP3   OH216643   0.500   3.377   1.399  0.0245  0.3996  0.5949
 5560TIP3    H116644   0.447   3.456   1.385  1.6345  1.3627 -0.3592
 5560TIP3    H216645   0.558   3.400   1.471 -0.8214 -0.6656  1.6556
 5561TIP3   OH216646   7.076   1.426   2.585  0.7303  0.2795  0.1838
 5561TIP3    H116647   7.020   1.438   2.508  0.7405 -1.2577 -0.0935
 5561TIP3    H216648   7.020   1.449   2.659  0.2390  0.3179 -0.1960
 5562TIP3   OH216649   3.589   5.237   3.980  0.1179  0.4323  0.0057
 5562TIP3    H116650   3.528   5.252   3.908 -0.3383 -3.4057 -0.6147
 5562TIP3    H216651   3.663   5.192   3.939  0.3732 -0.8184  1.7434
 5563TIP3   OH216652   2.082   2.491   4.281  0.6510 -0.1487 -0.3006
 5563TIP3    H116653   2.047   2.525   4.364  1.5499 -1.5219  0.6910
 5563TIP3    H216654   2.174   2.517   4.283  0.7130 -0.3376 -0.8051
 5564TIP3   OH216655   4.381   2.757   5.178  0.5903 -0.0339 -0.3873
 5564TIP3    H116656   4.392   2.754   5.083  0.1798 -0.2424 -0.4267
 5564TIP3    H216657   4.332   2.678   5.200 -1.1330  1.0158 -0.2503
 5565TIP3   OH216658   1.380   2.298   4.464 -0.5527  0.4384 -0.1647
 5565TIP3    H116659   1.439   2.234   4.504  0.1341  1.7490  0.9798
 5565TIP3    H216660   1.427   2.329   4.387 -0.4011  0.3858 -0.0931
 5566TIP3   OH216661   3.594   1.190   3.245 -0.4651 -0.9509  0.2259
 5566TIP3    H116662   3.649   1.149   3.312 -1.4108 -0.2332  1.4829
 5566TIP3    H216663   3.656   1.230   3.184  0.4316  0.0396  1.7415
 5567TIP3   OH216664   4.340   1.031   3.054 -0.0692  0.0474  0.0957
 5567TIP3    H116665   4.331   1.092   3.127 -1.9180  0.4842 -0.4489
 5567TIP3    H216666   4.289   0.954   3.081 -0.4433  0.0603 -0.5522
 5568TIP3   OH216667   2.018   6.402   1.842  0.3000  0.2060 -0.2276
 5568TIP3    H116668   2.016   6.490   1.803 -1.6268 -0.4644 -1.7863
 5568TIP3    H216669   1.962   6.409   1.919  0.3104  0.3898 -0.2359
 5569TIP3   OH216670   3.278   5.646   5.344  0.0236  0.2525 -0.1497
 5569TIP3    H116671   3.324   5.728   5.361 -1.8004  1.1673  0.7677
 5569TIP3    H216672   3.205   5.672   5.287 -0.7936 -0.6492  0.4562
 5570TIP3   OH216673   5.098   3.120   5.567  0.0842  0.1861  0.2411
 5570TIP3    H116674   5.026   3.058   5.582  2.8980 -2.8388  2.6667
 5570TIP3    H216675   5.115   3.158   5.653  2.2258 -0.2642  0.0547
 5571TIP3   OH216676   3.189   3.239   4.244 -0.2104  0.4689 -0.3912
 5571TIP3    H116677   3.112   3.185   4.225  0.4590 -0.2414 -1.1927
 5571TIP3    H216678   3.211   3.219   4.335 -0.0532 -0.5269 -0.6400
 5572TIP3   OH216679   3.043   1.455   3.620 -0.3368  0.0002 -0.1428
 5572TIP3    H116680   3.071   1.443   3.530 -0.7633  1.2703 -0.4744
 5572TIP3    H216681   3.115   1.503   3.661  0.0982 -1.0579  0.3507
 5573TIP3   OH216682   1.018   1.823   2.529  0.1042 -0.1307  0.1216
 5573TIP3    H116683   0.972   1.740   2.521 -0.1222 -0.0399  0.4555
 5573TIP3    H216684   1.005   1.868   2.446  1.5350 -1.0901 -0.6650
 5574TIP3   OH216685   4.834   3.790   4.510 -0.7882  0.6529 -0.6725
 5574TIP3    H116686   4.928   3.797   4.528 -1.1485  1.1348  1.2529
 5574TIP3    H216687   4.796   3.865   4.555 -2.2989 -0.6082  0.2549
 5575TIP3   OH216688   5.292   3.993   0.221  0.6662 -0.0864  0.3100
 5575TIP3    H116689   5.370   4.037   0.254 -0.8566  1.5877  1.9642
 5575TIP3    H216690   5.240   4.063   0.181 -0.6933 -0.8166  0.7080
 5576TIP3   OH216691   3.456   6.116   2.187 -0.2897 -0.0032 -0.1713
 5576TIP3    H116692   3.397   6.129   2.114 -0.6836  0.4499  0.2253
 5576TIP3    H216693   3.401   6.082   2.258  0.2303 -1.2361 -0.3305
 5577TIP3   OH216694   5.329   1.149   1.016  0.3575  0.1016  0.3280
 5577TIP3    H116695   5.330   1.226   1.073 -1.5623  1.0865 -0.8468
 5577TIP3    H216696   5.247   1.104   1.037  1.6569 -1.9827  1.3295
 5578TIP3   OH216697   4.147   0.377   0.915  0.2517  0.3955 -0.1637
 5578TIP3    H116698   4.197   0.338   0.986 -0.4262  0.5690  0.4244
 5578TIP3    H216699   4.182   0.466   0.905 -0.1363  0.6242  0.4554
 5579TIP3   OH216700   4.854   5.672   3.415  0.1348  0.1481 -0.6303
 5579TIP3    H116701   4.867   5.619   3.493 -2.1927  1.4711  0.7979
 5579TIP3    H216702   4.792   5.622   3.361  1.9901 -0.9144 -1.8576
 5580TIP3   OH216703   2.623   6.327   4.632 -0.5478  0.1175  0.2102
 5580TIP3    H116704   2.712   6.298   4.611  1.0143  3.4734  1.3984
 5580TIP3    H216705   2.577   6.328   4.548  0.4274 -1.8495 -0.3988
 5581TIP3   OH216706   4.548   1.899   4.813  0.3576  0.5560 -0.1483
 5581TIP3    H116707   4.554   1.891   4.908 -0.1040  1.9043  0.0225
 5581TIP3    H216708   4.603   1.974   4.791 -1.3560  1.7482 -0.6319
 5582TIP3   OH216709   1.747   5.842   1.062 -0.4386 -0.0357 -0.4638
 5582TIP3    H116710   1.672   5.785   1.083  0.3541 -0.8673  0.1638
 5582TIP3    H216711   1.783   5.806   0.982  0.7031 -1.1153  0.4889
 5583TIP3   OH216712   3.510   4.292   3.818  0.1511  0.5389 -0.3139
 5583TIP3    H116713   3.492   4.232   3.890  0.3968 -0.2405 -0.8809
 5583TIP3    H216714   3.590   4.259   3.778 -0.5104  0.3320 -1.5537
 5584TIP3   OH216715   3.515   5.380   5.612 -0.4956 -0.3620  0.1469
 5584TIP3    H116716   3.420   5.372   5.600 -0.8182  0.5335  1.7629
 5584TIP3    H216717   3.546   5.420   5.531 -1.5045 -0.6274 -0.3871
 5585TIP3   OH216718   0.213   4.010   0.050  0.1410 -0.0572  0.2620
 5585TIP3    H116719   0.268   4.035  -0.024  0.1305  1.1806  0.6452
 5585TIP3    H216720   0.189   3.919   0.033  0.5051  0.0678 -1.0178
 5586TIP3   OH216721   7.029   5.474   0.277  0.0495  0.4163 -0.4832
 5586TIP3    H116722   6.958   5.428   0.323  1.4138 -2.1029 -0.7096
 5586TIP3    H216723   7.002   5.474   0.185 -0.1963  0.5646 -0.4124
 5587TIP3   OH216724   4.244   1.532   0.357 -0.0940 -0.1494 -0.3557
 5587TIP3    H116725   4.281   1.535   0.445 -0.4462 -0.6559 -0.1849
 5587TIP3    H216726   4.275   1.612   0.315  1.1272 -0.5122 -0.1862
 5588TIP3   OH216727   0.316   6.021   3.138  0.3170  0.4168  0.6872
 5588TIP3    H116728   0.378   5.976   3.195  0.8383  1.5216  1.0115
 5588TIP3    H216729   0.278   6.089   3.193 -1.4451 -0.4225  0.5989
 5589TIP3   OH216730   3.789   2.769   5.754  0.3583  0.1452  0.6141
 5589TIP3    H116731   3.744   2.695   5.794  0.0181 -0.5537 -0.9692
 5589TIP3    H216732   3.737   2.789   5.676  1.1408  1.2532  0.3557
 5590TIP3   OH216733   2.852   4.246   2.331 -0.1874 -0.5433 -0.3677
 5590TIP3    H116734   2.906   4.167   2.328 -0.0685 -0.4485 -1.0130
 5590TIP3    H216735   2.821   4.256   2.241 -1.4085 -0.6802  0.0211
 5591TIP3   OH216736   0.992   2.080   4.679 -0.2659  0.2335 -0.0484
 5591TIP3    H116737   1.050   2.046   4.611 -1.3769 -0.2413 -0.7885
 5591TIP3    H216738   1.038   2.062   4.761  0.2041 -0.9829 -0.5589
 5592TIP3   OH216739   6.790   6.346   3.921 -0.0768 -0.1002 -0.3452
 5592TIP3    H116740   6.761   6.393   3.842 -0.6551 -0.2454 -0.2236
 5592TIP3    H216741   6.885   6.350   3.917 -0.1080  1.6185 -0.0072
 5593TIP3   OH216742   5.324   0.966   0.084 -0.0459  0.6701  0.0495
 5593TIP3    H116743   5.300   0.977  -0.008 -3.5864 -1.3789  0.5401
 5593TIP3    H216744   5.318   0.872   0.099 -0.4419  1.0343  2.5561
 5594TIP3   OH216745   3.438   1.999   0.136  0.3421  0.4070  0.1173
 5594TIP3    H116746   3.486   1.967   0.059 -1.3308  0.2474 -0.9198
 5594TIP3    H216747   3.500   1.991   0.208  1.2795 -1.4580 -0.8188
 5595TIP3   OH216748   5.516   3.936   3.978  0.1736  0.4739 -0.4866
 5595TIP3    H116749   5.436   3.918   4.028  1.4067 -0.1431  1.4010
 5595TIP3    H216750   5.540   4.025   4.001 -0.0515  0.7133 -1.1719
 5596TIP3   OH216751   2.853   4.960   4.849 -0.1438 -0.1037 -0.4403
 5596TIP3    H116752   2.770   4.918   4.828 -0.6884  0.2273  0.9592
 5596TIP3    H216753   2.915   4.888   4.860 -0.5586 -0.4242 -0.2043
 5597TIP3   OH216754   5.116   2.278   5.084 -0.1831 -0.3366 -0.4944
 5597TIP3    H116755   5.113   2.335   5.007  1.4671  0.3893 -0.0727
 5597TIP3    H216756   5.169   2.327   5.147  1.2736 -2.3011 -0.0936
 5598TIP3   OH216757   1.944   5.617   3.582  0.4984  0.1273  0.9580
 5598TIP3    H116758   1.922   5.689   3.641  0.2125  0.5310  0.3690
 5598TIP3    H216759   1.954   5.541   3.639 -0.0768  0.4434  1.4872
 5599TIP3   OH216760   4.134   0.994   2.619 -0.1329 -0.4641 -0.7421
 5599TIP3    H116761   4.073   1.037   2.559 -0.7872 -1.1227 -0.5599
 5599TIP3    H216762   4.219   1.030   2.596 -0.8410  2.3597  0.6508
 5600TIP3   OH216763   6.778   1.167   1.586  0.2312 -0.1168 -0.5189
 5600TIP3    H116764   6.872   1.185   1.586  0.5894 -1.8381  0.6235
 5600TIP3    H216765   6.742   1.226   1.653  0.9417 -1.3817  1.0367
 5601TIP3   OH216766   4.546   1.879   4.200 -0.3589  0.3071 -0.4204
 5601TIP3    H116767   4.513   1.797   4.163  1.1673 -0.2421 -0.6654
 5601TIP3    H216768   4.642   1.871   4.193 -0.1741  2.1680 -0.5684
 5602TIP3   OH216769   2.874   6.696   1.096  0.0531  0.0201 -0.1360
 5602TIP3    H116770   2.835   6.696   1.184  0.3358 -1.0483  0.0049
 5602TIP3    H216771   2.837   6.618   1.054  1.2010 -0.4200 -0.3682
 5603TIP3   OH216772   1.974   5.071   1.018 -0.4706  0.1904  0.0865
 5603TIP3    H116773   1.921   5.143   0.982 -0.8171  0.6910  1.5187
 5603TIP3    H216774   1.920   5.035   1.088  0.8271  0.3024  1.1795
 5604TIP3   OH216775   4.787   6.794   5.526 -0.1012 -0.0979  0.0525
 5604TIP3    H116776   4.773   6.782   5.432 -0.4168  1.1871 -0.0832
 5604TIP3    H216777   4.699   6.803   5.563  0.0288  3.2903 -0.1323
 5605TIP3   OH216778   1.719   0.300   5.841 -0.3665  0.3008  0.4341
 5605TIP3    H116779   1.684   0.364   5.903  2.1776 -0.2088  2.5474
 5605TIP3    H216780   1.732   0.221   5.893 -0.7786 -1.0751 -1.4659
 5606TIP3   OH216781   0.762   0.355   5.630  0.3298 -0.2631  0.3494
 5606TIP3    H116782   0.790   0.439   5.665 -0.9299  0.6338 -0.7081
 5606TIP3    H216783   0.828   0.333   5.565 -0.1244  0.6975 -0.4704
 5607TIP3   OH216784   3.325   2.432   4.881  0.0968  0.1492  0.0546
 5607TIP3    H116785   3.402   2.488   4.892 -0.7740  0.8433  4.7717
 5607TIP3    H216786   3.270   2.478   4.818  2.2472  1.0794 -1.2407
 5608TIP3   OH216787   6.510   0.150   1.514 -0.3762 -0.1974  0.4710
 5608TIP3    H116788   6.511   0.184   1.603  0.1551 -0.4376  0.5561
 5608TIP3    H216789   6.537   0.224   1.460  0.5924 -0.4198  0.6388
 5609TIP3   OH216790   2.254   4.181   3.547  0.3854  0.0024 -0.1782
 5609TIP3    H116791   2.246   4.241   3.621 -0.8724  0.5039 -0.6911
 5609TIP3    H216792   2.348   4.180   3.526  0.5930  0.7570  0.6780
 5610TIP3   OH216793   1.729   0.377   4.508 -0.2921 -0.0232  0.2306
 5610TIP3    H116794   1.718   0.410   4.597 -0.2430 -0.9650  0.6030
 5610TIP3    H216795   1.719   0.454   4.452  0.0307  0.6461  1.0695
 5611TIP3   OH216796   0.058   2.401   4.629 -0.5717  0.0921 -0.0754
 5611TIP3    H116797   0.034   2.364   4.714  0.4429 -1.4189 -0.4207
 5611TIP3    H216798   0.149   2.426   4.638  0.1892 -1.9654 -1.2754
 5612TIP3   OH216799   5.066   3.829   4.647  0.3796 -0.3109 -0.2255
 5612TIP3    H116800   5.095   3.918   4.663 -1.4083  0.5237 -1.3101
 5612TIP3    H216801   5.000   3.813   4.714 -1.1781  0.1880 -1.5655
 5613TIP3   OH216802   3.977   4.603   1.048 -0.3193  0.0313  0.2425
 5613TIP3    H116803   4.015   4.685   1.016 -0.7025  0.8555  1.7945
 5613TIP3    H216804   3.898   4.630   1.094 -2.7567 -1.6069 -2.6308
 5614TIP3   OH216805   6.336   4.274   4.166  0.3262 -0.1746  0.0593
 5614TIP3    H116806   6.267   4.210   4.183 -0.7537  0.7860 -0.5638
 5614TIP3    H216807   6.292   4.344   4.119  1.6004  0.7793  0.2453
 5615TIP3   OH216808   1.915   4.782   1.612 -0.4416  0.5379 -0.1992
 5615TIP3    H116809   1.882   4.733   1.536 -0.5736 -1.5140  1.1140
 5615TIP3    H216810   1.995   4.736   1.637 -1.1479  0.2867  1.7322
 5616TIP3   OH216811   3.151   2.464   1.400  0.2875 -0.2660  0.2493
 5616TIP3    H116812   3.158   2.559   1.395 -0.3379 -0.2705 -1.3539
 5616TIP3    H216813   3.155   2.435   1.309  0.9482 -1.8177  0.7389
 5617TIP3   OH216814   5.173   1.640   2.065 -0.0200  0.1013 -0.2026
 5617TIP3    H116815   5.259   1.613   2.097  0.5945  1.9410 -0.1714
 5617TIP3    H216816   5.192   1.691   1.986 -0.8757  2.1103  0.8183
 5618TIP3   OH216817   1.690   4.194   2.142 -0.0576  0.3293  0.4034
 5618TIP3    H116818   1.682   4.258   2.072  1.4224 -1.3549 -1.4135
 5618TIP3    H216819   1.637   4.119   2.113 -0.5775  0.1156  1.7806
 5619TIP3   OH216820   4.947   6.521   2.868 -0.2004 -0.0722 -0.1228
 5619TIP3    H116821   4.993   6.562   2.942 -1.5183  2.1497 -0.4316
 5619TIP3    H216822   4.879   6.467   2.909 -0.2411  0.2906  0.3032
 5620TIP3   OH216823   6.415   1.444   1.994 -0.2171 -0.5695 -0.2755
 5620TIP3    H116824   6.354   1.516   2.008 -0.7618 -1.1734  0.6214
 5620TIP3    H216825   6.475   1.449   2.068  0.9239  0.0992 -1.2256
 5621TIP3   OH216826   2.844   4.475   2.495  0.2524  0.1045 -0.4163
 5621TIP3    H116827   2.866   4.433   2.411 -0.0328  2.3822 -1.7157
 5621TIP3    H216828   2.928   4.482   2.540  0.3355 -1.6218 -0.2346
 5622TIP3   OH216829   4.753   3.504   4.459  0.1247 -0.2110  0.2496
 5622TIP3    H116830   4.690   3.553   4.511 -1.2046 -1.6809  0.0807
 5622TIP3    H216831   4.820   3.569   4.437  0.3294  0.6914  3.0281
 5623TIP3   OH216832   0.584   5.558   3.325 -0.2220 -0.5044  0.5170
 5623TIP3    H116833   0.519   5.490   3.345 -1.4338  0.6963  0.8790
 5623TIP3    H216834   0.641   5.519   3.259 -2.3633 -1.0577 -1.1219
 5624TIP3   OH216835   3.157   2.819   4.086 -0.0248  0.6075 -0.0776
 5624TIP3    H116836   3.156   2.728   4.114  0.8148  0.2558 -1.1061
 5624TIP3    H216837   3.123   2.818   3.997  0.3519  1.2316 -0.2413
 5625TIP3   OH216838   3.957   5.465   2.160  0.5321  0.2286  0.6955
 5625TIP3    H116839   3.963   5.554   2.127 -1.4756  0.4173  0.7338
 5625TIP3    H216840   3.942   5.411   2.081 -0.6193  0.2352  0.8957
 5626TIP3   OH216841   1.877   3.437   5.108 -0.1184  0.4756  0.6181
 5626TIP3    H116842   1.919   3.400   5.030  0.7358  0.3406  1.1386
 5626TIP3    H216843   1.895   3.531   5.102 -1.1060  0.6493  0.0259
 5627TIP3   OH216844   2.615   5.194   1.393  0.1019  0.2209 -0.3173
 5627TIP3    H116845   2.603   5.215   1.486 -0.2848 -1.2678 -0.0104
 5627TIP3    H216846   2.539   5.232   1.350 -1.0661 -1.2708  0.3514
 5628TIP3   OH216847   5.067   1.886   1.811  0.2423  0.0549 -0.4010
 5628TIP3    H116848   4.995   1.836   1.848  0.2231  0.5318  0.2374
 5628TIP3    H216849   5.078   1.851   1.722  1.5556 -2.4647  0.6618
 5629TIP3   OH216850   4.860   5.029   4.198  0.0679  0.6586  0.0994
 5629TIP3    H116851   4.852   5.113   4.243 -3.5102 -0.0476  1.0982
 5629TIP3    H216852   4.866   4.965   4.269 -0.4607 -0.1301 -0.5596
 5630TIP3   OH216853   4.551   0.430   0.207 -1.0615 -0.4065  0.1132
 5630TIP3    H116854   4.608   0.473   0.143 -0.8351  0.0282  0.6031
 5630TIP3    H216855   4.479   0.493   0.220 -0.8435 -0.2697  0.6661
 5631TIP3   OH216856   5.493   4.381   4.303  0.2766 -0.7231 -0.4912
 5631TIP3    H116857   5.491   4.412   4.212 -0.1785  1.0549  0.0848
 5631TIP3    H216858   5.530   4.293   4.297 -0.0365 -0.7852 -2.4316
 5632TIP3   OH216859   2.201   3.914   4.788  0.1142 -0.3423 -0.2732
 5632TIP3    H116860   2.189   3.987   4.849  1.4279  0.4217 -0.8941
 5632TIP3    H216861   2.262   3.947   4.722  0.0153 -1.7046 -1.0905
 5633TIP3   OH216862   4.318   5.464   4.861 -0.0965  0.2401 -0.6385
 5633TIP3    H116863   4.235   5.506   4.840 -1.1685 -0.4201  1.8322
 5633TIP3    H216864   4.293   5.378   4.895  1.6202 -0.1049 -0.1405
 5634TIP3   OH216865   3.186   6.523   2.634 -0.1844  0.2631  0.1156
 5634TIP3    H116866   3.179   6.436   2.673 -1.4002  0.6511  0.8122
 5634TIP3    H216867   3.096   6.548   2.614  0.3376  0.0150 -3.1951
 5635TIP3   OH216868   4.233   3.764   5.039  0.7294  0.3762  0.5335
 5635TIP3    H116869   4.163   3.829   5.044  1.5094  1.4230 -1.1572
 5635TIP3    H216870   4.189   3.684   5.011 -0.2456  0.0953  2.6374
 5636TIP3   OH216871   6.006   2.707   2.809  0.3676 -0.4536 -0.0972
 5636TIP3    H116872   6.065   2.662   2.748  2.1739 -1.1791  2.0304
 5636TIP3    H216873   5.922   2.712   2.763  1.1717 -2.4722 -1.9451
 5637TIP3   OH216874   1.168   2.319   2.011  0.4993 -0.2340 -0.3321
 5637TIP3    H116875   1.077   2.327   2.039  0.8312 -0.3479  0.8451
 5637TIP3    H216876   1.164   2.269   1.930 -0.5000 -0.0663 -0.3997
 5638TIP3   OH216877   1.595   4.819   0.196  0.0707  0.1910  0.7655
 5638TIP3    H116878   1.572   4.733   0.232 -1.0376  0.2234  0.1708
 5638TIP3    H216879   1.605   4.802   0.102 -0.1372  0.7108  0.6500
 5639TIP3   OH216880   4.683   2.539   4.702 -0.1730 -0.0577 -0.0119
 5639TIP3    H116881   4.714   2.478   4.635  0.4154  1.8494 -1.5897
 5639TIP3    H216882   4.596   2.565   4.672 -0.0962  0.4626  0.2143
 5640TIP3   OH216883   3.449   3.868   1.198  0.3200  0.5804 -0.3997
 5640TIP3    H116884   3.435   3.947   1.146 -0.7045  0.6440 -0.0519
 5640TIP3    H216885   3.430   3.796   1.137  0.0380  0.6321 -0.3738
 5641TIP3   OH216886   5.435   5.680   1.801 -0.6048  0.5067 -0.2593
 5641TIP3    H116887   5.361   5.625   1.826 -1.2177  1.4463  0.0543
 5641TIP3    H216888   5.402   5.770   1.807  1.1071  1.0791  1.7591
 5642TIP3   OH216889   6.465   6.408   0.235 -0.1545 -0.1787  0.0414
 5642TIP3    H116890   6.474   6.362   0.318  0.0297  0.7566  0.5604
 5642TIP3    H216891   6.553   6.408   0.197 -0.0688  0.0863  0.2354
 5643TIP3   OH216892   6.025   5.041   5.846  0.1027 -0.1706 -0.0918
 5643TIP3    H116893   6.099   5.021   5.789 -0.0013  1.2589 -0.7818
 5643TIP3    H216894   5.949   5.002   5.803  0.2900 -0.6706  0.0307
 5644TIP3   OH216895   4.068   2.803   5.733  0.6123 -0.5759  0.1202
 5644TIP3    H116896   4.078   2.865   5.661  2.5991 -0.8495  0.0984
 5644TIP3    H216897   3.980   2.767   5.722 -0.1129  1.2935 -0.5942
 5645TIP3   OH216898   0.987   6.594   3.444 -0.8143  0.0411  0.7651
 5645TIP3    H116899   0.909   6.650   3.451 -0.5709  0.4695  0.1925
 5645TIP3    H216900   0.969   6.537   3.369 -0.3613  0.5120  0.2853
 5646TIP3   OH216901   5.193   4.286   5.125  0.1940 -0.6507 -0.3371
 5646TIP3    H116902   5.270   4.343   5.120 -0.0591 -0.0523  1.7754
 5646TIP3    H216903   5.223   4.210   5.174 -0.7803  0.1039  1.5538
 5647TIP3   OH216904   7.141   6.675   1.863  0.5875 -0.1261 -0.5359
 5647TIP3    H116905   7.189   6.757   1.875  0.2788 -0.0550  0.3279
 5647TIP3    H216906   7.062   6.699   1.816  0.6714  0.0072 -0.6105
 5648TIP3   OH216907   6.324   3.615   4.200 -0.3093  0.4824 -0.1691
 5648TIP3    H116908   6.353   3.557   4.130 -1.8607 -1.4923  0.7045
 5648TIP3    H216909   6.386   3.687   4.199  0.3130  0.0278 -2.8947
 5649TIP3   OH216910   4.344   0.107   3.476  0.5032 -0.6754 -0.3293
 5649TIP3    H116911   4.291   0.056   3.537  0.9831 -1.4803 -0.5776
 5649TIP3    H216912   4.292   0.111   3.396  1.0746 -2.0295 -0.7949
 5650TIP3   OH216913   0.304   0.510   0.579  0.8400  0.8160  0.1929
 5650TIP3    H116914   0.265   0.515   0.666  0.7049 -0.2678  0.2057
 5650TIP3    H216915   0.309   0.416   0.560  1.2857  1.0237 -0.7793
 5651TIP3   OH216916   4.787   1.408   3.087 -0.0049  0.0665  0.5439
 5651TIP3    H116917   4.858   1.390   3.026  0.1702  0.4328  0.6342
 5651TIP3    H216918   4.766   1.323   3.126  0.5531  0.0012  0.6991
 5652TIP3   OH216919   1.302   0.902   4.495  0.3383 -0.2025 -0.5764
 5652TIP3    H116920   1.240   0.830   4.500  0.8966 -0.6357  0.6155
 5652TIP3    H216921   1.259   0.975   4.540 -0.1392  0.1649 -1.5953
 5653TIP3   OH216922   6.724   4.517   5.061  0.2235  0.7783  0.2269
 5653TIP3    H116923   6.669   4.469   5.124 -1.2354  0.9170 -0.9004
 5653TIP3    H216924   6.724   4.462   4.983  0.9780  1.2240 -0.0982
 5654TIP3   OH216925   4.882   4.589   2.860 -0.2618 -0.6969  0.4932
 5654TIP3    H116926   4.924   4.674   2.879  0.0589 -0.4790 -1.0788
 5654TIP3    H216927   4.939   4.549   2.795 -0.6753 -1.9268  0.8776
 5655TIP3   OH216928   1.615   2.332   2.798  0.6039  0.5704  0.0707
 5655TIP3    H116929   1.698   2.309   2.838  0.1241 -1.2385  0.0933
 5655TIP3    H216930   1.549   2.309   2.864 -0.0982 -1.0273 -1.1415
 5656TIP3   OH216931   3.965   5.178   5.340  0.4004 -0.2136 -0.2413
 5656TIP3    H116932   3.973   5.269   5.312  0.9640 -0.2555 -0.2229
 5656TIP3    H216933   3.920   5.182   5.424  1.6070  0.1441  0.3926
 5657TIP3   OH216934   2.564   0.243   2.112  0.7037  0.1063  0.0538
 5657TIP3    H116935   2.596   0.263   2.200  1.3369 -0.8226  0.0419
 5657TIP3    H216936   2.502   0.314   2.093  1.3897  0.9313  0.7957
 5658TIP3   OH216937   4.936   1.334   5.628  0.2062  0.1434  0.1589
 5658TIP3    H116938   4.844   1.333   5.655 -0.1349  0.4273 -0.9648
 5658TIP3    H216939   4.976   1.402   5.682 -0.0270 -0.5981  1.2968
 5659TIP3   OH216940   1.448   6.082   2.645  0.2924 -0.6659  0.3293
 5659TIP3    H116941   1.392   6.149   2.684 -1.4932 -2.0875  0.3197
 5659TIP3    H216942   1.517   6.068   2.710 -0.0108  0.2656  0.8763
 5660TIP3   OH216943   0.483   2.655   3.868 -0.0435 -0.1553 -0.3153
 5660TIP3    H116944   0.489   2.670   3.962  1.4984  0.2285 -0.4319
 5660TIP3    H216945   0.403   2.605   3.855 -0.0005 -0.6551  1.2528
 5661TIP3   OH216946   4.610   0.970   4.016 -0.2687  0.2573 -0.2406
 5661TIP3    H116947   4.552   0.932   4.082 -0.1728 -1.2179 -0.9807
 5661TIP3    H216948   4.570   0.947   3.933 -0.5760  2.3993 -0.7426
 5662TIP3   OH216949   7.051   5.060   2.291  0.0288 -0.2629 -0.0889
 5662TIP3    H116950   7.124   5.109   2.255 -0.7069 -0.1335 -1.4689
 5662TIP3    H216951   7.040   4.985   2.232  0.8161 -1.8518  1.6958
 5663TIP3   OH216952   6.628   1.767   0.676  0.2083  0.4737 -0.5023
 5663TIP3    H116953   6.680   1.687   0.674  0.9584  0.9670 -2.1184
 5663TIP3    H216954   6.584   1.770   0.591  0.1552  1.7386 -0.4578
 5664TIP3   OH216955   1.849   1.465   5.545  0.1045 -0.0055 -0.3147
 5664TIP3    H116956   1.855   1.560   5.545 -0.8629  0.0721 -0.6778
 5664TIP3    H216957   1.768   1.446   5.593  1.7181 -0.7878  2.3013
 5665TIP3   OH216958   6.765   1.419   3.700 -0.3934  0.1996  0.0116
 5665TIP3    H116959   6.752   1.361   3.775  0.1402  0.9130  0.6742
 5665TIP3    H216960   6.822   1.370   3.642 -0.8581 -0.3862  0.0362
 5666TIP3   OH216961   0.668   2.444   3.196  0.2860 -0.4427  0.3331
 5666TIP3    H116962   0.721   2.464   3.273  1.0986 -0.9966 -0.0634
 5666TIP3    H216963   0.668   2.348   3.192 -0.1893 -0.4295 -0.0631
 5667TIP3   OH216964   2.167   4.184   4.974  0.4242 -0.5844  0.3957
 5667TIP3    H116965   2.090   4.195   4.918 -0.9934 -0.1133  2.3624
 5667TIP3    H216966   2.236   4.235   4.930 -0.0244 -1.8449 -1.9440
 5668TIP3   OH216967   1.127   4.650   2.927 -0.2616 -0.1258  0.1819
 5668TIP3    H116968   1.079   4.711   2.871 -0.6065 -0.5713 -0.0094
 5668TIP3    H216969   1.127   4.568   2.879  0.3872 -0.2282  0.3434
 5669TIP3   OH216970   0.114   0.995   2.863 -0.5677 -0.1846  0.4628
 5669TIP3    H116971   0.204   1.004   2.897  0.1780  1.3715 -1.6957
 5669TIP3    H216972   0.112   0.908   2.825  0.4990  0.2357 -0.6234
 5670TIP3   OH216973   4.501   0.279   4.291 -0.0338 -0.2136  0.0635
 5670TIP3    H116974   4.467   0.368   4.301  0.4272 -0.1585  1.4430
 5670TIP3    H216975   4.423   0.223   4.300 -0.6174  0.0619 -2.6164
 5671TIP3   OH216976   4.548   3.757   0.349  0.2855 -0.2803  0.4158
 5671TIP3    H116977   4.499   3.708   0.283  0.2847  0.5499 -0.2210
 5671TIP3    H216978   4.515   3.725   0.433 -2.0111  0.8405  0.0226
 5672TIP3   OH216979   0.057   2.541   2.690  0.0048  0.8119  0.5733
 5672TIP3    H116980   0.017   2.458   2.664  1.5825  0.3553 -0.5419
 5672TIP3    H216981   0.086   2.526   2.779  0.7094 -0.0207  0.2193
 5673TIP3   OH216982   4.036   5.865   2.440 -0.1064  0.2337 -0.1535
 5673TIP3    H116983   4.032   5.770   2.442  0.1833  0.2012 -0.7859
 5673TIP3    H216984   4.120   5.886   2.481 -0.1236  0.2113 -0.1064
 5674TIP3   OH216985   6.041   4.992   3.803  0.5075  0.7318 -0.0125
 5674TIP3    H116986   5.955   4.973   3.839  0.9263  0.4303  0.8525
 5674TIP3    H216987   6.094   5.018   3.878  0.2814  4.4118 -0.9704
 5675TIP3   OH216988   1.988   0.296   4.019 -0.2737  0.6224  0.0659
 5675TIP3    H116989   1.914   0.345   4.054 -0.3979  1.1473 -0.9045
 5675TIP3    H216990   1.998   0.327   3.929  1.0860  0.5160  0.1575
 5676TIP3   OH216991   4.562   1.525   2.952 -0.7308  0.5745  0.1659
 5676TIP3    H116992   4.622   1.483   3.014  0.2669  1.9911  0.2388
 5676TIP3    H216993   4.475   1.509   2.987 -0.3802 -1.1871  0.2958
 5677TIP3   OH216994   6.025   3.699   4.947 -0.1482  0.4075 -0.2257
 5677TIP3    H116995   6.037   3.712   5.041  0.3720 -0.0594 -0.2238
 5677TIP3    H216996   6.095   3.639   4.922  0.9727  2.0779 -1.3022
 5678TIP3   OH216997   0.451   4.810   5.336 -0.0506  0.1045  0.1395
 5678TIP3    H116998   0.545   4.814   5.352 -0.3888 -0.1289  2.6542
 5678TIP3    H216999   0.424   4.725   5.371 -1.0164 -0.4917 -1.9092
 5679TIP3   OH217000   1.687   5.250   3.979 -0.3429  0.0919 -0.5068
 5679TIP3    H117001   1.771   5.292   3.996 -0.4621 -0.5150  2.0316
 5679TIP3    H217002   1.685   5.236   3.884  1.6559  1.6225 -0.8284
 5680TIP3   OH217003   6.720   5.602   3.816 -0.2079  0.6113  0.6989
 5680TIP3    H117004   6.660   5.528   3.813 -1.0070  1.2692  0.2451
 5680TIP3    H217005   6.788   5.575   3.878 -1.1600  0.0087  1.5116
 5681TIP3   OH217006   1.033   1.416   1.690  0.1728  0.2358  0.9654
 5681TIP3    H117007   0.981   1.424   1.610 -0.3820 -0.6907  1.2179
 5681TIP3    H217008   0.969   1.403   1.760  0.6287  1.3657  1.6256
 5682TIP3   OH217009   1.451   3.432   4.697 -0.3887  0.1164  0.2571
 5682TIP3    H117010   1.503   3.369   4.748 -1.1300 -1.8480 -1.2780
 5682TIP3    H217011   1.382   3.460   4.757 -1.4626 -2.4279  0.3358
 5683TIP3   OH217012   0.780   6.407   2.251  0.0704 -0.1251 -0.1024
 5683TIP3    H117013   0.830   6.475   2.207  0.9540  0.4553  1.7010
 5683TIP3    H217014   0.714   6.454   2.301 -0.2654 -0.6932 -0.0013
 5684TIP3   OH217015   5.072   0.942   5.176  1.1027  0.2011 -0.1687
 5684TIP3    H117016   5.124   0.930   5.096  0.6893 -1.5324 -0.2051
 5684TIP3    H217017   5.135   0.972   5.241  1.8367 -0.3612 -0.6129
 5685TIP3   OH217018   6.864   0.155   5.072  0.3905 -0.2487 -0.5966
 5685TIP3    H117019   6.799   0.089   5.051  0.4723 -0.6990  0.5079
 5685TIP3    H217020   6.814   0.234   5.090  0.2764 -0.0707 -1.6407
 5686TIP3   OH217021   2.496   0.427   2.333 -0.2267 -0.6943 -0.2710
 5686TIP3    H117022   2.443   0.451   2.257  0.0831 -0.3910 -0.3964
 5686TIP3    H217023   2.463   0.482   2.404  0.3057 -0.0626 -0.4936
 5687TIP3   OH217024   3.283   6.585   0.823 -0.3527 -0.1187 -0.4971
 5687TIP3    H117025   3.360   6.541   0.859 -0.4539 -1.1577 -1.4970
 5687TIP3    H217026   3.310   6.676   0.812  0.7151 -0.4516 -0.7492
 5688TIP3   OH217027   4.333   0.286   2.579  0.0803  0.6426  0.1572
 5688TIP3    H117028   4.387   0.357   2.614 -0.4507 -0.4368  3.5105
 5688TIP3    H217029   4.314   0.231   2.654  0.3367 -3.0500 -2.2380
 5689TIP3   OH217030   3.259   1.361   3.042 -0.4548 -0.4676  0.2156
 5689TIP3    H117031   3.216   1.445   3.027 -0.6342 -0.6618 -0.3792
 5689TIP3    H217032   3.353   1.380   3.031 -0.3042  0.0809  2.0897
 5690TIP3   OH217033   1.872   1.660   4.942 -0.4898  0.2230  0.2205
 5690TIP3    H117034   1.920   1.689   4.864  0.2356  1.5086  1.1245
 5690TIP3    H217035   1.781   1.684   4.924 -0.3216  0.5429 -0.2162
 5691TIP3   OH217036   6.312   4.463   5.127 -0.2251  0.2244  0.2163
 5691TIP3    H117037   6.335   4.376   5.158  1.0566  0.2449 -0.5836
 5691TIP3    H217038   6.349   4.468   5.038 -0.7302  1.3821  0.0456
 5692TIP3   OH217039   0.571   6.191   4.816 -0.1187  0.0999 -0.2943
 5692TIP3    H117040   0.542   6.191   4.725 -1.6769  1.8462  0.1519
 5692TIP3    H217041   0.513   6.128   4.860 -0.7655  0.8148 -0.1167
 5693TIP3   OH217042   3.751   1.938   1.023 -0.0286 -0.1213 -0.9690
 5693TIP3    H117043   3.731   1.848   0.997 -2.9819 -0.4766  1.7376
 5693TIP3    H217044   3.737   1.938   1.118 -1.0240  3.3686 -0.9909
 5694TIP3   OH217045   4.799   6.020   4.574  0.1570 -0.2953 -0.4237
 5694TIP3    H117046   4.795   5.972   4.657 -0.7432 -1.5220 -1.1376
 5694TIP3    H217047   4.888   6.003   4.542  0.2967 -0.3561 -0.0110
 5695TIP3   OH217048   7.139   5.781   0.022  0.3132 -0.1949  0.3150
 5695TIP3    H117049   7.204   5.728   0.068  0.2186 -0.0396  0.6273
 5695TIP3    H217050   7.163   5.772  -0.071  0.5310 -0.4695  0.3956
 5696TIP3   OH217051   4.984   5.149   4.555 -0.3747 -0.0316 -0.8404
 5696TIP3    H117052   4.976   5.209   4.481 -1.0902 -0.0725 -0.8023
 5696TIP3    H217053   5.010   5.066   4.515  0.1817  0.1899 -0.9408
 5697TIP3   OH217054   6.274   6.674   0.578 -0.0781  0.5406  0.5144
 5697TIP3    H117055   6.346   6.735   0.598  0.5921 -0.0122 -0.1823
 5697TIP3    H217056   6.244   6.699   0.491  1.4776 -1.2990 -0.6196
 5698TIP3   OH217057   6.686   4.096   3.392  0.7054 -0.6472  0.2028
 5698TIP3    H117058   6.618   4.101   3.324  0.1703 -0.6280  0.7316
 5698TIP3    H217059   6.752   4.158   3.364 -1.1298  2.0904  1.4659
 5699TIP3   OH217060   2.932   1.630   4.417  0.5704 -0.6702  0.1965
 5699TIP3    H117061   2.845   1.638   4.378  0.0180 -0.8678  1.3555
 5699TIP3    H217062   2.988   1.603   4.344  0.7138  4.1154 -1.8190
 5700TIP3   OH217063   5.253   0.678   5.010  0.5951 -0.2070  0.3882
 5700TIP3    H117064   5.170   0.648   5.046 -0.3422  0.5549 -1.0615
 5700TIP3    H217065   5.244   0.773   5.004  0.7819 -0.2694 -1.5830
 5701TIP3   OH217066   3.126   4.641   5.223  0.4566 -0.2159  0.2342
 5701TIP3    H117067   3.064   4.628   5.295  0.9566 -1.0327  0.5398
 5701TIP3    H217068   3.198   4.691   5.262  0.8533 -0.8920  0.3799
 5702TIP3   OH217069   0.070   6.460   4.701 -0.0756 -0.4219  0.2692
 5702TIP3    H117070   0.157   6.466   4.661  0.1370  0.9535  0.8685
 5702TIP3    H217071   0.015   6.424   4.632  0.5029  0.9001 -0.9547
 5703TIP3   OH217072   1.190   1.325   4.855 -0.4193 -0.1430 -0.0146
 5703TIP3    H117073   1.095   1.310   4.854 -0.2839 -1.0729  0.1705
 5703TIP3    H217074   1.211   1.335   4.947 -0.3850  0.4355 -0.0817
 5704TIP3   OH217075   0.902   2.623   5.760  0.2804 -0.5626 -0.2161
 5704TIP3    H117076   0.971   2.599   5.823  0.0521 -0.7286 -0.0271
 5704TIP3    H217077   0.888   2.716   5.774 -0.8224 -0.8865  1.0382
 5705TIP3   OH217078   3.178   3.297   5.526 -0.2107 -0.5592  0.0400
 5705TIP3    H117079   3.197   3.364   5.460  0.3506 -1.4627 -0.7300
 5705TIP3    H217080   3.248   3.232   5.516 -0.7636 -1.2844  0.7497
 5706TIP3   OH217081   4.659   0.598   3.437 -0.4214 -0.7394 -0.4111
 5706TIP3    H117082   4.707   0.556   3.365 -0.5838 -1.4452 -0.1201
 5706TIP3    H217083   4.692   0.555   3.516  0.9491  1.1624  0.1066
 5707TIP3   OH217084   0.485   3.108   0.684 -0.7519  0.5314  0.0128
 5707TIP3    H117085   0.459   3.102   0.592 -0.1434 -2.1726 -0.0710
 5707TIP3    H217086   0.429   3.044   0.729  0.3824  0.2880  1.1326
 5708TIP3   OH217087   0.056   1.521   1.296  0.3951  0.1979 -0.1153
 5708TIP3    H117088   0.150   1.505   1.305  0.0197 -0.9115  3.0000
 5708TIP3    H217089   0.015   1.436   1.309 -1.0714  0.4060 -2.7590
 5709TIP3   OH217090   5.794   4.366   0.624  0.4001 -0.2265  1.1100
 5709TIP3    H117091   5.719   4.322   0.583  0.4756 -0.2608  1.0080
 5709TIP3    H217092   5.870   4.315   0.595  0.4547 -0.2487  1.2897
 5710TIP3   OH217093   1.129   0.140   3.288 -0.3228  0.7977 -0.2723
 5710TIP3    H117094   1.059   0.106   3.344 -1.0528 -1.9003 -2.6401
 5710TIP3    H217095   1.197   0.073   3.292 -0.3955  0.5361 -2.5421
 5711TIP3   OH217096   0.457   3.993   0.681  0.4709 -0.0589  0.0808
 5711TIP3    H117097   0.535   3.968   0.631  0.9097  0.9174  0.2351
 5711TIP3    H217098   0.437   4.082   0.650  0.5822  0.4551  1.4076
 5712TIP3   OH217099   5.474   6.124   2.344 -0.6093  0.1744  0.3718
 5712TIP3    H117100   5.446   6.187   2.410 -0.5558  0.6549 -0.0574
 5712TIP3    H217101   5.507   6.049   2.394 -2.5225 -0.3710  0.9023
 5713TIP3   OH217102   6.952   0.143   1.575 -0.0314  0.2023 -0.2020
 5713TIP3    H117103   6.909   0.212   1.625  0.0259 -0.4332  0.7450
 5713TIP3    H217104   7.012   0.102   1.637 -0.9511 -1.5124 -0.3632
 5714TIP3   OH217105   6.704   2.688   3.399  0.4419 -0.0820  0.6051
 5714TIP3    H117106   6.747   2.659   3.319  1.9258  1.6006  0.7337
 5714TIP3    H217107   6.670   2.775   3.379 -0.4147 -0.2071  1.3992
 5715TIP3   OH217108   4.433   2.794   4.207 -0.0862 -0.3923 -0.2007
 5715TIP3    H117109   4.471   2.737   4.141 -3.4274 -0.6833 -2.1121
 5715TIP3    H217110   4.354   2.748   4.237 -0.2125  1.0276  1.9046
 5716TIP3   OH217111   2.421   4.312   0.638 -0.1141  0.3766 -0.3174
 5716TIP3    H117112   2.366   4.242   0.604  0.7902 -0.9415  0.8497
 5716TIP3    H217113   2.502   4.307   0.586 -1.1106  2.5343 -2.2728
 5717TIP3   OH217114   2.612   0.907   4.111 -0.4716 -0.3097  0.0390
 5717TIP3    H117115   2.616   0.920   4.016 -1.5186  0.8687  0.1318
 5717TIP3    H217116   2.701   0.922   4.142 -0.4340  0.8771 -0.5847
 5718TIP3   OH217117   2.571   6.240   0.957 -0.7431 -0.1402 -0.2084
 5718TIP3    H117118   2.548   6.199   1.040  0.1151 -0.5747 -0.1779
 5718TIP3    H217119   2.541   6.179   0.890 -1.8474  0.4186 -0.2494
 5719TIP3   OH217120   5.043   4.870   4.938 -0.2300  0.1676  0.2525
 5719TIP3    H117121   4.955   4.906   4.944  0.5114  1.9077  1.9072
 5719TIP3    H217122   5.097   4.932   4.986  1.8552 -1.0467 -0.3952
 5720TIP3   OH217123   0.774   5.802   4.261  0.3259  0.1474 -0.0305
 5720TIP3    H117124   0.695   5.825   4.211  1.1668  0.6264 -1.1718
 5720TIP3    H217125   0.765   5.851   4.343 -0.7648 -0.1356  0.0359
 5721TIP3   OH217126   3.308   0.893   2.473 -0.3601  0.0237 -0.3553
 5721TIP3    H117127   3.312   0.976   2.424  0.7462 -0.0427 -0.4156
 5721TIP3    H217128   3.400   0.871   2.488 -0.6641 -0.8116  0.3201
 5722TIP3   OH217129   5.996   4.221   2.829  0.8495  0.0731 -0.2012
 5722TIP3    H117130   6.059   4.265   2.772  1.7116  0.3080  0.8930
 5722TIP3    H217131   6.051   4.171   2.890  0.0164  0.8893  1.2642
 5723TIP3   OH217132   3.546   3.107   2.160  1.0952  0.3931  0.1120
 5723TIP3    H117133   3.491   3.064   2.094 -0.7902  3.2798 -0.3876
 5723TIP3    H217134   3.520   3.066   2.243 -1.2119  0.9835 -0.2343
 5724TIP3   OH217135   4.500   1.204   1.990  0.0770 -0.1654 -0.1968
 5724TIP3    H117136   4.459   1.124   1.957 -2.6156  0.5317  1.1672
 5724TIP3    H217137   4.547   1.239   1.914  0.6698 -2.5652 -1.0489
 5725TIP3   OH217138   1.514   1.541   0.094 -0.2020  0.6697  0.0005
 5725TIP3    H117139   1.509   1.464   0.151  0.2151  0.4386 -0.2769
 5725TIP3    H217140   1.425   1.578   0.097 -0.3118  0.3794  0.4103
 5726TIP3   OH217141   3.246   1.636   1.334  0.7185 -0.0467 -0.4193
 5726TIP3    H117142   3.177   1.573   1.313  1.0460 -0.2882 -0.7790
 5726TIP3    H217143   3.276   1.609   1.421 -0.9162  1.2075  0.5989
 5727TIP3   OH217144   6.624   6.661   3.215  0.0363 -0.6065  0.1192
 5727TIP3    H117145   6.622   6.566   3.230  1.3261 -0.8453 -1.0012
 5727TIP3    H217146   6.694   6.673   3.151  0.3425  1.1860  0.7462
 5728TIP3   OH217147   3.251   0.045   2.701  0.7217  0.3937 -0.1339
 5728TIP3    H117148   3.345   0.060   2.693  0.8746  0.1745  1.1280
 5728TIP3    H217149   3.242  -0.051   2.699  0.3586  0.4228 -1.7384
 5729TIP3   OH217150   5.792   3.098   2.908 -0.7850 -0.0031  0.2636
 5729TIP3    H117151   5.866   3.151   2.938 -0.6256 -1.0882  1.9149
 5729TIP3    H217152   5.830   3.038   2.844  0.1328 -1.4890  2.0973
 5730TIP3   OH217153   6.862   2.194   0.966  0.2957 -0.2630 -0.0727
 5730TIP3    H117154   6.957   2.201   0.975  0.3350 -0.2447 -0.5160
 5730TIP3    H217155   6.846   2.193   0.872  0.2116 -4.9492 -0.2099
 5731TIP3   OH217156   0.585   3.156   4.274 -0.5148 -0.1351 -0.0755
 5731TIP3    H117157   0.620   3.182   4.189  1.5675  0.0634  0.7864
 5731TIP3    H217158   0.648   3.093   4.308 -0.6710  0.6496  1.8156
 5732TIP3   OH217159   2.036   0.504   2.380 -0.0291 -0.4819 -0.2919
 5732TIP3    H117160   2.084   0.422   2.367 -0.3197 -0.8005  0.5453
 5732TIP3    H217161   2.004   0.527   2.293  0.2806 -1.1223 -0.5831
 5733TIP3   OH217162   6.236   2.658   5.734 -0.0373 -0.3468  0.3333
 5733TIP3    H117163   6.265   2.749   5.742  0.4086 -0.4933  0.4339
 5733TIP3    H217164   6.290   2.623   5.663  0.0604 -0.6387  0.5545
 5734TIP3   OH217165   1.312   6.716   5.613 -0.7718 -0.1116 -0.5975
 5734TIP3    H117166   1.403   6.742   5.601 -0.8821  0.9106  0.5051
 5734TIP3    H217167   1.309   6.679   5.702 -1.4614  0.1191 -0.5140
 5735TIP3   OH217168   6.362   5.204   3.258  0.0850 -0.4789 -0.5611
 5735TIP3    H117169   6.353   5.278   3.318 -0.2113  0.4317 -1.7088
 5735TIP3    H217170   6.434   5.153   3.295 -0.6367 -0.4066  1.0346
 5736TIP3   OH217171   5.565   1.678   3.251  0.2512  0.2843 -0.8068
 5736TIP3    H117172   5.500   1.609   3.268  1.2099  0.0005  2.2862
 5736TIP3    H217173   5.616   1.644   3.177  0.8926 -2.6060  0.7813
 5737TIP3   OH217174   1.768   5.316   5.094 -0.3027 -0.6413 -0.0265
 5737TIP3    H117175   1.850   5.307   5.046 -0.4623 -0.9570 -0.2428
 5737TIP3    H217176   1.700   5.320   5.027 -0.3408  1.3591  0.0785
 5738TIP3   OH217177   3.703   3.949   4.608  0.8675 -0.0286 -0.3976
 5738TIP3    H117178   3.625   3.920   4.561  0.2235  0.7824  0.1337
 5738TIP3    H217179   3.703   3.897   4.689 -0.9745  2.1663  1.1405
 5739TIP3   OH217180   5.113   0.798   4.460 -0.3871 -0.3488  0.1820
 5739TIP3    H117181   5.180   0.800   4.391 -1.3872 -1.2282 -0.8620
 5739TIP3    H217182   5.035   0.764   4.416 -1.4399  0.3510  1.4431
 5740TIP3   OH217183   4.066   1.033   2.906 -0.3603  0.2656  0.0311
 5740TIP3    H117184   4.150   1.077   2.915 -0.2793  0.2804 -0.7090
 5740TIP3    H217185   4.060   1.012   2.813  0.1646 -2.3861  0.5180
 5741TIP3   OH217186   5.733   1.036   0.444 -0.0790 -0.0733 -0.3597
 5741TIP3    H117187   5.647   1.060   0.479 -0.3633 -2.1255  0.5573
 5741TIP3    H217188   5.719   0.948   0.407  1.0941  0.5372 -2.3832
 5742TIP3   OH217189   4.998   3.955   1.795 -0.5907  0.0266 -0.3906
 5742TIP3    H117190   4.903   3.970   1.792 -0.4372  1.2262  0.3400
 5742TIP3    H217191   5.016   3.938   1.887  0.0456  0.8005 -0.3659
 5743TIP3   OH217192   0.142   0.955   1.234  0.2090  0.5211 -0.1714
 5743TIP3    H117193   0.118   0.935   1.325 -1.1626  1.0060 -0.4064
 5743TIP3    H217194   0.208   1.023   1.241  0.6730  0.0157  0.4805
 5744TIP3   OH217195   0.268   5.445   0.430 -0.3116  0.0159  0.1602
 5744TIP3    H117196   0.176   5.468   0.441 -0.2727  0.1305  0.2591
 5744TIP3    H217197   0.284   5.452   0.336 -0.4764 -0.2916  0.1097
 5745TIP3   OH217198   4.017   4.356   0.921  0.3460 -0.1885  0.6446
 5745TIP3    H117199   4.019   4.448   0.947  0.9123  0.5417 -1.7075
 5745TIP3    H217200   3.933   4.324   0.954  0.5518  0.8900  2.3165
 5746TIP3   OH217201   6.612   4.015   5.635  0.3422 -0.0440  0.2729
 5746TIP3    H117202   6.595   4.109   5.634  1.4511  0.1840  1.1932
 5746TIP3    H217203   6.669   3.999   5.560  0.4875  0.0787  0.3584
 5747TIP3   OH217204   6.772   6.095   0.874  0.7425  0.4450  0.2215
 5747TIP3    H117205   6.845   6.125   0.819 -0.3757  0.7045 -1.1937
 5747TIP3    H217206   6.713   6.170   0.878 -0.7455 -0.5984 -0.9867
 5748TIP3   OH217207   4.495   1.052   2.613  0.3087  0.3146 -0.4036
 5748TIP3    H117208   4.545   1.018   2.539 -2.1141 -0.0300 -1.9909
 5748TIP3    H217209   4.477   1.143   2.589 -1.3075 -0.0682 -0.7656
 5749TIP3   OH217210   6.001   3.991   3.286 -0.1421  0.2521 -0.4137
 5749TIP3    H117211   5.974   3.903   3.311  0.6730 -0.3524 -1.5818
 5749TIP3    H217212   5.919   4.040   3.278 -0.7835 -0.9777 -1.8455
 5750TIP3   OH217213   1.505   0.748   4.633  0.4536  0.6231 -0.4699
 5750TIP3    H117214   1.461   0.828   4.603  0.1686 -0.2244 -2.4300
 5750TIP3    H217215   1.469   0.678   4.579  0.7823 -0.8615  1.1088
 5751TIP3   OH217216   5.302   0.580   0.546  0.4742  0.6059 -0.5370
 5751TIP3    H117217   5.218   0.596   0.502 -0.4073 -2.5576 -0.3092
 5751TIP3    H217218   5.333   0.498   0.507  3.3027  1.4962 -0.3087
 5752TIP3   OH217219   4.997   3.489   3.029 -0.0724  0.1160 -0.5049
 5752TIP3    H117220   5.032   3.524   3.111 -1.9332  0.1121  0.3317
 5752TIP3    H217221   5.024   3.397   3.029  1.0011  0.4081 -0.5444
 5753TIP3   OH217222   3.664   2.631   2.048 -0.2364  0.0312  0.1108
 5753TIP3    H117223   3.693   2.677   2.127  1.5081 -0.5923 -0.1194
 5753TIP3    H217224   3.568   2.638   2.050 -0.2630 -0.1983  2.4045
 5754TIP3   OH217225   3.574   3.471   4.859  0.1582 -0.5067 -0.6130
 5754TIP3    H117226   3.627   3.409   4.807  1.5457  1.2691 -1.4204
 5754TIP3    H217227   3.493   3.423   4.877  1.3056 -2.6964 -0.8707
 5755TIP3   OH217228   6.188   5.819   0.453 -0.0734 -0.2230 -0.0976
 5755TIP3    H117229   6.201   5.733   0.413 -2.9258 -0.0370 -1.7446
 5755TIP3    H217230   6.113   5.807   0.511  0.9981  0.6755  1.5572
 5756TIP3   OH217231   1.975   6.003   2.166 -0.4498  0.2903  0.3598
 5756TIP3    H117232   1.978   6.099   2.162 -0.4329  0.2549 -0.6231
 5756TIP3    H217233   1.981   5.983   2.260  0.6184  1.2135  0.5095
 5757TIP3   OH217234   0.896   0.560   4.322 -0.0678  0.1198 -0.6816
 5757TIP3    H117235   0.803   0.572   4.303 -0.3154  0.0355  0.4303
 5757TIP3    H217236   0.938   0.561   4.236 -0.9099  1.7818 -1.1159
 5758TIP3   OH217237   4.004   6.582   0.537  0.0185 -0.4656  0.5002
 5758TIP3    H117238   3.947   6.643   0.584  0.8263  0.0266  0.8612
 5758TIP3    H217239   3.988   6.497   0.578  0.6217 -0.0669  1.6022
 5759TIP3   OH217240   0.313   6.112   1.880  0.3996 -0.7532 -0.3917
 5759TIP3    H117241   0.232   6.115   1.930  0.2950  0.0520 -0.6075
 5759TIP3    H217242   0.338   6.019   1.882 -0.3342 -0.9530 -0.0317
 5760TIP3   OH217243   6.309   2.775   1.345 -0.0615  0.1282  0.3448
 5760TIP3    H117244   6.220   2.800   1.366 -0.3116 -0.1706 -0.3067
 5760TIP3    H217245   6.364   2.834   1.396 -0.6317  0.2726  0.7958
 5761TIP3   OH217246   2.078   2.319   0.356  0.2182  0.1377 -0.7407
 5761TIP3    H117247   2.148   2.254   0.358  0.0625 -0.0249  1.3143
 5761TIP3    H217248   2.050   2.328   0.447  0.3031  3.1824 -0.9025
 5762TIP3   OH217249   0.156   2.611   0.094  0.2835 -0.4233  0.2031
 5762TIP3    H117250   0.152   2.650   0.181  0.5376  1.7335 -0.6761
 5762TIP3    H217251   0.074   2.561   0.086 -0.7744  1.1194  0.9057
 5763TIP3   OH217252   6.310   3.477   0.053 -0.1765 -0.2321  0.1412
 5763TIP3    H117253   6.240   3.541   0.063  0.5893  0.4278  1.4117
 5763TIP3    H217254   6.376   3.521  -0.001 -0.4300 -0.6263 -0.5147
 5764TIP3   OH217255   0.665   4.895   0.418  0.0632 -0.0064 -0.0093
 5764TIP3    H117256   0.644   4.964   0.355 -0.6875  0.7765  1.0520
 5764TIP3    H217257   0.760   4.882   0.410  0.0689  0.5188 -0.8434
 5765TIP3   OH217258   2.930   6.580   3.901  0.0005  0.3963  0.1273
 5765TIP3    H117259   2.981   6.502   3.876  0.0007 -0.5653  2.8273
 5765TIP3    H217260   2.859   6.583   3.837 -0.1372 -1.9993  0.0730
 5766TIP3   OH217261   2.523   3.214   0.243  0.1878 -0.4029  0.5160
 5766TIP3    H117262   2.521   3.282   0.176 -1.2574  1.0128  1.9218
 5766TIP3    H217263   2.564   3.256   0.319  1.1316 -1.7440  0.7948
 5767TIP3   OH217264   6.531   5.908   3.111 -0.1554 -0.3953 -0.4557
 5767TIP3    H117265   6.619   5.932   3.138 -0.8336  1.2121  0.5116
 5767TIP3    H217266   6.476   5.979   3.145 -1.6509 -0.6796 -2.1453
 5768TIP3   OH217267   2.018   3.033   1.737 -0.1948 -0.5432 -0.0408
 5768TIP3    H117268   2.039   2.950   1.694  2.0767  0.2302 -0.5939
 5768TIP3    H217269   1.964   3.080   1.674  0.2001 -0.8106 -0.5882
 5769TIP3   OH217270   4.810   5.590   4.299 -0.1920 -0.0725 -0.8584
 5769TIP3    H117271   4.905   5.597   4.293 -0.1459  1.4657  0.9129
 5769TIP3    H217272   4.778   5.628   4.218  0.6789  0.5361 -0.9258
 5770TIP3   OH217273   1.720   1.054   4.302 -0.2148  0.8842 -0.5855
 5770TIP3    H117274   1.814   1.048   4.284  0.1413 -0.5245  1.3664
 5770TIP3    H217275   1.715   1.093   4.389 -1.2241 -1.7525  0.6489
 5771TIP3   OH217276   0.529   5.578   3.639  0.7674  0.1812 -0.0996
 5771TIP3    H117277   0.474   5.575   3.560 -1.0385 -0.9479  1.1292
 5771TIP3    H217278   0.597   5.513   3.623 -1.2850 -2.2300  0.3840
 5772TIP3   OH217279   4.180   6.061   2.192  0.2537  0.1233 -0.1714
 5772TIP3    H117280   4.250   6.022   2.140  1.5449  1.1732  0.7006
 5772TIP3    H217281   4.159   5.995   2.258  0.2728 -0.2756 -0.5603
 5773TIP3   OH217282   3.066   2.568   2.123  0.1582  0.3273 -0.1639
 5773TIP3    H117283   3.064   2.474   2.138  0.2311  0.0083 -1.9534
 5773TIP3    H217284   3.032   2.579   2.034  1.2509  1.8782 -0.4267
 5774TIP3   OH217285   1.883   5.071   4.818 -0.3324  0.0387  0.1951
 5774TIP3    H117286   1.844   5.081   4.731  0.3727 -0.4813 -0.1899
 5774TIP3    H217287   1.811   5.087   4.879 -1.1374 -0.8520 -0.5001
 5775TIP3   OH217288   7.211   5.466   0.493  0.4745 -0.1803  0.1500
 5775TIP3    H117289   7.199   5.527   0.565  3.6618  1.0561 -0.2018
 5775TIP3    H217290   7.134   5.479   0.438 -1.3933 -0.1993  2.5722
 5776TIP3   OH217291   4.479   4.454   1.818  0.1604  0.4445 -0.2978
 5776TIP3    H117292   4.534   4.529   1.794 -1.4026  1.6898 -0.1830
 5776TIP3    H217293   4.511   4.382   1.764  1.9940  1.0672 -0.0968
 5777TIP3   OH217294   3.502   3.545   3.309 -0.1065  0.1085 -0.2188
 5777TIP3    H117295   3.441   3.615   3.333 -0.2077  0.0138 -0.2034
 5777TIP3    H217296   3.503   3.545   3.214 -1.2633 -0.8823 -0.2461
 5778TIP3   OH217297   3.066   2.155   0.697  0.1967  0.3043  0.0969
 5778TIP3    H117298   3.058   2.060   0.702  0.1441  0.3624  1.4818
 5778TIP3    H217299   2.980   2.185   0.667 -0.2493 -0.0030  1.0384
 5779TIP3   OH217300   6.938   6.558   4.864  0.0019  0.1957 -0.1809
 5779TIP3    H117301   6.902   6.639   4.899 -0.2268 -0.6764  1.7190
 5779TIP3    H217302   6.867   6.519   4.815  0.3478  1.4792 -1.7916
 5780TIP3   OH217303   0.428   2.115   3.348 -0.4876  0.2500  0.7888
 5780TIP3    H117304   0.384   2.168   3.282 -0.3046 -0.5237  0.0140
 5780TIP3    H217305   0.494   2.172   3.385 -0.3852  0.6127  0.0697
 5781TIP3   OH217306   5.673   3.865   1.785 -0.6422 -0.1349  0.0744
 5781TIP3    H117307   5.768   3.881   1.786 -0.6101 -0.2846 -0.3973
 5781TIP3    H217308   5.663   3.780   1.827 -0.5751 -0.0838  0.1953
 5782TIP3   OH217309   5.609   6.500   1.852 -0.1276  0.2439  0.4866
 5782TIP3    H117310   5.561   6.569   1.807  1.7299  0.7119 -0.9122
 5782TIP3    H217311   5.561   6.420   1.832  0.3745  0.4890 -2.0823
 5783TIP3   OH217312   0.382   0.177   0.796  0.2945  0.3503 -0.4749
 5783TIP3    H117313   0.433   0.142   0.722  1.2365  0.2585  0.1967
 5783TIP3    H217314   0.442   0.170   0.871 -0.7042  0.2936  0.3291
 5784TIP3   OH217315   4.939   0.766   1.846  0.6569 -0.3254 -0.1652
 5784TIP3    H117316   4.867   0.821   1.816  0.5343 -1.3520 -1.8595
 5784TIP3    H217317   4.978   0.815   1.919 -2.5123 -0.3260  1.6931
 5785TIP3   OH217318   5.371   5.412   4.257 -0.1382  0.2247 -0.7231
 5785TIP3    H117319   5.325   5.485   4.217 -0.7069 -0.0014 -0.4889
 5785TIP3    H217320   5.342   5.335   4.208 -1.1072 -0.0988  0.3212
 5786TIP3   OH217321   4.845   3.988   1.119  0.2552 -0.2720  0.3252
 5786TIP3    H117322   4.764   3.938   1.126 -0.5880  0.9602 -0.3476
 5786TIP3    H217323   4.866   3.986   1.025  0.6557 -0.0214  0.4061
 5787TIP3   OH217324   2.426   6.711   2.145  0.0444  0.0494  0.3659
 5787TIP3    H117325   2.367   6.785   2.160 -1.1489 -0.4619 -1.4786
 5787TIP3    H217326   2.496   6.746   2.090  0.2005  0.1167  0.6075
 5788TIP3   OH217327   1.906   0.755   1.144 -0.1582 -0.6283 -0.5951
 5788TIP3    H117328   1.854   0.708   1.079 -0.6725 -0.4989 -0.2795
 5788TIP3    H217329   1.874   0.845   1.140  0.4743 -0.4029 -0.8371
 5789TIP3   OH217330   6.613   2.076   4.617 -0.0465 -0.0379  0.3053
 5789TIP3    H117331   6.594   2.063   4.710  1.6333  0.3586  0.7287
 5789TIP3    H217332   6.684   2.139   4.615  1.4219 -1.6283 -1.1426
 5790TIP3   OH217333   5.830   1.895   1.871  0.7715 -0.7404  0.4151
 5790TIP3    H117334   5.771   1.969   1.861  1.7141  0.0427  0.5325
 5790TIP3    H217335   5.891   1.921   1.940  2.2888 -0.8362 -0.8273
 5791TIP3   OH217336   5.907   4.292   4.668  0.2750  0.1691 -0.1236
 5791TIP3    H117337   5.916   4.296   4.763  0.1042 -0.8547 -0.0538
 5791TIP3    H217338   5.981   4.238   4.639  0.7494  1.0879 -0.6460
 5792TIP3   OH217339   6.854   5.752   4.790  0.0002  0.3921 -0.3120
 5792TIP3    H117340   6.765   5.755   4.756 -0.1153 -0.9512 -0.1731
 5792TIP3    H217341   6.850   5.689   4.862  0.6836  1.6506  0.8757
 5793TIP3   OH217342   6.213   3.206  -0.027 -0.1442 -0.3153 -0.0149
 5793TIP3    H117343   6.204   3.146   0.046  0.4599 -0.2052  0.1579
 5793TIP3    H217344   6.222   3.292   0.014  0.8718 -0.3288 -0.1779
 5794TIP3   OH217345   5.448   6.811   3.017  0.1385 -0.5952 -0.5858
 5794TIP3    H117346   5.423   6.729   2.973  0.1981 -0.1345 -1.5060
 5794TIP3    H217347   5.541   6.820   3.000  0.4249 -1.0091  0.6723
 5795TIP3   OH217348   3.960   0.651   3.248  0.3398  0.6196  0.1559
 5795TIP3    H117349   3.928   0.736   3.279  0.1721  0.7235 -0.2974
 5795TIP3    H217350   3.934   0.647   3.156 -0.6668 -0.4160  0.4603
 5796TIP3   OH217351   4.536   0.717   2.567  0.1512  0.2051 -0.0770
 5796TIP3    H117352   4.589   0.775   2.513  0.4951  0.6098  0.6894
 5796TIP3    H217353   4.589   0.699   2.644 -0.5045 -0.0170  0.3372
 5797TIP3   OH217354   3.733   0.235   0.774 -0.3883  0.2162 -0.7110
 5797TIP3    H117355   3.788   0.163   0.743 -1.2894 -0.3460 -1.0279
 5797TIP3    H217356   3.681   0.260   0.698 -1.2649  0.0811 -0.1657
 5798TIP3   OH217357   1.389   3.396   1.626 -0.5186  0.4506 -0.3331
 5798TIP3    H117358   1.380   3.460   1.697 -1.1818 -1.4758  1.4026
 5798TIP3    H217359   1.327   3.427   1.559 -1.5004  1.1411  0.8492
 5799TIP3   OH217360   4.816   6.169   3.333  0.2150 -0.4641  0.4186
 5799TIP3    H117361   4.838   6.242   3.275  0.8755 -0.9291  0.0694
 5799TIP3    H217362   4.900   6.132   3.359 -0.0655 -0.0843  1.9224
 5800TIP3   OH217363   4.819   3.864   0.188 -0.1833  0.7421  0.0321
 5800TIP3    H117364   4.769   3.838   0.266  1.3941 -0.7773  0.6102
 5800TIP3    H217365   4.881   3.929   0.221  1.1502 -0.6231  0.3037
 5801TIP3   OH217366   0.079   5.714   2.747  0.1658 -0.2407 -0.6706
 5801TIP3    H117367   0.165   5.674   2.757  0.3186  0.1734 -0.2506
 5801TIP3    H217368   0.066   5.763   2.829 -0.0721  0.4380 -1.1009
 5802TIP3   OH217369   6.029   5.523   5.288  0.2111 -0.4275  0.3094
 5802TIP3    H117370   5.953   5.506   5.344  0.0235  0.9119  0.4854
 5802TIP3    H217371   6.067   5.604   5.323  0.6037 -0.0419 -0.9641
 5803TIP3   OH217372   5.920   6.447   2.815  0.5590 -0.7947 -0.5321
 5803TIP3    H117373   5.874   6.469   2.734  1.0562  0.2717 -0.5431
 5803TIP3    H217374   6.011   6.431   2.789  1.3536  2.1497  0.0765
 5804TIP3   OH217375   1.071   4.376   1.741  0.4533 -0.3030  0.0521
 5804TIP3    H117376   1.134   4.428   1.790  1.1254 -0.1224 -0.9720
 5804TIP3    H217377   1.023   4.439   1.687  0.0602 -0.5471  0.1099
 5805TIP3   OH217378   1.944   4.052   5.098  0.0859  0.5431 -0.3048
 5805TIP3    H117379   2.031   4.075   5.064 -0.5287  0.6969 -1.8910
 5805TIP3    H217380   1.913   3.984   5.038  0.4602 -2.0860  2.2345
 5806TIP3   OH217381   1.958   6.450   3.560 -0.4871  0.4475 -0.6537
 5806TIP3    H117382   1.866   6.474   3.561 -0.2485  1.6437  2.2101
 5806TIP3    H217383   1.959   6.357   3.535 -2.3637  0.5798 -1.3559
 5807TIP3   OH217384   7.188   2.962   1.965 -0.1724 -0.7714  0.1449
 5807TIP3    H117385   7.183   2.909   2.044 -0.7952 -1.2639 -0.2233
 5807TIP3    H217386   7.122   2.926   1.906  0.7248 -0.8334 -0.8562
 5808TIP3   OH217387   2.277   0.072   0.530 -0.7509 -0.7463 -0.0806
 5808TIP3    H117388   2.197   0.039   0.489 -2.3827  0.9672  1.5384
 5808TIP3    H217389   2.248   0.145   0.584  1.5830 -1.5177  2.4202
 5809TIP3   OH217390   5.624   0.379   0.353 -0.0208  0.0344 -0.9016
 5809TIP3    H117391   5.698   0.320   0.342 -0.3918 -0.4699 -0.7552
 5809TIP3    H217392   5.549   0.321   0.366 -0.1224  0.5254  1.0619
 5810TIP3   OH217393   1.559   5.402   1.693 -0.2566 -0.4850 -0.5012
 5810TIP3    H117394   1.594   5.358   1.616  1.7874  1.1106 -0.5778
 5810TIP3    H217395   1.609   5.365   1.766  0.2500  0.4143 -0.3762
 5811TIP3   OH217396   4.057   6.653   3.813  0.1461 -0.0708  0.1719
 5811TIP3    H117397   4.078   6.742   3.784 -0.3750  0.1744  0.5160
 5811TIP3    H217398   4.086   6.651   3.904 -0.7312  0.0772  0.4680
 5812TIP3   OH217399   4.886   3.845   1.498 -0.3275 -0.1263  0.0789
 5812TIP3    H117400   4.965   3.798   1.525 -0.2206 -0.4419 -0.7496
 5812TIP3    H217401   4.882   3.921   1.556  0.0439 -0.6312  0.7727
 5813TIP3   OH217402   6.488   0.231   2.849 -0.2634 -0.4868  0.0888
 5813TIP3    H117403   6.416   0.196   2.901 -1.3837  3.6097  1.7172
 5813TIP3    H217404   6.446   0.280   2.779  1.1471 -1.4304 -1.5187
 5814TIP3   OH217405   3.638   0.346   5.616 -0.1512 -0.3679  0.4890
 5814TIP3    H117406   3.562   0.290   5.606 -0.3317  0.0586 -0.6988
 5814TIP3    H217407   3.698   0.318   5.547 -0.0630  0.5870  0.1642
 5815TIP3   OH217408   5.993   2.251   4.699 -0.4723 -0.4184 -0.0292
 5815TIP3    H117409   6.013   2.343   4.683 -0.7593 -0.3322  0.1020
 5815TIP3    H217410   6.012   2.207   4.616 -0.6491 -0.1892 -0.1911
 5816TIP3   OH217411   0.177   5.098   1.421 -0.4049 -0.2390 -0.6475
 5816TIP3    H117412   0.205   5.189   1.429 -0.2348 -0.3573  0.2192
 5816TIP3    H217413   0.254   5.051   1.390  0.4362 -0.5708  1.7541
 5817TIP3   OH217414   2.307   5.524   5.210 -0.7196 -0.0306 -0.0333
 5817TIP3    H117415   2.283   5.591   5.274 -0.2154  0.6450 -0.5490
 5817TIP3    H217416   2.396   5.499   5.234 -0.8239 -0.3624  0.0169
 5818TIP3   OH217417   4.064   4.127   5.317  0.5196  0.2915  0.0025
 5818TIP3    H117418   4.146   4.174   5.331  0.5356  0.1329  0.4517
 5818TIP3    H217419   4.087   4.034   5.325  0.4317  0.2152 -0.5868
 5819TIP3   OH217420   6.093   6.559   0.217  0.2664 -0.5281 -0.0874
 5819TIP3    H117421   6.112   6.629   0.280  1.7782 -0.8972 -0.1019
 5819TIP3    H217422   6.099   6.600   0.131  0.9534 -0.6258 -0.0881
 5820TIP3   OH217423   5.729   5.144   0.534  0.0110  0.4243  0.1950
 5820TIP3    H117424   5.691   5.152   0.622  0.2764  0.8528  0.2701
 5820TIP3    H217425   5.733   5.233   0.501  1.3437  0.4447  0.3524
 5821TIP3   OH217426   5.752   5.410   1.786 -0.1667  0.1066  0.6048
 5821TIP3    H117427   5.658   5.395   1.792 -0.1643 -1.6133 -2.0387
 5821TIP3    H217428   5.791   5.348   1.848 -0.7197  0.1171  0.9657
 5822TIP3   OH217429   0.777   1.734   4.985 -0.0112 -0.6646  0.1830
 5822TIP3    H117430   0.723   1.665   5.023 -2.0203  0.5742 -0.2525
 5822TIP3    H217431   0.746   1.815   5.027 -0.0446  0.3434 -1.6542
 5823TIP3   OH217432   4.616   0.666   1.459  0.0153 -0.4418 -0.0097
 5823TIP3    H117433   4.533   0.707   1.435  0.7922  0.8771 -0.5524
 5823TIP3    H217434   4.681   0.708   1.402  1.3587  0.0192  1.7533
 5824TIP3   OH217435   3.150   4.261   3.907 -0.0156  0.3771 -0.3012
 5824TIP3    H117436   3.200   4.213   3.973 -0.6487  1.2346  0.8366
 5824TIP3    H217437   3.074   4.206   3.889 -1.9171  1.8164  2.6441
 5825TIP3   OH217438   1.264   0.422   3.198  0.5391 -0.2377 -0.1189
 5825TIP3    H117439   1.294   0.351   3.255  1.0193  0.5395  0.6126
 5825TIP3    H217440   1.342   0.473   3.179  0.1400  0.3011 -0.3544
 5826TIP3   OH217441   6.468   1.684   3.197 -0.4923  0.4472  0.2956
 5826TIP3    H117442   6.523   1.742   3.250  0.3489 -0.4789  0.4588
 5826TIP3    H217443   6.379   1.702   3.226 -0.3858  2.5683 -0.5404
 5827TIP3   OH217444   5.322   1.509   0.101  0.0897  0.0841 -0.0878
 5827TIP3    H117445   5.310   1.559   0.020  0.3926 -1.0006 -0.8291
 5827TIP3    H217446   5.330   1.419   0.072  1.3334 -0.2061  1.0661
 5828TIP3   OH217447   6.337   2.655   3.245 -0.0553 -0.0531 -0.2738
 5828TIP3    H117448   6.376   2.737   3.274 -0.3843  0.1902 -0.5175
 5828TIP3    H217449   6.252   2.680   3.208 -0.0418 -0.4674 -0.5958
 5829TIP3   OH217450   1.773   3.114   2.252  0.2383 -0.2601  0.1347
 5829TIP3    H117451   1.720   3.109   2.172 -0.6988  0.6265  0.6795
 5829TIP3    H217452   1.842   3.176   2.232 -0.3152  0.3788  0.1802
 5830TIP3   OH217453   0.239   0.571   4.041 -0.4626 -0.0177  0.2784
 5830TIP3    H117454   0.287   0.504   3.992  1.3112 -0.0335  1.9023
 5830TIP3    H217455   0.171   0.522   4.088 -0.8689 -0.2825 -0.5663
 5831TIP3   OH217456   3.684   4.224   3.624 -0.3060 -0.5583 -0.2170
 5831TIP3    H117457   3.700   4.247   3.533  0.9797  0.2172  0.1599
 5831TIP3    H217458   3.770   4.194   3.656 -0.7298 -0.8014  0.7295
 5832TIP3   OH217459   3.531   6.818   2.348 -0.6770 -0.3280  0.4871
 5832TIP3    H117460   3.470   6.783   2.282 -1.7476 -0.7080  1.6349
 5832TIP3    H217461   3.504   6.776   2.429  1.2732 -0.6560  1.0179
 5833TIP3   OH217462   4.356   5.312   2.599  0.0378 -0.1159 -0.2101
 5833TIP3    H117463   4.399   5.358   2.672 -1.7402  1.2633  0.0252
 5833TIP3    H217464   4.360   5.220   2.623  1.5979  0.0995  0.4623
 5834TIP3   OH217465   0.758   1.395   1.198  0.2662 -0.0560 -0.3764
 5834TIP3    H117466   0.813   1.466   1.164  0.1170 -0.9181 -2.5819
 5834TIP3    H217467   0.804   1.315   1.173 -0.1248 -0.7863  1.0978
 5835TIP3   OH217468   0.423   2.769   5.589  0.2670 -0.8553 -0.2427
 5835TIP3    H117469   0.510   2.729   5.590  1.0801  0.7293 -1.8834
 5835TIP3    H217470   0.416   2.811   5.503 -1.5085  0.3754  0.4293
 5836TIP3   OH217471   3.049   6.304   1.330 -0.4126 -0.3707  0.4520
 5836TIP3    H117472   2.983   6.362   1.369  0.7126  1.0359  0.3218
 5836TIP3    H217473   3.015   6.286   1.242 -0.4355  0.6898  0.2311
 5837TIP3   OH217474   0.886   1.480   0.623  0.4000 -0.4896 -0.1954
 5837TIP3    H117475   0.827   1.497   0.550  0.2203 -0.9480 -0.1563
 5837TIP3    H217476   0.973   1.472   0.583  0.5281  0.6877 -0.2009
 5838TIP3   OH217477   3.700   5.154   5.444  0.6039  0.2981 -0.0043
 5838TIP3    H117478   3.723   5.171   5.536 -0.4790 -0.1398  0.3681
 5838TIP3    H217479   3.657   5.069   5.446 -0.2418  0.6927 -0.7773
 5839TIP3   OH217480   6.849   4.147   3.786  0.7926 -0.1811  0.2211
 5839TIP3    H117481   6.892   4.069   3.751  2.2797  0.3355  0.8086
 5839TIP3    H217482   6.886   4.158   3.873  1.2530  1.6509 -0.1542
 5840TIP3   OH217483   4.755   6.338   2.887  0.2318 -0.0073 -0.0087
 5840TIP3    H117484   4.685   6.284   2.924 -1.0506  0.9060 -1.0053
 5840TIP3    H217485   4.810   6.276   2.840  1.3075 -1.0443  2.4315
 5841TIP3   OH217486   7.177   2.938   2.264 -0.0381  0.4984 -0.1892
 5841TIP3    H117487   7.261   2.894   2.271 -0.8205 -1.7660 -2.9018
 5841TIP3    H217488   7.117   2.886   2.317 -0.5928 -0.7726 -1.9610
 5842TIP3   OH217489   6.580   3.272   1.290 -0.2183  0.7447 -0.0402
 5842TIP3    H117490   6.633   3.295   1.366  0.5791  0.7323 -0.5822
 5842TIP3    H217491   6.496   3.314   1.307 -0.4623 -0.2452  1.4031
 5843TIP3   OH217492   3.911   5.121   3.308  0.1883  0.1167 -0.1675
 5843TIP3    H117493   3.849   5.138   3.237 -0.1167 -1.2708 -0.2662
 5843TIP3    H217494   3.990   5.088   3.264  0.8314  1.3849 -0.0040
 5844TIP3   OH217495   1.663   3.349   1.829 -0.1996 -0.1745 -0.3072
 5844TIP3    H117496   1.591   3.409   1.847 -0.3217  0.0335 -1.4289
 5844TIP3    H217497   1.642   3.270   1.879 -1.1822 -0.1077 -0.6032
 5845TIP3   OH217498   7.135   4.461   0.947  0.3205 -0.0386  0.5979
 5845TIP3    H117499   7.143   4.467   1.043  1.7806  2.3976  0.3927
 5845TIP3    H217500   7.064   4.521   0.925  0.7686  0.3112  0.0822
 5846TIP3   OH217501   4.296   5.711   3.645 -0.1598 -0.5811 -0.7094
 5846TIP3    H117502   4.361   5.714   3.574  1.7628  0.4199  0.9892
 5846TIP3    H217503   4.269   5.801   3.657 -0.0638 -0.6573  0.1505
 5847TIP3   OH217504   5.933   5.086   0.351  0.1887 -0.1106  0.1793
 5847TIP3    H117505   5.928   5.024   0.279 -0.2677 -0.6358  0.6539
 5847TIP3    H217506   5.845   5.086   0.388 -0.2113  1.8391 -0.6534
 5848TIP3   OH217507   1.126   5.893   3.723 -0.1315  0.3099 -0.6359
 5848TIP3    H117508   1.176   5.915   3.801  2.5458 -1.6667 -1.6084
 5848TIP3    H217509   1.166   5.945   3.653 -2.1584  1.6761 -0.8793
 5849TIP3   OH217510   5.461   5.972   1.347 -0.6367 -0.2359 -0.2705
 5849TIP3    H117511   5.526   6.020   1.296 -2.1330 -0.3459 -2.3788
 5849TIP3    H217512   5.506   5.950   1.429  1.4905  0.9035 -1.0756
 5850TIP3   OH217513   3.620   5.375   2.609 -0.0347  0.2070  0.0043
 5850TIP3    H117514   3.622   5.349   2.701 -0.9893  0.5116  0.1274
 5850TIP3    H217515   3.675   5.311   2.565 -0.0319 -0.2912  0.7043
 5851TIP3   OH217516   2.102   2.753   1.239 -0.1630 -0.6348  0.2247
 5851TIP3    H117517   2.172   2.813   1.216  1.2870 -2.0307  0.8003
 5851TIP3    H217518   2.022   2.795   1.206  0.8738  1.1961 -0.0583
 5852TIP3   OH217519   3.284   4.893   1.790  0.0495 -0.2153 -0.1444
 5852TIP3    H117520   3.343   4.903   1.864 -0.2402  2.5205 -0.1699
 5852TIP3    H217521   3.260   4.983   1.766 -2.9945 -1.1242 -1.0363
 5853TIP3   OH217522   4.409   3.382   0.753  0.1820 -0.0528  0.0981
 5853TIP3    H117523   4.479   3.324   0.783  0.5178 -0.2891 -1.0973
 5853TIP3    H217524   4.410   3.456   0.815  2.0102  0.3293 -0.3445
 5854TIP3   OH217525   3.901   0.723   4.537 -0.4799  0.2077  0.1122
 5854TIP3    H117526   3.807   0.710   4.554 -0.7134  2.3405  0.8197
 5854TIP3    H217527   3.939   0.731   4.625  0.0511  1.1569 -0.1989
 5855TIP3   OH217528   6.560   1.921   4.868  0.5949  0.0153 -0.3513
 5855TIP3    H117529   6.608   1.967   4.937  0.8777 -1.4265  0.4592
 5855TIP3    H217530   6.468   1.926   4.896  0.5123  0.8648 -0.7513
 5856TIP3   OH217531   6.082   4.135   4.125  0.3259  0.0938  0.0209
 5856TIP3    H117532   6.075   4.159   4.032  0.9060 -1.6778 -0.5306
 5856TIP3    H217533   5.995   4.150   4.161  0.2778  1.4808 -0.6207
 5857TIP3   OH217534   0.901   6.342   4.187 -0.5185 -0.0356  0.0969
 5857TIP3    H117535   0.990   6.377   4.196 -1.2037  1.6763  0.6261
 5857TIP3    H217536   0.902   6.261   4.237  0.7389 -0.0373  0.1043
 5858TIP3   OH217537   3.040   2.801   0.144  0.0773  0.5228  0.1013
 5858TIP3    H117538   3.085   2.797   0.060  1.3716 -2.0186  0.8237
 5858TIP3    H217539   3.105   2.839   0.204  0.1232 -0.1371  0.4792
 5859TIP3   OH217540   2.786   3.011   3.850 -0.1361  0.3628 -0.4075
 5859TIP3    H117541   2.752   3.026   3.761  0.3141 -2.2356 -1.0972
 5859TIP3    H217542   2.868   2.963   3.836 -0.3844 -0.6775  1.4379
 5860TIP3   OH217543   1.367   5.072   3.649 -0.2982  0.2339  0.0264
 5860TIP3    H117544   1.336   5.076   3.739  2.6913 -0.0201  1.1904
 5860TIP3    H217545   1.315   5.137   3.602 -2.3499 -0.0669  1.7601
 5861TIP3   OH217546   5.237   3.847   5.697 -0.1073  0.1848 -0.1462
 5861TIP3    H117547   5.236   3.916   5.763 -1.5021 -0.4317  0.5009
 5861TIP3    H217548   5.237   3.766   5.747 -1.3205 -0.2875 -0.8895
 5862TIP3   OH217549   3.807   6.693   3.147  0.1102  0.6238  0.0300
 5862TIP3    H117550   3.847   6.687   3.234 -1.4638  0.5731  0.7773
 5862TIP3    H217551   3.855   6.629   3.094  1.5165  1.1138  0.6663
 5863TIP3   OH217552   6.550   1.787   2.219  0.2860 -0.1520 -0.1785
 5863TIP3    H117553   6.494   1.762   2.293  1.3054 -2.2955 -0.0548
 5863TIP3    H217554   6.630   1.736   2.231  0.7837  0.0229 -2.3467
 5864TIP3   OH217555   2.633   6.667   3.404 -0.4184 -0.5840 -0.1246
 5864TIP3    H117556   2.589   6.679   3.488 -2.9801 -0.5243 -1.3906
 5864TIP3    H217557   2.602   6.739   3.349  1.3252 -0.5277 -1.1177
 5865TIP3   OH217558   6.419   0.417   3.792 -0.0632 -0.2004 -0.2429
 5865TIP3    H117559   6.484   0.468   3.743  0.8359  0.4212  1.5146
 5865TIP3    H217560   6.364   0.484   3.834 -1.0973 -0.7264 -0.7123
 5866TIP3   OH217561   1.503   3.578   1.867  0.5906  0.6390 -0.1966
 5866TIP3    H117562   1.536   3.625   1.790  1.6260  1.8113  0.9263
 5866TIP3    H217563   1.474   3.647   1.926 -1.4869 -0.2863 -0.0514
 5867TIP3   OH217564   1.147   2.912   4.789  0.0142  0.4129 -0.2219
 5867TIP3    H117565   1.163   2.847   4.721  2.4540  0.1003  0.5436
 5867TIP3    H217566   1.121   2.991   4.743  0.4517 -0.1283 -1.4182
 5868TIP3   OH217567   6.761   6.187   4.934  0.5191  0.8022 -0.1013
 5868TIP3    H117568   6.815   6.135   4.875  0.7727 -0.1877  0.9668
 5868TIP3    H217569   6.756   6.274   4.893  2.5811  0.8081 -0.4197
 5869TIP3   OH217570   5.981   2.476   0.228 -0.2896  0.4814  0.1708
 5869TIP3    H117571   6.022   2.427   0.157 -0.4725 -1.2308  1.1968
 5869TIP3    H217572   5.887   2.464   0.215 -0.3153 -0.7108  1.2354
 5870TIP3   OH217573   2.312   0.765   4.894  0.2705 -0.3337  0.1057
 5870TIP3    H117574   2.382   0.830   4.905  0.2201 -0.4236  1.0697
 5870TIP3    H217575   2.296   0.733   4.983 -2.0897  0.8062  0.1732
 5871TIP3   OH217576   5.695   3.302   4.246  0.2919 -0.1669  0.9331
 5871TIP3    H117577   5.781   3.267   4.270  0.5368 -0.3759 -0.2057
 5871TIP3    H217578   5.640   3.225   4.233  0.5816 -0.1396 -0.6554
 5872TIP3   OH217579   4.022   5.552   0.122 -0.6283 -0.0806 -0.6332
 5872TIP3    H117580   4.003   5.560   0.029 -0.7020  2.1234 -0.4898
 5872TIP3    H217581   4.111   5.587   0.132 -0.1551 -1.4042 -0.0221
 5873TIP3   OH217582   3.717   5.827   1.654  0.7364 -0.5346 -0.0792
 5873TIP3    H117583   3.742   5.900   1.597 -1.9027 -1.9256 -3.3770
 5873TIP3    H217584   3.729   5.749   1.599 -2.9250 -1.9060  0.7768
 5874TIP3   OH217585   6.579   6.364   1.501  0.2220 -0.4209 -0.3813
 5874TIP3    H117586   6.611   6.384   1.413 -1.0309  1.4671 -0.4882
 5874TIP3    H217587   6.543   6.276   1.495  1.7689 -1.0361 -1.2478
 5875TIP3   OH217588   0.274   5.362   1.456 -0.0330 -0.4343  0.0990
 5875TIP3    H117589   0.261   5.375   1.550 -0.6002  0.0158 -0.0368
 5875TIP3    H217590   0.367   5.381   1.442 -0.3470  1.4790  0.2608
 5876TIP3   OH217591   0.704   2.177   3.190  0.0156 -0.1250 -0.4356
 5876TIP3    H117592   0.788   2.152   3.152 -0.1802 -1.9317  0.2240
 5876TIP3    H217593   0.658   2.094   3.203 -2.2945  0.8425 -1.6824
 5877TIP3   OH217594   7.176   3.621   5.147  0.2689 -0.1618  0.1953
 5877TIP3    H117595   7.111   3.689   5.130 -0.0258 -0.5868 -0.3998
 5877TIP3    H217596   7.213   3.645   5.231 -2.0539 -0.9750  1.5586
 5878TIP3   OH217597   3.531   4.311   1.343 -0.8021 -0.4861 -0.6512
 5878TIP3    H117598   3.504   4.245   1.407  0.4071 -1.0316 -0.6572
 5878TIP3    H217599   3.531   4.264   1.260 -0.2121 -0.4046 -0.7015
 5879TIP3   OH217600   4.544   1.150   3.618  0.1226 -0.6892 -0.8808
 5879TIP3    H117601   4.636   1.176   3.610 -0.0832  0.9365  1.1684
 5879TIP3    H217602   4.495   1.222   3.579 -0.3573  0.7894  2.1544
 5880TIP3   OH217603   4.828   4.556   0.344 -0.0119  0.1838 -0.2933
 5880TIP3    H117604   4.799   4.523   0.429  1.0786 -2.8321 -0.9433
 5880TIP3    H217605   4.878   4.635   0.364 -1.2456  0.5515  1.6399
 5881TIP3   OH217606   6.967   6.632   0.951  0.1099 -0.2696  0.2373
 5881TIP3    H117607   6.894   6.646   0.892 -0.2084  0.2453  0.7347
 5881TIP3    H217608   7.003   6.720   0.966 -0.1014 -0.3280  1.1587
 5882TIP3   OH217609   1.021   0.743   0.475 -0.2488 -0.6911 -0.0316
 5882TIP3    H117610   0.997   0.689   0.550  0.2834  1.0768  1.4735
 5882TIP3    H217611   0.944   0.797   0.458  0.0186 -0.3134 -0.0509
 5883TIP3   OH217612   3.852   0.792   0.929 -0.2511 -0.1002 -0.1179
 5883TIP3    H117613   3.851   0.698   0.949 -0.8484 -0.4293 -1.5370
 5883TIP3    H217614   3.764   0.823   0.952 -0.4151 -0.1393 -0.6686
 5884TIP3   OH217615   5.694   1.985   5.095 -0.1910  0.0035 -0.3434
 5884TIP3    H117616   5.617   1.929   5.089 -0.4785  0.4516 -0.8753
 5884TIP3    H217617   5.746   1.962   5.018 -0.2824  0.4200 -0.5326
 5885TIP3   OH217618   6.758   2.292   5.703 -0.0897 -0.0052  0.6019
 5885TIP3    H117619   6.673   2.252   5.720 -0.5675  0.6998 -0.0680
 5885TIP3    H217620   6.817   2.218   5.686 -0.3644 -0.5440  1.8611
 5886TIP3   OH217621   7.140   5.524   1.097 -0.1469 -0.3754 -0.3044
 5886TIP3    H117622   7.071   5.464   1.070 -2.0218  0.8819  1.4414
 5886TIP3    H217623   7.190   5.474   1.163 -0.6207 -0.6218 -0.1254
 5887TIP3   OH217624   1.630   0.354   0.938 -0.0654 -0.4589  0.1033
 5887TIP3    H117625   1.606   0.265   0.912  0.5065 -0.4315 -0.5760
 5887TIP3    H217626   1.660   0.346   1.028 -1.6664 -0.6481  0.6397
 5888TIP3   OH217627   0.715   1.398   2.750  0.5352  0.2741  0.5748
 5888TIP3    H117628   0.740   1.314   2.789 -0.7108  0.1117  1.0527
 5888TIP3    H217629   0.667   1.374   2.671  0.8213  0.5629  0.3106
 5889TIP3   OH217630   5.677   1.391   1.099 -0.4798 -0.5130  0.1121
 5889TIP3    H117631   5.691   1.432   1.014 -2.8954  0.0452 -0.0825
 5889TIP3    H217632   5.739   1.318   1.101  1.0099  0.6424 -1.2585
 5890TIP3   OH217633   4.269   5.094   5.825 -0.2052  0.3045 -0.7912
 5890TIP3    H117634   4.229   5.011   5.799 -0.2796  0.0040  0.2526
 5890TIP3    H217635   4.218   5.123   5.901  0.4565  0.7857 -0.5224
 5891TIP3   OH217636   0.878   3.724   4.729 -0.3730 -0.5702 -0.7169
 5891TIP3    H117637   0.899   3.813   4.756 -0.7423 -0.6121 -0.2677
 5891TIP3    H217638   0.935   3.707   4.655 -0.7095  0.2440 -1.1793
 5892TIP3   OH217639   5.987   1.422   3.666 -0.1400 -0.1161 -0.0183
 5892TIP3    H117640   6.009   1.486   3.598 -4.1428  3.9568  2.0104
 5892TIP3    H217641   5.903   1.386   3.639  0.1507 -1.6004  0.8921
 5893TIP3   OH217642   7.091   5.064   4.701  0.0040 -0.0919  0.2414
 5893TIP3    H117643   7.168   5.031   4.655 -1.0967  0.2123 -1.9422
 5893TIP3    H217644   7.112   5.155   4.722  0.9569 -0.5594  1.4184
 5894TIP3   OH217645   0.130   2.530   2.950 -0.1706 -0.5353  0.1651
 5894TIP3    H117646   0.213   2.576   2.965 -0.1871 -0.7195  0.8550
 5894TIP3    H217647   0.137   2.450   3.002  0.4375 -2.0607 -2.0925
 5895TIP3   OH217648   6.602   3.279   3.908  0.3799 -0.2869 -0.1403
 5895TIP3    H117649   6.543   3.340   3.952  2.2613  0.6414  1.2832
 5895TIP3    H217650   6.640   3.330   3.836 -1.7295 -1.4071 -2.1531
 5896TIP3   OH217651   6.776   6.780   4.390  0.6942  0.4321 -0.5796
 5896TIP3    H117652   6.850   6.763   4.448  0.3470 -0.6069 -0.4281
 5896TIP3    H217653   6.814   6.781   4.302  1.1066  1.3182 -0.3997
 5897TIP3   OH217654   3.322   1.865   3.672 -0.0204 -0.0152 -0.5452
 5897TIP3    H117655   3.227   1.872   3.674  0.0435  1.1422 -0.9992
 5897TIP3    H217656   3.353   1.955   3.660  1.0913 -0.5220 -1.6762
 5898TIP3   OH217657   1.386   4.831   3.546  0.1985 -0.6242  0.3468
 5898TIP3    H117658   1.381   4.922   3.577 -0.7961  0.1219 -1.7721
 5898TIP3    H217659   1.457   4.832   3.482  0.8483 -1.6090  1.0357
 5899TIP3   OH217660   2.086   1.040   1.027 -0.0097  0.6700 -0.3390
 5899TIP3    H117661   2.032   0.969   0.994 -0.7100  0.7336  0.6309
 5899TIP3    H217662   2.173   1.024   0.990 -0.0173 -0.9822  0.2715
 5900TIP3   OH217663   4.927   0.383   5.000  0.2690  0.2557  0.0809
 5900TIP3    H117664   4.847   0.436   4.995 -0.3145 -0.6469 -0.2560
 5900TIP3    H217665   4.995   0.446   5.026 -0.0073  1.5968 -2.1528
 5901TIP3   OH217666   5.623   6.454   0.320 -0.5838 -0.1198 -0.4192
 5901TIP3    H117667   5.620   6.503   0.402  0.8147  1.7439 -1.4219
 5901TIP3    H217668   5.569   6.504   0.259 -0.2906 -0.5743 -1.0729
 5902TIP3   OH217669   2.741   2.834   4.918 -0.3374 -0.2253 -0.3985
 5902TIP3    H117670   2.834   2.847   4.902 -0.6005  0.8288 -1.1521
 5902TIP3    H217671   2.723   2.746   4.883  0.3307 -0.3731 -0.3848
 5903TIP3   OH217672   4.211   3.081   5.008  0.6748  0.3003  0.0909
 5903TIP3    H117673   4.275   3.094   4.938 -0.1039  2.2182 -0.3409
 5903TIP3    H217674   4.261   3.039   5.079  1.5165 -1.5574 -1.5043
 5904TIP3   OH217675   3.615   3.590   1.777  0.2939 -0.1108  0.3715
 5904TIP3    H117676   3.554   3.587   1.704  0.3144  2.5081  0.1346
 5904TIP3    H217677   3.586   3.520   1.836 -2.0846  0.1683 -0.3582
 5905TIP3   OH217678   5.629   5.322   1.020 -0.1103  0.3384 -0.1269
 5905TIP3    H117679   5.557   5.371   0.981 -0.0880  0.6763  0.2478
 5905TIP3    H217680   5.708   5.366   0.988 -0.1003  1.2563  1.0808
 5906TIP3   OH217681   7.006   2.757   1.855  0.2521 -0.6933 -0.3665
 5906TIP3    H117682   6.991   2.674   1.809  0.8292 -1.6471  1.0946
 5906TIP3    H217683   6.919   2.794   1.868  0.0917 -0.0843 -2.6905
 5907TIP3   OH217684   5.799   1.544   3.891  0.1422 -0.2121 -0.5426
 5907TIP3    H117685   5.894   1.548   3.893  0.2655 -2.1516  0.2852
 5907TIP3    H217686   5.777   1.524   3.800  0.7606 -2.5093 -0.2575
 5908TIP3   OH217687   1.024   1.953   1.685  0.0706  0.6079 -0.2654
 5908TIP3    H117688   1.113   1.922   1.673  0.7894  2.2220  0.5974
 5908TIP3    H217689   0.985   1.893   1.749  1.0900  0.8784  0.6260
 5909TIP3   OH217690   6.770   0.979   5.851  0.2642  0.0083 -0.1319
 5909TIP3    H117691   6.692   1.016   5.810 -0.2638  0.0405  0.8793
 5909TIP3    H217692   6.789   1.037   5.925  1.8616  0.5964 -0.9505
 5910TIP3   OH217693   1.865   6.519   5.078 -0.0741 -0.1592 -0.1860
 5910TIP3    H117694   1.885   6.426   5.076  0.3237 -0.0851  0.2187
 5910TIP3    H217695   1.777   6.525   5.114 -0.2352 -0.3962 -0.5341
 5911TIP3   OH217696   5.765   2.999   1.435 -0.2717 -0.2587 -0.4794
 5911TIP3    H117697   5.718   2.972   1.357 -0.9981  2.1692 -0.9715
 5911TIP3    H217698   5.856   3.008   1.407 -0.3243 -0.5221 -0.7363
 5912TIP3   OH217699   4.923   2.386   2.742  0.2250 -0.5040 -0.0192
 5912TIP3    H117700   4.953   2.424   2.824  0.4440 -0.4611 -0.1177
 5912TIP3    H217701   4.884   2.302   2.767  1.4657 -1.0963 -0.0117
 5913TIP3   OH217702   6.914   1.856   0.712 -0.8291  0.6950 -0.2652
 5913TIP3    H117703   6.825   1.863   0.679 -0.7568  0.4018 -0.5324
 5913TIP3    H217704   6.905   1.811   0.796 -0.8454 -0.2645 -0.7630
 5914TIP3   OH217705   4.208   2.491   2.569  0.0804 -0.3708  0.0516
 5914TIP3    H117706   4.230   2.400   2.547  1.2198  0.0430 -0.6563
 5914TIP3    H217707   4.149   2.518   2.499 -2.1697 -1.2289  1.5050
 5915TIP3   OH217708   2.235   5.543   3.844  0.3490  0.7462  0.0847
 5915TIP3    H117709   2.299   5.545   3.915 -0.1076  1.0307  0.5026
 5915TIP3    H217710   2.221   5.450   3.826  1.6101  0.6923 -0.6966
 5916TIP3   OH217711   5.471   1.380   5.615 -0.1271 -0.3612  0.1639
 5916TIP3    H117712   5.398   1.440   5.601 -1.5678 -1.9800  0.4356
 5916TIP3    H217713   5.482   1.377   5.710 -0.2345 -0.7534  0.1619
 5917TIP3   OH217714   5.234   3.075   4.601  0.1254  0.3655  0.0851
 5917TIP3    H117715   5.251   3.162   4.636 -1.7170  0.2387  1.4118
 5917TIP3    H217716   5.277   3.016   4.663  1.1447  0.2960 -0.6667
 5918TIP3   OH217717   4.807   1.918   0.159 -0.3260 -0.2781  0.4132
 5918TIP3    H117718   4.870   1.979   0.200 -1.0871  0.5584  0.3779
 5918TIP3    H217719   4.800   1.948   0.069 -1.1148 -0.0742  0.5350
 5919TIP3   OH217720   5.782   0.995   5.501 -0.0955 -0.2105  0.1708
 5919TIP3    H117721   5.867   0.954   5.483  0.9601  1.9161 -0.0053
 5919TIP3    H217722   5.743   0.942   5.571  1.2575 -1.3662  0.0795
 5920TIP3   OH217723   4.888   5.831   1.113  0.4946 -0.2047 -0.0362
 5920TIP3    H117724   4.971   5.821   1.066  1.0886 -1.2578  1.1817
 5920TIP3    H217725   4.852   5.743   1.116 -0.4314  0.1645 -0.1071
 5921TIP3   OH217726   4.225   5.047   0.353  0.2798  0.3012  0.1463
 5921TIP3    H117727   4.134   5.072   0.334  0.4233  1.8353  1.2494
 5921TIP3    H217728   4.223   4.951   0.357 -1.6193  0.3449  1.6494
 5922TIP3   OH217729   6.588   0.919   4.454 -0.0384  0.2903 -0.3855
 5922TIP3    H117730   6.509   0.928   4.400 -0.8321  1.3470  0.8893
 5922TIP3    H217731   6.582   0.991   4.516  1.7789  0.1741 -0.0389
 5923TIP3   OH217732   2.949   5.344   0.218  0.0594 -0.0083  0.1197
 5923TIP3    H117733   2.994   5.322   0.299 -2.2191 -0.4028  1.3595
 5923TIP3    H217734   2.994   5.422   0.185  0.5728  0.5920  2.1397
 5924TIP3   OH217735   0.355   0.905   2.957  0.0647  0.2335 -0.2057
 5924TIP3    H117736   0.431   0.870   2.911  1.0586  1.7000  0.2275
 5924TIP3    H217737   0.391   0.976   3.011 -1.5577  0.6923  0.3199
 5925TIP3   OH217738   2.335   1.586   3.053  0.0362 -0.8315 -0.5681
 5925TIP3    H117739   2.309   1.595   3.145  2.8395 -2.2930  0.4844
 5925TIP3    H217740   2.364   1.495   3.045 -0.4535 -0.8225 -3.0201
 5926TIP3   OH217741   3.297   3.403   2.019  0.3764  0.2846  0.7458
 5926TIP3    H117742   3.245   3.402   1.938  0.3366  1.1710  0.7490
 5926TIP3    H217743   3.282   3.317   2.058  0.4548 -0.1827 -0.2255
 5927TIP3   OH217744   1.526   6.304   4.442 -0.1546  0.3174  0.8952
 5927TIP3    H117745   1.612   6.295   4.400 -0.6155  1.5832 -0.4008
 5927TIP3    H217746   1.532   6.250   4.520  0.8612 -1.9617 -0.6345
 5928TIP3   OH217747   3.795   3.334   1.497 -0.3865 -0.0150  0.1081
 5928TIP3    H117748   3.808   3.394   1.570  0.0713 -1.2141  1.0542
 5928TIP3    H217749   3.787   3.391   1.420 -0.4788  1.2586  1.0207
 5929TIP3   OH217750   1.158   1.826   3.294  0.0375 -0.0690 -0.2381
 5929TIP3    H117751   1.065   1.851   3.296 -0.7010 -2.4388 -1.0471
 5929TIP3    H217752   1.169   1.771   3.371  0.4378 -0.7850 -0.7957
 5930TIP3   OH217753   5.200   2.281   3.351  0.3681 -0.1526  0.5629
 5930TIP3    H117754   5.266   2.257   3.286 -0.9433 -0.1674 -0.7959
 5930TIP3    H217755   5.119   2.292   3.301 -0.8221 -0.7821  2.2674
 5931TIP3   OH217756   3.694   4.301   0.414 -0.1970 -0.7427  0.0649
 5931TIP3    H117757   3.730   4.387   0.395  1.0682 -1.1698  0.4199
 5931TIP3    H217758   3.727   4.245   0.344 -2.9171 -0.5440 -1.5553
 5932TIP3   OH217759   6.630   1.453   2.227  0.0257 -0.2418  0.1963
 5932TIP3    H117760   6.685   1.531   2.223 -2.7883  1.8835 -0.2290
 5932TIP3    H217761   6.583   1.461   2.310 -0.7604 -1.1498 -0.1407
 5933TIP3   OH217762   6.443   2.555   4.915  0.3722  0.9080 -0.4017
 5933TIP3    H117763   6.451   2.501   4.994 -1.8473  0.2040 -0.5966
 5933TIP3    H217764   6.520   2.612   4.917  0.2287  1.1270  2.4241
 5934TIP3   OH217765   0.897   6.040   5.834 -0.0471 -0.2061  0.5528
 5934TIP3    H117766   0.842   6.084   5.769  0.9221 -0.3661 -0.4041
 5934TIP3    H217767   0.926   5.960   5.790 -0.4154 -0.9681  1.6666
 5935TIP3   OH217768   2.667   0.393   1.309 -0.2679 -0.2492 -0.1113
 5935TIP3    H117769   2.587   0.446   1.300  1.2552  2.7867  2.1883
 5935TIP3    H217770   2.699   0.382   1.220 -1.7549  0.9986 -0.8581
 5936TIP3   OH217771   4.285   6.541   1.262 -0.2929  0.4617 -0.1616
 5936TIP3    H117772   4.323   6.454   1.276  0.2619  0.3485 -2.0755
 5936TIP3    H217773   4.211   6.525   1.203 -0.0301  1.3044 -0.7359
 5937TIP3   OH217774   2.510   4.824   3.788 -0.1169  0.2576  0.2987
 5937TIP3    H117775   2.545   4.876   3.860  0.4853  0.3799 -0.0740
 5937TIP3    H217776   2.561   4.743   3.790 -0.9675 -0.2799  0.8020
 5938TIP3   OH217777   2.096   4.698   5.237  0.1157 -0.0742  0.1939
 5938TIP3    H117778   2.168   4.651   5.281  0.4099 -0.5752 -0.7896
 5938TIP3    H217779   2.083   4.651   5.155 -0.0641  1.1473 -0.5107
 5939TIP3   OH217780   1.297   5.405   0.736  0.0048  0.2265  0.6760
 5939TIP3    H117781   1.228   5.390   0.670  0.0601 -0.7664  0.8264
 5939TIP3    H217782   1.306   5.500   0.740 -0.0918  0.3072 -0.6580
 5940TIP3   OH217783   4.635   2.198   4.719  0.2396 -0.0934  0.0359
 5940TIP3    H117784   4.712   2.251   4.701  0.8261 -0.7185  0.6555
 5940TIP3    H217785   4.567   2.234   4.661  1.2838 -0.2706 -1.3454
 5941TIP3   OH217786   4.935   4.402   4.805 -0.2168 -0.1094 -0.4614
 5941TIP3    H117787   4.957   4.310   4.821  0.5195 -0.0945 -1.2747
 5941TIP3    H217788   4.839   4.403   4.799 -0.3501 -0.5382  1.1201
 5942TIP3   OH217789   5.986   4.800   4.220 -0.2480 -0.0659 -0.1734
 5942TIP3    H117790   5.911   4.754   4.258  1.0225 -1.9720  0.2091
 5942TIP3    H217791   6.049   4.730   4.201  0.9723  1.3444 -1.5643
 5943TIP3   OH217792   5.335   6.408   1.978  0.0176  0.2786  0.0122
 5943TIP3    H117793   5.280   6.477   1.940 -0.1886  1.5233  2.3831
 5943TIP3    H217794   5.297   6.392   2.064 -1.1753 -4.3347 -1.1282
 5944TIP3   OH217795   0.150   4.727   0.624 -0.5481 -0.3308 -0.0374
 5944TIP3    H117796   0.189   4.808   0.590 -1.4725  0.3716  0.5054
 5944TIP3    H217797   0.219   4.687   0.676 -0.3797  0.6513  0.5314
 5945TIP3   OH217798   3.047   3.170   3.907 -0.7998  0.5719  0.4730
 5945TIP3    H117799   3.028   3.110   3.980  1.0048 -1.4968 -0.6344
 5945TIP3    H217800   3.141   3.189   3.915 -0.4073 -0.2223 -1.6142
 5946TIP3   OH217801   2.438   1.848   4.261 -0.0659 -0.3459 -0.1163
 5946TIP3    H117802   2.383   1.831   4.185 -0.1560 -0.0091 -0.1304
 5946TIP3    H217803   2.471   1.937   4.246  0.9959 -0.7770 -0.4277
 5947TIP3   OH217804   0.247   5.086   3.039 -0.2598  0.0732 -0.2615
 5947TIP3    H117805   0.318   5.044   2.989  0.4847 -0.5299  1.2419
 5947TIP3    H217806   0.173   5.085   2.979  0.7170 -0.1956 -1.5285
 5948TIP3   OH217807   5.053   0.942   4.190 -0.0954  0.1960  0.2712
 5948TIP3    H117808   5.003   1.004   4.136 -0.0154 -0.4174 -0.5210
 5948TIP3    H217809   4.987   0.885   4.229 -0.1082  0.2259  0.2930
 5949TIP3   OH217810   0.526   6.175   2.062  0.0196 -0.0931  0.0044
 5949TIP3    H117811   0.512   6.264   2.095  0.2128  0.2083 -0.7068
 5949TIP3    H217812   0.459   6.163   1.995  0.2541 -0.3338 -0.1902
 5950TIP3   OH217813   5.641   2.302   2.285  0.9195 -0.0442  0.4643
 5950TIP3    H117814   5.607   2.246   2.215  0.2875  3.3196 -2.1300
 5950TIP3    H217815   5.734   2.314   2.263  0.9058  0.4152  0.6560
 5951TIP3   OH217816   2.961   3.079   2.400 -0.0185 -0.0079 -0.2756
 5951TIP3    H117817   3.055   3.076   2.414  0.2559 -1.9325 -2.0394
 5951TIP3    H217818   2.950   3.078   2.305 -1.8192 -0.4278 -0.1152
 5952TIP3   OH217819   3.128   4.055   3.003 -0.4124 -0.0471 -0.0931
 5952TIP3    H117820   3.108   4.108   3.080  1.4698  0.8430 -0.1748
 5952TIP3    H217821   3.085   4.101   2.931  2.0315  2.0700 -0.3345
 5953TIP3   OH217822   0.278   2.654   1.671  0.0218 -0.3049  0.1895
 5953TIP3    H117823   0.218   2.579   1.674 -0.8041  0.2278 -1.6242
 5953TIP3    H217824   0.299   2.663   1.579  0.8130  1.1697  0.4976
 5954TIP3   OH217825   2.506   0.965   2.649 -0.3121  0.0210 -0.1382
 5954TIP3    H117826   2.502   1.059   2.631 -1.9776 -0.1890 -1.1092
 5954TIP3    H217827   2.481   0.925   2.566 -0.3330 -1.2603  0.4765
 5955TIP3   OH217828   4.184   0.531   4.776 -0.3393  0.1517 -0.1474
 5955TIP3    H117829   4.241   0.586   4.724  1.2515  0.0857  1.4411
 5955TIP3    H217830   4.100   0.577   4.776  0.9215  2.6760  1.1654
 5956TIP3   OH217831   0.607   5.925   1.758 -0.3465 -0.5360 -0.4209
 5956TIP3    H117832   0.551   5.886   1.824  0.3663  0.8792  1.1139
 5956TIP3    H217833   0.568   6.011   1.741 -0.1474 -0.6185 -1.3643
 5957TIP3   OH217834   2.857   2.662   4.094  0.4956  0.1940  0.1100
 5957TIP3    H117835   2.873   2.626   4.007  0.9620  2.3684 -0.7551
 5957TIP3    H217836   2.796   2.734   4.081 -0.1395  0.0007  1.7239
 5958TIP3   OH217837   1.418   5.147   5.774 -0.3433 -0.3293  0.2684
 5958TIP3    H117838   1.415   5.052   5.765 -0.0306 -0.1631 -2.8134
 5958TIP3    H217839   1.496   5.173   5.724  0.9202  1.4468  2.9267
 5959TIP3   OH217840   0.524   4.464   1.376 -0.3038 -0.0886  0.7208
 5959TIP3    H117841   0.590   4.459   1.307 -0.4210  0.5361  0.5555
 5959TIP3    H217842   0.558   4.409   1.447  0.1195 -0.2192  0.4186
 5960TIP3   OH217843   1.400   6.284   1.807  0.0603  0.3244  0.3799
 5960TIP3    H117844   1.430   6.234   1.883  0.6555  1.6700  1.0774
 5960TIP3    H217845   1.313   6.251   1.788  0.8141 -1.6936  0.1327
 5961TIP3   OH217846   6.676   2.744   1.575 -0.3672  0.0661  0.0237
 5961TIP3    H117847   6.625   2.824   1.585 -1.3127 -0.7353  1.8952
 5961TIP3    H217848   6.741   2.766   1.508  0.0261  2.7195  1.1692
 5962TIP3   OH217849   5.081   2.201   5.374  0.2436 -0.5508  0.1957
 5962TIP3    H117850   5.011   2.140   5.397 -0.5681 -0.1733 -1.1889
 5962TIP3    H217851   5.132   2.156   5.307  0.0218  0.0224 -0.3678
 5963TIP3   OH217852   2.930   2.589   5.434 -0.5579  0.3266  0.0750
 5963TIP3    H117853   2.872   2.610   5.507 -1.9634 -0.5394 -0.7239
 5963TIP3    H217854   2.871   2.579   5.359  0.7673  0.5507 -1.0505
 5964TIP3   OH217855   3.889   5.181   4.409  1.0349 -0.3575  0.4787
 5964TIP3    H117856   3.820   5.246   4.423 -0.1200 -1.6418  1.0689
 5964TIP3    H217857   3.971   5.228   4.423  0.2765  1.1665 -0.0455
 5965TIP3   OH217858   4.288   3.410   2.914  0.2200  0.5610 -0.7672
 5965TIP3    H117859   4.220   3.439   2.854  0.8006  0.7085 -1.3698
 5965TIP3    H217860   4.275   3.315   2.922  0.5488  0.4373 -1.6575
 5966TIP3   OH217861   6.971   1.001   5.107  0.4276  0.1192 -0.0841
 5966TIP3    H117862   6.919   0.921   5.096  3.0810 -1.5900 -1.4427
 5966TIP3    H217863   7.011   0.991   5.194 -0.8640  1.0770  0.6523
 5967TIP3   OH217864   5.655   5.635   5.270 -0.2164  0.5660 -0.1513
 5967TIP3    H117865   5.609   5.579   5.332  2.6149 -1.0725  0.6622
 5967TIP3    H217866   5.635   5.598   5.184 -0.1973 -0.3031  0.2102
 5968TIP3   OH217867   6.011   2.073   1.651  0.1266 -0.0855 -0.0702
 5968TIP3    H117868   6.016   1.978   1.642  0.4769  0.0662 -1.7256
 5968TIP3    H217869   6.071   2.093   1.723  0.1898 -1.0966  0.1753
 5969TIP3   OH217870   1.107   1.751   4.603 -0.2941  0.2281  0.6358
 5969TIP3    H117871   1.163   1.701   4.662 -1.5322 -2.9613 -0.6620
 5969TIP3    H217872   1.026   1.700   4.597 -1.4397  2.0690 -1.3529
 5970TIP3   OH217873   0.617   5.746   3.068 -0.0744  0.1429 -0.7106
 5970TIP3    H117874   0.705   5.783   3.063  0.0761  0.0734  0.9490
 5970TIP3    H217875   0.629   5.652   3.057 -0.1179  0.2646 -1.9013
 5971TIP3   OH217876   0.668   3.707   1.423 -0.1385  0.2707  0.1921
 5971TIP3    H117877   0.592   3.684   1.369  1.0211  0.6186 -1.6912
 5971TIP3    H217878   0.689   3.626   1.469 -1.0865 -0.0860  0.0256
 5972TIP3   OH217879   3.741   6.365   2.794 -0.0972 -0.0160  0.0254
 5972TIP3    H117880   3.669   6.426   2.810 -0.0895  0.5650 -1.9694
 5972TIP3    H217881   3.780   6.351   2.881 -2.6840 -0.4947  1.2161
 5973TIP3   OH217882   2.175   3.846   2.282 -0.1256  0.1306 -0.1598
 5973TIP3    H117883   2.083   3.865   2.266 -0.3080  0.1270  0.8060
 5973TIP3    H217884   2.200   3.906   2.352 -0.3947 -2.2099  2.1185
 5974TIP3   OH217885   0.368   2.955   1.164 -0.1189 -0.3303  0.1371
 5974TIP3    H117886   0.373   3.015   1.239 -1.2345 -1.2777  1.0040
 5974TIP3    H217887   0.385   2.869   1.202 -0.5107 -0.7999 -0.7425
 5975TIP3   OH217888   6.664   6.346   1.215 -0.3439 -0.0571  0.0590
 5975TIP3    H117889   6.710   6.263   1.228  0.0250  0.0372 -0.6271
 5975TIP3    H217890   6.588   6.324   1.162 -0.8534 -0.1319  0.7989
 5976TIP3   OH217891   4.066   0.620   4.041  0.5140  0.0762 -0.4910
 5976TIP3    H117892   4.084   0.667   4.123  2.0166 -2.7080  0.9444
 5976TIP3    H217893   3.978   0.584   4.053 -0.3594  1.8411 -1.3046
 5977TIP3   OH217894   0.690   3.313   2.629  0.3953  0.0161  0.1185
 5977TIP3    H117895   0.672   3.289   2.538  1.0314 -0.5328  0.1287
 5977TIP3    H217896   0.608   3.351   2.661  0.3114  0.6469 -0.8202
 5978TIP3   OH217897   1.407   0.621   5.547 -0.2756 -0.0514  0.0608
 5978TIP3    H117898   1.466   0.694   5.529  0.2898 -0.1747  1.2990
 5978TIP3    H217899   1.321   0.652   5.519  0.0804  0.8058 -0.1053
 5979TIP3   OH217900   1.146   2.059   2.809  0.0814 -0.2908 -0.2928
 5979TIP3    H117901   1.154   2.006   2.729  0.6728 -0.7912  0.0894
 5979TIP3    H217902   1.063   2.030   2.848  0.1816 -0.6207 -0.3181
 5980TIP3   OH217903   4.758   1.497   3.622 -0.0724  0.8665 -0.2499
 5980TIP3    H117904   4.783   1.428   3.561 -0.3992  1.2990 -0.8750
 5980TIP3    H217905   4.788   1.465   3.707  0.4077  0.2740 -0.6348
 5981TIP3   OH217906   2.423   0.895   2.110  0.0495 -0.1486 -0.3066
 5981TIP3    H117907   2.455   0.813   2.073 -1.2463 -1.8697  2.1500
 5981TIP3    H217908   2.354   0.923   2.050 -0.6402 -1.7767 -0.3168
 5982TIP3   OH217909   4.112   0.837   4.673 -0.4214  0.0061 -0.0411
 5982TIP3    H117910   4.133   0.882   4.754 -4.4279  0.9561  0.7098
 5982TIP3    H217911   4.035   0.883   4.639 -1.6658 -3.1498 -1.9715
 5983TIP3   OH217912   2.130   6.039   0.489 -0.2735 -0.0171 -0.2728
 5983TIP3    H117913   2.124   6.022   0.395  1.3110 -0.2060 -0.3795
 5983TIP3    H217914   2.184   6.118   0.495  0.4064 -0.5179  0.4745
 5984TIP3   OH217915   4.545   1.570   3.374  0.2189 -0.0350 -0.7860
 5984TIP3    H117916   4.622   1.596   3.324 -0.2905  0.6691 -1.2247
 5984TIP3    H217917   4.471   1.605   3.324 -0.3602 -0.3427 -0.1566
 5985TIP3   OH217918   6.261   1.569   0.391  0.4017  0.2490  0.1555
 5985TIP3    H117919   6.233   1.659   0.407  1.3723  0.5647  0.1018
 5985TIP3    H217920   6.201   1.516   0.443 -3.5136  0.5203 -3.4986
 5986TIP3   OH217921   6.715   5.443   3.436  0.2770  0.4480  0.2194
 5986TIP3    H117922   6.622   5.433   3.457  0.2481  1.4278  0.6171
 5986TIP3    H217923   6.756   5.363   3.468 -0.4691 -0.1530 -0.2655
 5987TIP3   OH217924   0.495   3.358   2.010  0.0997  0.4831 -0.6019
 5987TIP3    H117925   0.575   3.353   2.063 -0.5123  1.7704  0.5223
 5987TIP3    H217926   0.521   3.409   1.933  0.9233 -1.1336 -1.4336
 5988TIP3   OH217927   5.437   5.259   4.787 -0.2956  0.1454  0.1253
 5988TIP3    H117928   5.489   5.225   4.859 -3.8698  0.2486  3.0454
 5988TIP3    H217929   5.499   5.266   4.714  2.8023 -3.1764  2.1178
 5989TIP3   OH217930   3.432   2.436   2.283 -0.0186  0.1424  0.0769
 5989TIP3    H117931   3.394   2.505   2.229 -1.8298 -0.1090  0.9530
 5989TIP3    H217932   3.448   2.478   2.368  0.2314 -0.1571  0.1800
 5990TIP3   OH217933   4.253   0.402   4.065  0.3540 -0.4162 -0.2582
 5990TIP3    H117934   4.195   0.478   4.055  0.0371 -0.2601  2.1663
 5990TIP3    H217935   4.202   0.339   4.115  0.9346 -1.9222 -1.4756
 5991TIP3   OH217936   0.462   2.136   5.718  0.1623 -0.0249 -0.3548
 5991TIP3    H117937   0.508   2.054   5.737  0.5072  0.5630  1.5261
 5991TIP3    H217938   0.374   2.123   5.755 -0.7772 -0.5860 -2.6179
 5992TIP3   OH217939   4.482   1.584   2.455 -0.9651 -0.2834 -0.1302
 5992TIP3    H117940   4.463   1.654   2.518  1.3759 -0.6961  1.1332
 5992TIP3    H217941   4.481   1.629   2.370 -0.8460  1.0300  0.5228
 5993TIP3   OH217942   7.135   6.425   0.899  0.1769 -0.0583  0.0484
 5993TIP3    H117943   7.140   6.380   0.984  0.4636 -1.4539 -0.6850
 5993TIP3    H217944   7.064   6.488   0.911  0.8494  0.4560  1.6349
 5994TIP3   OH217945   3.288   2.601   1.115 -0.3836  0.2031 -0.4256
 5994TIP3    H117946   3.242   2.667   1.064 -0.0071  0.5043 -0.3849
 5994TIP3    H217947   3.328   2.650   1.186  0.7243  0.0883 -0.9502
 5995TIP3   OH217948   1.642   1.654   4.535  0.5693  0.2531 -0.3260
 5995TIP3    H117949   1.680   1.582   4.486  0.6119 -0.9053  1.3248
 5995TIP3    H217950   1.648   1.729   4.477  0.6633 -1.0347 -2.0388
 5996TIP3   OH217951   1.924   4.600   2.174 -0.3910  0.6187  0.0698
 5996TIP3    H117952   1.961   4.679   2.214  0.7804 -0.0080  0.2617
 5996TIP3    H217953   1.999   4.544   2.159 -1.1716 -0.3120 -0.4209
 5997TIP3   OH217954   6.612   6.031   3.391  0.0877  0.2185 -0.0976
 5997TIP3    H117955   6.565   6.027   3.474 -0.1332  1.6562 -0.1138
 5997TIP3    H217956   6.550   6.074   3.332  0.0646 -1.1999 -1.1499
 5998TIP3   OH217957   4.400   6.320   3.030  0.0645 -0.0318 -0.2150
 5998TIP3    H117958   4.456   6.294   3.104 -2.2351 -0.2159  1.5589
 5998TIP3    H217959   4.442   6.280   2.954  2.9882  0.8480  0.7919
 5999TIP3   OH217960   0.708   3.582   2.374  0.6969 -0.0281  0.4630
 5999TIP3    H117961   0.652   3.638   2.428  1.1453 -0.0124  0.9303
 5999TIP3    H217962   0.782   3.560   2.432 -0.1706 -2.3188  0.8296
 6000TIP3   OH217963   3.381   0.550   1.655 -0.5112  0.1694  0.2944
 6000TIP3    H117964   3.335   0.547   1.739 -0.3684 -1.0769  0.3513
 6000TIP3    H217965   3.325   0.499   1.596 -0.5493  0.9389 -0.3384
 6001TIP3   OH217966   5.831   4.711   0.887  0.1636 -0.2997 -0.0272
 6001TIP3    H117967   5.855   4.659   0.964  0.2608  1.3628  1.1370
 6001TIP3    H217968   5.828   4.649   0.815  2.9884 -1.4773  0.7305
 6002TIP3   OH217969   1.031   5.351   5.334  0.7947  0.1970 -0.8836
 6002TIP3    H117970   0.965   5.401   5.286  1.0258  2.2988  0.8188
 6002TIP3    H217971   0.986   5.324   5.415  0.7674 -2.2246 -1.6316
 6003TIP3   OH217972   0.274   2.447   5.440  0.2508 -0.0956  0.0933
 6003TIP3    H117973   0.356   2.445   5.491 -0.8307 -0.7743  1.8808
 6003TIP3    H217974   0.226   2.522   5.476  0.7299  1.3808 -2.1128
 6004TIP3   OH217975   6.996   5.358   3.700 -0.3154  0.2275  0.0245
 6004TIP3    H117976   7.080   5.390   3.732  0.2309 -0.4206 -0.7185
 6004TIP3    H217977   6.978   5.411   3.622 -0.6903  0.4823  0.2787
 6005TIP3   OH217978   0.729   6.129   5.112 -0.0259  0.3269 -0.0168
 6005TIP3    H117979   0.818   6.094   5.101  0.3422  1.4612 -0.8186
 6005TIP3    H217980   0.740   6.224   5.115 -1.2244  0.5017 -0.3285
 6006TIP3   OH217981   1.906   0.690   5.689  0.1033  0.2743 -0.5646
 6006TIP3    H117982   1.920   0.596   5.676 -0.7149  0.2568 -1.4828
 6006TIP3    H217983   1.962   0.713   5.763  0.9854 -0.7631 -0.8763
 6007TIP3   OH217984   5.650   4.975   4.681 -0.1931 -0.4325 -0.1898
 6007TIP3    H117985   5.719   4.921   4.642 -1.4904 -1.1319 -1.6056
 6007TIP3    H217986   5.597   4.913   4.731  0.0927  0.0719  0.7473
 6008TIP3   OH217987   5.859   2.077   2.172 -0.1153 -0.2028 -0.1183
 6008TIP3    H117988   5.878   2.169   2.190 -0.8357 -0.2248  0.8234
 6008TIP3    H217989   5.945   2.039   2.154  0.2886  0.4817  0.2999
 6009TIP3   OH217990   6.016   2.841   1.656  0.2619 -0.2021 -0.4147
 6009TIP3    H117991   6.004   2.936   1.659  2.3543  0.1568 -1.4940
 6009TIP3    H217992   5.962   2.808   1.728 -2.1571  1.5706 -1.2590
 6010TIP3   OH217993   3.926   3.509   4.226  0.0466  0.6055  0.2222
 6010TIP3    H117994   3.912   3.491   4.133  0.4072  1.4240  0.0052
 6010TIP3    H217995   4.010   3.555   4.229 -0.0106  0.6656  0.9433
 6011TIP3   OH217996   2.979   0.626   3.252  0.2628 -0.1338  0.2528
 6011TIP3    H117997   2.966   0.543   3.297 -3.3943  1.0177  1.6805
 6011TIP3    H217998   2.989   0.690   3.322  1.7979  0.8428 -0.8007
 6012TIP3   OH217999   6.460   3.840   4.274  0.3132 -0.4792  0.2300
 6012TIP3    H118000   6.505   3.907   4.326  0.3239 -0.1232 -0.2359
 6012TIP3    H218001   6.367   3.856   4.289  0.2468  0.9348 -1.4638
 6013TIP3   OH218002   2.792   2.863   5.723  0.1042  0.6849  0.5284
 6013TIP3    H118003   2.870   2.851   5.777  1.4172 -1.3595 -1.6181
 6013TIP3    H218004   2.809   2.942   5.673  0.7306  0.3594  0.2157
 6014TIP3   OH218005   0.613   3.449   5.264  0.4319 -0.3801 -0.1124
 6014TIP3    H118006   0.693   3.422   5.220 -0.5231 -1.0234 -1.5460
 6014TIP3    H218007   0.596   3.537   5.231  0.6105 -0.1926  0.2914
 6015TIP3   OH218008   0.143   6.325   1.742  0.2880  0.1731 -0.2767
 6015TIP3    H118009   0.109   6.272   1.670  0.6794  0.2754 -0.5414
 6015TIP3    H218010   0.225   6.282   1.767 -0.6038 -0.8012  1.1824
 6016TIP3   OH218011   1.246   2.630   1.082  0.2115 -0.1399 -0.0427
 6016TIP3    H118012   1.320   2.691   1.088 -0.1109  0.3956 -1.2263
 6016TIP3    H218013   1.276   2.563   1.021  0.7860 -1.5484  1.6894
 6017TIP3   OH218014   3.510   3.174   0.894 -0.3606 -0.5136 -0.3290
 6017TIP3    H118015   3.437   3.128   0.935 -0.0527  0.8157  1.8455
 6017TIP3    H218016   3.588   3.138   0.938  0.0058  0.6624  0.0229
 6018TIP3   OH218017   2.006   1.077   5.723 -0.0871 -0.1536  0.4089
 6018TIP3    H118018   2.043   1.123   5.798  1.2155  0.1626 -0.4164
 6018TIP3    H218019   2.054   0.995   5.719 -1.3027 -0.9269  0.9001
 6019TIP3   OH218020   0.932   0.902   0.738 -0.0401 -0.7224 -0.3511
 6019TIP3    H118021   0.915   0.813   0.708  0.6038 -1.3981  1.2061
 6019TIP3    H218022   0.977   0.944   0.664 -0.5671 -1.6081 -1.1865
 6020TIP3   OH218023   0.686   0.671   3.022 -0.0620  0.0920  0.0924
 6020TIP3    H118024   0.718   0.716   3.100 -2.1021 -0.3936  1.2720
 6020TIP3    H218025   0.692   0.737   2.953  2.5283  0.2918  0.3776
 6021TIP3   OH218026   2.630   0.467   1.685 -0.4863 -0.2049  0.4231
 6021TIP3    H118027   2.661   0.436   1.770  0.2663 -1.4655 -0.2871
 6021TIP3    H218028   2.641   0.393   1.626  1.5275  1.4148 -1.4083
 6022TIP3   OH218029   2.638   3.245   2.114  0.4670  0.0142 -0.0659
 6022TIP3    H118030   2.633   3.271   2.022 -1.2040 -0.2638 -0.0921
 6022TIP3    H218031   2.714   3.187   2.119  0.9482  0.5359 -1.1384
 6023TIP3   OH218032   6.726   1.087   3.203  0.0093 -0.2349  0.3642
 6023TIP3    H118033   6.660   1.143   3.244 -3.1623 -1.7115 -2.2883
 6023TIP3    H218034   6.756   1.136   3.127 -0.4630 -0.8474 -0.2269
 6024TIP3   OH218035   4.395   5.794   2.770  0.0870  0.1095 -0.2432
 6024TIP3    H118036   4.483   5.801   2.734 -0.0247  0.2175 -0.4958
 6024TIP3    H218037   4.405   5.818   2.862  0.3878 -0.2500 -0.1781
 6025TIP3   OH218038   0.214   4.089   2.031  0.3425 -0.0179 -0.7573
 6025TIP3    H118039   0.224   4.180   2.061  2.1265 -0.4252  0.0583
 6025TIP3    H218040   0.210   4.096   1.936  1.5092  0.8856 -0.7709
 6026TIP3   OH218041   6.285   1.662   0.860  0.4666 -0.6260  0.1617
 6026TIP3    H118042   6.202   1.701   0.887 -0.9437 -2.9043 -0.6806
 6026TIP3    H218043   6.298   1.694   0.771  0.5602 -0.2197  0.3155
 6027TIP3   OH218044   4.660   4.876   2.164 -0.7062 -0.3444  0.1281
 6027TIP3    H118045   4.578   4.879   2.115 -1.6610 -1.1362  1.5917
 6027TIP3    H218046   4.632   4.874   2.256  0.9626 -0.4419  0.6525
 6028TIP3   OH218047   4.661   0.427   5.036  0.3056  0.8557  0.5389
 6028TIP3    H118048   4.616   0.374   4.971  0.4143  1.6608 -0.2014
 6028TIP3    H218049   4.630   0.516   5.021  2.1241  1.4325  0.0203
 6029TIP3   OH218050   3.471   5.987   0.077 -0.0288 -0.3438 -0.3385
 6029TIP3    H118051   3.546   6.035   0.114  1.0396 -1.0887 -1.4900
 6029TIP3    H218052   3.417   5.966   0.153  1.2896 -0.4043  0.6176
 6030TIP3   OH218053   0.344   6.091   5.177 -0.4098 -0.0930  0.6384
 6030TIP3    H118054   0.304   6.153   5.117  0.9532 -0.8028 -1.0943
 6030TIP3    H218055   0.281   6.020   5.185 -0.5564 -0.0463 -0.0750
 6031TIP3   OH218056   6.187   0.345   5.516 -0.4463 -0.0836 -0.1755
 6031TIP3    H118057   6.180   0.292   5.596 -0.8250 -0.6307 -0.5567
 6031TIP3    H218058   6.272   0.387   5.522 -0.4497 -0.1595  0.4945
 6032TIP3   OH218059   5.243   3.014   2.116  0.0163  0.1007 -0.2446
 6032TIP3    H118060   5.169   2.961   2.145  1.0256 -1.2205  0.0261
 6032TIP3    H218061   5.264   3.069   2.191 -1.3314  1.2714 -0.6818
 6033TIP3   OH218062   4.459   4.626   3.583  0.1476 -0.5625 -0.2061
 6033TIP3    H118063   4.530   4.586   3.634 -0.0467  0.8125  1.2242
 6033TIP3    H218064   4.502   4.689   3.526  0.0691  0.8499  1.2300
 6034TIP3   OH218065   1.406   0.077   3.142  0.1251  0.6118  0.6911
 6034TIP3    H118066   1.316   0.058   3.115  0.1224 -1.3418  1.8686
 6034TIP3    H218067   1.396   0.122   3.226  0.1988 -1.2348  1.7519
 6035TIP3   OH218068   1.976   2.815   4.499 -0.1974  0.0356 -0.0814
 6035TIP3    H118069   1.903   2.865   4.535 -1.4890 -1.5550 -0.4017
 6035TIP3    H218070   2.030   2.880   4.455 -1.9471  1.1407 -0.6929
 6036TIP3   OH218071   3.515   5.004   5.179 -0.0420 -0.1986  0.3376
 6036TIP3    H118072   3.596   5.011   5.129 -0.6791 -1.5933 -0.9541
 6036TIP3    H218073   3.534   4.939   5.246 -0.2967 -1.0588 -0.4152
 6037TIP3   OH218074   5.294   1.505   4.729  0.0815 -0.3575  0.1234
 6037TIP3    H118075   5.227   1.574   4.726  1.4087  0.9786 -0.1226
 6037TIP3    H218076   5.343   1.517   4.648  2.1810  0.3526  1.4395
 6038TIP3   OH218077   4.353   0.836   0.643  0.6850  0.7282 -0.2675
 6038TIP3    H118078   4.397   0.775   0.702  1.3526  1.2255 -0.2347
 6038TIP3    H218079   4.279   0.787   0.608  1.7521 -0.4307 -0.9873
 6039TIP3   OH218080   0.527   4.882   0.661  0.0160 -0.1885 -0.0188
 6039TIP3    H118081   0.588   4.861   0.590  0.3939 -1.6226  0.6825
 6039TIP3    H218082   0.583   4.916   0.731 -0.4774  2.2979 -0.7515
 6040TIP3   OH218083   3.598   2.495   5.195 -0.3159 -0.5234  0.0076
 6040TIP3    H118084   3.549   2.564   5.239 -0.2081  1.8367 -3.2314
 6040TIP3    H218085   3.531   2.436   5.161 -0.6729  0.2396 -0.6328
 6041TIP3   OH218086   2.242   3.201   5.328  0.1675  0.4704  0.1825
 6041TIP3    H118087   2.291   3.158   5.257  0.6989 -1.5407  1.6648
 6041TIP3    H218088   2.232   3.292   5.300  0.9707 -0.0963 -2.1248
 6042TIP3   OH218089   5.973   1.229   5.151  0.1092 -0.0652 -0.2105
 6042TIP3    H118090   5.934   1.228   5.238  0.4334  0.7941 -0.0418
 6042TIP3    H218091   5.938   1.308   5.110  1.9746  0.9801  0.1038
 6043TIP3   OH218092   2.053   2.580   1.974  0.1927 -0.5987  0.4016
 6043TIP3    H118093   2.062   2.603   2.067 -0.0545 -2.8944  1.0762
 6043TIP3    H218094   1.972   2.528   1.971 -0.0892 -0.1236 -1.2208
 6044TIP3   OH218095   6.787   3.222   3.666  0.0691  0.0513 -0.1440
 6044TIP3    H118096   6.804   3.313   3.692  2.0805 -0.8068  1.8940
 6044TIP3    H218097   6.733   3.229   3.587  1.3433  3.0215 -0.8904
 6045TIP3   OH218098   4.152   3.235   0.443 -0.3089 -0.5223  0.1057
 6045TIP3    H118099   4.085   3.172   0.471  0.5471 -0.6511  2.0143
 6045TIP3    H218100   4.117   3.320   0.468  0.3590 -0.6200  1.4778
 6046TIP3   OH218101   0.854   6.266   3.891 -0.2343  0.2138  0.3186
 6046TIP3    H118102   0.867   6.258   3.986  1.5204  0.0570  0.0844
 6046TIP3    H218103   0.942   6.270   3.855 -0.8553  2.0413 -1.1776
 6047TIP3   OH218104   6.935   2.860   3.231  0.1837  0.0234  0.2252
 6047TIP3    H118105   6.876   2.903   3.292 -0.4033 -1.1661  0.5203
 6047TIP3    H218106   6.890   2.864   3.147 -0.9084 -1.8654  0.6507
 6048TIP3   OH218107   5.847   4.755   1.456  0.2870 -0.3442  0.2534
 6048TIP3    H118108   5.833   4.772   1.363  1.6267  0.2204  0.1391
 6048TIP3    H218109   5.766   4.786   1.498 -0.3392 -0.6328 -0.7083
 6049TIP3   OH218110   1.594   0.275   3.617 -0.0655 -0.5820  0.0468
 6049TIP3    H118111   1.625   0.187   3.595  0.2544 -0.6076  0.5669
 6049TIP3    H218112   1.555   0.265   3.704  0.4604 -0.1159  0.3463
 6050TIP3   OH218113   1.023   5.077   4.543 -0.3347 -0.2149 -0.7174
 6050TIP3    H118114   1.024   5.153   4.601 -1.0294 -0.0421 -0.9182
 6050TIP3    H218115   1.108   5.080   4.498  0.2199 -0.3657  0.2858
 6051TIP3   OH218116   6.776   3.690   3.940 -0.0774  0.0734  0.5448
 6051TIP3    H118117   6.720   3.671   4.015  0.0907  1.1805  0.9770
 6051TIP3    H218118   6.841   3.752   3.975  0.6083 -0.1656 -0.2740
 6052TIP3   OH218119   6.865   1.609   1.418  0.2642 -0.5146  0.1270
 6052TIP3    H118120   6.858   1.704   1.407  1.2742 -0.3895  0.4437
 6052TIP3    H218121   6.778   1.576   1.399  0.6179  0.1405 -3.1110
 6053TIP3   OH218122   1.326   6.314   0.112  0.2133  0.1234  0.1666
 6053TIP3    H118123   1.402   6.366   0.088  1.4232 -2.2096 -1.3969
 6053TIP3    H218124   1.327   6.313   0.208  1.4155  1.1457  0.1872
 6054TIP3   OH218125   3.613   4.810   1.472  0.7455  0.3711 -1.0068
 6054TIP3    H118126   3.636   4.798   1.564  1.3111  0.2375 -1.1624
 6054TIP3    H218127   3.529   4.765   1.462  0.6502  0.4421 -0.5412
 6055TIP3   OH218128   6.226   0.477   0.248  0.3316  0.6045 -0.3726
 6055TIP3    H118129   6.165   0.438   0.186 -0.9835  0.1470  1.1490
 6055TIP3    H218130   6.312   0.463   0.209 -0.3321 -1.0550 -1.3423
 6056TIP3   OH218131   4.681   4.094   0.081 -0.8148 -0.1446 -0.3565
 6056TIP3    H118132   4.613   4.073   0.145  1.3783  0.0203  2.2007
 6056TIP3    H218133   4.748   4.027   0.093  0.8323  1.3804 -0.6157
 6057TIP3   OH218134   7.075   3.390   3.963 -0.5113  0.2433 -0.0649
 6057TIP3    H118135   7.041   3.334   3.893  0.4618  1.1152 -1.2607
 6057TIP3    H218136   7.170   3.389   3.951 -0.3485  0.6089  1.0978
 6058TIP3   OH218137   4.316   3.298   1.152  0.4685 -0.8855 -0.3468
 6058TIP3    H118138   4.323   3.258   1.239  2.2749 -0.5439 -0.2829
 6058TIP3    H218139   4.392   3.356   1.147 -1.7725  2.2463 -0.6186
 6059TIP3   OH218140   6.405   2.662   4.422 -0.2331  0.2943 -0.0229
 6059TIP3    H118141   6.336   2.727   4.433  0.6058  0.9544  1.6703
 6059TIP3    H218142   6.464   2.676   4.496  0.2826 -2.0481  0.0866
 6060TIP3   OH218143   4.508   2.683   0.433  0.0227  0.7239 -0.0167
 6060TIP3    H118144   4.470   2.619   0.493 -0.9035 -0.1942 -1.4958
 6060TIP3    H218145   4.554   2.745   0.489  0.4025 -0.8685  1.5167
 6061TIP3   OH218146   5.308   6.395   5.222 -0.0057 -0.0819 -0.2007
 6061TIP3    H118147   5.236   6.444   5.261 -0.4017 -1.1885  0.4956
 6061TIP3    H218148   5.266   6.332   5.164  0.2339 -1.8823  1.4715
 6062TIP3   OH218149   1.002   5.414   1.444  0.6014 -0.4082 -0.2140
 6062TIP3    H118150   1.053   5.385   1.369 -0.1163 -2.8842  0.1741
 6062TIP3    H218151   1.016   5.347   1.511 -1.2349  0.0857  0.7337
 6063TIP3   OH218152   0.462   5.702   5.608  0.3685  0.3567 -0.1709
 6063TIP3    H118153   0.431   5.773   5.665 -0.8536 -1.8007  2.0280
 6063TIP3    H218154   0.410   5.712   5.528 -0.2533  1.5311  0.3482
 6064TIP3   OH218155   6.933   6.095   4.479 -0.2873  0.1580  0.3142
 6064TIP3    H118156   6.841   6.120   4.472 -0.8459 -1.4653  1.2098
 6064TIP3    H218157   6.953   6.058   4.393 -0.7882 -0.3902  0.4223
 6065TIP3   OH218158   2.651   3.355   5.312  0.2098  0.2483  0.2822
 6065TIP3    H118159   2.670   3.312   5.396  2.6813 -0.0363 -0.3297
 6065TIP3    H218160   2.656   3.449   5.332  0.5811  0.1837  0.5151
 6066TIP3   OH218161   6.776   1.131   0.945  0.0490 -0.5737  0.1714
 6066TIP3    H118162   6.851   1.073   0.960 -0.1324 -0.5965  1.0867
 6066TIP3    H218163   6.700   1.073   0.947 -0.0417 -0.4631 -0.1009
 6067TIP3   OH218164   2.386   2.774   0.831  0.1227  0.0012 -0.5157
 6067TIP3    H118165   2.336   2.697   0.859  1.5724 -0.9200 -0.3949
 6067TIP3    H218166   2.468   2.739   0.796  0.5676  1.4596 -1.0171
 6068TIP3   OH218167   6.786   1.945   3.739 -0.2543 -0.2702  0.3788
 6068TIP3    H118168   6.838   1.864   3.747 -0.5109 -0.2589  2.8149
 6068TIP3    H218169   6.818   2.000   3.810  0.4132  2.1330 -1.6597
 6069TIP3   OH218170   2.574   5.739   4.874 -0.0802  0.2697  0.7868
 6069TIP3    H118171   2.629   5.745   4.952  1.6777  0.3305 -0.3986
 6069TIP3    H218172   2.559   5.645   4.863  0.1764  0.2178  0.8631
 6070TIP3   OH218173   1.364   3.586   0.912 -0.0473 -0.0659  1.0283
 6070TIP3    H118174   1.321   3.501   0.918  2.4582 -1.4498  0.8224
 6070TIP3    H218175   1.367   3.606   0.819 -1.1543  0.5820  1.1120
 6071TIP3   OH218176   2.058   4.240   3.359  0.8118 -0.0289  0.1598
 6071TIP3    H118177   2.001   4.164   3.354 -0.6408  0.8575  1.9914
 6071TIP3    H218178   2.129   4.214   3.418  1.8772 -0.8216 -1.3932
 6072TIP3   OH218179   1.029   4.832   1.676 -0.2424 -0.0745  0.2624
 6072TIP3    H118180   1.022   4.781   1.756 -0.7616  1.6550  1.3822
 6072TIP3    H218181   0.939   4.851   1.651 -0.0804 -0.4355 -0.6418
 6073TIP3   OH218182   6.296   5.401   3.962 -0.3422 -0.1865  0.0733
 6073TIP3    H118183   6.208   5.363   3.954 -0.4979  0.2344 -0.2925
 6073TIP3    H218184   6.285   5.492   3.934  0.1614 -0.0592  0.2774
 6074TIP3   OH218185   2.077   2.057   3.659  0.1572  0.0786  0.2263
 6074TIP3    H118186   2.165   2.033   3.627  1.1063  2.5771  0.7448
 6074TIP3    H218187   2.053   2.133   3.607 -0.7603  0.7355  1.5607
 6075TIP3   OH218188   4.788   1.003   5.558  0.1379  0.0356 -0.5532
 6075TIP3    H118189   4.801   0.924   5.506 -1.7761  0.3680 -1.6401
 6075TIP3    H218190   4.699   1.030   5.539 -0.4843  0.5424  2.4691
 6076TIP3   OH218191   3.115   3.832   5.809 -0.1425  0.4283  0.3461
 6076TIP3    H118192   3.078   3.769   5.870  0.3168 -1.1962 -0.9895
 6076TIP3    H218193   3.210   3.825   5.821 -0.0327 -0.1414 -0.7395
 6077TIP3   OH218194   1.627   5.694   1.997 -0.1749 -0.0600  0.0150
 6077TIP3    H118195   1.699   5.638   2.026  1.3222  1.8741  0.2765
 6077TIP3    H218196   1.654   5.782   2.022 -2.9847  0.6979  0.7384
 6078TIP3   OH218197   0.082   1.592   4.756 -0.2628  0.0232  0.1240
 6078TIP3    H118198   0.036   1.669   4.724 -0.5303 -0.2813 -0.2335
 6078TIP3    H218199   0.173   1.620   4.763 -0.1660  0.0608 -1.0545
 6079TIP3   OH218200   6.624   4.015   1.562 -0.2744  0.0653 -0.6754
 6079TIP3    H118201   6.545   4.006   1.508 -0.9621 -0.6298  0.4260
 6079TIP3    H218202   6.632   3.932   1.609 -0.1952  0.9557  0.9625
 6080TIP3   OH218203   1.672   4.599   2.305  0.7497 -0.7530  0.2583
 6080TIP3    H118204   1.711   4.592   2.392  1.7174  0.7919 -0.0024
 6080TIP3    H218205   1.744   4.581   2.245 -0.1199 -2.7515 -0.2794
 6081TIP3   OH218206   5.896   2.960   0.354  0.5950 -0.0595  0.3515
 6081TIP3    H118207   5.878   2.964   0.260  1.1625  0.1972  0.2527
 6081TIP3    H218208   5.920   2.868   0.369 -2.1199 -0.8255  0.7509
 6082TIP3   OH218209   1.705   6.609   4.178  0.1319  0.7955 -0.0770
 6082TIP3    H118210   1.778   6.591   4.118  0.1886  1.1527 -0.1153
 6082TIP3    H218211   1.629   6.568   4.137  0.6338 -1.2180  0.8575
 6083TIP3   OH218212   7.115   1.548   3.159  0.3936 -0.4639  0.0259
 6083TIP3    H118213   7.168   1.583   3.087  1.3686 -2.2343 -0.1606
 6083TIP3    H218214   7.144   1.597   3.236  0.7312  0.0997 -0.4475
 6084TIP3   OH218215   7.088   5.476   2.188 -0.3847  0.1647 -0.3639
 6084TIP3    H118216   7.046   5.410   2.133 -0.3985 -0.0929 -0.0504
 6084TIP3    H218217   7.036   5.555   2.174 -1.0769 -0.1857  0.1243
 6085TIP3   OH218218   1.511   4.049   1.970  0.2127  0.0709 -0.0132
 6085TIP3    H118219   1.443   4.106   1.936  0.0403  0.5598  1.0979
 6085TIP3    H218220   1.576   4.044   1.900  1.1682  3.1783  0.4877
 6086TIP3   OH218221   2.676   5.981   2.593 -0.0150 -0.1369 -0.1329
 6086TIP3    H118222   2.656   5.895   2.630 -0.3302 -0.4869 -1.0966
 6086TIP3    H218223   2.733   6.022   2.658 -1.8713 -0.0787  1.5575
 6087TIP3   OH218224   1.009   3.736   0.894  0.8576 -0.0547  0.0424
 6087TIP3    H118225   0.989   3.740   0.988  2.1939  1.7226  0.3151
 6087TIP3    H218226   0.923   3.736   0.852  0.1916 -2.1867  1.2349
 6088TIP3   OH218227   4.116   5.174   3.597  0.8433  1.0140 -0.0290
 6088TIP3    H118228   4.205   5.173   3.561  1.2163  2.1504  0.8182
 6088TIP3    H218229   4.068   5.236   3.541  0.8735  1.2089  0.1591
 6089TIP3   OH218230   4.681   0.766   2.814  0.4052 -0.3289  0.1902
 6089TIP3    H118231   4.754   0.826   2.796 -1.2881  2.0503  0.6560
 6089TIP3    H218232   4.708   0.718   2.892  1.8826 -0.2654 -0.2533
 6090TIP3   OH218233   3.571   4.170   5.013 -0.4316 -0.2164  0.5968
 6090TIP3    H118234   3.496   4.223   5.038  0.9359  1.7128  0.7880
 6090TIP3    H218235   3.586   4.190   4.921  1.1549  1.1859  1.1049
 6091TIP3   OH218236   1.134   2.988   5.412  0.1373  0.0747 -0.4297
 6091TIP3    H118237   1.134   2.975   5.506  0.4070 -0.7358 -0.5302
 6091TIP3    H218238   1.203   3.053   5.396 -0.3236  0.6664 -0.0190
 6092TIP3   OH218239   1.304   3.521   4.905 -0.2163  0.2063 -0.1602
 6092TIP3    H118240   1.227   3.541   4.852  0.1635 -0.2578 -0.8965
 6092TIP3    H218241   1.268   3.486   4.986 -0.7789 -1.7497 -1.1981
 6093TIP3   OH218242   4.340   4.084   0.849  0.1243 -0.3635  0.3519
 6093TIP3    H118243   4.304   4.149   0.788  0.0303 -1.4985 -0.8326
 6093TIP3    H218244   4.269   4.070   0.913 -0.0043  0.3893  0.3842
 6094TIP3   OH218245   5.115   0.139   1.176 -0.2691  0.0022  0.1615
 6094TIP3    H118246   5.210   0.137   1.163 -0.1592 -1.5421  1.0314
 6094TIP3    H218247   5.080   0.081   1.109 -0.3832 -1.2304  1.2429
 6095TIP3   OH218248   0.404   2.559   1.885 -0.4450  0.0507  0.2033
 6095TIP3    H118249   0.360   2.617   1.823  0.0432  0.2440  0.0324
 6095TIP3    H218250   0.442   2.618   1.951 -0.3661 -0.1067  0.3013
 6096TIP3   OH218251   2.417   0.487   2.070  0.1366 -0.4499  0.1459
 6096TIP3    H118252   2.471   0.565   2.061  0.0862  0.1347  3.6951
 6096TIP3    H218253   2.334   0.511   2.029  0.2640  1.2200  0.7896
 6097TIP3   OH218254   0.732   1.251   2.500  0.0281  0.4361 -0.2393
 6097TIP3    H118255   0.655   1.269   2.447  0.8333 -0.4091 -1.7766
 6097TIP3    H218256   0.750   1.158   2.486  1.8409  0.8065 -0.6833
 6098TIP3   OH218257   6.609   1.815   3.586  0.4945 -0.4366  0.5798
 6098TIP3    H118258   6.662   1.865   3.648 -0.0437 -1.7949  2.2235
 6098TIP3    H218259   6.651   1.730   3.582  0.7245 -0.2719 -1.2617
 6099TIP3   OH218260   2.571   2.672   0.250  0.0514  0.1404 -0.2183
 6099TIP3    H118261   2.514   2.748   0.260  1.6020  1.3319  0.1237
 6099TIP3    H218262   2.514   2.601   0.222 -1.9115  0.7382  2.0097
 6100TIP3   OH218263   0.000   2.878   2.761  0.3927  0.0852  0.2158
 6100TIP3    H118264   0.067   2.883   2.830  0.2766 -0.1579  0.3465
 6100TIP3    H218265  -0.049   2.960   2.770 -0.1919 -0.3462  1.0047
 6101TIP3   OH218266   1.227   2.442   3.085  0.8694  0.0608 -0.0617
 6101TIP3    H118267   1.261   2.411   3.168  2.4514  2.6665  0.3781
 6101TIP3    H218268   1.228   2.538   3.092 -3.3534  0.4446 -1.3921
 6102TIP3   OH218269   5.457   4.986   3.781 -0.0441 -0.3810 -0.3104
 6102TIP3    H118270   5.477   4.996   3.688  1.3549  1.1810  0.0943
 6102TIP3    H218271   5.522   4.923   3.812 -0.3748 -0.7406 -0.3435
 6103TIP3   OH218272   3.760   3.167   4.028 -0.2517 -0.1866 -0.1606
 6103TIP3    H118273   3.793   3.121   3.950  0.1454 -3.1124  1.5832
 6103TIP3    H218274   3.775   3.106   4.100 -2.0337  1.7533  2.0144
 6104TIP3   OH218275   2.941   2.838   4.311  0.2630  0.1374  0.0415
 6104TIP3    H118276   2.964   2.752   4.275 -1.1130  0.0153 -0.6176
 6104TIP3    H218277   3.022   2.869   4.352  1.4406 -0.4569 -1.6927
 6105TIP3   OH218278   5.770   3.622   1.030  0.0833  0.5676 -0.1493
 6105TIP3    H118279   5.753   3.587   0.943  1.3550  0.3834 -0.3457
 6105TIP3    H218280   5.830   3.696   1.015 -1.5083  2.0433  0.3735
 6106TIP3   OH218281   2.215   4.455   0.841 -0.1988  0.7241  0.1671
 6106TIP3    H118282   2.235   4.490   0.753 -0.8086  1.7635  0.4177
 6106TIP3    H218283   2.191   4.533   0.892 -1.4201 -0.0495  0.8204
 6107TIP3   OH218284   5.833   5.041   4.353 -0.2581 -0.2269 -0.3203
 6107TIP3    H118285   5.738   5.035   4.348 -0.1896 -0.5889 -1.5900
 6107TIP3    H218286   5.863   4.951   4.362  0.0044 -0.2176 -1.0360
 6108TIP3   OH218287   3.455   3.018   4.802  0.2514 -0.1515  0.3701
 6108TIP3    H118288   3.383   2.998   4.862  0.4742 -0.7209  0.4511
 6108TIP3    H218289   3.414   3.068   4.732  0.1822  1.5453  1.5511
 6109TIP3   OH218290   2.210   4.928   5.223  0.0861  0.4994 -0.4565
 6109TIP3    H118291   2.191   4.966   5.137  0.3318  0.6104 -0.4618
 6109TIP3    H218292   2.155   4.849   5.227  1.6574 -0.7380 -1.6176
 6110TIP3   OH218293   4.296   0.655   4.513 -0.8192  0.8686  0.5381
 6110TIP3    H118294   4.266   0.746   4.521  0.8607  1.5280 -0.1777
 6110TIP3    H218295   4.391   0.660   4.526 -0.6056 -0.6878 -0.2020
 6111TIP3   OH218296   3.460   3.692   4.177  0.2170 -0.5248  0.3303
 6111TIP3    H118297   3.412   3.621   4.220  1.7037 -0.3429  2.3979
 6111TIP3    H218298   3.435   3.771   4.225  0.0031  0.1070 -0.7712
 6112TIP3   OH218299   1.093   2.797   2.781 -0.7066  0.0987 -0.7361
 6112TIP3    H118300   1.180   2.837   2.778 -0.6886  0.0331 -1.1909
 6112TIP3    H218301   1.110   2.703   2.774 -0.7371 -0.0101  0.5008
 6113TIP3   OH218302   1.637   0.535   4.750  0.5341 -0.4600  0.2693
 6113TIP3    H118303   1.559   0.484   4.724 -0.9951  1.3281  1.1397
 6113TIP3    H218304   1.622   0.621   4.711  2.5473 -0.3079 -0.2582
 6114TIP3   OH218305   6.762   3.507   4.543 -0.5257  0.2970  0.0833
 6114TIP3    H118306   6.755   3.533   4.635  1.3086  1.0058  0.0549
 6114TIP3    H218307   6.685   3.451   4.528 -1.1198  0.5689  1.8953
 6115TIP3   OH218308   4.715   3.095   0.420 -0.6948  0.6155 -0.0396
 6115TIP3    H118309   4.625   3.125   0.430 -0.9005 -0.3568  1.2602
 6115TIP3    H218310   4.721   3.017   0.475  0.5182 -0.2563 -1.3431
 6116TIP3   OH218311   1.786   6.608   0.480  0.1193  0.1264  0.0501
 6116TIP3    H118312   1.731   6.615   0.558 -0.4196  3.3244 -0.4812
 6116TIP3    H218313   1.867   6.568   0.511 -0.2533  0.8985  2.1530
 6117TIP3   OH218314   3.548   0.799   2.556 -0.3353 -0.2236  0.5082
 6117TIP3    H118315   3.615   0.787   2.623  2.4546  0.4803 -1.9294
 6117TIP3    H218316   3.497   0.717   2.558  1.7594 -1.5932  1.3124
 6118TIP3   OH218317   2.558   2.142   5.465  0.0174 -0.2953 -0.0335
 6118TIP3    H118318   2.548   2.056   5.506  1.3195 -0.0887  0.7933
 6118TIP3    H218319   2.527   2.204   5.531  2.0353  0.0323  0.7036
 6119TIP3   OH218320   4.596   0.233   2.813  0.3149 -0.4146 -0.3526
 6119TIP3    H118321   4.679   0.186   2.812  0.3746 -0.2984 -1.4267
 6119TIP3    H218322   4.601   0.293   2.739 -1.1901 -1.2142 -1.1441
 6120TIP3   OH218323   5.923   0.468   0.042 -0.4646 -0.6697 -0.2978
 6120TIP3    H118324   5.836   0.430   0.033 -1.4147  1.3252 -0.0882
 6120TIP3    H218325   5.972   0.435  -0.033 -1.7245 -0.9938 -1.0034
 6121TIP3   OH218326   0.043   4.080   1.771  0.5501 -0.4843 -0.4499
 6121TIP3    H118327   0.031   4.067   1.678  1.3177  0.1069 -0.6498
 6121TIP3    H218328   0.039   4.175   1.783  0.3078 -0.5621  0.1392
 6122TIP3   OH218329   0.793   4.257   5.117 -0.2890 -0.5613 -0.4367
 6122TIP3    H118330   0.880   4.281   5.148 -0.1878 -0.8725 -0.4765
 6122TIP3    H218331   0.802   4.255   5.022 -0.3617 -0.5026 -0.4440
 6123TIP3   OH218332   3.538   2.768   1.679 -0.1803 -0.4067  0.2706
 6123TIP3    H118333   3.603   2.726   1.735 -1.8207 -1.3683  1.5240
 6123TIP3    H218334   3.476   2.809   1.739 -1.0477  0.0072 -0.8640
 6124TIP3   OH218335   6.503   6.716   4.324  0.1240 -0.2804  0.0342
 6124TIP3    H118336   6.436   6.764   4.372  0.6620  0.8869 -0.3404
 6124TIP3    H218337   6.585   6.757   4.350  0.3513  1.4328 -2.9107
 6125TIP3   OH218338   5.572   2.452   3.912  0.2740 -0.3668 -0.4625
 6125TIP3    H118339   5.506   2.451   3.981 -0.4849  0.6766 -1.1355
 6125TIP3    H218340   5.625   2.373   3.927  1.4348  0.8296  2.5401
 6126TIP3   OH218341   3.362   5.241   4.380  0.2007 -0.4627 -0.8113
 6126TIP3    H118342   3.446   5.268   4.343 -0.0138  0.9848 -0.3180
 6126TIP3    H218343   3.296   5.280   4.323 -0.1433 -0.8157 -0.6695
 6127TIP3   OH218344   2.941   3.040   4.885 -0.2982 -0.2153  1.1173
 6127TIP3    H118345   3.022   3.082   4.913 -0.3088 -0.2073  1.1360
 6127TIP3    H218346   2.878   3.060   4.954 -0.2570 -0.4102  1.2123
 6128TIP3   OH218347   0.798   0.464   3.446 -0.2418 -0.2225  0.7837
 6128TIP3    H118348   0.803   0.444   3.353  1.4335  1.4046  0.4740
 6128TIP3    H218349   0.886   0.446   3.479  0.0717  2.0498  1.3805
 6129TIP3   OH218350   1.016   2.486   3.670  0.5200  0.0008  1.1740
 6129TIP3    H118351   1.095   2.442   3.702  0.6102 -1.1075 -0.4446
 6129TIP3    H218352   0.995   2.441   3.588  0.5911  2.8921 -0.6137
 6130TIP3   OH218353   1.411   0.329   4.689  0.6682 -0.2884  0.4292
 6130TIP3    H118354   1.356   0.387   4.635  0.7269 -1.3320 -0.8035
 6130TIP3    H218355   1.360   0.317   4.769 -0.9233 -1.1691 -0.6491
 6131TIP3   OH218356   0.902   5.999   4.109  0.5827  0.0635 -0.0563
 6131TIP3    H118357   0.880   5.907   4.124  0.2231 -0.4176 -2.9579
 6131TIP3    H218358   0.882   6.042   4.192 -2.1613 -1.9689  0.4700
 6132TIP3   OH218359   1.470   6.547   1.851 -0.4122 -0.4629  0.0573
 6132TIP3    H118360   1.464   6.550   1.946 -1.3235  1.8583  0.0134
 6132TIP3    H218361   1.441   6.460   1.827 -1.9869 -0.4844  1.8296
 6133TIP3   OH218362   5.911   4.464   3.967  0.5439  0.5479  0.7662
 6133TIP3    H118363   5.913   4.424   3.880 -1.7304  0.8429  0.4979
 6133TIP3    H218364   5.974   4.536   3.962  0.0481  0.9163 -0.8647
 6134TIP3   OH218365   3.812   3.239   0.198  0.1139  0.2946 -0.7524
 6134TIP3    H118366   3.869   3.214   0.271  0.8656  2.2899 -0.6143
 6134TIP3    H218367   3.732   3.188   0.212  1.2556 -1.4347 -0.1177
 6135TIP3   OH218368   2.880   2.966   3.166  0.0301  0.4297  0.3285
 6135TIP3    H118369   2.876   2.894   3.103 -0.6507  1.9535 -1.4638
 6135TIP3    H218370   2.866   3.045   3.113 -0.1982  1.8177  2.3541
 6136TIP3   OH218371   5.837   0.975   0.689  0.1423 -0.1682 -0.6171
 6136TIP3    H118372   5.796   0.889   0.691  0.0914 -0.1568 -1.0229
 6136TIP3    H218373   5.844   0.996   0.596  2.0963 -0.6575 -0.6252
 6137TIP3   OH218374   0.823   6.568   1.650  0.6326 -0.0847  0.4613
 6137TIP3    H118375   0.916   6.545   1.647  0.5706 -0.2955  0.1963
 6137TIP3    H218376   0.777   6.487   1.626  0.3524 -0.2098  1.3797
 6138TIP3   OH218377   6.812   1.226   0.682  0.6424 -0.3027  0.2189
 6138TIP3    H118378   6.769   1.220   0.767  0.2458 -1.3125 -0.0359
 6138TIP3    H218379   6.826   1.319   0.668  0.4891 -0.1083  1.2765
 6139TIP3   OH218380   1.940   5.721   5.287  0.3767 -0.0503 -0.0688
 6139TIP3    H118381   1.849   5.731   5.258  0.6645  0.2501 -0.8909
 6139TIP3    H218382   1.972   5.644   5.240  1.2623  1.2301 -1.6722
 6140TIP3   OH218383   4.120   2.223   4.707 -0.6176 -0.5000 -0.3253
 6140TIP3    H118384   4.105   2.317   4.706 -0.5516 -0.4936 -0.6886
 6140TIP3    H218385   4.088   2.195   4.793 -1.5602 -0.2984 -0.5919
 6141TIP3   OH218386   3.782   0.386   4.746  0.0403  0.1441 -0.5692
 6141TIP3    H118387   3.689   0.386   4.723  0.3085 -0.1421 -1.7205
 6141TIP3    H218388   3.826   0.353   4.668  1.4668  3.5893 -1.3657
 6142TIP3   OH218389   1.288   5.434   1.740  0.0655  0.2059  0.1299
 6142TIP3    H118390   1.241   5.383   1.674  0.4034  0.2537 -0.1474
 6142TIP3    H218391   1.377   5.400   1.738  0.6037  1.6140 -0.9020
 6143TIP3   OH218392   6.953   0.778   4.337  0.2315 -0.5042  0.3577
 6143TIP3    H118393   6.932   0.839   4.266  0.1993 -1.8460 -0.8247
 6143TIP3    H218394   7.043   0.799   4.361 -0.2026  0.8751  0.9107
 6144TIP3   OH218395   7.047   2.512   5.115 -0.2006  0.1569  0.0629
 6144TIP3    H118396   7.108   2.486   5.183 -0.6618  0.2894  0.5336
 6144TIP3    H218397   6.990   2.576   5.156 -4.0336 -3.5912  1.3674
 6145TIP3   OH218398   2.310   1.756   1.452  0.3774  0.0559  0.6170
 6145TIP3    H118399   2.380   1.779   1.391  0.6039 -0.9933  0.4647
 6145TIP3    H218400   2.298   1.662   1.440 -1.2870  0.2724  0.4006
 6146TIP3   OH218401   3.334   0.314   1.273  0.8084  0.3078  0.0945
 6146TIP3    H118402   3.333   0.335   1.366  0.1783  1.7241 -0.1971
 6146TIP3    H218403   3.248   0.344   1.241  0.8434 -0.5580 -0.8533
 6147TIP3   OH218404   3.246   2.522   0.008  0.5868  0.9129  0.1775
 6147TIP3    H118405   3.325   2.491   0.052 -1.1535 -0.1850  2.7405
 6147TIP3    H218406   3.265   2.613  -0.013  3.2381  0.1550 -1.1697
 6148TIP3   OH218407   4.714   3.046   5.215 -0.1987  0.2390  0.4251
 6148TIP3    H118408   4.736   2.954   5.202 -0.1677  0.5444 -2.0713
 6148TIP3    H218409   4.791   3.095   5.186 -0.9137  1.0810 -0.1434
 6149TIP3   OH218410   5.615   1.527   0.447 -0.0153  0.3191  0.4184
 6149TIP3    H118411   5.601   1.569   0.363 -0.4574 -0.0331  0.3096
 6149TIP3    H218412   5.530   1.531   0.490  0.4243  1.3429  1.2517
 6150TIP3   OH218413   6.458   4.897   3.177 -0.1725 -0.1232 -0.1718
 6150TIP3    H118414   6.398   4.872   3.247  1.3362 -0.0634  1.1929
 6150TIP3    H218415   6.494   4.981   3.204  2.2222 -1.1923  0.2408
 6151TIP3   OH218416   2.256   0.226   5.000 -0.0046 -1.0191 -0.0370
 6151TIP3    H118417   2.266   0.216   5.095  1.2828 -1.3737 -0.1927
 6151TIP3    H218418   2.345   0.237   4.968 -0.5760  2.2006 -0.8856
 6152TIP3   OH218419   6.682   3.527   4.825 -0.8082  0.3203 -0.1270
 6152TIP3    H118420   6.712   3.586   4.894 -1.4108  1.3404 -0.7213
 6152TIP3    H218421   6.607   3.482   4.863  0.2551 -0.8432  0.6862
 6153TIP3   OH218422   0.671   5.582   2.763  0.1543  0.5939 -0.1806
 6153TIP3    H118423   0.668   5.673   2.736 -0.9393  0.6970  0.2293
 6153TIP3    H218424   0.629   5.581   2.850 -2.0045 -0.5943 -1.1436
 6154TIP3   OH218425   2.710   3.810   5.100 -0.6475  0.1094 -0.3123
 6154TIP3    H118426   2.629   3.858   5.116 -1.1499 -1.0672  0.7579
 6154TIP3    H218427   2.718   3.808   5.005 -2.9109 -1.4124 -0.5377
 6155TIP3   OH218428   0.222   0.662   2.892 -0.3492  0.1198  0.2507
 6155TIP3    H118429   0.301   0.608   2.902  0.0628  0.4776 -0.9451
 6155TIP3    H218430   0.244   0.743   2.939  1.0818  1.2823 -2.2202
 6156TIP3   OH218431   5.653   3.164   0.496 -0.0846 -0.0365  0.4582
 6156TIP3    H118432   5.668   3.152   0.590 -1.4719 -1.0474  0.5855
 6156TIP3    H218433   5.698   3.091   0.454  0.3588  0.2976  0.3441
 6157TIP3   OH218434   5.467   2.755   2.484  0.1115  0.4528 -0.4300
 6157TIP3    H118435   5.422   2.757   2.568  0.9330  1.5062  0.0128
 6157TIP3    H218436   5.478   2.662   2.463  1.0738  0.1448  1.2815
 6158TIP3   OH218437   2.339   2.596   1.921  0.1906  0.4681  0.2613
 6158TIP3    H118438   2.349   2.526   1.856 -0.6953  0.1850  0.4232
 6158TIP3    H218439   2.252   2.583   1.957  0.1862  1.4015  0.6078
 6159TIP3   OH218440   5.137   0.182   4.218 -0.4381  0.8306  0.7730
 6159TIP3    H118441   5.173   0.138   4.295 -0.9266 -0.6587  0.1875
 6159TIP3    H218442   5.210   0.234   4.184  0.8054 -0.9852  0.4398
 6160TIP3   OH218443   5.800   2.320   3.082 -0.2407 -0.0793 -0.1410
 6160TIP3    H118444   5.767   2.246   3.133 -0.3944 -1.4485 -2.1002
 6160TIP3    H218445   5.773   2.398   3.131  1.1338 -1.2921  2.7147
 6161TIP3   OH218446   2.335   6.097   5.340  0.3312  0.5707 -0.2896
 6161TIP3    H118447   2.335   6.180   5.293 -1.5882  0.3100 -0.8163
 6161TIP3    H218448   2.266   6.045   5.298  0.3407 -0.6483  1.1261
 6162TIP3   OH218449   3.408   2.680   2.066 -0.2577 -0.1953 -0.4502
 6162TIP3    H118450   3.346   2.749   2.088  0.2517 -0.6693  3.1983
 6162TIP3    H218451   3.354   2.609   2.031 -1.2556  0.7057 -0.7717
 6163TIP3   OH218452   6.629   4.186   1.191  0.0644  0.1164 -0.0584
 6163TIP3    H118453   6.629   4.145   1.104  1.1705 -1.3638  0.6032
 6163TIP3    H218454   6.584   4.269   1.178 -0.6677 -0.5100 -1.8470
 6164TIP3   OH218455   2.909   5.256   2.429  0.4051 -0.3404 -0.1073
 6164TIP3    H118456   2.871   5.210   2.504 -2.2122  1.1480 -0.3979
 6164TIP3    H218457   2.911   5.348   2.455 -0.8037  0.2496 -1.8706
 6165TIP3   OH218458   4.450   1.323   0.088  0.1248  0.1183 -0.0030
 6165TIP3    H118459   4.436   1.231   0.111  1.8441  0.2825  1.9990
 6165TIP3    H218460   4.362   1.362   0.091 -0.3945 -1.0616  1.0530
 6166TIP3   OH218461   1.960   4.662   1.911  0.3688 -0.1808 -0.3673
 6166TIP3    H118462   1.950   4.623   1.998 -1.2251 -0.0908 -0.4664
 6166TIP3    H218463   1.957   4.757   1.927 -1.4713 -0.1593 -0.6180
 6167TIP3   OH218464   5.494   4.772   1.413  0.1632  0.3302  0.9046
 6167TIP3    H118465   5.548   4.731   1.346 -0.7480  1.7797 -0.8124
 6167TIP3    H218466   5.543   4.850   1.439  0.0233  0.3402  1.1397
 6168TIP3   OH218467   4.964   5.537   3.921  0.8242 -0.5673  0.0165
 6168TIP3    H118468   4.901   5.468   3.940  2.1494 -1.3994  1.6505
 6168TIP3    H218469   4.926   5.616   3.959  0.6051 -0.9895  0.6762
 6169TIP3   OH218470   3.276   2.519   1.777 -0.1610  0.3933  0.1755
 6169TIP3    H118471   3.287   2.468   1.697 -1.6598 -0.8909  0.7273
 6169TIP3    H218472   3.317   2.466   1.845  0.5630  1.1899  0.3786
 6170TIP3   OH218473   5.650   2.013   1.388 -0.3800  0.0316 -0.1025
 6170TIP3    H118474   5.619   2.087   1.441 -1.8781 -0.4107 -0.3027
 6170TIP3    H218475   5.738   2.037   1.361 -0.7145  1.5895  0.1212
 6171TIP3   OH218476   1.306   4.312   5.665 -0.2980  0.4997  0.5263
 6171TIP3    H118477   1.347   4.389   5.625 -1.4479  1.8214  1.7129
 6171TIP3    H218478   1.324   4.322   5.759 -1.7081  0.1612  0.8635
 6172TIP3   OH218479   5.012   2.905   3.079 -0.2463 -0.0123  0.6936
 6172TIP3    H118480   5.008   2.981   3.021  0.7242  0.1968  0.8887
 6172TIP3    H218481   4.954   2.928   3.152 -1.9315 -0.5157 -0.4437
 6173TIP3   OH218482   4.539   1.945   2.702  0.0045  0.0766  0.5918
 6173TIP3    H118483   4.524   1.926   2.609  0.3144 -1.1303  0.7706
 6173TIP3    H218484   4.506   1.867   2.748 -1.3356  1.2014  1.6001
 6174TIP3   OH218485   6.423   1.985   2.586  0.0899  0.3219  0.5798
 6174TIP3    H118486   6.489   1.995   2.655  0.0445  0.2923  0.6271
 6174TIP3    H218487   6.459   2.035   2.512  0.9126 -0.9510  0.0824
 6175TIP3   OH218488   3.405   3.967   5.709 -0.0032 -0.7313  0.3161
 6175TIP3    H118489   3.381   3.877   5.689  0.0538 -0.6858  0.0340
 6175TIP3    H218490   3.322   4.016   5.703  0.4762 -0.1182 -3.2200
 6176TIP3   OH218491   5.812   3.790   0.204  0.0472 -0.0860  0.2213
 6176TIP3    H118492   5.813   3.715   0.145 -1.5146 -0.1371  0.2232
 6176TIP3    H218493   5.843   3.863   0.151 -0.8351 -0.2378 -0.5259
 6177TIP3   OH218494   1.980   3.693   5.111 -0.3646 -0.3136  0.1942
 6177TIP3    H118495   2.029   3.699   5.029 -1.3705 -0.2516 -0.4102
 6177TIP3    H218496   2.040   3.729   5.177 -0.5505  2.3350 -0.9400
 6178TIP3   OH218497   3.534   1.909   3.411 -0.7957  0.1837 -0.5845
 6178TIP3    H118498   3.475   1.972   3.453 -0.5783 -0.5208  0.8371
 6178TIP3    H218499   3.598   1.887   3.479  0.2218 -0.2074 -1.6277
 6179TIP3   OH218500   2.640   4.334   3.124  0.4372  0.7503  0.0075
 6179TIP3    H118501   2.669   4.356   3.213 -0.1493 -0.8176  0.6305
 6179TIP3    H218502   2.604   4.245   3.132 -1.3314  1.2772 -1.4273
 6180TIP3   OH218503   1.154   5.190   2.425  0.7555  0.4207  0.1731
 6180TIP3    H118504   1.189   5.149   2.347 -0.2407  0.8282 -0.5046
 6180TIP3    H218505   1.230   5.202   2.482  1.2209 -1.3995 -0.0264
 6181TIP3   OH218506   4.467   1.848   3.014 -0.2761 -0.0170 -0.0020
 6181TIP3    H118507   4.406   1.917   3.040  0.7702 -0.0251  2.8494
 6181TIP3    H218508   4.417   1.767   3.023 -0.4441  0.1172  0.2848
 6182TIP3   OH218509   6.311   3.194   3.494 -0.8283 -0.2316  0.0951
 6182TIP3    H118510   6.247   3.255   3.457  0.5914  0.5513 -1.1856
 6182TIP3    H218511   6.296   3.198   3.588 -1.3138  1.4859 -0.0144
 6183TIP3   OH218512   4.754   6.097   3.036 -0.6095 -0.1635 -0.0392
 6183TIP3    H118513   4.755   6.078   3.130 -1.0448  0.8971  0.1896
 6183TIP3    H218514   4.844   6.116   3.014 -0.6590  0.5590  0.3722
 6184TIP3   OH218515   4.541   6.627   5.180  0.3939  0.3191 -0.2061
 6184TIP3    H118516   4.480   6.694   5.150 -1.0197 -0.7666  0.0810
 6184TIP3    H218517   4.577   6.589   5.100 -0.1687  0.2269 -0.4179
 6185TIP3   OH218518   4.079   6.643   5.173 -0.3305  0.1743  0.1202
 6185TIP3    H118519   4.018   6.716   5.183 -1.7109 -0.9414  0.2427
 6185TIP3    H218520   4.032   6.568   5.209  1.3217 -0.6550  0.6416
 6186TIP3   OH218521   7.004   4.699   4.340  0.0484  0.1906 -0.0981
 6186TIP3    H118522   7.080   4.753   4.361 -0.3409  0.5121  0.5338
 6186TIP3    H218523   7.023   4.663   4.253  0.9192  0.2569  0.0533
 6187TIP3   OH218524   6.515   2.170   5.792 -0.4107 -0.5682  0.3545
 6187TIP3    H118525   6.508   2.088   5.742 -2.2611 -0.1837 -0.1034
 6187TIP3    H218526   6.500   2.144   5.883  0.4497 -0.9216  0.4047
 6188TIP3   OH218527   5.607   5.261   4.030 -0.0283 -0.0161  0.1321
 6188TIP3    H118528   5.578   5.332   3.973 -0.5454  0.5193  1.0463
 6188TIP3    H218529   5.549   5.188   4.007 -0.6252  0.3718  0.3622
 6189TIP3   OH218530   2.332   5.396   1.028  0.2297  0.1174  0.0820
 6189TIP3    H118531   2.329   5.319   0.972  1.1719  0.9501 -1.1481
 6189TIP3    H218532   2.366   5.364   1.111  2.2736 -0.5206 -0.9474
 6190TIP3   OH218533   3.464   1.904   5.888  0.1816 -0.2556  0.4431
 6190TIP3    H118534   3.534   1.853   5.928 -0.0156 -1.4726 -0.6672
 6190TIP3    H218535   3.481   1.898   5.794 -1.1013 -0.1492  0.1831
 6191TIP3   OH218536   1.385   4.413   5.186  0.0129 -0.3726  0.1783
 6191TIP3    H118537   1.411   4.331   5.145  1.2730  0.5525 -0.9820
 6191TIP3    H218538   1.367   4.472   5.113  1.0827  0.9562  0.9214
 6192TIP3   OH218539   3.396   4.618   4.315 -0.3438  0.2697 -0.4165
 6192TIP3    H118540   3.425   4.673   4.387  2.7898 -0.7933 -0.7426
 6192TIP3    H218541   3.472   4.565   4.293 -1.5298 -0.2571 -3.7707
 6193TIP3   OH218542   0.719   0.726   4.018 -0.7271  0.3761 -0.5383
 6193TIP3    H118543   0.698   0.640   3.983 -0.2609 -0.9943  2.2977
 6193TIP3    H218544   0.678   0.728   4.105  0.5255  2.4373  0.0872
 6194TIP3   OH218545   1.208   0.635   2.466 -0.0919 -0.3760  0.3268
 6194TIP3    H118546   1.266   0.683   2.524 -0.5087  1.2064 -0.5007
 6194TIP3    H218547   1.266   0.587   2.408  0.3402 -0.8639  1.1547
 6195TIP3   OH218548   2.897   4.291   0.839  0.2653 -0.0623  0.3558
 6195TIP3    H118549   2.902   4.215   0.781  1.2865 -0.2725  0.6987
 6195TIP3    H218550   2.821   4.274   0.895  0.5414 -0.8834  0.4958
 6196TIP3   OH218551   5.221   4.259   3.651 -0.3113 -0.6271 -0.4687
 6196TIP3    H118552   5.191   4.177   3.611 -1.5579  0.0088 -0.8844
 6196TIP3    H218553   5.203   4.326   3.586  1.9082 -0.1455 -0.6724
 6197TIP3   OH218554   7.058   6.739   3.412  0.3928  0.2571  0.2252
 6197TIP3    H118555   7.028   6.823   3.446  1.6364  0.6758  0.3190
 6197TIP3    H218556   7.050   6.679   3.487 -1.5055  0.0056 -0.1313
 6198TIP3   OH218557   1.816   1.955   4.708  0.3886 -0.2000 -0.3641
 6198TIP3    H118558   1.868   1.910   4.775 -1.0309  0.2795  1.1068
 6198TIP3    H218559   1.795   1.887   4.644  2.2260 -0.5446 -0.6647
 6199TIP3   OH218560   1.522   1.455   5.252  0.0364  0.6280 -0.3939
 6199TIP3    H118561   1.610   1.448   5.290 -0.6323  0.8043  1.2527
 6199TIP3    H218562   1.538   1.458   5.158  1.6041 -2.8931 -0.4060
 6200TIP3   OH218563   5.968   4.320   3.199 -0.1697  0.4009 -0.0783
 6200TIP3    H118564   5.887   4.275   3.174 -0.1549  0.6920 -0.6759
 6200TIP3    H218565   6.037   4.269   3.155 -0.0602  0.3826  0.1128
 6201TIP3   OH218566   1.793   2.685   4.780 -0.3481  0.4131  0.2229
 6201TIP3    H118567   1.805   2.602   4.825 -1.5074  0.4720  0.6685
 6201TIP3    H218568   1.882   2.718   4.767  0.2363 -1.5635 -1.2905
 6202TIP3   OH218569   0.022   5.433   5.802  0.2916 -0.5116  0.5226
 6202TIP3    H118570   0.002   5.389   5.719 -1.2527 -0.1991  0.7025
 6202TIP3    H218571   0.106   5.476   5.786 -0.9743  1.3960 -1.6943
 6203TIP3   OH218572   5.110   3.994   3.816  0.2199 -0.1555  0.4257
 6203TIP3    H118573   5.104   4.043   3.898 -0.0375  0.9538 -0.2310
 6203TIP3    H218574   5.021   3.961   3.802  0.4132 -0.8859  0.9139
 6204TIP3   OH218575   0.513   1.667   2.588  0.6113  0.7924 -0.4791
 6204TIP3    H118576   0.567   1.701   2.517 -1.1466  2.2468 -1.1809
 6204TIP3    H218577   0.426   1.656   2.550  0.2778 -1.2270  0.6891
 6205TIP3   OH218578   1.444   3.494   2.471  0.1012  0.1576  0.1650
 6205TIP3    H118579   1.517   3.521   2.527 -0.1609  1.4066 -0.0564
 6205TIP3    H218580   1.485   3.442   2.401  0.5829 -0.3507  0.8130
 6206TIP3   OH218581   2.043   3.472   5.486 -0.0615 -0.1801 -0.2177
 6206TIP3    H118582   2.090   3.541   5.534 -1.0825  1.4275 -1.4095
 6206TIP3    H218583   2.101   3.450   5.414 -0.7600  1.3138 -1.2941
 6207TIP3   OH218584   2.778   4.911   2.613  0.2339 -0.5662 -0.6221
 6207TIP3    H118585   2.810   4.873   2.531 -0.2127  0.5432 -1.3362
 6207TIP3    H218586   2.693   4.869   2.628 -0.0511 -0.2056 -1.1704
 6208TIP3   OH218587   3.682   5.305   4.552  0.1660  0.4290 -0.1577
 6208TIP3    H118588   3.717   5.393   4.562  0.8465  0.2017 -0.4620
 6208TIP3    H218589   3.627   5.292   4.629  0.7455  0.8037  0.3276
 6209TIP3   OH218590   0.236   4.488   2.699 -0.1939 -0.5900 -0.1848
 6209TIP3    H118591   0.276   4.439   2.771 -0.3576 -0.5409 -0.0584
 6209TIP3    H218592   0.167   4.540   2.741 -1.0091 -1.3701 -0.5288
 6210TIP3   OH218593   4.811   6.690   5.273 -0.7220  0.7127 -0.1704
 6210TIP3    H118594   4.726   6.645   5.271 -1.0574  1.3069  0.2998
 6210TIP3    H218595   4.798   6.768   5.220 -0.5045  0.8641 -0.0012
 6211TIP3   OH218596   1.102   4.174   0.674  0.4129  0.2326 -0.1410
 6211TIP3    H118597   1.011   4.148   0.660  0.2497  0.0136  1.1987
 6211TIP3    H218598   1.102   4.219   0.759  1.6503 -0.3811  0.2211
 6212TIP3   OH218599   5.726   3.020   4.441 -0.3508 -0.0291 -0.0580
 6212TIP3    H118600   5.773   3.102   4.424 -2.7024  1.7675  1.4551
 6212TIP3    H218601   5.694   2.992   4.355 -0.0902  1.0107 -0.5069
 6213TIP3   OH218602   5.885   0.853   3.224  0.2404  0.1766 -0.2755
 6213TIP3    H118603   5.926   0.768   3.207 -0.6640 -0.9630  2.7216
 6213TIP3    H218604   5.808   0.854   3.167 -0.4075 -1.5946  0.4977
 6214TIP3   OH218605   4.230   6.496   3.463 -0.0942 -0.0609  0.3350
 6214TIP3    H118606   4.233   6.401   3.455 -1.8358 -0.0362 -1.6359
 6214TIP3    H218607   4.310   6.526   3.419  0.0451 -0.6056  0.2087
 6215TIP3   OH218608   1.093   3.623   5.205  0.3679 -0.0272  0.5979
 6215TIP3    H118609   1.173   3.663   5.170 -0.1450 -0.1237 -0.7283
 6215TIP3    H218610   1.113   3.530   5.212  0.6808  0.0755  1.2028
 6216TIP3   OH218611   2.207   1.206   5.896  0.2500  0.0182  0.2479
 6216TIP3    H118612   2.270   1.134   5.904  0.7262  0.5763  1.9134
 6216TIP3    H218613   2.228   1.248   5.813  2.4866  0.5333  1.0085
 6217TIP3   OH218614   3.589   4.017   5.352 -0.4086  0.0164  0.3340
 6217TIP3    H118615   3.619   3.947   5.410  0.4393 -0.3304 -0.4945
 6217TIP3    H218616   3.664   4.076   5.344  0.1204 -0.8225 -1.7051
 6218TIP3   OH218617   3.747   6.248   1.607  0.5423  0.3006 -0.7538
 6218TIP3    H118618   3.664   6.293   1.593  1.2722  1.1701 -2.5411
 6218TIP3    H218619   3.754   6.240   1.702 -2.4835 -1.5559 -0.5518
 6219TIP3   OH218620   3.849   6.141   3.638 -0.1083  0.5753 -0.0816
 6219TIP3    H118621   3.765   6.154   3.683 -0.6842  0.8560 -1.2063
 6219TIP3    H218622   3.840   6.056   3.595  0.9139 -0.2797  1.3028
 6220TIP3   OH218623   3.022   0.447   5.507  0.2264 -0.5594 -0.1890
 6220TIP3    H118624   3.013   0.462   5.602 -1.0455 -0.4151 -0.3110
 6220TIP3    H218625   3.052   0.531   5.473  2.3729 -1.0768  0.2570
 6221TIP3   OH218626   3.227   4.861   4.209 -0.1353 -0.0313 -0.7908
 6221TIP3    H118627   3.305   4.900   4.168 -0.0540  1.1439  0.3813
 6221TIP3    H218628   3.259   4.780   4.248  0.7134  0.8121  0.3317
 6222TIP3   OH218629   4.078   3.684   3.923 -0.0541 -0.1929  0.0348
 6222TIP3    H118630   4.065   3.636   3.842 -0.5253  1.0327 -0.6509
 6222TIP3    H218631   4.012   3.754   3.920  1.3856  1.2453  0.3827
 6223TIP3   OH218632   0.851   2.524   0.054 -0.1581 -0.0301  0.1600
 6223TIP3    H118633   0.763   2.561   0.048 -1.0497 -1.8589  1.1394
 6223TIP3    H218634   0.855   2.460  -0.017  0.1736 -0.3720  0.4817
 6224TIP3   OH218635   3.216   1.008   4.361 -0.0525  0.0434 -0.1838
 6224TIP3    H118636   3.283   1.074   4.349  0.9980 -0.8031  0.7456
 6224TIP3    H218637   3.201   1.005   4.455 -1.4238  0.2215 -0.3687
 6225TIP3   OH218638   1.476   5.908   5.325  0.3198  0.3225 -0.0842
 6225TIP3    H118639   1.453   5.990   5.368 -1.9625 -0.6629  0.7570
 6225TIP3    H218640   1.472   5.843   5.395  0.0354 -0.7865 -1.1044
 6226TIP3   OH218641   2.816   0.946   1.016 -0.0093  0.0829 -0.4160
 6226TIP3    H118642   2.766   0.912   1.090  1.2832  0.1936  0.5294
 6226TIP3    H218643   2.760   0.929   0.940 -0.9434 -0.8947  0.4571
 6227TIP3   OH218644   6.896   2.298   0.448  0.1009 -0.1902 -0.0077
 6227TIP3    H118645   6.884   2.371   0.508 -0.4088 -1.4479  1.5109
 6227TIP3    H218646   6.939   2.336   0.371 -0.3570  1.7123  0.6271
 6228TIP3   OH218647   4.515   4.668   0.971 -0.4305 -0.2816 -0.0404
 6228TIP3    H118648   4.598   4.663   1.018 -0.4132  0.2041 -0.0091
 6228TIP3    H218649   4.474   4.583   0.984 -1.3690  0.4623  2.5764
 6229TIP3   OH218650   1.171   5.414   5.713  0.1206 -0.4080  0.2004
 6229TIP3    H118651   1.217   5.372   5.641  2.0550  0.6876  0.7185
 6229TIP3    H218652   1.217   5.384   5.792 -1.7038 -1.2868  0.9976
 6230TIP3   OH218653   6.155   3.044   2.275  0.0264 -0.6354 -0.3469
 6230TIP3    H118654   6.240   3.078   2.302 -0.2090  1.0201 -1.5079
 6230TIP3    H218655   6.165   3.026   2.181 -0.6568 -1.2297 -0.3123
 6231TIP3   OH218656   6.273   4.120   4.862 -0.4675 -0.1486 -0.1084
 6231TIP3    H118657   6.245   4.206   4.832 -1.7005 -0.5868 -0.2810
 6231TIP3    H218658   6.193   4.081   4.900 -0.1243 -1.5140 -0.7399
 6232TIP3   OH218659   1.504   1.992   1.876 -0.2254  0.0696  0.0900
 6232TIP3    H118660   1.576   1.952   1.828  0.7406  1.9392 -0.1060
 6232TIP3    H218661   1.536   2.001   1.966  0.3675  2.1071 -0.2724
 6233TIP3   OH218662   0.379   4.461   3.707 -0.4234 -1.1549  0.2186
 6233TIP3    H118663   0.449   4.461   3.642  0.7189 -0.3506  1.3994
 6233TIP3    H218664   0.422   4.436   3.788 -1.2557  0.4685  1.2083
 6234TIP3   OH218665   0.151   5.807   1.611  0.4000  0.3149 -0.4890
 6234TIP3    H118666   0.082   5.813   1.545 -0.0270  0.7548 -0.0205
 6234TIP3    H218667   0.106   5.828   1.693  1.0460  0.3727 -0.1477
 6235TIP3   OH218668   6.083   2.484   3.376  0.0776 -0.0592  0.3592
 6235TIP3    H118669   5.988   2.493   3.382  0.0427 -0.3125  0.2267
 6235TIP3    H218670   6.116   2.573   3.378 -0.0827 -0.0126  1.6664
 6236TIP3   OH218671   5.658   2.887   2.008  0.2447 -0.0870 -0.9144
 6236TIP3    H118672   5.678   2.805   1.963 -1.2645  0.2594 -2.2897
 6236TIP3    H218673   5.610   2.859   2.087  2.4075 -0.6567  0.2831
 6237TIP3   OH218674   0.265   1.855   3.186 -0.3687  0.2670 -0.4891
 6237TIP3    H118675   0.211   1.918   3.233  0.0376  1.1841 -1.2173
 6237TIP3    H218676   0.298   1.904   3.110  1.3880 -0.2840 -0.1314
 6238TIP3   OH218677   0.410   2.158   5.120  0.1771  0.6278 -0.1460
 6238TIP3    H118678   0.490   2.188   5.076  0.6045 -0.7054 -0.3403
 6238TIP3    H218679   0.415   2.062   5.115 -1.3075  0.5174  0.0827
 6239TIP3   OH218680   0.088   5.134   2.180 -0.1700 -0.3474  0.0916
 6239TIP3    H118681   0.159   5.193   2.157 -0.0108 -0.4763  0.2492
 6239TIP3    H218682   0.107   5.107   2.270  0.1767 -1.2337 -0.2285
 6240TIP3   OH218683   6.871   0.204   2.413  0.3263 -0.1235 -0.2710
 6240TIP3    H118684   6.947   0.232   2.463 -0.6791  0.3408  1.0512
 6240TIP3    H218685   6.851   0.116   2.446 -0.4309  0.2437  0.2707
 6241TIP3   OH218686   3.798   3.299   3.390 -0.2566  0.1061  0.2108
 6241TIP3    H118687   3.768   3.387   3.412  2.2249  0.8938  0.8349
 6241TIP3    H218688   3.880   3.289   3.439  0.3896 -1.8946 -1.1461
 6242TIP3   OH218689   5.169   1.492   5.591  0.1674 -0.0872  0.6058
 6242TIP3    H118690   5.147   1.404   5.561 -0.9509  0.1848  0.5945
 6242TIP3    H218691   5.147   1.492   5.684 -1.5219  0.6808  0.2466
 6243TIP3   OH218692   0.657   0.202   2.352 -0.0189  0.1658 -0.2583
 6243TIP3    H118693   0.732   0.212   2.292 -0.8036 -0.2715 -1.3482
 6243TIP3    H218694   0.582   0.232   2.300 -0.7564 -0.4814  0.4262
 6244TIP3   OH218695   5.470   0.461   1.974  0.0082 -0.2461 -0.0309
 6244TIP3    H118696   5.442   0.501   1.891 -0.6986 -0.6664  0.0008
 6244TIP3    H218697   5.542   0.517   2.004 -0.1439  0.2749 -0.6153
 6245TIP3   OH218698   5.358   3.001   4.368  0.2887  0.0442 -0.0084
 6245TIP3    H118699   5.322   3.049   4.443  1.5553  0.3402  0.4338
 6245TIP3    H218700   5.281   2.966   4.323 -0.5215  0.2772  1.1464
 6246TIP3   OH218701   3.707   5.990   0.202  0.1055  1.0925 -0.2511
 6246TIP3    H118702   3.671   5.942   0.277 -0.5849  0.9900 -0.6339
 6246TIP3    H218703   3.765   6.055   0.241 -0.2832  1.0727  0.3831
 6247TIP3   OH218704   5.028   6.224   5.385 -0.3968  0.7584  0.0430
 6247TIP3    H118705   5.007   6.263   5.470 -0.4901 -0.3242  0.5455
 6247TIP3    H218706   4.958   6.160   5.370 -0.0327  0.4901 -0.5400
 6248TIP3   OH218707   6.615   0.407   0.440  0.3123  0.6779 -0.6511
 6248TIP3    H118708   6.617   0.499   0.413  0.7653 -0.0592 -3.4776
 6248TIP3    H218709   6.620   0.358   0.358  0.4889 -1.8932  0.7863
 6249TIP3   OH218710   0.997   4.432   2.768  0.2270 -0.5467  0.5328
 6249TIP3    H118711   1.025   4.464   2.682  1.1578 -0.5798  0.8117
 6249TIP3    H218712   0.903   4.418   2.759  0.2683 -0.2912 -0.3985
 6250TIP3   OH218713   2.201   5.557   0.112  0.5554  0.9801  0.0721
 6250TIP3    H118714   2.220   5.638   0.064  0.2317  2.4937  2.3829
 6250TIP3    H218715   2.118   5.574   0.156 -0.2633 -1.1863 -0.4941
 6251TIP3   OH218716   5.330   2.286   1.768 -0.1535  0.0121 -0.6035
 6251TIP3    H118717   5.264   2.312   1.832 -0.1759  0.6333 -0.8640
 6251TIP3    H218718   5.413   2.312   1.807 -0.0729 -0.6566 -0.3296
 6252TIP3   OH218719   2.678   1.684   2.802 -0.2932  0.2334 -0.7230
 6252TIP3    H118720   2.742   1.676   2.872 -0.3836 -0.3695 -0.7052
 6252TIP3    H218721   2.599   1.716   2.845  0.3350  2.2198 -0.9415
 6253TIP3   OH218722   2.089   6.717   2.243 -0.2445 -0.1496 -0.3469
 6253TIP3    H118723   2.103   6.728   2.337 -0.6071 -0.4024 -0.2608
 6253TIP3    H218724   2.135   6.791   2.203 -2.5639  1.7053  0.2004
 6254TIP3   OH218725   0.035   1.521   2.045  0.3632 -0.4684  0.4595
 6254TIP3    H118726  -0.060   1.518   2.035  0.3901 -0.7055  0.2515
 6254TIP3    H218727   0.052   1.596   2.101  0.0189 -0.7123  0.8909
 6255TIP3   OH218728   4.985   6.813   0.624  0.0935  0.1444 -0.0597
 6255TIP3    H118729   5.050   6.744   0.615  1.0939  0.9906  0.4333
 6255TIP3    H218730   4.963   6.814   0.717  1.4379  1.6311  0.2929
 6256TIP3   OH218731   1.489   2.171   5.756 -0.1983  0.4133  0.0730
 6256TIP3    H118732   1.496   2.251   5.705 -0.7023  0.6263  0.3311
 6256TIP3    H218733   1.396   2.163   5.776 -0.0275  0.2832  0.8695
 6257TIP3   OH218734   2.511   2.700   5.353 -0.2215 -0.2491 -0.2484
 6257TIP3    H118735   2.513   2.738   5.264 -0.5934 -2.1576 -1.1144
 6257TIP3    H218736   2.420   2.709   5.380 -0.3681 -0.7230 -0.5631
 6258TIP3   OH218737   7.132   1.850   1.630  0.0651  0.2324 -0.7489
 6258TIP3    H118738   7.045   1.888   1.645  0.1678  0.6843 -1.2457
 6258TIP3    H218739   7.124   1.759   1.658  0.1972  0.9253  1.8753
 6259TIP3   OH218740   2.377   5.500   4.928 -0.6417  0.2650 -0.4089
 6259TIP3    H118741   2.336   5.578   4.892 -2.1584 -0.9466 -1.4738
 6259TIP3    H218742   2.361   5.506   5.022  0.2087  1.7272 -0.3334
 6260TIP3   OH218743   4.564   5.524   4.072 -0.1483  0.4355  0.0242
 6260TIP3    H118744   4.518   5.604   4.047 -1.4873 -0.1540  0.4946
 6260TIP3    H218745   4.560   5.523   4.167  1.3189  0.6038  0.1222
 6261TIP3   OH218746   6.469   1.011   2.994 -0.2075  0.1595  0.0252
 6261TIP3    H118747   6.397   1.065   3.026 -0.7253 -0.5178  0.0256
 6261TIP3    H218748   6.546   1.068   2.999 -0.6114  0.6532  0.7062
 6262TIP3   OH218749   4.808   0.307   0.437 -0.5244 -0.6187  0.1389
 6262TIP3    H118750   4.746   0.378   0.456  0.3394  0.0063  0.6951
 6262TIP3    H218751   4.825   0.266   0.522 -0.2315 -0.8335 -0.0210
 6263TIP3   OH218752   0.096   0.940   1.905  0.2806 -0.3044 -0.2553
 6263TIP3    H118753   0.133   0.881   1.839 -0.3643  0.0583 -0.9673
 6263TIP3    H218754   0.002   0.934   1.892  0.1994  0.8201 -0.2973
 6264TIP3   OH218755   4.161   5.718   1.167  0.2872 -0.4403  0.0631
 6264TIP3    H118756   4.157   5.808   1.199  0.1178 -1.2381  2.4544
 6264TIP3    H218757   4.070   5.693   1.154  0.3361 -0.2840 -0.6406
 6265TIP3   OH218758   0.787   4.162   0.125  0.2408 -1.1476 -0.1022
 6265TIP3    H118759   0.753   4.247   0.097 -0.4613 -1.0562  0.9661
 6265TIP3    H218760   0.860   4.183   0.183  0.3599 -1.2795 -0.2039
 6266TIP3   OH218761   0.757   5.965   4.545 -0.4977 -0.2808 -0.3515
 6266TIP3    H118762   0.790   5.892   4.597  0.3242  0.1437 -0.2599
 6266TIP3    H218763   0.662   5.964   4.559 -0.4704 -1.1820 -0.1709
 6267TIP3   OH218764   2.343   5.775   5.386 -0.0071 -0.0643 -0.6117
 6267TIP3    H118765   2.439   5.775   5.381 -0.0235 -0.9854 -1.0542
 6267TIP3    H218766   2.321   5.860   5.424  1.0917 -0.6792  1.5713
 6268TIP3   OH218767   5.528   2.420   3.128  0.2306 -0.2165 -0.2379
 6268TIP3    H118768   5.497   2.342   3.173  0.2589  1.1999  2.4493
 6268TIP3    H218769   5.448   2.472   3.113  0.3867 -0.0689 -0.5702
 6269TIP3   OH218770   5.910   0.538   0.801 -0.5097 -0.6934  0.1784
 6269TIP3    H118771   6.006   0.538   0.803 -0.4805  0.7766 -0.2880
 6269TIP3    H218772   5.887   0.450   0.772  0.6324 -1.6793  2.0152
 6270TIP3   OH218773   0.180   6.807   5.046  0.2697  0.3382 -0.2681
 6270TIP3    H118774   0.207   6.800   4.954  0.4538 -0.0654 -0.1852
 6270TIP3    H218775   0.107   6.745   5.054  1.1986 -0.7212  0.2079
 6271TIP3   OH218776   4.530   2.538   1.574  0.3189  0.2032 -0.4145
 6271TIP3    H118777   4.613   2.575   1.546  0.4664  0.7450  0.6940
 6271TIP3    H218778   4.529   2.549   1.669 -0.1346 -1.6326 -0.1610
 6272TIP3   OH218779   3.309   2.562   3.455 -0.2483  0.0066 -0.4012
 6272TIP3    H118780   3.295   2.617   3.378  1.7549 -1.1189 -1.6713
 6272TIP3    H218781   3.331   2.476   3.419 -1.2137 -1.1068  1.4916
 6273TIP3   OH218782   1.683   1.108   5.134  0.0093 -0.2849 -0.7341
 6273TIP3    H118783   1.662   1.015   5.121  1.1723 -0.4478 -1.6608
 6273TIP3    H218784   1.736   1.131   5.057  0.2275  0.9871 -0.2194
 6274TIP3   OH218785   0.969   3.581   2.462  0.0939  0.0150  0.3956
 6274TIP3    H118786   0.971   3.505   2.404 -1.0122 -2.7306  3.6285
 6274TIP3    H218787   1.058   3.618   2.457 -0.1228  0.3671 -3.3407
 6275TIP3   OH218788   2.669   4.233   0.982  0.5256 -0.5116  0.1057
 6275TIP3    H118789   2.644   4.196   1.066 -0.9518  0.3671  0.0875
 6275TIP3    H218790   2.587   4.236   0.932  1.1938 -0.0797 -0.9939
 6276TIP3   OH218791   2.904   1.636   4.120 -0.2726 -0.1358 -0.5228
 6276TIP3    H118792   2.871   1.725   4.134 -0.3755 -0.2227 -0.2003
 6276TIP3    H218793   2.946   1.639   4.034  3.2102  1.2976  1.0376
 6277TIP3   OH218794   6.407   0.292   1.748  0.0934 -0.5185 -0.0132
 6277TIP3    H118795   6.329   0.238   1.765  0.0223 -1.1813 -2.1824
 6277TIP3    H218796   6.375   0.382   1.753 -0.7593 -0.7736 -0.5257
 6278TIP3   OH218797   3.936   5.087   5.634 -0.1052  0.0573 -0.7734
 6278TIP3    H118798   3.990   5.017   5.670  0.9908  0.4199 -1.6398
 6278TIP3    H218799   3.866   5.100   5.698 -0.2940 -1.7775 -0.5687
 6279TIP3   OH218800   3.164   4.021   0.646 -0.1910  0.2635  0.7182
 6279TIP3    H118801   3.113   4.035   0.567  0.3094 -1.7950 -0.0561
 6279TIP3    H218802   3.108   3.966   0.702  0.3105 -0.1901  0.7916
 6280TIP3   OH218803   3.145   5.915   2.155 -0.0906  0.3921  0.0580
 6280TIP3    H118804   3.148   5.886   2.246  0.0489  0.7637  0.1747
 6280TIP3    H218805   3.053   5.902   2.129 -0.6700  2.3109  0.9453
 6281TIP3   OH218806   0.981   3.415   1.236 -0.3008  0.2978  0.3384
 6281TIP3    H118807   1.022   3.437   1.319  2.8695 -0.2916 -0.9123
 6281TIP3    H218808   0.950   3.499   1.201  1.8115  1.1858  0.4532
 6282TIP3   OH218809   0.294   0.015   5.108  0.1197 -0.3451  0.4729
 6282TIP3    H118810   0.215   0.046   5.063 -0.6220 -0.6331  1.5365
 6282TIP3    H218811   0.331  -0.050   5.048 -1.2046 -1.1978  0.5214
 6283TIP3   OH218812   6.056   6.069   0.901 -0.2335 -0.0597  0.1627
 6283TIP3    H118813   6.100   5.984   0.898  1.2630  0.6776  0.0589
 6283TIP3    H218814   6.125   6.132   0.880 -1.2648  1.1986  0.4227
 6284TIP3   OH218815   0.380   2.489   3.004  0.0378 -0.2210  0.1926
 6284TIP3    H118816   0.425   2.569   3.031 -3.6852  2.7106 -1.4624
 6284TIP3    H218817   0.404   2.478   2.912  0.8684 -1.3371  0.5229
 6285TIP3   OH218818   1.049   6.701   2.423  0.3572 -0.2802 -0.3502
 6285TIP3    H118819   0.999   6.669   2.348 -0.6692 -0.0478  0.2122
 6285TIP3    H218820   1.043   6.630   2.487  0.1936  0.0103 -0.0411
 6286TIP3   OH218821   0.112   5.225   0.574 -0.0665 -0.2159 -0.5255
 6286TIP3    H118822   0.094   5.317   0.559 -0.2457 -0.2571 -0.5603
 6286TIP3    H218823   0.207   5.217   0.562  0.3720  0.4607  1.9878
 6287TIP3   OH218824   0.952   0.861   3.998 -0.2548 -0.2523  0.3372
 6287TIP3    H118825   0.860   0.838   3.988  0.0502 -0.6629 -2.1621
 6287TIP3    H218826   0.960   0.890   4.089 -2.8160 -0.2702  0.6368
 6288TIP3   OH218827   3.911   6.047   3.233 -0.3330  0.2581 -0.3438
 6288TIP3    H118828   3.841   6.110   3.217 -1.2024 -0.4471  0.5348
 6288TIP3    H218829   3.900   6.021   3.324  1.0812  0.1191 -0.1932
 6289TIP3   OH218830   6.635   2.753   0.492  0.1061  0.4544  0.1650
 6289TIP3    H118831   6.641   2.711   0.406 -2.0053  0.6479 -0.1519
 6289TIP3    H218832   6.607   2.842   0.472  0.6120  0.8068  1.0172
 6290TIP3   OH218833   0.078   6.589   3.307 -0.2242  0.2241 -0.3292
 6290TIP3    H118834   0.129   6.646   3.364 -1.1239 -0.5578  1.3116
 6290TIP3    H218835  -0.010   6.627   3.305 -0.2976  0.0481 -0.9300
 6291TIP3   OH218836   3.753   2.025   1.283 -0.5016 -0.4402 -0.2049
 6291TIP3    H118837   3.693   2.096   1.307 -1.8197 -1.1825 -1.1661
 6291TIP3    H218838   3.767   1.977   1.365 -0.0507  0.5631  0.3312
 6292TIP3   OH218839   3.780   4.385   5.138 -0.0392  1.0304 -0.2654
 6292TIP3    H118840   3.780   4.398   5.043 -0.4265 -0.6972 -0.5499
 6292TIP3    H218841   3.688   4.386   5.163 -0.1748 -1.2516 -0.4067
 6293TIP3   OH218842   3.232   6.714   3.240 -0.0723 -0.1421 -0.4631
 6293TIP3    H118843   3.305   6.731   3.181 -1.9897 -0.4056 -3.1201
 6293TIP3    H218844   3.225   6.618   3.244 -0.6298 -0.1175 -0.7288
 6294TIP3   OH218845   3.092   6.240   0.973  0.4774 -0.7998 -0.0696
 6294TIP3    H118846   3.026   6.198   1.028  0.7860 -0.4198  0.6167
 6294TIP3    H218847   3.099   6.329   1.009 -1.7441  0.6429 -2.8262
 6295TIP3   OH218848   5.589   1.667   4.045 -0.0852  0.0313  0.0332
 6295TIP3    H118849   5.639   1.601   3.997  0.5047  1.0992 -0.8720
 6295TIP3    H218850   5.623   1.662   4.134 -0.7194 -1.5239  0.2113
 6296TIP3   OH218851   1.647   0.973   2.537 -0.1934  0.2447  0.3877
 6296TIP3    H118852   1.742   0.984   2.550 -0.0815  1.7998 -1.3756
 6296TIP3    H218853   1.608   1.011   2.615  0.6041 -1.6003  1.7813
 6297TIP3   OH218854   2.608   0.616   0.948  0.3686 -0.1866  0.0563
 6297TIP3    H118855   2.703   0.603   0.945  0.2744 -0.8652 -0.2746
 6297TIP3    H218856   2.596   0.703   0.987  1.1635  0.5364 -1.2727
 6298TIP3   OH218857   3.317   0.775   2.018  0.3648  0.1062  0.4380
 6298TIP3    H118858   3.256   0.704   2.000 -0.7213  0.6713  1.7383
 6298TIP3    H218859   3.276   0.852   1.980 -0.3123  0.6889  2.2466
 6299TIP3   OH218860   6.482   0.544   2.478  0.1280  0.5124  0.2005
 6299TIP3    H118861   6.436   0.562   2.396 -1.0455 -0.3152  0.6508
 6299TIP3    H218862   6.547   0.478   2.454  2.1836  2.7401 -0.7500
 6300TIP3   OH218863   0.303   5.338   0.862  0.3944 -0.5337  0.5129
 6300TIP3    H118864   0.356   5.371   0.935  0.4295  0.2165  0.1619
 6300TIP3    H218865   0.280   5.417   0.812  1.4812 -1.1498 -1.0297
 6301TIP3   OH218866   2.200   5.799   1.244  0.1767  0.5876 -0.4595
 6301TIP3    H118867   2.118   5.841   1.271 -0.7301 -0.4859 -1.4500
 6301TIP3    H218868   2.182   5.765   1.157  1.2870 -0.7352 -0.2067
 6302TIP3   OH218869   5.483   6.143   2.063 -0.2211 -0.1452  0.4452
 6302TIP3    H118870   5.438   6.214   2.018 -1.3778 -1.0231  0.1533
 6302TIP3    H218871   5.463   6.156   2.156  0.4943  0.5212  0.5169
 6303TIP3   OH218872   1.133   5.051   5.446 -0.0739  0.1778  0.0918
 6303TIP3    H118873   1.113   5.031   5.354  0.4678 -0.2713  0.0608
 6303TIP3    H218874   1.165   4.968   5.481  1.4118  0.7831  0.2120
 6304TIP3   OH218875   3.820   6.033   2.460 -0.4116 -0.2205  0.1740
 6304TIP3    H118876   3.897   5.978   2.447  0.3020  0.6951  0.4238
 6304TIP3    H218877   3.756   5.976   2.504 -0.0218 -1.0906 -0.3749
 6305TIP3   OH218878   0.949   1.756   1.436  0.0244  0.2991 -0.0244
 6305TIP3    H118879   1.001   1.682   1.469  0.8656  0.4438 -0.9830
 6305TIP3    H218880   0.991   1.833   1.476  1.0732  0.4786 -1.4103
 6306TIP3   OH218881   4.016   3.492   2.890  0.4398  0.6215  0.5359
 6306TIP3    H118882   3.923   3.496   2.865  0.4238 -1.4153  0.1346
 6306TIP3    H218883   4.016   3.502   2.985 -0.0909  1.5791  0.4499
 6307TIP3   OH218884   3.423   2.108   3.595  0.2405  0.1067 -0.2931
 6307TIP3    H118885   3.417   2.135   3.686  1.2289 -1.9880  0.4502
 6307TIP3    H218886   3.461   2.184   3.550  1.8044  0.4022  1.4315
 6308TIP3   OH218887   4.688   0.731   4.953  0.1550  0.0337 -0.5773
 6308TIP3    H118888   4.654   0.818   4.973  0.8911 -0.3247  2.6509
 6308TIP3    H218889   4.779   0.746   4.929  0.5761  0.1248  0.9745
 6309TIP3   OH218890   0.403   2.760   0.102  0.2498  0.3100 -0.3101
 6309TIP3    H118891   0.374   2.827   0.164 -0.9408  1.8999 -2.4645
 6309TIP3    H218892   0.330   2.698   0.097  1.0201 -0.7698  1.0568
 6310TIP3   OH218893   3.584   5.359   3.632  0.0778  0.0757  0.9334
 6310TIP3    H118894   3.580   5.268   3.661 -1.6324 -0.9062 -1.8775
 6310TIP3    H218895   3.493   5.381   3.610  0.7562  1.6637 -0.5505
 6311TIP3   OH218896   6.612   0.235   1.973  0.3563 -0.0451 -0.1619
 6311TIP3    H118897   6.621   0.141   1.959 -2.1268 -0.4160  0.3782
 6311TIP3    H218898   6.542   0.262   1.913 -1.1943  0.8066  1.9307
 6312TIP3   OH218899   1.144   2.916   2.322  0.4563 -0.3319 -0.9470
 6312TIP3    H118900   1.153   2.884   2.233  1.2665  1.3281 -1.5086
 6312TIP3    H218901   1.206   2.989   2.328 -3.0154  2.8663 -0.6197
 6313TIP3   OH218902   5.120   1.854   0.139  0.2599  0.2110  0.2885
 6313TIP3    H118903   5.063   1.919   0.181  0.4977 -0.0024  0.9595
 6313TIP3    H218904   5.146   1.796   0.210  1.7557  0.6157  0.1120
 6314TIP3   OH218905   4.205   5.257   2.352  0.8791  0.1113 -0.2272
 6314TIP3    H118906   4.156   5.176   2.336  2.3211 -0.6453 -1.0338
 6314TIP3    H218907   4.174   5.287   2.437  0.2983 -1.2785  0.0838
 6315TIP3   OH218908   4.489   6.015   0.057  0.8302 -0.0084  0.0250
 6315TIP3    H118909   4.436   5.969   0.123  1.0606  0.6425  0.6719
 6315TIP3    H218910   4.433   6.019  -0.020  0.9425 -1.7389 -0.2046
 6316TIP3   OH218911   3.529   5.569   1.183  0.3758  0.3569 -0.2490
 6316TIP3    H118912   3.591   5.633   1.218 -0.0704 -0.4134  2.1629
 6316TIP3    H218913   3.583   5.493   1.160  0.5914  0.5993 -0.5473
 6317TIP3   OH218914   0.462   1.026   3.516  0.9590  0.1008  0.2327
 6317TIP3    H118915   0.499   0.957   3.571 -1.2162 -2.2743 -1.0529
 6317TIP3    H218916   0.504   1.014   3.431  1.0508  0.8435  0.1643
 6318TIP3   OH218917   2.992   4.996   3.221 -0.2194  0.0300 -0.2153
 6318TIP3    H118918   2.912   5.044   3.244 -0.3633 -0.8136  1.1710
 6318TIP3    H218919   2.992   4.921   3.280  0.9061 -0.7233 -1.1460
 6319TIP3   OH218920   1.621   5.489   5.247  0.1698 -0.0256 -0.6991
 6319TIP3    H118921   1.671   5.413   5.218  1.3148  0.6242 -0.4874
 6319TIP3    H218922   1.627   5.487   5.343 -1.5413 -0.8019 -0.5808
 6320TIP3   OH218923   0.931   4.616   0.853 -0.4368 -0.2759  0.0725
 6320TIP3    H118924   0.982   4.682   0.900 -0.3226 -0.2539 -0.0824
 6320TIP3    H218925   0.880   4.666   0.790  3.1431 -0.6170 -3.4353
 6321TIP3   OH218926   0.877   4.499   5.479 -0.3806 -0.0466 -0.1435
 6321TIP3    H118927   0.836   4.430   5.532 -0.0194 -0.2891 -0.1809
 6321TIP3    H218928   0.964   4.466   5.459  0.9935  1.6524  2.3403
 6322TIP3   OH218929   4.664   4.179   5.232 -0.2981 -0.1922  0.2416
 6322TIP3    H118930   4.599   4.111   5.215 -0.5345  0.0526  0.1653
 6322TIP3    H218931   4.713   4.147   5.308 -2.3289  0.8903  2.1235
 6323TIP3   OH218932   6.803   1.881   1.386  0.1023 -0.2965 -0.4398
 6323TIP3    H118933   6.766   1.876   1.298  1.7254 -2.7451 -1.1092
 6323TIP3    H218934   6.874   1.945   1.379  0.1140 -0.3565 -0.8834
 6324TIP3   OH218935   3.391   5.200   3.774  0.4903 -0.2362 -0.1313
 6324TIP3    H118936   3.370   5.292   3.760  0.4923 -0.0697  0.8845
 6324TIP3    H218937   3.385   5.160   3.687  0.0326  0.6286 -0.5057
 6325TIP3   OH218938   6.983   1.139   2.431 -0.0367  0.1726 -0.1492
 6325TIP3    H118939   6.891   1.121   2.410 -0.4261 -0.0147  1.5831
 6325TIP3    H218940   6.998   1.093   2.513  1.2538  1.2344  0.2427
 6326TIP3   OH218941   5.114   0.292   3.589 -0.3225  0.5719 -0.6035
 6326TIP3    H118942   5.105   0.335   3.674 -0.3282 -1.0661  0.2765
 6326TIP3    H218943   5.042   0.228   3.587  1.0937 -1.0798 -0.7627
 6327TIP3   OH218944   2.374   3.978   3.335 -0.1464  0.1556 -0.1791
 6327TIP3    H118945   2.298   3.973   3.393  0.2249 -2.1441  0.2047
 6327TIP3    H218946   2.387   3.888   3.305  0.3518  1.0614 -3.0063
 6328TIP3   OH218947   3.671   3.850   1.606  0.6517  0.5048  0.0638
 6328TIP3    H118948   3.657   3.779   1.669 -0.4789  1.0831  0.5026
 6328TIP3    H218949   3.761   3.877   1.620  0.7484 -0.1093  0.6789
 6329TIP3   OH218950   0.071   0.128   2.909 -0.2302 -0.3139 -0.1195
 6329TIP3    H118951   0.145   0.098   2.856 -0.1996 -0.8529  0.2185
 6329TIP3    H218952   0.012   0.170   2.846  0.2527 -0.0873 -0.4256
 6330TIP3   OH218953   5.294   1.702   5.792  0.5388  0.1528 -0.2723
 6330TIP3    H118954   5.270   1.658   5.874 -1.4985  1.6149 -0.0116
 6330TIP3    H218955   5.216   1.692   5.737  0.9262  1.4109 -1.0677
 6331TIP3   OH218956   4.374   1.085   0.774 -0.6146  0.8827  0.3954
 6331TIP3    H118957   4.296   1.139   0.792 -1.2991 -0.2570  0.9368
 6331TIP3    H218958   4.339   1.007   0.730  0.2379  0.3996  0.5638
 6332TIP3   OH218959   1.103   4.342   4.763 -0.3386 -0.0994  0.3215
 6332TIP3    H118960   1.051   4.297   4.696 -0.2519  0.3732 -0.0727
 6332TIP3    H218961   1.149   4.411   4.715 -0.0402  0.0554  0.8213
 6333TIP3   OH218962   4.368   2.195   4.874  0.5898  0.1355  0.3722
 6333TIP3    H118963   4.445   2.192   4.818 -0.1691  1.6335 -0.8582
 6333TIP3    H218964   4.302   2.239   4.820 -0.6488  0.2769  1.9383
 6334TIP3   OH218965   7.108   0.521   3.612 -0.3498  0.2562 -1.0774
 6334TIP3    H118966   7.124   0.482   3.526 -2.5606 -2.2074 -0.5028
 6334TIP3    H218967   7.190   0.508   3.659 -0.1310 -1.2954 -1.8175
 6335TIP3   OH218968   2.303   4.106   1.828  0.3781 -0.4412 -0.0767
 6335TIP3    H118969   2.376   4.117   1.767  1.1364 -0.6858  0.7658
 6335TIP3    H218970   2.236   4.168   1.797  0.5899 -0.8318 -1.3704
 6336TIP3   OH218971   6.203   5.485   1.438  0.3421 -0.1701 -0.7421
 6336TIP3    H118972   6.114   5.485   1.475  0.5803  3.6180  0.2546
 6336TIP3    H218973   6.260   5.480   1.514  0.9300  0.0881 -1.1589
 6337TIP3   OH218974   4.815   1.164   3.193 -0.3795  0.1618 -0.2112
 6337TIP3    H118975   4.880   1.159   3.263 -0.6365  0.4808  0.0509
 6337TIP3    H218976   4.830   1.085   3.141 -0.7096 -0.4946  0.6645
 6338TIP3   OH218977   6.589   4.495   2.108 -0.1772 -0.6678  0.8492
 6338TIP3    H118978   6.524   4.515   2.041  0.4635 -0.0500  0.3960
 6338TIP3    H218979   6.671   4.531   2.074 -0.0855  0.9024  2.5629
 6339TIP3   OH218980   7.175   3.128   3.163  0.4048  0.0564 -0.3509
 6339TIP3    H118981   7.165   3.066   3.234  0.7720 -0.4696 -0.7561
 6339TIP3    H218982   7.213   3.206   3.204 -0.2174  0.0906  0.1870
 6340TIP3   OH218983   3.204   0.790   0.718  0.3403  0.3921 -0.6980
 6340TIP3    H118984   3.297   0.804   0.739  0.3891 -1.3012  0.4099
 6340TIP3    H218985   3.156   0.841   0.783  0.5146 -0.6495  0.2786
 6341TIP3   OH218986   2.420   5.161   3.694  0.1418 -0.0603 -0.0355
 6341TIP3    H118987   2.371   5.089   3.734  0.8177 -0.1867  0.5928
 6341TIP3    H218988   2.447   5.215   3.768 -0.4398  0.9051 -0.5060
 6342TIP3   OH218989   7.101   5.992   1.136 -0.4789  0.6434 -0.1852
 6342TIP3    H118990   7.085   5.989   1.042 -0.4720  0.7676 -0.1897
 6342TIP3    H218991   7.195   6.005   1.144 -0.3002 -0.5244 -0.1583
 6343TIP3   OH218992   0.903   3.377   5.386 -0.3610  0.4088 -0.0397
 6343TIP3    H118993   0.891   3.283   5.395 -0.7753  0.2770 -1.7404
 6343TIP3    H218994   0.845   3.403   5.315  0.5508  1.7739 -0.3314
 6344TIP3   OH218995   0.161   2.906   2.990  0.0891  0.1385 -0.1545
 6344TIP3    H118996   0.156   2.839   3.059 -2.6251 -0.8727 -1.2351
 6344TIP3    H218997   0.098   2.972   3.017  0.8681  1.0167 -0.4352
 6345TIP3   OH218998   5.083   3.159   3.507  0.2710 -0.4138 -0.1024
 6345TIP3    H118999   5.004   3.149   3.559 -0.4244  1.6221 -0.6775
 6345TIP3    H219000   5.154   3.129   3.564 -0.8249 -1.7308  0.6219
 6346TIP3   OH219001   1.683   4.655   5.878 -0.5612 -0.0298  0.3898
 6346TIP3    H119002   1.705   4.582   5.936 -1.3855 -0.2413  0.4591
 6346TIP3    H219003   1.751   4.654   5.811 -1.6301 -2.1709 -0.7843
 6347TIP3   OH219004   3.455   3.581   3.053 -0.0068 -0.5916  0.3639
 6347TIP3    H119005   3.428   3.509   2.996 -0.8108 -0.8633  1.0667
 6347TIP3    H219006   3.455   3.658   2.996  0.1055 -1.0087 -0.2137
 6348TIP3   OH219007   2.266   0.166   2.362  0.2043  0.4759 -0.1937
 6348TIP3    H119008   2.190   0.116   2.333 -1.2223  2.0116  0.7761
 6348TIP3    H219009   2.282   0.229   2.292  0.1653  0.5894 -0.1009
 6349TIP3   OH219010   1.811   6.241   3.717  0.3329  0.0506  0.3882
 6349TIP3    H119011   1.843   6.213   3.631 -0.5488  1.0730 -0.2936
 6349TIP3    H219012   1.803   6.159   3.766  1.3415 -0.5029 -0.3187
 6350TIP3   OH219013   5.621   3.260   4.553 -0.3500 -0.3170 -0.0116
 6350TIP3    H119014   5.583   3.269   4.641 -0.9083 -0.1364 -0.2657
 6350TIP3    H219015   5.646   3.168   4.547 -2.1288 -0.8084 -0.3761
 6351TIP3   OH219016   6.930   6.065   5.503 -0.6216 -0.5484  0.2220
 6351TIP3    H119017   6.882   6.140   5.467  0.9539  0.0963 -0.6072
 6351TIP3    H219018   6.864   5.997   5.512 -1.6880  0.2803 -0.9596
 6352TIP3   OH219019   6.424   1.100   1.770 -0.2718  0.5377  0.0778
 6352TIP3    H119020   6.334   1.084   1.741  0.0720 -0.7083 -0.3300
 6352TIP3    H219021   6.414   1.160   1.844 -1.3656  1.2666 -0.6174
 6353TIP3   OH219022   3.850   0.502   2.563 -0.1371 -0.3056  0.0590
 6353TIP3    H119023   3.863   0.409   2.544  1.1256  0.1678 -1.6571
 6353TIP3    H219024   3.758   0.509   2.586 -0.5197 -1.8409 -0.8486
 6354TIP3   OH219025   1.054   5.603   5.015 -0.2262 -0.1981 -0.3748
 6354TIP3    H119026   1.139   5.566   4.991  0.8562  2.1351 -0.4670
 6354TIP3    H219027   1.064   5.697   5.000 -2.0188  0.4612  1.9486
 6355TIP3   OH219028   4.530   5.449   4.327  0.1972  0.4299 -0.2921
 6355TIP3    H119029   4.437   5.424   4.325  0.6232 -1.2249 -0.6146
 6355TIP3    H219030   4.546   5.477   4.417 -0.1719 -1.1085  0.2731
 6356TIP3   OH219031   2.277   0.932   4.425 -0.1635 -0.1945  0.2451
 6356TIP3    H119032   2.240   0.845   4.435  0.4281 -0.5188 -0.2855
 6356TIP3    H219033   2.362   0.927   4.468 -0.0348  0.0533  0.0273
 6357TIP3   OH219034   1.078   6.485   4.528 -0.0092  0.0576 -0.0429
 6357TIP3    H119035   1.129   6.561   4.556  1.1815 -0.7509  0.0397
 6357TIP3    H219036   1.006   6.480   4.592  0.4174  0.5647  0.4932
 6358TIP3   OH219037   4.338   5.929   0.266 -0.1049  0.4169  0.2605
 6358TIP3    H119038   4.269   5.870   0.297  0.4654 -0.5540 -0.2794
 6358TIP3    H219039   4.374   5.967   0.346 -0.9044  0.5339  0.5777
 6359TIP3   OH219040   0.670   1.499   5.154  0.0664 -0.3620 -0.6568
 6359TIP3    H119041   0.596   1.558   5.168 -0.5350 -1.0180 -0.9637
 6359TIP3    H219042   0.667   1.440   5.229  2.3538  1.6376  1.1685
 6360TIP3   OH219043   6.963   1.603   0.192 -0.3893 -0.5250  0.1216
 6360TIP3    H119044   6.974   1.574   0.101 -1.5840 -0.8149  0.0583
 6360TIP3    H219045   6.969   1.698   0.187 -1.9585 -0.4262 -0.5193
 6361TIP3   OH219046   1.820   6.070   5.830 -0.1146 -0.1906 -0.8772
 6361TIP3    H119047   1.775   6.102   5.909  0.5925 -0.0347 -0.5276
 6361TIP3    H219048   1.848   6.150   5.785  0.5221 -0.2975 -0.6713
 6362TIP3   OH219049   5.272   5.475   2.656  0.3280 -0.4839  0.1848
 6362TIP3    H119050   5.354   5.440   2.689  1.9229  2.4521 -0.3739
 6362TIP3    H219051   5.247   5.542   2.719 -1.5690 -1.1241  0.1911
 6363TIP3   OH219052   3.316   0.537   0.675  0.7850 -0.0318 -0.0689
 6363TIP3    H119053   3.265   0.613   0.702 -1.6961 -1.4705 -0.3696
 6363TIP3    H219054   3.342   0.556   0.585 -0.8677 -0.0081 -0.5697
 6364TIP3   OH219055   4.184   4.543   5.547 -0.2143  0.7519 -0.3446
 6364TIP3    H119056   4.184   4.561   5.641 -1.1825  0.1585 -0.2208
 6364TIP3    H219057   4.123   4.470   5.536 -0.5870  1.2064 -1.5026
 6365TIP3   OH219058   5.398   1.037   4.384  0.0065  0.1808  0.1772
 6365TIP3    H119059   5.414   0.945   4.405 -0.7382 -0.0066 -0.0624
 6365TIP3    H219060   5.353   1.072   4.461 -0.9938 -0.0242 -0.2937
 6366TIP3   OH219061   3.708   3.924   5.047 -0.3274  0.0059 -0.0315
 6366TIP3    H119062   3.767   3.963   5.111  1.3690  0.6268 -1.8320
 6366TIP3    H219063   3.650   3.996   5.021 -1.3326 -0.3698  1.0948
 6367TIP3   OH219064   5.559   4.572   4.497 -0.4048 -0.2569  0.3692
 6367TIP3    H119065   5.556   4.496   4.439  1.7295  0.5052 -0.8528
 6367TIP3    H219066   5.514   4.543   4.577 -1.5391 -2.0437 -0.8458
 6368TIP3   OH219067   1.868   6.385   3.961  0.3828  0.4020  0.2663
 6368TIP3    H119068   1.881   6.298   3.924  2.2841  0.7450  0.0170
 6368TIP3    H219069   1.912   6.444   3.899 -3.5889  2.0104 -1.3506
 6369TIP3   OH219070   1.307   3.817   3.439  0.0637 -0.4565  0.3396
 6369TIP3    H119071   1.271   3.752   3.500 -0.7593 -1.1826 -0.8914
 6369TIP3    H219072   1.314   3.771   3.356 -0.1660  0.9318 -0.4728
 6370TIP3   OH219073   6.743   6.695   5.273 -0.3369 -0.0172 -0.2354
 6370TIP3    H119074   6.785   6.711   5.358  0.9609 -1.0823 -0.6339
 6370TIP3    H219075   6.661   6.743   5.278  0.1849  0.8129  1.2261
 6371TIP3   OH219076   4.745   4.038   1.716  0.4670 -0.2831  0.0137
 6371TIP3    H119077   4.779   4.128   1.711  0.8538 -0.4450 -0.3451
 6371TIP3    H219078   4.654   4.049   1.745 -0.1434  0.3970 -1.9227
 6372TIP3   OH219079   5.350   1.821   5.516  0.7811 -0.1448 -0.2236
 6372TIP3    H119080   5.401   1.899   5.493  1.4666  0.0655  1.8248
 6372TIP3    H219081   5.383   1.795   5.602 -0.8320 -1.5310  0.0247
 6373TIP3   OH219082   2.582   4.870   1.138  0.1858  0.0904  0.2079
 6373TIP3    H119083   2.501   4.919   1.153  1.1973  1.9827 -0.0768
 6373TIP3    H219084   2.606   4.835   1.223  0.2769  1.5528  0.8166
 6374TIP3   OH219085   2.408   1.362   0.222 -0.0291  0.0521  0.0014
 6374TIP3    H119086   2.366   1.447   0.212  0.3631  0.1790 -0.6762
 6374TIP3    H219087   2.363   1.321   0.295 -0.8042  0.4975 -0.2143
 6375TIP3   OH219088   3.126   0.922   5.306 -0.1545 -0.3231 -0.1074
 6375TIP3    H119089   3.180   0.894   5.232  0.1064  0.3907 -0.1988
 6375TIP3    H219090   3.169   0.885   5.383 -0.0062 -0.4502 -0.2505
 6376TIP3   OH219091   0.955   0.206   5.460  0.6969 -0.3048 -0.2058
 6376TIP3    H119092   1.042   0.184   5.425  0.3504 -0.2578 -1.1129
 6376TIP3    H219093   0.910   0.122   5.464  1.2732 -0.5642  1.7004
 6377TIP3   OH219094   4.798   0.205   3.449  0.5422 -0.8176 -0.5025
 6377TIP3    H119095   4.857   0.215   3.375  1.0654  0.0499  0.0162
 6377TIP3    H219096   4.710   0.217   3.412  0.8449  0.5112 -0.8384
 6378TIP3   OH219097   3.762   6.410   0.290 -0.9711  0.5146 -0.1702
 6378TIP3    H119098   3.753   6.505   0.286 -0.7342  0.5861  0.6882
 6378TIP3    H219099   3.854   6.395   0.314 -0.7556  0.0367 -1.2620
 6379TIP3   OH219100   6.931   5.888   5.906  0.3329 -0.1183 -0.2333
 6379TIP3    H119101   6.962   5.807   5.864  0.4911 -0.1997  0.0390
 6379TIP3    H219102   6.958   5.957   5.846  1.1916 -0.1707  0.0682
 6380TIP3   OH219103   3.314   5.566   0.615  0.3759  0.0174 -0.8333
 6380TIP3    H119104   3.344   5.478   0.593  0.5468  0.2066 -1.3658
 6380TIP3    H219105   3.224   5.553   0.646  1.2146 -0.6522  1.5406
 6381TIP3   OH219106   2.344   3.660   0.305  0.2195 -0.1341 -0.4202
 6381TIP3    H119107   2.328   3.686   0.395 -1.4870  0.6551 -0.9048
 6381TIP3    H219108   2.385   3.736   0.264  2.5059 -1.0581  0.0475
 6382TIP3   OH219109   0.522   4.315   5.139 -0.0993  0.2970  0.6394
 6382TIP3    H119110   0.448   4.297   5.082  0.5113  2.6129 -1.0606
 6382TIP3    H219111   0.592   4.258   5.107 -0.8282 -1.2525  1.6857
 6383TIP3   OH219112   4.889   6.232   0.416 -0.4716  0.6556 -0.0439
 6383TIP3    H119113   4.814   6.253   0.360 -0.9187  0.1269  0.3418
 6383TIP3    H219114   4.862   6.259   0.503 -0.3855  0.0834  0.1677
 6384TIP3   OH219115   0.522   1.842   3.860  0.2536  0.1980 -0.2935
 6384TIP3    H119116   0.510   1.865   3.952  1.6441 -0.6459  0.1410
 6384TIP3    H219117   0.521   1.746   3.859  1.2537  0.1784 -0.9708
 6385TIP3   OH219118   3.432   0.982   5.733 -0.5036 -0.5196 -0.3862
 6385TIP3    H119119   3.355   1.039   5.735  0.1775  0.5411 -1.9568
 6385TIP3    H219120   3.485   1.016   5.660  0.9037 -1.9274 -0.0798
 6386TIP3   OH219121   2.779   3.947   5.489  0.2731  0.2533 -0.7852
 6386TIP3    H119122   2.792   4.040   5.470  1.7613 -0.0586 -1.4794
 6386TIP3    H219123   2.843   3.928   5.558 -0.7657 -0.0254  0.1143
 6387TIP3   OH219124   1.796   4.663   4.197  0.2689 -0.0713  0.3515
 6387TIP3    H119125   1.718   4.622   4.235 -1.2357 -0.7163 -3.0272
 6387TIP3    H219126   1.841   4.590   4.154  0.3247  0.9666 -1.4193
 6388TIP3   OH219127   0.558   4.276   4.554  0.5933 -0.0397 -0.4701
 6388TIP3    H119128   0.610   4.235   4.485 -2.6607 -0.0642 -3.1481
 6388TIP3    H219129   0.532   4.204   4.611 -0.3294 -0.8241 -1.8370
 6389TIP3   OH219130   6.176   1.062   1.619 -0.0797 -0.0027  0.0275
 6389TIP3    H119131   6.236   1.025   1.553 -2.1224 -1.3425 -1.1847
 6389TIP3    H219132   6.125   1.127   1.571 -2.2121 -1.6191 -0.0447
 6390TIP3   OH219133   5.571   0.263   5.099  0.3127  0.0317 -0.0629
 6390TIP3    H119134   5.498   0.315   5.066 -0.5838 -1.5028 -0.6304
 6390TIP3    H219135   5.627   0.250   5.022  1.0770  1.0182  0.3195
 6391TIP3   OH219136   6.146   4.376   0.116 -0.6328 -0.8404  0.1186
 6391TIP3    H119137   6.222   4.433   0.131 -1.4011  0.4737 -0.7630
 6391TIP3    H219138   6.171   4.322   0.041 -1.0530  0.5947 -1.1170
 6392TIP3   OH219139   6.742   4.395   3.958  0.3462  0.3002 -0.7440
 6392TIP3    H119140   6.674   4.332   3.933  2.0659 -1.1635 -1.9786
 6392TIP3    H219141   6.765   4.371   4.048 -0.1424  0.2386 -0.6310
 6393TIP3   OH219142   6.573   6.125   3.957  0.1089  0.8834  0.3360
 6393TIP3    H119143   6.658   6.168   3.969  0.5134  0.1836  0.0128
 6393TIP3    H219144   6.583   6.041   4.001  0.0841  0.1770 -0.9867
 6394TIP3   OH219145   1.512   6.506   4.746 -0.1278 -0.1652  0.1485
 6394TIP3    H119146   1.445   6.515   4.814 -0.6208  0.7713 -0.4211
 6394TIP3    H219147   1.558   6.425   4.767 -0.5644 -0.1303  1.3243
 6395TIP3   OH219148   5.647   3.262   5.521 -0.1060  0.0310 -0.2238
 6395TIP3    H119149   5.738   3.266   5.490  0.1287 -0.2532  0.3953
 6395TIP3    H219150   5.619   3.173   5.500  0.0597 -0.1688  0.3722
 6396TIP3   OH219151   6.496   1.301   2.529  0.4968  0.5744  0.1317
 6396TIP3    H119152   6.560   1.350   2.580  1.5797  0.9783 -1.5602
 6396TIP3    H219153   6.420   1.360   2.523 -0.1966  0.0081  2.3172
 6397TIP3   OH219154   6.323   5.472   0.647 -0.2047  0.0268 -0.2475
 6397TIP3    H119155   6.334   5.469   0.742 -0.3628 -1.5418 -0.2564
 6397TIP3    H219156   6.303   5.382   0.622 -2.1260  0.7583 -1.5517
 6398TIP3   OH219157   3.698   0.855   0.048 -0.2133 -0.3154  0.6448
 6398TIP3    H119158   3.689   0.944   0.082  0.5663  0.3298 -0.7362
 6398TIP3    H219159   3.767   0.815   0.101  0.7310  0.5411  0.1028
 6399TIP3   OH219160   5.282   3.440   2.768 -0.8081  0.2057  0.1093
 6399TIP3    H119161   5.308   3.530   2.789 -1.3717  0.2032  0.8608
 6399TIP3    H219162   5.349   3.386   2.809 -0.5951  0.2742 -0.1459
 6400TIP3   OH219163   1.221   3.516   1.425 -0.4387 -0.0600  0.3798
 6400TIP3    H119164   1.254   3.551   1.342 -0.1793 -0.6364  0.2335
 6400TIP3    H219165   1.187   3.593   1.471  0.3342  0.4284  0.1715
 6401TIP3   OH219166   5.952   4.341   4.945 -0.1471 -0.0253 -0.5538
 6401TIP3    H119167   5.970   4.294   5.026  2.2768  0.6638 -0.6068
 6401TIP3    H219168   5.892   4.412   4.971  0.6322  0.2096  0.6604
 6402TIP3   OH219169   6.229   0.889   0.794  0.5898 -0.0848 -0.4121
 6402TIP3    H119170   6.167   0.816   0.791  0.3515  0.1424 -1.3024
 6402TIP3    H219171   6.287   0.874   0.719  1.5805 -0.2563  0.3586
 6403TIP3   OH219172   0.676   6.063   3.940  0.1225  0.3756 -0.4143
 6403TIP3    H119173   0.672   6.152   3.906 -1.0866  0.1408 -0.9309
 6403TIP3    H219174   0.765   6.055   3.975  0.5016  1.5249 -1.0521
 6404TIP3   OH219175   5.904   3.571   1.654 -0.7320  0.3167  0.3166
 6404TIP3    H119176   5.895   3.648   1.709  1.5825  2.4073 -1.9454
 6404TIP3    H219177   5.821   3.565   1.608 -1.2773  0.8961  1.1908
 6405TIP3   OH219178   6.199   2.294   3.213 -0.4696  0.1483  0.0609
 6405TIP3    H119179   6.125   2.253   3.169  0.8290 -0.9188 -1.2512
 6405TIP3    H219180   6.160   2.345   3.283 -2.2601 -2.6906  1.3073
 6406TIP3   OH219181   5.861   0.159   3.025  0.2518 -0.4309 -0.0936
 6406TIP3    H119182   5.943   0.178   2.979  0.3604 -1.2434 -0.2655
 6406TIP3    H219183   5.874   0.070   3.059 -1.7649 -1.9183 -2.8790
 6407TIP3   OH219184   1.430   6.590   0.565 -0.1566  0.2877  0.2294
 6407TIP3    H119185   1.452   6.497   0.570 -1.5627 -0.0915 -0.2754
 6407TIP3    H219186   1.362   6.602   0.632 -0.0684  0.9235  0.2108
 6408TIP3   OH219187   7.012   6.046   4.187 -0.0707  0.3602  0.0124
 6408TIP3    H119188   7.052   5.960   4.195 -0.2253  0.3259  0.4302
 6408TIP3    H219189   7.033   6.074   4.098  1.9537  0.8698  0.5809
 6409TIP3   OH219190   6.211   1.619   2.099 -0.4264 -0.3403 -0.2151
 6409TIP3    H119191   6.187   1.695   2.151 -0.4657 -1.2863  1.1893
 6409TIP3    H219192   6.150   1.550   2.128 -1.0565 -0.6657 -2.1550
 6410TIP3   OH219193   2.109   4.359   4.140  0.1590  0.1322  0.3006
 6410TIP3    H119194   2.028   4.396   4.107  0.3363 -1.2844 -1.8962
 6410TIP3    H219195   2.087   4.268   4.160  0.7743  0.2249  1.5412
 6411TIP3   OH219196   2.129   2.027   0.364 -0.0203  0.5415  0.2255
 6411TIP3    H119197   2.100   1.964   0.299 -0.6723 -0.7134  1.6618
 6411TIP3    H219198   2.209   2.066   0.327 -0.5321  0.0967 -1.4106
 6412TIP3   OH219199   6.803   4.636   0.347 -0.6011  0.4507 -0.1879
 6412TIP3    H119200   6.845   4.702   0.403 -0.4940  0.2419 -0.0210
 6412TIP3    H219201   6.728   4.681   0.309 -1.2857  0.2989  0.9394
 6413TIP3   OH219202   2.831   2.067   4.496 -0.1052  0.1692 -0.1022
 6413TIP3    H119203   2.867   2.096   4.580  0.8691  1.2210 -0.8631
 6413TIP3    H219204   2.736   2.066   4.510 -0.0190  1.3602  0.6892
 6414TIP3   OH219205   6.406   0.090   5.536  0.3837  0.1799 -0.3018
 6414TIP3    H119206   6.349   0.130   5.470  0.4409  0.9073  0.0888
 6414TIP3    H219207   6.347   0.070   5.609  0.7792  1.9483  0.5617
 6415TIP3   OH219208   4.875   0.659   2.477 -0.2924  0.0263  0.6930
 6415TIP3    H119209   4.870   0.753   2.459 -0.0582  0.0112  0.5350
 6415TIP3    H219210   4.937   0.651   2.549 -1.0916  0.0703  1.4019
 6416TIP3   OH219211   4.119   3.312   5.471  0.0125 -0.1029  0.1954
 6416TIP3    H119212   4.140   3.386   5.529  0.1990  0.2662 -0.3344
 6416TIP3    H219213   4.114   3.237   5.529 -1.8721  0.5937  1.0007
 6417TIP3   OH219214   7.149   3.710   2.156  0.5905  0.5418 -0.5828
 6417TIP3    H119215   7.208   3.652   2.203  1.2787  1.2798 -0.5113
 6417TIP3    H219216   7.199   3.791   2.144 -0.1482  0.9302 -1.1581
 6418TIP3   OH219217   4.447   0.937   1.893 -0.1618  0.1611  0.4877
 6418TIP3    H119218   4.360   0.907   1.867 -0.1517  0.7674 -0.2795
 6418TIP3    H219219   4.451   0.921   1.987 -0.4408 -1.5264  0.2568
 6419TIP3   OH219220   0.426   2.318   4.002  0.3012  0.0263  0.0802
 6419TIP3    H119221   0.456   2.250   4.062  1.0061  0.7740  0.6140
 6419TIP3    H219222   0.507   2.352   3.963 -0.1781 -0.7976 -1.7008
 6420TIP3   OH219223   7.197   1.580   0.375 -0.0783 -0.1726 -0.1467
 6420TIP3    H119224   7.154   1.649   0.425 -0.1447  0.8692 -1.5619
 6420TIP3    H219225   7.137   1.563   0.302  0.2961 -1.1875 -0.2262
 6421TIP3   OH219226   7.074   0.268   2.706  0.3953 -0.1472 -0.5249
 6421TIP3    H119227   7.105   0.240   2.620 -1.9409  1.3804 -1.9867
 6421TIP3    H219228   7.146   0.320   2.742  0.7273  0.7734 -2.4261
 6422TIP3   OH219229   2.677   3.597   0.806  0.0598 -0.0107 -0.1365
 6422TIP3    H119230   2.709   3.509   0.787  0.2114  0.1710 -0.7763
 6422TIP3    H219231   2.728   3.653   0.747 -2.5414  0.1409 -2.4511
 6423TIP3   OH219232   6.949   2.870   5.859  0.3754  0.7035 -0.1011
 6423TIP3    H119233   7.010   2.942   5.841  0.6375  0.2766 -0.9686
 6423TIP3    H219234   7.005   2.796   5.881  0.3288 -0.2548 -2.8701
 6424TIP3   OH219235   1.155   3.727   5.527  0.4253  0.0866 -0.4301
 6424TIP3    H119236   1.173   3.641   5.489  0.2053  0.0941 -0.5529
 6424TIP3    H219237   1.193   3.722   5.615 -0.3792 -0.4656 -0.0893
 6425TIP3   OH219238   6.664   6.328   0.051  0.1837 -0.2421 -0.2671
 6425TIP3    H119239   6.721   6.276   0.109  0.7628  0.1833 -0.4536
 6425TIP3    H219240   6.601   6.264   0.017 -0.4481 -0.4266  1.1632
 6426TIP3   OH219241   1.684   0.683   1.908 -0.5736  0.6967  0.1465
 6426TIP3    H119242   1.605   0.640   1.940  0.4989 -0.5655  1.2005
 6426TIP3    H219243   1.653   0.742   1.839 -2.2674 -0.6970 -0.3536
 6427TIP3   OH219244   2.605   4.638   4.927  0.2347 -0.3293 -0.0200
 6427TIP3    H119245   2.538   4.583   4.969 -0.5335  0.0181 -0.7544
 6427TIP3    H219246   2.626   4.705   4.993  0.1974 -0.7122  0.3865
 6428TIP3   OH219247   7.099   0.604   0.168  0.3539  0.0941 -0.6866
 6428TIP3    H119248   7.184   0.561   0.173  0.0608 -0.4460 -0.3589
 6428TIP3    H219249   7.090   0.650   0.251 -0.5508 -1.5124  0.1601
 6429TIP3   OH219250   2.305   3.394   5.834 -0.3264 -0.0878  0.0715
 6429TIP3    H119251   2.348   3.413   5.751  0.2753 -0.8650  0.2056
 6429TIP3    H219252   2.250   3.318   5.816 -2.4760  1.4672 -0.3701
 6430TIP3   OH219253   6.264   4.550   5.859 -0.1148  0.0184 -0.1042
 6430TIP3    H119254   6.328   4.478   5.861  0.3070  0.3865 -0.1467
 6430TIP3    H219255   6.289   4.601   5.782 -0.1896  0.4127  0.1313
 6431TIP3   OH219256   6.153   5.031   3.233  0.2452 -0.1019 -0.0040
 6431TIP3    H119257   6.213   5.105   3.248  2.1308 -1.2736 -1.3424
 6431TIP3    H219258   6.183   4.964   3.294  0.2184 -0.6610 -0.6035
 6432TIP3   OH219259   3.921   3.649   3.622 -0.4532  0.2788 -0.1750
 6432TIP3    H119260   3.861   3.596   3.570 -0.2674 -0.1815  0.0739
 6432TIP3    H219261   3.996   3.663   3.565 -0.5668  0.4033 -0.2951
 6433TIP3   OH219262   4.400   1.676   2.719 -0.2476 -0.4445 -0.2008
 6433TIP3    H119263   4.446   1.603   2.761 -0.9338 -1.9309 -1.8959
 6433TIP3    H219264   4.309   1.647   2.711 -0.5788  0.6691 -0.7818
 6434TIP3   OH219265   1.071   0.783   0.989  0.7177  0.1315 -0.3762
 6434TIP3    H119266   1.025   0.703   1.015 -0.1209  0.3208 -1.2389
 6434TIP3    H219267   1.002   0.847   0.975  1.1835  0.3166 -2.0735
 6435TIP3   OH219268   6.436   6.439   4.667  0.1151  0.3108 -0.3066
 6435TIP3    H119269   6.502   6.452   4.599 -0.4703  0.8153 -0.7960
 6435TIP3    H219270   6.429   6.524   4.711 -0.0258  0.1926 -0.0968
 6436TIP3   OH219271   0.857   4.856   1.421 -0.1566  0.3266 -0.1424
 6436TIP3    H119272   0.829   4.807   1.343 -2.9162  1.2418  0.1541
 6436TIP3    H219273   0.932   4.907   1.391 -0.4358 -0.2138 -1.9016
 6437TIP3   OH219274   5.778   1.656   0.643  0.1400  0.6857 -0.1717
 6437TIP3    H119275   5.793   1.579   0.588 -0.6102  1.0676 -0.9333
 6437TIP3    H219276   5.740   1.720   0.584 -1.2405  0.9211  0.9350
 6438TIP3   OH219277   5.017   2.062   0.264  0.3523  0.1976  0.7288
 6438TIP3    H119278   5.070   2.140   0.250  0.2756  0.4312  1.6993
 6438TIP3    H219279   4.990   2.066   0.356 -0.1997 -0.6302  0.6223
 6439TIP3   OH219280   1.614   1.639   3.986 -0.5624 -0.0692 -0.3043
 6439TIP3    H119281   1.652   1.636   3.898  1.4526  1.7478  0.4173
 6439TIP3    H219282   1.642   1.558   4.027  0.3065  0.0466 -0.6554
 6440TIP3   OH219283   2.435   0.442   1.123 -0.2086  0.4281 -0.4031
 6440TIP3    H119284   2.354   0.436   1.072 -1.0085  0.1499  0.8625
 6440TIP3    H219285   2.496   0.489   1.066 -0.9238 -0.2472 -1.7831
 6441TIP3   OH219286   3.442   0.707   4.297  0.2166 -0.0087  0.2739
 6441TIP3    H119287   3.406   0.674   4.379 -0.2305 -0.0240  0.0760
 6441TIP3    H219288   3.375   0.767   4.264 -0.1465 -0.8986 -0.6625
 6442TIP3   OH219289   4.949   5.705   5.295  0.0469  0.2773  0.5908
 6442TIP3    H119290   4.900   5.703   5.213 -0.8497  0.6227  1.1057
 6442TIP3    H219291   5.039   5.727   5.269 -0.1169 -0.1165 -0.3386
 6443TIP3   OH219292   6.827   2.205   5.125  0.1958  0.1672 -0.0195
 6443TIP3    H119293   6.758   2.169   5.070 -0.4497  0.7021  0.4261
 6443TIP3    H219294   6.834   2.297   5.098 -0.6206  0.6253  1.2409
 6444TIP3   OH219295   1.359   1.515   3.287  0.0724 -0.2884 -0.5873
 6444TIP3    H119296   1.409   1.589   3.253  0.3146 -0.6063 -0.9408
 6444TIP3    H219297   1.403   1.490   3.368  0.0591 -0.1220 -0.5287
 6445TIP3   OH219298   2.089   1.865   4.868 -0.6282  0.0202  0.2535
 6445TIP3    H119299   2.111   1.899   4.781  0.0924 -2.7425 -0.7678
 6445TIP3    H219300   2.172   1.865   4.915 -0.9911  1.3736  0.9359
 6446TIP3   OH219301   1.596   3.269   1.553  0.4683  0.2714 -0.2261
 6446TIP3    H119302   1.518   3.324   1.556  1.1524  1.2944 -0.6756
 6446TIP3    H219303   1.645   3.292   1.632  0.6080  0.0782 -0.2557
 6447TIP3   OH219304   1.495   2.224   3.082 -0.0096  0.1584  0.0343
 6447TIP3    H119305   1.539   2.264   3.157 -0.9877 -1.5169  1.5809
 6447TIP3    H219306   1.422   2.175   3.120 -1.2913  0.2442 -2.1459
 6448TIP3   OH219307   5.298   4.980   0.115  0.3342 -0.0390 -0.2255
 6448TIP3    H119308   5.359   5.053   0.118 -0.4079  0.7541 -2.3232
 6448TIP3    H219309   5.297   4.945   0.204  3.6597  0.0116 -0.0677
 6449TIP3   OH219310   3.706   4.625   0.842 -0.2254  0.0119  0.4437
 6449TIP3    H119311   3.784   4.586   0.804 -1.0218  0.3339 -1.7018
 6449TIP3    H219312   3.680   4.564   0.911  2.1201  0.1395  1.5278
 6450TIP3   OH219313   0.926   4.861   5.095 -0.4328  0.4803  0.1695
 6450TIP3    H119314   0.920   4.951   5.129 -1.2961  0.1403  0.9416
 6450TIP3    H219315   0.981   4.815   5.159  1.4114  0.8253 -1.0755
 6451TIP3   OH219316   2.396   2.978   2.251  0.2827  0.6811  0.0289
 6451TIP3    H119317   2.438   2.898   2.219 -2.0437 -1.1297  1.1884
 6451TIP3    H219318   2.350   3.013   2.174 -1.5118 -1.0793  0.2361
 6452TIP3   OH219319   2.227   4.264   4.507  0.0242 -0.1528  0.3379
 6452TIP3    H119320   2.322   4.259   4.496  0.0460 -0.9401  0.7631
 6452TIP3    H219321   2.208   4.357   4.519  0.6140  0.1360 -0.7726
 6453TIP3   OH219322   0.343   2.354   3.258 -0.2973  0.2726  0.0181
 6453TIP3    H119323   0.346   2.384   3.167 -0.0987  0.2967  0.0314
 6453TIP3    H219324   0.364   2.432   3.310  0.3934  0.0741  0.0444
 6454TIP3   OH219325   6.103   0.738   4.348 -0.6160 -0.2357 -0.2724
 6454TIP3    H119326   6.033   0.691   4.303 -1.1462  0.1907  0.0984
 6454TIP3    H219327   6.058   0.803   4.403  0.0888  0.6374 -0.6858
 6455TIP3   OH219328   4.320   3.031   0.742 -0.2266  0.0008  0.4396
 6455TIP3    H119329   4.397   3.069   0.785 -0.4267  0.5940  0.2807
 6455TIP3    H219330   4.251   3.097   0.753 -0.3697  0.0164 -0.5010
 6456TIP3   OH219331   1.817   1.291   3.842 -0.4661  0.1162  0.2117
 6456TIP3    H119332   1.881   1.357   3.816  0.2289 -0.6097  0.0553
 6456TIP3    H219333   1.769   1.271   3.762  0.1632 -0.4772 -0.0207
 6457TIP3   OH219334   0.866   3.462   5.131  0.2107  0.3232  0.8395
 6457TIP3    H119335   0.910   3.391   5.085  0.0339  0.5167  0.3574
 6457TIP3    H219336   0.935   3.525   5.149 -0.1555  1.7304 -2.0037
 6458TIP3   OH219337   3.159   2.047   5.426  0.2602 -0.4066 -1.1231
 6458TIP3    H119338   3.248   2.060   5.394  0.2867  0.2048 -0.8195
 6458TIP3    H219339   3.148   2.114   5.494 -0.1469 -1.0115 -0.5788
 6459TIP3   OH219340   4.965   2.145   1.855  0.1705 -0.0421 -0.3718
 6459TIP3    H119341   5.029   2.093   1.903 -0.4516 -1.0212 -0.5762
 6459TIP3    H219342   4.954   2.099   1.772 -2.0238 -0.8575  0.3028
 6460TIP3   OH219343   0.153   4.678   2.315 -0.1390 -0.7416  0.4211
 6460TIP3    H119344   0.087   4.690   2.383 -0.1180 -3.2569  0.9765
 6460TIP3    H219345   0.236   4.700   2.358 -0.3441 -0.1209  0.5066
 6461TIP3   OH219346   4.229   4.671   1.227 -0.1359 -0.0004  0.2797
 6461TIP3    H119347   4.254   4.743   1.170 -1.7788 -1.8951 -3.1313
 6461TIP3    H219348   4.141   4.693   1.257  0.0973  0.2444  0.7995
 6462TIP3   OH219349   1.429   0.234   3.371 -0.3942 -0.1669 -0.1395
 6462TIP3    H119350   1.380   0.238   3.453 -1.2205  0.4551 -0.6551
 6462TIP3    H219351   1.517   0.264   3.395 -0.6258  0.0027  0.5216
 6463TIP3   OH219352   1.173   5.334   0.070 -0.5663  0.4918 -0.4520
 6463TIP3    H119353   1.094   5.380   0.098 -1.0306 -0.3763 -0.2836
 6463TIP3    H219354   1.145   5.243   0.059  1.0849 -0.5698  2.7963
 6464TIP3   OH219355   6.636   3.126   3.108 -0.6999  1.1870 -0.5510
 6464TIP3    H119356   6.680   3.108   3.024  1.9775  2.0683  0.5491
 6464TIP3    H219357   6.651   3.047   3.160  0.7843  1.9521  0.2549
 6465TIP3   OH219358   4.096   3.510   0.662  0.8402 -0.1783  0.2702
 6465TIP3    H119359   4.185   3.498   0.630  1.5501  2.1155  1.1575
 6465TIP3    H219360   4.095   3.464   0.746  0.8690 -1.0083 -0.1737
 6466TIP3   OH219361   6.299   6.267   1.383  0.3555  0.0008  0.0347
 6466TIP3    H119362   6.317   6.198   1.448 -0.0410 -0.6575 -0.5400
 6466TIP3    H219363   6.205   6.260   1.367  0.3912  0.3990 -0.3504
 6467TIP3   OH219364   1.286   2.683   4.626  0.0782 -0.2882 -0.1628
 6467TIP3    H119365   1.361   2.649   4.674 -0.7582 -1.9302  0.0624
 6467TIP3    H219366   1.225   2.609   4.622 -2.0928  1.3428  0.8281
 6468TIP3   OH219367   0.405   3.926   1.086  0.0569 -0.3511  0.5257
 6468TIP3    H119368   0.339   3.994   1.102  0.2459  0.1369 -0.6381
 6468TIP3    H219369   0.403   3.872   1.165 -2.6391 -1.1185  0.0612
 6469TIP3   OH219370   7.067   5.049   1.697 -0.0470  0.0930  0.0577
 6469TIP3    H119371   7.059   5.117   1.765 -0.7075  2.0233 -1.8408
 6469TIP3    H219372   6.982   5.005   1.697 -1.1947  2.1267 -1.4621
 6470TIP3   OH219373   6.227   2.680   0.464  0.3844 -0.3090  0.0718
 6470TIP3    H119374   6.215   2.765   0.506 -1.5689 -0.2412 -0.5154
 6470TIP3    H219375   6.211   2.616   0.533  2.3550 -0.2633  0.6425
 6471TIP3   OH219376   5.493   5.010   3.479 -0.1601  0.3977  0.2609
 6471TIP3    H119377   5.458   4.994   3.392  0.4592 -1.7572  0.3478
 6471TIP3    H219378   5.531   5.097   3.474 -0.4084  0.4432 -1.5199
 6472TIP3   OH219379   4.333   6.251   5.425 -0.8475  0.1567 -0.5534
 6472TIP3    H119380   4.380   6.257   5.508 -0.8063 -0.9754 -0.4708
 6472TIP3    H219381   4.345   6.336   5.383 -1.3132  0.9352  0.8325
 6473TIP3   OH219382   5.152   4.139   2.625  0.0816  0.3237  0.4563
 6473TIP3    H119383   5.100   4.179   2.694 -1.1157 -0.8938  0.3018
 6473TIP3    H219384   5.116   4.173   2.544  0.8183  0.9600  0.3803
 6474TIP3   OH219385   6.756   3.349   2.299  0.4832 -0.2833 -0.0651
 6474TIP3    H119386   6.817   3.291   2.344  1.2480  1.0439  0.6683
 6474TIP3    H219387   6.795   3.436   2.308 -0.5865  0.3428 -1.2068
 6475TIP3   OH219388   3.576   4.294   1.985  0.8538 -0.4340 -0.7922
 6475TIP3    H119389   3.488   4.257   1.987  1.2943 -1.4610  1.4012
 6475TIP3    H219390   3.600   4.293   1.892 -1.1608 -0.7483 -1.3550
 6476TIP3   OH219391   6.725   2.939   4.000  0.4354 -0.1640 -0.3377
 6476TIP3    H119392   6.689   2.927   4.088  2.4891 -4.0242  0.1934
 6476TIP3    H219393   6.818   2.956   4.014  0.7667 -0.6634 -1.7267
 6477TIP3   OH219394   0.792   3.379   0.802 -0.2836  0.3718 -0.5911
 6477TIP3    H119395   0.747   3.299   0.776  0.3566 -0.9892  2.1567
 6477TIP3    H219396   0.853   3.396   0.730 -0.2676 -1.7384 -1.1526
 6478TIP3   OH219397   3.925   1.948   0.811 -0.3085 -0.0429 -0.0368
 6478TIP3    H119398   3.972   1.866   0.825  1.2893  1.0293  1.1970
 6478TIP3    H219399   3.858   1.950   0.879  0.3958  0.1712  0.6656
 6479TIP3   OH219400   3.103   6.158   4.910 -0.1705  0.6156  0.6572
 6479TIP3    H119401   3.092   6.172   5.004 -0.5441  1.6890  0.4666
 6479TIP3    H219402   3.032   6.208   4.870 -0.3149 -0.2441 -0.1778
 6480TIP3   OH219403   6.671   5.633   2.137  0.3989 -0.0526  0.0949
 6480TIP3    H119404   6.631   5.719   2.154  2.1034  0.4550  1.8883
 6480TIP3    H219405   6.711   5.608   2.220  0.8137 -2.1566 -0.6680
 6481TIP3   OH219406   5.604   5.356   3.184 -0.7551  0.1621 -0.0897
 6481TIP3    H119407   5.654   5.301   3.124 -0.0264 -0.4406  1.0384
 6481TIP3    H219408   5.532   5.390   3.131 -0.2167 -0.4680 -1.2587
 6482TIP3   OH219409   1.087   5.958   1.550 -0.8504  0.2047  0.1690
 6482TIP3    H119410   1.036   5.971   1.469 -0.5588  0.6490  0.0540
 6482TIP3    H219411   1.027   5.911   1.608 -0.8577 -0.6569 -0.5212
 6483TIP3   OH219412   3.085   5.336   5.003  0.5738 -0.0749  0.2404
 6483TIP3    H119413   3.040   5.401   4.949  0.6617 -0.5000 -0.3475
 6483TIP3    H219414   3.035   5.335   5.085  0.1145  0.1837 -0.0298
 6484TIP3   OH219415   3.363   0.778   0.091 -0.0101  0.5379 -0.0684
 6484TIP3    H119416   3.383   0.863   0.130  0.0533  1.4610 -1.9907
 6484TIP3    H219417   3.442   0.726   0.105  0.3016  1.1108  0.3420
 6485TIP3   OH219418   5.649   2.538   1.073  0.0341 -0.1651  0.0514
 6485TIP3    H119419   5.734   2.550   1.032 -0.5336 -0.8256 -1.4250
 6485TIP3    H219420   5.638   2.443   1.076 -0.5443 -0.0890  0.4328
 6486TIP3   OH219421   3.282   2.166   1.752  0.0099  0.1970 -0.7137
 6486TIP3    H119422   3.213   2.175   1.818 -0.2000  1.1361 -1.0418
 6486TIP3    H219423   3.358   2.136   1.801  0.1151  1.7415  0.1450
 6487TIP3   OH219424   2.006   0.802   3.354  0.5880  0.0885 -0.1912
 6487TIP3    H119425   2.008   0.794   3.449  0.6138 -1.5849 -0.3041
 6487TIP3    H219426   2.098   0.801   3.327  0.5971 -3.4207 -0.4450
 6488TIP3   OH219427   5.172   5.515   3.617  0.1841 -0.1436 -0.6410
 6488TIP3    H119428   5.256   5.492   3.658  0.4906 -2.1067 -2.1612
 6488TIP3    H219429   5.169   5.460   3.538 -2.5598 -0.1650 -0.6190
 6489TIP3   OH219430   5.768   4.188   5.383  0.1623  0.2300  0.6420
 6489TIP3    H119431   5.783   4.173   5.476 -1.6774 -0.7620  0.8268
 6489TIP3    H219432   5.732   4.105   5.350  2.2186  0.0243 -1.3275
 6490TIP3   OH219433   6.379   0.133   3.075 -0.0355 -0.4039  0.2680
 6490TIP3    H119434   6.419   0.087   3.149 -0.2295  1.5040  1.6184
 6490TIP3    H219435   6.286   0.138   3.098  0.3915  3.5456  1.9335
 6491TIP3   OH219436   6.039   0.787   2.867  0.1335 -0.4367  0.1211
 6491TIP3    H119437   6.107   0.851   2.845 -0.2169  1.1171  3.0902
 6491TIP3    H219438   6.086   0.705   2.879  1.1879  0.1414  0.0434
 6492TIP3   OH219439   4.722   5.971   1.569 -0.1290 -0.0525  0.1033
 6492TIP3    H119440   4.673   6.051   1.548  0.3297  0.1822 -0.0998
 6492TIP3    H219441   4.769   5.950   1.488 -0.9624 -1.0631 -0.1382
 6493TIP3   OH219442   1.819   0.131   4.958 -0.0119 -0.2016 -0.1213
 6493TIP3    H119443   1.828   0.129   4.863  3.2999 -0.2834  0.0807
 6493TIP3    H219444   1.807   0.039   4.983  0.1290 -0.2958 -0.3988
 6494TIP3   OH219445   6.458   1.511   4.240 -0.3926  0.2095  0.4579
 6494TIP3    H119446   6.387   1.575   4.237  0.9208  1.7227  0.4284
 6494TIP3    H219447   6.435   1.453   4.313 -1.3613  1.0266  0.8209
 6495TIP3   OH219448   4.480   3.625   1.521 -0.5149 -0.1966  0.1187
 6495TIP3    H119449   4.534   3.704   1.514 -0.9305  0.1905  1.1211
 6495TIP3    H219450   4.425   3.626   1.443  1.9833 -1.4569 -1.8245
 6496TIP3   OH219451   2.774   0.005   5.722 -0.2066 -0.0538 -0.3957
 6496TIP3    H119452   2.716   0.080   5.726 -1.6483 -1.0792 -1.2889
 6496TIP3    H219453   2.814   0.001   5.809 -0.3378  1.5310 -0.2347
 6497TIP3   OH219454   5.411   2.014   0.816  0.0009 -0.3537 -0.2255
 6497TIP3    H119455   5.397   1.920   0.834 -1.9182  0.0694  0.7863
 6497TIP3    H219456   5.492   2.035   0.862  0.6233 -1.5595 -0.7140
 6498TIP3   OH219457   2.638   0.830   1.173 -0.5087  0.4280  0.0307
 6498TIP3    H119458   2.546   0.813   1.195 -0.1056 -2.5363 -0.0600
 6498TIP3    H219459   2.687   0.793   1.246  0.6630  2.1892  0.1958
 6499TIP3   OH219460   7.018   0.135   4.632 -0.4797 -0.5490  0.6486
 6499TIP3    H119461   6.945   0.143   4.571 -0.3129  1.1942  0.6319
 6499TIP3    H219462   7.048   0.225   4.646  3.1336 -1.2780 -1.0996
 6500TIP3   OH219463   0.548   0.720   5.323  0.2390 -0.0922 -0.6150
 6500TIP3    H119464   0.480   0.658   5.297 -2.1958  2.0482  0.1915
 6500TIP3    H219465   0.628   0.668   5.329 -1.6671 -3.1524  0.0919
 6501TIP3   OH219466   4.498   3.757   2.214  0.3957  0.1313  0.2213
 6501TIP3    H119467   4.547   3.800   2.144  1.5916 -0.4443  0.6964
 6501TIP3    H219468   4.552   3.683   2.240  0.1559  0.5424  2.0182
 6502TIP3   OH219469   4.756   6.530   4.738 -0.4183 -0.4312  0.1752
 6502TIP3    H119470   4.715   6.528   4.652  0.3959  1.3654 -0.3066
 6502TIP3    H219471   4.838   6.482   4.726 -1.3644 -2.2415  0.6088
 6503TIP3   OH219472   3.398   6.708   0.395  0.1614 -0.3443 -0.1756
 6503TIP3    H119473   3.448   6.701   0.477 -0.4230 -0.9810  0.1413
 6503TIP3    H219474   3.461   6.686   0.327  0.7865  0.6685  0.0521
 6504TIP3   OH219475   4.445   2.492   4.329  0.3304 -0.2003 -0.2273
 6504TIP3    H119476   4.489   2.529   4.252  1.8849 -0.4685  0.5017
 6504TIP3    H219477   4.364   2.543   4.337  1.9033  2.3973  0.1423
 6505TIP3   OH219478   1.789   3.384   4.493 -0.2600  0.1657 -0.2264
 6505TIP3    H119479   1.857   3.337   4.445 -1.7369  0.8405 -3.2153
 6505TIP3    H219480   1.799   3.475   4.464 -0.0399  1.0171  2.2986
 6506TIP3   OH219481   4.998   4.571   5.493  0.1683 -0.8787 -0.2845
 6506TIP3    H119482   4.922   4.514   5.486  0.0246 -0.7105 -0.0961
 6506TIP3    H219483   5.073   4.512   5.492 -0.0308 -1.2290  1.6723
 6507TIP3   OH219484   3.745   1.669   4.106  0.5899 -0.2794 -0.5258
 6507TIP3    H119485   3.664   1.719   4.114  1.3993  0.8082  1.2749
 6507TIP3    H219486   3.717   1.578   4.117 -0.1995  0.2007  1.9899
 6508TIP3   OH219487   4.571   0.288   3.716 -0.2220  0.0679 -0.0657
 6508TIP3    H119488   4.624   0.355   3.673 -0.9065  0.4835 -0.2738
 6508TIP3    H219489   4.609   0.205   3.687  0.1268  0.3569 -0.4495
 6509TIP3   OH219490   4.737   6.358   5.208  0.1399 -0.2080 -0.3483
 6509TIP3    H119491   4.681   6.382   5.134 -0.2350 -1.0534 -0.3485
 6509TIP3    H219492   4.691   6.391   5.285 -0.1081 -0.4524 -0.3910
 6510TIP3   OH219493   5.496   4.587   3.737 -0.1436 -0.4163  0.1109
 6510TIP3    H119494   5.466   4.497   3.729  1.5351 -0.8842 -2.0879
 6510TIP3    H219495   5.420   4.640   3.714 -1.0015 -1.2723  0.9095
 6511TIP3   OH219496   6.099   3.059   4.496 -0.7945 -0.2796 -0.0205
 6511TIP3    H119497   6.147   2.991   4.449 -1.6734 -0.6174 -0.4378
 6511TIP3    H219498   6.067   3.016   4.575 -1.7485 -0.4878 -0.5111
 6512TIP3   OH219499   5.643   0.222   4.277  0.0478  0.1079  0.2829
 6512TIP3    H119500   5.599   0.143   4.310 -0.3841 -0.8871 -2.4317
 6512TIP3    H219501   5.726   0.191   4.243 -0.2863  0.7286 -1.1613
 6513TIP3   OH219502   2.702   5.384   0.073  0.3883 -0.0590 -0.4398
 6513TIP3    H119503   2.651   5.435   0.136  2.0615  2.5342 -1.0501
 6513TIP3    H219504   2.763   5.334   0.127 -1.3456 -1.6129  0.1737
 6514TIP3   OH219505   0.385   5.793   4.253  0.4710  0.4837  0.0523
 6514TIP3    H119506   0.309   5.836   4.293  0.9831 -0.5260  2.2729
 6514TIP3    H219507   0.444   5.865   4.231  0.5596  1.1021  2.0825
 6515TIP3   OH219508   0.831   4.770   3.454 -0.2057  0.2809  0.2071
 6515TIP3    H119509   0.740   4.785   3.476 -0.9803 -0.6838 -2.0507
 6515TIP3    H219510   0.861   4.853   3.416 -0.5451  0.1909 -0.2583
 6516TIP3   OH219511   0.030   5.411   1.332 -0.1603  0.0982  0.1817
 6516TIP3    H119512  -0.028   5.339   1.358 -1.5003  1.1405  0.1933
 6516TIP3    H219513   0.117   5.380   1.355 -0.7112 -1.4348  0.3850
 6517TIP3   OH219514   5.821   1.856   4.068 -0.2161  0.0966 -0.1388
 6517TIP3    H119515   5.861   1.837   3.983  1.5204 -0.3507  0.7348
 6517TIP3    H219516   5.745   1.798   4.071 -0.8449  0.7769 -1.7453
 6518TIP3   OH219517   4.326   2.489   0.904 -0.0148  0.2406  0.1992
 6518TIP3    H119518   4.253   2.483   0.966  0.7011  0.8095  1.1371
 6518TIP3    H219519   4.337   2.400   0.871 -1.4108  0.2332 -0.3115
 6519TIP3   OH219520   3.519   1.887   5.602  0.5437 -0.8670  0.4864
 6519TIP3    H119521   3.534   1.980   5.622 -0.3576 -0.5709 -0.1216
 6519TIP3    H219522   3.597   1.843   5.634  0.8252  0.0558  1.1284
 6520TIP3   OH219523   0.374   4.913   1.326 -0.1719  0.5958  0.6224
 6520TIP3    H119524   0.388   4.831   1.372 -1.0185 -0.3328 -0.7025
 6520TIP3    H219525   0.457   4.960   1.335  0.7816 -0.9575  0.3198
 6521TIP3   OH219526   4.184   4.734   4.374  0.1260  0.2148 -0.0292
 6521TIP3    H119527   4.203   4.679   4.450 -0.5248  0.2215  0.1435
 6521TIP3    H219528   4.113   4.791   4.403 -3.3261 -2.7131 -1.9020
 6522TIP3   OH219529   1.556   3.030   3.250  0.2788  0.6585  0.5070
 6522TIP3    H119530   1.500   3.092   3.296  1.4083  0.7216  1.8653
 6522TIP3    H219531   1.567   3.068   3.163 -1.5952  0.7296  0.2769
 6523TIP3   OH219532   3.356   5.222   2.620  0.5746  0.6535  0.3470
 6523TIP3    H119533   3.343   5.145   2.675  0.7809  0.8869  0.7244
 6523TIP3    H219534   3.451   5.235   2.618  0.4831  1.4820  1.0942
 6524TIP3   OH219535   1.267   2.334   2.838  0.1555 -0.4520  0.1651
 6524TIP3    H119536   1.258   2.345   2.933  0.7720 -0.0341  0.1784
 6524TIP3    H219537   1.228   2.248   2.820  3.4823 -2.3861  1.3744
 6525TIP3   OH219538   7.118   5.653   0.660  0.2851 -0.3574  0.2367
 6525TIP3    H119539   7.070   5.633   0.740  0.3434  0.4316  0.4788
 6525TIP3    H219540   7.092   5.742   0.639 -1.1245 -1.1569 -1.6467
 6526TIP3   OH219541   6.717   6.323   0.694 -0.0620 -0.0194 -0.1896
 6526TIP3    H119542   6.702   6.417   0.706 -1.0788 -0.3189  1.0652
 6526TIP3    H219543   6.813   6.314   0.694  0.0386  0.9411  0.2240
 6527TIP3   OH219544   2.653   0.987   0.425  0.5092  0.6301  0.0184
 6527TIP3    H119545   2.722   0.982   0.492 -1.0172  1.8264  1.7966
 6527TIP3    H219546   2.582   1.036   0.468 -0.8623  0.7528 -2.2414
 6528TIP3   OH219547   0.874   5.850   5.643  0.1974  0.2846 -0.3801
 6528TIP3    H119548   0.903   5.761   5.624 -0.3688  0.0198 -0.0071
 6528TIP3    H219549   0.788   5.857   5.603  0.5394  0.8994 -1.0182
 6529TIP3   OH219550   0.918   2.350   0.736 -0.0986 -0.2376 -0.4120
 6529TIP3    H119551   0.945   2.435   0.700  0.2046 -0.0798  0.1689
 6529TIP3    H219552   0.961   2.346   0.822 -1.3948 -0.2771  0.2536
 6530TIP3   OH219553   1.930   6.225   2.357 -0.0788 -0.3532 -0.2570
 6530TIP3    H119554   1.876   6.167   2.411 -0.8018  0.0251 -0.5473
 6530TIP3    H219555   1.999   6.255   2.416  0.3170 -1.5191 -0.1159
 6531TIP3   OH219556   3.738   1.732   0.621  0.4616  0.2450 -0.3861
 6531TIP3    H119557   3.706   1.770   0.539 -0.7804  0.5493  0.2164
 6531TIP3    H219558   3.815   1.682   0.595  0.6345  1.0828 -1.5956
 6532TIP3   OH219559   6.200   4.463   0.573  0.5276  0.1821 -0.2736
 6532TIP3    H119560   6.262   4.506   0.632  1.0490 -0.0716 -0.6217
 6532TIP3    H219561   6.133   4.426   0.630  0.2350  1.1973  0.0499
 6533TIP3   OH219562   5.166   5.663   0.899  0.5517 -0.3902  0.0584
 6533TIP3    H119563   5.074   5.637   0.912  0.9633 -1.7368  0.4522
 6533TIP3    H219564   5.196   5.690   0.985  0.1615  1.4211 -0.3261
 6534TIP3   OH219565   4.001   6.730   4.270 -0.4346 -0.4325 -0.1192
 6534TIP3    H119566   4.049   6.677   4.207 -0.1306 -0.9555  0.5371
 6534TIP3    H219567   4.003   6.679   4.351 -1.4035 -0.0983  0.1375
 6535TIP3   OH219568   1.318   0.436   0.516 -0.1546  0.5749  0.9303
 6535TIP3    H119569   1.240   0.389   0.487 -1.7775  3.3036  0.5556
 6535TIP3    H219570   1.304   0.449   0.610  1.5899 -1.8501  1.6383
 6536TIP3   OH219571   0.152   2.864   4.088  0.5737 -0.0109  0.0743
 6536TIP3    H119572   0.069   2.903   4.060  0.3780 -1.5432 -1.7078
 6536TIP3    H219573   0.206   2.939   4.114 -0.7707  1.1745 -0.4132
 6537TIP3   OH219574   4.627   3.753   3.824  0.1243 -0.0108 -0.3852
 6537TIP3    H119575   4.608   3.672   3.777  2.1944 -1.2226  0.7465
 6537TIP3    H219576   4.543   3.777   3.864 -0.6863 -1.1947 -1.2927
 6538TIP3   OH219577   5.906   4.626   5.430 -0.5618  0.3094  0.2928
 6538TIP3    H119578   5.959   4.579   5.494  0.6162  1.4150  0.1594
 6538TIP3    H219579   5.952   4.613   5.347 -1.5855 -0.3496 -0.2021
 6539TIP3   OH219580   3.880   1.997   5.174  0.1902 -0.1639 -0.1562
 6539TIP3    H119581   3.792   2.018   5.207  0.0630 -1.2803  0.2575
 6539TIP3    H219582   3.865   1.931   5.107  0.6471  0.3774 -0.8002
 6540TIP3   OH219583   0.598   3.858   3.384 -0.2609 -0.9032 -0.4518
 6540TIP3    H119584   0.595   3.775   3.431  1.2156 -1.8181 -1.8580
 6540TIP3    H219585   0.663   3.910   3.430  0.2085 -1.2815 -0.6808
 6541TIP3   OH219586   1.420   6.268   5.658  0.2311  0.1486 -0.0171
 6541TIP3    H119587   1.492   6.211   5.634 -0.0865 -0.1500 -0.2726
 6541TIP3    H219588   1.352   6.209   5.692  0.5194  0.5250  1.2704
 6542TIP3   OH219589   3.813   2.611   3.313  0.0431 -0.3495 -0.0364
 6542TIP3    H119590   3.872   2.682   3.339  0.1610 -0.9104  1.2807
 6542TIP3    H219591   3.735   2.656   3.281  1.1712  0.4159 -1.9139
 6543TIP3   OH219592   6.987   2.426   2.059 -0.3640 -0.0225 -0.0678
 6543TIP3    H119593   7.040   2.361   2.105 -0.7576  0.0218  0.4612
 6543TIP3    H219594   6.900   2.419   2.099 -0.4638  0.6780 -0.1462
 6544TIP3   OH219595   3.853   4.210   4.576  0.8358  0.0628  0.3228
 6544TIP3    H119596   3.808   4.155   4.511 -0.4000  1.4870 -0.0831
 6544TIP3    H219597   3.895   4.147   4.635 -1.0435 -1.3489  0.2518
 6545TIP3   OH219598   1.527   3.511   5.525  0.3793 -0.2443  0.0774
 6545TIP3    H119599   1.522   3.589   5.470  2.6265  0.3713  0.6579
 6545TIP3    H219600   1.553   3.441   5.465 -0.6094 -0.3385 -0.2521
 6546TIP3   OH219601   0.799   0.877   5.754 -0.0155 -0.1397  0.2470
 6546TIP3    H119602   0.758   0.919   5.678 -1.3537 -1.6228  0.0837
 6546TIP3    H219603   0.892   0.877   5.735  0.0080  2.2324  0.0320
 6547TIP3   OH219604   6.061   6.317   5.731  0.7369  0.1346  0.0935
 6547TIP3    H119605   6.069   6.247   5.666 -0.0173  0.0455  0.0850
 6547TIP3    H219606   6.121   6.292   5.801 -1.8379 -2.2924  1.6532
 6548TIP3   OH219607   3.746   2.201   4.586  0.5430  0.1467 -0.1924
 6548TIP3    H119608   3.722   2.145   4.513 -2.5244  1.0668 -0.0095
 6548TIP3    H219609   3.816   2.257   4.552  2.8151 -2.7744 -0.7398
 6549TIP3   OH219610   6.540   2.865   5.826 -0.1778 -0.6754 -0.3451
 6549TIP3    H119611   6.542   2.781   5.873 -2.7211 -0.7860 -0.2832
 6549TIP3    H219612   6.624   2.869   5.781  0.4244 -2.7829  0.4593
 6550TIP3   OH219613   5.652   4.776   1.160  0.2312  0.6263 -0.0304
 6550TIP3    H119614   5.747   4.783   1.169  0.2536 -0.0205  0.3057
 6550TIP3    H219615   5.625   4.859   1.119  0.7724  1.4216  1.1721
 6551TIP3   OH219616   1.503   3.151   4.808 -0.7787  0.2254 -0.2649
 6551TIP3    H119617   1.452   3.159   4.889 -1.0321 -0.5625 -0.3318
 6551TIP3    H219618   1.555   3.071   4.821 -0.3632  0.4302 -0.6357
 6552TIP3   OH219619   2.409   3.864   2.130 -0.0393  0.2727  0.2750
 6552TIP3    H119620   2.385   3.950   2.096 -0.3750  0.1711  0.2532
 6552TIP3    H219621   2.332   3.834   2.177 -0.7245 -0.9223 -1.4859
 6553TIP3   OH219622   6.463   0.128   3.760 -0.3297 -0.3942 -0.0407
 6553TIP3    H119623   6.459   0.211   3.806  0.2146 -0.9387  1.0254
 6553TIP3    H219624   6.483   0.151   3.669  0.1471  0.6150  0.3130
 6554TIP3   OH219625   0.860   1.925   3.935  0.1771 -0.4949  0.2529
 6554TIP3    H119626   0.806   1.848   3.917  0.2028 -0.5753  0.5148
 6554TIP3    H219627   0.817   1.967   4.010 -0.8400  0.6939 -0.9423
 6555TIP3   OH219628   2.843   2.855   0.331 -0.5248  0.1394 -0.5587
 6555TIP3    H119629   2.888   2.837   0.249  0.1466  1.3961 -0.4890
 6555TIP3    H219630   2.759   2.892   0.305 -0.2374  0.7121 -0.6969
 6556TIP3   OH219631   5.106   6.049   0.487  0.5452  0.1164  0.5405
 6556TIP3    H119632   5.164   6.043   0.411 -1.2552  0.6015 -0.9392
 6556TIP3    H219633   5.036   6.108   0.459 -1.0658 -1.0239  1.9676
 6557TIP3   OH219634   6.219   2.600   5.221 -0.0604 -0.4127  0.0440
 6557TIP3    H119635   6.218   2.681   5.273  0.6991 -0.0380 -0.4972
 6557TIP3    H219636   6.242   2.532   5.284  0.3291 -0.0440  0.3101
 6558TIP3   OH219637   1.055   4.699   5.276  0.0062 -0.2972  1.1046
 6558TIP3    H119638   1.006   4.617   5.286  0.8036 -1.3056 -2.0638
 6558TIP3    H219639   1.147   4.672   5.273  0.2669  0.6328 -0.1975
 6559TIP3   OH219640   1.320   1.711   0.456  0.2607 -0.1935  0.0255
 6559TIP3    H119641   1.292   1.637   0.403  0.1290 -0.7603  0.8616
 6559TIP3    H219642   1.240   1.745   0.496  0.3035  0.4799 -0.4319
 6560TIP3   OH219643   4.099   4.470   3.261 -0.0308 -0.0262 -0.1426
 6560TIP3    H119644   4.019   4.507   3.223 -2.7719 -4.1194  0.9023
 6560TIP3    H219645   4.147   4.436   3.185 -0.4760  0.3864 -0.6208
 6561TIP3   OH219646   5.616   0.597   2.508 -0.0794 -0.2130 -0.4301
 6561TIP3    H119647   5.663   0.569   2.429 -0.9727  0.4225 -1.2205
 6561TIP3    H219648   5.598   0.516   2.556 -0.1242 -0.6860 -1.2282
 6562TIP3   OH219649   4.990   2.914   0.406 -0.0609  0.8751 -0.1246
 6562TIP3    H119650   4.934   2.867   0.344  0.5100  1.1357 -0.8574
 6562TIP3    H219651   4.955   2.892   0.492 -0.4707 -0.0152 -0.5077
 6563TIP3   OH219652   0.458   0.335   3.651 -0.2356  0.2346  0.1062
 6563TIP3    H119653   0.449   0.371   3.563  0.7515 -0.3206 -0.2369
 6563TIP3    H219654   0.525   0.267   3.642 -0.4018 -0.0920  1.2089
 6564TIP3   OH219655   3.102   0.060   2.029  0.4062 -0.0677 -0.2217
 6564TIP3    H119656   3.099   0.065   2.125  0.6174  3.6981 -0.2719
 6564TIP3    H219657   3.021   0.015   2.006 -0.8191  0.9857  1.7019
 6565TIP3   OH219658   2.754   4.388   3.381  0.0833 -0.6215  0.3032
 6565TIP3    H119659   2.727   4.421   3.467  0.7688  1.0607 -0.0870
 6565TIP3    H219660   2.834   4.437   3.361 -0.0665 -0.9851 -1.2871
 6566TIP3   OH219661   3.432   2.967   1.883 -0.3987  0.7256 -0.4063
 6566TIP3    H119662   3.356   2.911   1.873 -0.3573  0.8414 -1.5580
 6566TIP3    H219663   3.418   3.038   1.820  1.0802  0.2546 -1.3291
 6567TIP3   OH219664   6.686   3.342   1.537 -0.0305  0.4181 -0.3203
 6567TIP3    H119665   6.640   3.376   1.615  1.1901 -0.2710  0.7289
 6567TIP3    H219666   6.739   3.416   1.507 -0.5973  0.7240 -0.5939
 6568TIP3   OH219667   2.569   4.446   2.360  0.2488  0.1401 -0.3680
 6568TIP3    H119668   2.477   4.423   2.365  0.2074  0.3504 -0.1360
 6568TIP3    H219669   2.610   4.373   2.314 -0.0072 -0.0256 -0.3328
 6569TIP3   OH219670   1.152   5.981   3.980  0.3448 -0.2589  0.9307
 6569TIP3    H119671   1.060   5.993   4.005  0.3351 -0.3216  0.9256
 6569TIP3    H219672   1.201   6.020   4.052  0.3072  1.7504 -0.0633
 6570TIP3   OH219673   4.682   4.889   5.616  0.0373 -0.0073  0.9334
 6570TIP3    H119674   4.674   4.834   5.539 -2.3534 -1.7565  2.2991
 6570TIP3    H219675   4.775   4.886   5.638  0.8415  0.7315 -1.8845
 6571TIP3   OH219676   4.090   4.963   2.462 -0.1956  0.2718 -0.1962
 6571TIP3    H119677   4.060   4.987   2.374  1.5185  0.9862 -0.6223
 6571TIP3    H219678   4.143   4.885   2.449 -1.0038 -0.3895  0.4020
 6572TIP3   OH219679   2.520   4.147   3.492  0.4225 -0.2427 -0.0432
 6572TIP3    H119680   2.571   4.105   3.560  1.7564  0.9512 -0.2694
 6572TIP3    H219681   2.565   4.124   3.410 -0.6599 -0.9480 -0.4674
 6573TIP3   OH219682   3.745   4.241   2.417  0.3538  0.1599  0.3578
 6573TIP3    H119683   3.832   4.229   2.378  0.3317  0.8655  0.0813
 6573TIP3    H219684   3.763   4.269   2.507  0.4061 -0.4164  0.5311
 6574TIP3   OH219685   1.424   0.214   2.681 -0.4797  0.2128  0.1283
 6574TIP3    H119686   1.396   0.126   2.655  1.2062  0.1412 -1.7027
 6574TIP3    H219687   1.483   0.200   2.754  1.9203 -0.5463 -1.8088
 6575TIP3   OH219688   0.857   6.266   1.522  0.6894  0.1272  0.0208
 6575TIP3    H119689   0.929   6.328   1.515  2.5630 -1.8550  0.5283
 6575TIP3    H219690   0.888   6.188   1.475 -0.8227 -1.0700  0.8975
 6576TIP3   OH219691   4.350   0.212   1.880  0.2726  0.4302 -0.2210
 6576TIP3    H119692   4.313   0.254   1.957  0.8201  1.3873 -0.4683
 6576TIP3    H219693   4.442   0.196   1.904 -0.2274 -1.9125  0.3876
 6577TIP3   OH219694   2.643   2.762   0.781 -0.0072  0.1946  0.0522
 6577TIP3    H119695   2.689   2.802   0.855 -1.8615  2.0795  0.2914
 6577TIP3    H219696   2.704   2.770   0.708  0.8601  0.7044  0.8054
 6578TIP3   OH219697   3.069   2.300   0.035  0.0607  0.6649  0.1828
 6578TIP3    H119698   3.098   2.221   0.080  1.2512  0.8321 -0.2589
 6578TIP3    H219699   3.149   2.353   0.023 -0.5842  1.5958 -0.1852
 6579TIP3   OH219700   0.436   6.352   3.389 -0.1756 -0.2617 -0.0807
 6579TIP3    H119701   0.525   6.320   3.372 -0.0572 -0.5649  1.0596
 6579TIP3    H219702   0.411   6.310   3.471 -1.0626  0.4762  0.0341
 6580TIP3   OH219703   5.185   4.400   0.553  0.1109 -0.0351  0.1780
 6580TIP3    H119704   5.157   4.310   0.537  2.9996 -0.6894 -1.9505
 6580TIP3    H219705   5.261   4.392   0.610  1.3071  0.8647 -1.2170
 6581TIP3   OH219706   5.627   6.059   3.255  0.9979 -0.0996 -0.4682
 6581TIP3    H119707   5.623   5.963   3.259  0.4807 -0.1846 -2.0574
 6581TIP3    H219708   5.716   6.079   3.227  1.2288 -0.0866  0.2618
 6582TIP3   OH219709   6.016   0.316   3.396 -0.9638  0.0573 -0.2282
 6582TIP3    H119710   5.953   0.246   3.379 -1.1485  0.7187 -2.6002
 6582TIP3    H219711   6.101   0.273   3.396 -0.9269 -0.0772 -3.2308
 6583TIP3   OH219712   3.468   5.508   5.852 -0.2471 -0.2773 -0.2741
 6583TIP3    H119713   3.551   5.554   5.856  0.2182 -1.1115  0.0347
 6583TIP3    H219714   3.474   5.456   5.771 -1.9439  2.3224 -2.2245
 6584TIP3   OH219715   2.822   3.800   3.158  0.1755 -0.5436 -1.0875
 6584TIP3    H119716   2.803   3.866   3.091 -0.7057 -0.9343 -1.2292
 6584TIP3    H219717   2.917   3.792   3.157  0.4318  1.6005 -0.2260
 6585TIP3   OH219718   0.161   6.175   0.520 -0.3276 -0.2049  0.0814
 6585TIP3    H119719   0.182   6.084   0.499  0.2134 -1.0417  3.5857
 6585TIP3    H219720   0.246   6.219   0.523 -0.6593  0.8475 -2.7856
 6586TIP3   OH219721   5.262   2.352   5.516 -0.1716 -0.8239 -0.1459
 6586TIP3    H119722   5.252   2.304   5.598 -0.4808  1.6589  1.3704
 6586TIP3    H219723   5.211   2.301   5.453 -2.4720 -1.2820  1.8989
 6587TIP3   OH219724   1.796   1.597   3.203  0.0821  0.0771 -0.0046
 6587TIP3    H119725   1.875   1.599   3.149  0.2909  0.3745  0.3071
 6587TIP3    H219726   1.737   1.536   3.158  0.2921  0.2428 -0.5110
 6588TIP3   OH219727   4.617   6.401   5.488 -0.7020  0.4488 -0.7402
 6588TIP3    H119728   4.544   6.361   5.536 -0.6365 -0.1050 -1.0965
 6588TIP3    H219729   4.594   6.494   5.483 -0.7640  0.4998  0.2626
 6589TIP3   OH219730   4.921   4.757   5.296 -0.2520 -0.2110  0.4244
 6589TIP3    H119731   4.898   4.689   5.233 -0.3108 -0.5810  0.8400
 6589TIP3    H219732   4.938   4.710   5.378 -0.0597  0.2504  0.6581
 6590TIP3   OH219733   6.814   4.494   3.247 -0.1131  0.0832  0.4442
 6590TIP3    H119734   6.891   4.548   3.262 -0.2578  0.1834  0.8229
 6590TIP3    H219735   6.778   4.526   3.164  0.3461 -0.0788  0.1816
 6591TIP3   OH219736   3.918   6.404   4.992 -0.2993 -0.0278 -0.7465
 6591TIP3    H119737   3.955   6.447   5.069 -1.5777  0.8273 -0.5950
 6591TIP3    H219738   3.994   6.361   4.951  1.5798  4.0576 -2.0983
 6592TIP3   OH219739   4.833   5.648   5.530 -0.4213  1.0280 -0.6975
 6592TIP3    H119740   4.763   5.591   5.497 -0.4335  1.3098 -1.1781
 6592TIP3    H219741   4.871   5.686   5.451  1.4390 -0.4378 -0.5868
 6593TIP3   OH219742   6.985   1.746   5.199  0.3704 -0.6485  0.2582
 6593TIP3    H119743   7.019   1.795   5.124  0.4803 -0.9723  0.0920
 6593TIP3    H219744   7.027   1.785   5.275 -1.3226  1.0958  0.3832
 6594TIP3   OH219745   7.099   6.338   2.146  0.4507 -0.1516 -0.1683
 6594TIP3    H119746   7.147   6.385   2.078  1.5481 -0.8164  0.1117
 6594TIP3    H219747   7.126   6.381   2.228 -0.5830  0.4114 -0.0989
 6595TIP3   OH219748   6.622   5.468   0.567 -0.1675 -0.2136  0.5250
 6595TIP3    H119749   6.558   5.521   0.521  0.8325  0.6206  0.0671
 6595TIP3    H219750   6.703   5.479   0.518  1.0086  0.8964  2.5803
 6596TIP3   OH219751   0.970   6.457   0.700  0.2546 -0.6006 -0.2561
 6596TIP3    H119752   0.926   6.405   0.768 -0.8133 -0.4900 -0.8470
 6596TIP3    H219753   0.901   6.511   0.663  1.3916  1.5275  0.5660
 6597TIP3   OH219754   4.647   3.055   2.357 -0.1083  0.1515  0.1340
 6597TIP3    H119755   4.675   3.103   2.434 -1.9997  2.8782 -0.7457
 6597TIP3    H219756   4.592   2.984   2.391  1.3255 -0.4155  1.3733
 6598TIP3   OH219757   3.183   3.961   2.514 -0.2141 -0.3533 -0.2068
 6598TIP3    H119758   3.170   3.870   2.538 -0.6952 -0.0525  0.7557
 6598TIP3    H219759   3.113   3.979   2.451  0.3248 -0.8345 -0.9529
 6599TIP3   OH219760   3.552   4.759   2.700  0.4452  0.1304 -0.6264
 6599TIP3    H119761   3.505   4.727   2.623 -3.2583 -0.2454  1.5187
 6599TIP3    H219762   3.521   4.849   2.710 -2.2529 -0.9553  2.3684
 6600TIP3   OH219763   5.213   5.612   4.166  0.2753  0.3854 -0.7981
 6600TIP3    H119764   5.223   5.596   4.073  0.8342  0.5706 -0.7744
 6600TIP3    H219765   5.153   5.687   4.171 -1.0148 -0.5954 -0.9522
 6601TIP3   OH219766   1.572   0.629   1.610  0.1726 -0.0651 -0.4943
 6601TIP3    H119767   1.490   0.582   1.624  0.3985 -0.2952  0.0664
 6601TIP3    H219768   1.554   0.718   1.640 -0.1691  0.1395 -1.2935
 6602TIP3   OH219769   4.319   3.996   1.233  0.2416  0.1727  0.2474
 6602TIP3    H119770   4.262   4.051   1.178  1.2451  0.2980 -0.6976
 6602TIP3    H219771   4.356   4.056   1.297 -2.8067 -0.3696  2.7482
 6603TIP3   OH219772   5.200   2.370   2.571 -0.3822 -0.0858  0.2238
 6603TIP3    H119773   5.268   2.347   2.634 -0.7224 -0.1502  0.5714
 6603TIP3    H219774   5.134   2.417   2.623 -0.8408 -0.4614 -0.0118
 6604TIP3   OH219775   4.831   3.661   4.779  0.6600 -0.3245  0.0671
 6604TIP3    H119776   4.794   3.678   4.692  3.6615  3.2236 -0.7648
 6604TIP3    H219777   4.789   3.725   4.836  1.5917  0.0833  0.3076
 6605TIP3   OH219778   3.549   3.332  -0.009 -0.1478 -0.0270  0.4132
 6605TIP3    H119779   3.561   3.297   0.080  1.0188 -0.5134  0.0823
 6605TIP3    H219780   3.457   3.357  -0.012 -0.0930  0.4687  1.9316
 6606TIP3   OH219781   4.886   2.559   0.258  0.0920 -0.1135 -0.4222
 6606TIP3    H119782   4.866   2.649   0.231  1.3723  0.8895  1.6662
 6606TIP3    H219783   4.974   2.543   0.223 -0.6123 -1.0948 -1.8649
 6607TIP3   OH219784   2.159   2.297   1.888 -0.0270  0.0505  0.0590
 6607TIP3    H119785   2.213   2.274   1.963  0.0941 -0.2137 -0.1081
 6607TIP3    H219786   2.079   2.334   1.926  0.4857  0.9420  0.3002
 6608TIP3   OH219787   6.148   2.426   1.255 -0.3012  0.9392 -0.0803
 6608TIP3    H119788   6.076   2.363   1.258 -0.3989  1.0951  1.9514
 6608TIP3    H219789   6.198   2.402   1.177 -0.8731 -1.0501  0.1301
 6609TIP3   OH219790   6.670   5.150   3.087  0.1098 -0.0252 -0.2774
 6609TIP3    H119791   6.748   5.116   3.131 -0.7863 -1.3396  0.3578
 6609TIP3    H219792   6.676   5.245   3.097  2.0325 -0.0309 -0.9670
 6610TIP3   OH219793   4.990   4.199   2.390 -0.2057  0.0234 -0.0453
 6610TIP3    H119794   4.993   4.294   2.405  2.3067 -0.0471  0.3352
 6610TIP3    H219795   5.011   4.189   2.297  1.2746 -0.2013  0.2978
 6611TIP3   OH219796   1.123   0.034   4.570 -0.3542 -0.2198  0.1638
 6611TIP3    H119797   1.119   0.076   4.656 -1.3926 -0.9958  0.5141
 6611TIP3    H219798   1.121   0.106   4.508 -1.1334  0.3064  0.7767
 6612TIP3   OH219799   5.888   4.845   0.179  0.1676 -0.1377  0.1856
 6612TIP3    H119800   5.940   4.766   0.163  1.4413  0.5083  0.9702
 6612TIP3    H219801   5.838   4.825   0.258  0.6960 -0.0565  0.5401
 6613TIP3   OH219802   5.484   3.219   1.563  0.0843 -0.3394  0.2251
 6613TIP3    H119803   5.457   3.296   1.512  2.3963 -0.2016 -0.9202
 6613TIP3    H219804   5.447   3.235   1.650  0.0091  1.7939 -0.1293
 6614TIP3   OH219805   5.261   1.051   1.327 -0.0071  0.4575  0.0638
 6614TIP3    H119806   5.268   0.982   1.392  0.7624  1.1331  0.7281
 6614TIP3    H219807   5.202   1.017   1.261  1.0857 -1.2105 -0.0965
 6615TIP3   OH219808   5.573   0.659   0.844 -0.4509 -0.4519  0.5051
 6615TIP3    H119809   5.634   0.662   0.771 -0.7378  0.2320  0.2774
 6615TIP3    H219810   5.501   0.717   0.818 -1.1240 -1.1122  0.8321
 6616TIP3   OH219811   3.076   0.641   1.908 -0.0262  0.3697 -0.1183
 6616TIP3    H119812   3.036   0.563   1.869 -0.1836  0.6408 -0.5146
 6616TIP3    H219813   3.030   0.653   1.991  0.7402 -0.5765  0.4606
 6617TIP3   OH219814   0.388   4.685   0.841  0.8620  0.2775  0.1234
 6617TIP3    H119815   0.447   4.731   0.782  0.7175 -0.9851 -1.0724
 6617TIP3    H219816   0.388   4.737   0.921  0.8412  2.2189 -1.0694
 6618TIP3   OH219817   2.141   5.436   2.767 -0.5728 -0.6592  0.4236
 6618TIP3    H119818   2.092   5.383   2.830  0.7969 -0.2165  1.9233
 6618TIP3    H219819   2.210   5.378   2.735 -1.3975 -0.9551 -0.8977
 6619TIP3   OH219820   0.253   1.871   5.715 -0.0295  0.9908  0.1355
 6619TIP3    H119821   0.295   1.901   5.796 -0.4904 -1.3133  1.3111
 6619TIP3    H219822   0.312   1.805   5.680  0.0014  1.7249 -1.2683
 6620TIP3   OH219823   2.484   3.205   5.154 -0.0800 -0.1295  0.2620
 6620TIP3    H119824   2.526   3.269   5.210  0.0306  0.2213 -0.2130
 6620TIP3    H219825   2.486   3.244   5.067  1.0519 -1.2612 -0.2635
 6621TIP3   OH219826   4.467   5.402   0.242  0.5718 -0.1160  0.0072
 6621TIP3    H119827   4.464   5.307   0.237  0.8664 -0.1583  0.5421
 6621TIP3    H219828   4.561   5.423   0.245  0.6013  0.3218 -2.2500
 6622TIP3   OH219829   1.592   3.782   4.426 -0.4251 -0.3511 -0.0133
 6622TIP3    H119830   1.531   3.728   4.376 -0.1381 -0.4617 -0.2462
 6622TIP3    H219831   1.665   3.799   4.366  0.0583 -0.7212  0.4563
 6623TIP3   OH219832   1.515   3.930   4.937  0.0064  0.0560 -0.2395
 6623TIP3    H119833   1.565   3.848   4.947  0.3495  0.1491 -1.0553
 6623TIP3    H219834   1.428   3.902   4.910  0.8552 -0.0244 -3.3049
 6624TIP3   OH219835   5.195   0.819   3.594  0.2123 -0.0989  0.4694
 6624TIP3    H119836   5.166   0.812   3.685  0.8754 -0.4660  0.6628
 6624TIP3    H219837   5.216   0.912   3.582 -0.3673  0.0411  0.5335
 6625TIP3   OH219838   3.248   3.500   5.335 -0.8619 -0.0707  0.2534
 6625TIP3    H119839   3.220   3.585   5.300  0.3227  0.2523  0.0472
 6625TIP3    H219840   3.333   3.484   5.293 -0.6995 -0.9807  0.9079
 6626TIP3   OH219841   0.305   6.316   0.050 -0.0137 -0.0899  0.4585
 6626TIP3    H119842   0.373   6.249   0.060  0.8713  0.4122 -1.7048
 6626TIP3    H219843   0.225   6.272   0.078  0.4449 -2.2884 -1.3859
 6627TIP3   OH219844   2.266   6.266   4.206  0.0747 -0.3144  0.1135
 6627TIP3    H119845   2.212   6.252   4.284  0.9387 -1.1809  0.5743
 6627TIP3    H219846   2.210   6.239   4.133 -1.3119  1.9447  0.2396
 6628TIP3   OH219847   5.874   4.205   1.470  0.1012  0.2172  0.7744
 6628TIP3    H119848   5.881   4.128   1.413 -1.6247 -0.9261  2.0316
 6628TIP3    H219849   5.783   4.231   1.464  0.3749  1.3743  1.3930
 6629TIP3   OH219850   3.929   4.081   0.825  0.1422 -0.0338  0.2173
 6629TIP3    H119851   3.901   4.151   0.765  0.8414 -0.5955 -0.7882
 6629TIP3    H219852   3.926   4.002   0.771  1.7211 -0.4099  0.6470
 6630TIP3   OH219853   3.506   0.680   3.938 -0.0220 -0.3130 -0.6839
 6630TIP3    H119854   3.568   0.680   4.011  0.7763  2.5775 -1.2196
 6630TIP3    H219855   3.470   0.591   3.936 -0.1033 -0.5195  3.1874
 6631TIP3   OH219856   6.222   6.369   3.408  0.4256 -0.5600 -0.0521
 6631TIP3    H119857   6.181   6.420   3.479  0.1977  0.1730 -0.6924
 6631TIP3    H219858   6.253   6.289   3.450  2.6205  0.9670  1.4477
 6632TIP3   OH219859   4.014   4.536   1.989  0.4401 -0.1974 -0.0191
 6632TIP3    H119860   4.106   4.525   2.013  0.5206  0.5260  0.0241
 6632TIP3    H219861   4.002   4.631   1.980  0.4954 -0.3767 -3.1379
 6633TIP3   OH219862   5.431   5.509   0.896  0.3158 -0.6055  0.8714
 6633TIP3    H119863   5.431   5.454   0.818  2.2883 -1.9469  1.7244
 6633TIP3    H219864   5.342   5.542   0.903 -0.2694 -1.6227 -1.1182
 6634TIP3   OH219865   5.412   2.384   4.100  0.2100  0.4209  0.6420
 6634TIP3    H119866   5.378   2.296   4.113  2.0562 -0.1737  1.9348
 6634TIP3    H219867   5.397   2.428   4.184 -2.0672  1.9058 -0.4471
 6635TIP3   OH219868   4.599   6.276   0.265 -0.1602  0.5271 -0.3268
 6635TIP3    H119869   4.601   6.180   0.261 -1.3180  0.3857  1.2629
 6635TIP3    H219870   4.524   6.300   0.210 -0.2278  0.4815 -0.2546
 6636TIP3   OH219871   1.841   3.681   5.496  0.4146 -0.4635 -0.0342
 6636TIP3    H119872   1.822   3.774   5.484 -1.5080 -0.9497 -1.0055
 6636TIP3    H219873   1.925   3.668   5.452  0.5412  0.7217 -0.1812
 6637TIP3   OH219874   2.046   5.767   2.703  0.5644 -0.2410 -0.3162
 6637TIP3    H119875   1.985   5.703   2.739 -1.7856  0.8389 -2.1630
 6637TIP3    H219876   2.095   5.798   2.779  0.6627 -2.9907  0.8584
 6638TIP3   OH219877   6.160   1.725   2.466  0.0187  0.1370 -0.2111
 6638TIP3    H119878   6.176   1.631   2.460 -3.1934 -0.4367 -2.3761
 6638TIP3    H219879   6.080   1.732   2.518 -0.3609  1.5309 -0.9260
 6639TIP3   OH219880   3.155   0.542   5.148  0.3527  0.8524  0.9923
 6639TIP3    H119881   3.236   0.506   5.185 -0.0830  1.9832  3.2464
 6639TIP3    H219882   3.180   0.628   5.114  0.6641 -0.0203 -1.1619
 6640TIP3   OH219883   2.028   4.020   3.112  0.0489 -0.2541 -0.0230
 6640TIP3    H119884   2.086   3.992   3.182 -0.2090  0.4948  0.5048
 6640TIP3    H219885   1.951   3.964   3.120  0.9091 -1.6563 -1.0982
 6641TIP3   OH219886   3.559   1.497   1.979  0.3088  0.0697 -0.1565
 6641TIP3    H119887   3.625   1.466   2.041  2.4452  1.7948 -1.3864
 6641TIP3    H219888   3.609   1.551   1.917 -2.1733  0.8009 -1.6534
 6642TIP3   OH219889   4.185   1.302   3.903  0.4758  0.0350  0.0029
 6642TIP3    H119890   4.211   1.389   3.933  1.2440  0.0523 -0.6498
 6642TIP3    H219891   4.245   1.242   3.948 -0.4628 -0.2314  0.9410
 6643TIP3   OH219892   0.759   1.310   4.952  0.7357  0.3705  0.3315
 6643TIP3    H119893   0.755   1.320   5.048 -0.1125 -0.7503  0.4315
 6643TIP3    H219894   0.685   1.361   4.919  0.0374 -0.5584  0.4117
 6644TIP3   OH219895   6.549   4.322   1.686 -0.0557 -0.2000 -0.0542
 6644TIP3    H119896   6.491   4.300   1.613  0.3827 -0.3672 -0.3568
 6644TIP3    H219897   6.637   4.321   1.648  0.3728 -2.1091  0.8801
 6645TIP3   OH219898   4.827   2.074   5.394  0.1168  0.3696 -0.8189
 6645TIP3    H119899   4.800   2.102   5.307  0.4739 -1.4302 -1.5574
 6645TIP3    H219900   4.816   1.979   5.393  1.7921  0.1093  0.4958
 6646TIP3   OH219901   3.193   1.500   4.948 -0.2671 -0.0658 -0.3521
 6646TIP3    H119902   3.119   1.478   4.891 -1.7939  1.6381  0.8290
 6646TIP3    H219903   3.185   1.441   5.022 -1.4007  1.0525  0.4712
 6647TIP3   OH219904   0.960   0.254   5.174  0.4854 -0.2725  0.3754
 6647TIP3    H119905   1.018   0.179   5.186  0.2614 -0.7438 -1.1828
 6647TIP3    H219906   0.918   0.266   5.259 -0.1694 -2.5247  0.4340
 6648TIP3   OH219907   5.041   2.147   2.501 -0.5069 -0.1274 -0.1445
 6648TIP3    H119908   5.100   2.220   2.480 -0.8201 -0.1434 -1.1215
 6648TIP3    H219909   5.079   2.108   2.580  0.8519 -0.1808 -0.7879
 6649TIP3   OH219910   2.260   5.078   5.449 -0.1440 -0.2755 -0.0387
 6649TIP3    H119911   2.169   5.088   5.479  0.5395  1.2830  1.7283
 6649TIP3    H219912   2.253   5.030   5.367 -2.5937  0.0876 -0.1160
 6650TIP3   OH219913   3.298   5.650   1.834  0.0956 -0.0295 -0.3940
 6650TIP3    H119914   3.267   5.607   1.913  0.5226 -0.8054 -0.6421
 6650TIP3    H219915   3.338   5.732   1.864 -1.7231  0.7699 -0.0165
 6651TIP3   OH219916   4.726   2.613   3.419  0.2419 -0.3182  0.0872
 6651TIP3    H119917   4.643   2.605   3.468  0.7624 -0.0927  1.0357
 6651TIP3    H219918   4.775   2.680   3.466  1.4306 -1.2391  0.2111
 6652TIP3   OH219919   5.327   5.046   1.457  0.0887 -0.1603  0.0232
 6652TIP3    H119920   5.315   4.974   1.519  1.1476  0.0847  0.5371
 6652TIP3    H219921   5.422   5.059   1.453 -0.0725  1.1790 -0.0873
 6653TIP3   OH219922   5.907   5.973   5.027 -0.1742 -0.5199 -0.1833
 6653TIP3    H119923   5.985   5.931   4.990  0.1839  0.6173 -0.7796
 6653TIP3    H219924   5.874   5.910   5.091  1.2821 -0.9910  0.1460
 6654TIP3   OH219925   5.825   6.433   5.855 -0.4505  0.4051 -0.3709
 6654TIP3    H119926   5.895   6.415   5.793  0.9046 -2.6668  1.8184
 6654TIP3    H219927   5.870   6.468   5.932 -1.3155 -1.0838  0.8697
 6655TIP3   OH219928   0.300   6.186   3.924 -0.1310 -0.1398 -0.1943
 6655TIP3    H119929   0.312   6.194   3.829 -1.1369 -1.8663 -0.5185
 6655TIP3    H219930   0.296   6.091   3.939  1.4999  0.0430  1.7966
 6656TIP3   OH219931   6.975   0.560   5.178  0.2859  0.3734 -0.0934
 6656TIP3    H119932   7.065   0.526   5.183 -0.1838 -0.9569 -0.3157
 6656TIP3    H219933   6.949   0.573   5.269  0.3680 -0.1596  0.0082
 6657TIP3   OH219934   4.803   0.085   2.884 -0.3401  0.2584 -0.7130
 6657TIP3    H119935   4.805   0.092   2.980  2.8174  2.4515 -0.7485
 6657TIP3    H219936   4.766  -0.001   2.867 -4.8244  1.2721  2.2525
 6658TIP3   OH219937   0.460   5.835   3.291  0.1379 -0.2940  1.2210
 6658TIP3    H119938   0.413   5.752   3.299 -0.5458 -0.1395 -0.7206
 6658TIP3    H219939   0.526   5.819   3.223 -0.5361  0.9553  0.2290
 6659TIP3   OH219940   6.197   4.804   1.690 -0.3189 -0.2303  0.3517
 6659TIP3    H119941   6.182   4.798   1.596 -0.6612 -1.0128  0.4521
 6659TIP3    H219942   6.262   4.874   1.700  2.4128 -2.4489 -0.7405
 6660TIP3   OH219943   1.199   6.349   0.656  0.2238  0.5679 -0.0193
 6660TIP3    H119944   1.116   6.396   0.657  0.1245  0.5542 -2.5109
 6660TIP3    H219945   1.248   6.385   0.730 -1.3508  1.7505  0.4951
 6661TIP3   OH219946   3.672   3.621   1.025 -0.3157 -0.3274 -0.2290
 6661TIP3    H119947   3.592   3.640   1.074 -0.5729 -1.2806 -0.2702
 6661TIP3    H219948   3.662   3.671   0.944 -0.3873  0.3771  0.2013
 6662TIP3   OH219949   1.352   3.614   4.402  0.3672  0.1488  0.0048
 6662TIP3    H119950   1.280   3.580   4.456 -0.9130 -0.2377 -1.8217
 6662TIP3    H219951   1.315   3.616   4.313  3.0772 -1.4621 -1.2820
 6663TIP3   OH219952   1.175   1.142   0.338 -0.2218  0.0448 -0.4297
 6663TIP3    H119953   1.251   1.084   0.334 -1.0438 -1.0800 -0.1905
 6663TIP3    H219954   1.204   1.222   0.294  1.5600  0.1919  0.8648
 6664TIP3   OH219955   1.278   1.445   3.907  0.1563  0.0009  0.0549
 6664TIP3    H119956   1.196   1.475   3.947 -0.7523 -1.7154 -0.4385
 6664TIP3    H219957   1.322   1.395   3.977 -0.3191 -1.0026 -0.3429
 6665TIP3   OH219958   3.862   3.587   4.778 -0.2809  0.1516 -0.0187
 6665TIP3    H119959   3.795   3.655   4.773  0.9787  1.5006  0.7516
 6665TIP3    H219960   3.814   3.505   4.763 -2.3014  0.9329  1.6900
 6666TIP3   OH219961   6.659   1.574   0.072  0.6608  0.2817  0.3701
 6666TIP3    H119962   6.590   1.626   0.029  1.8689  1.1760 -0.5480
 6666TIP3    H219963   6.615   1.534   0.147 -0.8439  0.8909 -0.1453
 6667TIP3   OH219964   4.327   2.928   2.811  0.1195 -0.3938  0.5953
 6667TIP3    H119965   4.301   2.845   2.852  0.7740 -0.4778  0.8625
 6667TIP3    H219966   4.417   2.913   2.783  0.7536  0.6822  1.9378
 6668TIP3   OH219967   6.483   5.289   1.736 -0.0754  0.3849  0.5550
 6668TIP3    H119968   6.391   5.306   1.755  0.0824 -0.0471  1.8596
 6668TIP3    H219969   6.521   5.265   1.821  0.8961 -0.9695 -0.2128
 6669TIP3   OH219970   5.815   6.016   3.720 -0.0650  0.2964  0.3477
 6669TIP3    H119971   5.742   6.034   3.660 -0.0273 -0.5589  0.0221
 6669TIP3    H219972   5.783   5.946   3.777  0.4636 -0.0305  0.2559
 6670TIP3   OH219973   6.283   6.092   3.950 -0.0425 -0.6431 -0.1051
 6670TIP3    H119974   6.249   6.080   4.038 -0.3106 -0.1561 -0.1361
 6670TIP3    H219975   6.374   6.120   3.963 -0.3842  0.4473  0.0606
 6671TIP3   OH219976   3.764   5.026   5.099 -0.1735  0.1668  0.4030
 6671TIP3    H119977   3.791   4.937   5.075 -0.4912  0.1308  0.1699
 6671TIP3    H219978   3.815   5.046   5.177  1.2862  0.5071 -0.6160
 6672TIP3   OH219979   2.226   2.054   5.204  0.6895  0.1296  0.1979
 6672TIP3    H119980   2.238   1.960   5.192 -0.7112 -0.1615  0.9059
 6672TIP3    H219981   2.154   2.077   5.146  0.4950  0.6086  0.6160
 6673TIP3   OH219982   2.729   2.858   1.965  0.5981  0.2796 -0.4035
 6673TIP3    H119983   2.694   2.898   2.045 -0.4190  1.7625 -1.5438
 6673TIP3    H219984   2.715   2.764   1.978 -0.7521  0.5826  0.6163
 6674TIP3   OH219985   5.811   3.869   0.698  0.0276 -0.5254  0.3526
 6674TIP3    H119986   5.756   3.938   0.735  3.1465  1.8144  1.1501
 6674TIP3    H219987   5.809   3.884   0.604 -0.4843 -0.2953  0.3971
 6675TIP3   OH219988   2.503   4.601   2.106 -0.2091 -0.2836  0.6803
 6675TIP3    H119989   2.455   4.617   2.025  1.2565  5.0804  0.4942
 6675TIP3    H219990   2.441   4.623   2.175 -0.2001 -0.7471  0.8401
 6676TIP3   OH219991   3.632   3.710   2.138 -0.2115 -0.8649  0.2269
 6676TIP3    H119992   3.686   3.714   2.059  0.0220  3.3941  0.3632
 6676TIP3    H219993   3.542   3.720   2.106 -0.3468 -1.5321  0.3866
 6677TIP3   OH219994   3.675   6.140   0.529 -0.5603  1.1021  0.2764
 6677TIP3    H119995   3.634   6.205   0.472 -1.5813  0.9543  0.8153
 6677TIP3    H219996   3.632   6.152   0.614 -0.4806 -0.0122  0.4932
 6678TIP3   OH219997   4.837   3.519   5.547 -0.5876 -0.2463 -0.2244
 6678TIP3    H119998   4.782   3.588   5.512 -1.6113 -0.6991  0.4287
 6678TIP3    H219999   4.790   3.488   5.625  1.2512  0.2591  1.1475
 6679TIP3   OH220000   1.454   1.694   2.039  0.4493  0.1322 -0.3362
 6679TIP3    H120001   1.533   1.721   1.992  1.0808 -0.8229  0.1546
 6679TIP3    H220002   1.475   1.705   2.131  0.1468 -0.4860 -0.1860
 6680TIP3   OH220003   0.570   3.334   5.511  0.2565  0.2796 -0.1062
 6680TIP3    H120004   0.571   3.386   5.430  1.0729  1.2458  0.4964
 6680TIP3    H220005   0.490   3.283   5.505  1.0938 -0.9254 -2.2989
 6681TIP3   OH220006   2.197   5.242   3.939  0.0475 -0.2673 -0.0624
 6681TIP3    H120007   2.270   5.231   4.000  2.7600  0.9256 -2.8345
 6681TIP3    H220008   2.209   5.174   3.873 -1.2666  0.0498 -0.6820
 6682TIP3   OH220009   2.817   4.531   1.355 -0.6463  0.2534 -0.1338
 6682TIP3    H120010   2.800   4.519   1.448  2.0061 -1.4515  0.2265
 6682TIP3    H220011   2.739   4.496   1.311 -0.8077 -1.4451  1.4094
 6683TIP3   OH220012   3.254   6.269   3.050  0.1270  0.1373 -0.4613
 6683TIP3    H120013   3.281   6.350   3.093  1.2927 -1.3889  1.9129
 6683TIP3    H220014   3.158   6.271   3.053  0.1411  0.3726  1.8263
 6684TIP3   OH220015   5.198   6.505   5.727 -0.4001 -0.2363 -0.0209
 6684TIP3    H120016   5.213   6.414   5.703  0.8904 -0.5343  1.6992
 6684TIP3    H220017   5.125   6.533   5.672 -0.1771 -1.9947 -1.2882
 6685TIP3   OH220018   7.016   4.885   3.444 -0.0979 -0.8968  0.1190
 6685TIP3    H120019   6.981   4.910   3.529 -1.3239  0.4017 -0.7281
 6685TIP3    H220020   6.978   4.799   3.427 -0.9777 -0.5392  0.2583
 6686TIP3   OH220021   5.082   0.003   3.945 -0.4291  0.3395 -0.3696
 6686TIP3    H120022   5.075   0.085   3.994 -0.6082  1.0955 -1.6216
 6686TIP3    H220023   5.167   0.009   3.901  0.2395 -0.8376  0.7016
 6687TIP3   OH220024   5.428   3.631   4.112 -0.1842 -0.3816 -0.2371
 6687TIP3    H120025   5.408   3.688   4.186  0.4087 -0.0985 -0.2872
 6687TIP3    H220026   5.440   3.544   4.151 -2.9197 -0.9011 -0.3684
 6688TIP3   OH220027   1.060   4.539   4.286  0.2402  0.6229  0.4132
 6688TIP3    H120028   1.122   4.577   4.348  0.0341  2.3770 -0.3791
 6688TIP3    H220029   0.981   4.593   4.296  0.0777  0.6930 -1.0765
 6689TIP3   OH220030   0.818   4.924   5.473 -0.2255  0.0366  0.0926
 6689TIP3    H120031   0.749   4.971   5.427 -1.5115 -1.7353  0.0880
 6689TIP3    H220032   0.804   4.832   5.449  2.7837 -0.3173 -0.7197
 6690TIP3   OH220033   1.482   6.437   4.148 -0.0390 -0.0984 -0.0213
 6690TIP3    H120034   1.507   6.367   4.088  1.2465 -0.3248  0.7440
 6690TIP3    H220035   1.507   6.405   4.234 -1.5723  0.3536  0.6155
 6691TIP3   OH220036   0.891   2.781   4.179 -0.3479  0.3537 -0.2114
 6691TIP3    H120037   0.837   2.704   4.198 -0.0284  0.0382 -0.5732
 6691TIP3    H220038   0.972   2.745   4.144  0.1857  0.8127  0.5279
 6692TIP3   OH220039   6.924   0.753   3.252 -0.0042 -0.3054  0.0418
 6692TIP3    H120040   6.975   0.753   3.171  1.0626  0.3756  0.6998
 6692TIP3    H220041   6.956   0.828   3.302 -0.3113 -0.9774  1.3073
 6693TIP3   OH220042   3.838   4.288   2.661  0.0345 -0.7375  0.2974
 6693TIP3    H120043   3.825   4.371   2.708 -2.3250 -0.4392 -0.7807
 6693TIP3    H220044   3.904   4.242   2.713  1.2636  1.6919  1.0489
 6694TIP3   OH220045   2.589   2.856   3.022 -0.5718 -0.4082 -0.2821
 6694TIP3    H120046   2.537   2.927   2.984  0.5736 -0.5911 -2.3136
 6694TIP3    H220047   2.661   2.843   2.961  0.7224 -1.5820  1.3840
 6695TIP3   OH220048   2.692   5.631   5.427  0.0219  0.1020 -0.2332
 6695TIP3    H120049   2.784   5.613   5.407 -0.3860 -0.7225 -1.4634
 6695TIP3    H220050   2.643   5.564   5.379 -1.2398  0.6494  0.2402
 6696TIP3   OH220051   3.792   0.735   0.346  0.1721 -0.3211 -0.1776
 6696TIP3    H120052   3.875   0.686   0.341  0.5955  0.3250  0.4248
 6696TIP3    H220053   3.749   0.701   0.425  0.5278  0.3578  0.3169
 6697TIP3   OH220054   0.127   1.719   4.220 -0.1118  0.1670 -0.2928
 6697TIP3    H120055   0.042   1.763   4.221  0.6088  1.6666  1.1507
 6697TIP3    H220056   0.151   1.712   4.312  1.1333 -0.6271 -0.6584
 6698TIP3   OH220057   6.207   0.316   4.379 -0.2991  0.5349 -0.2922
 6698TIP3    H120058   6.140   0.256   4.412 -0.5667  1.4449  0.8893
 6698TIP3    H220059   6.239   0.361   4.457  1.3038  0.5271 -0.9054
 6699TIP3   OH220060   6.709   0.413   5.183  0.3474 -0.2623  1.1623
 6699TIP3    H120061   6.781   0.468   5.152  0.4354 -1.8380 -1.7021
 6699TIP3    H220062   6.630   0.462   5.159  0.4370 -0.3365  0.7168
 6700TIP3   OH220063   3.069   0.157   2.307 -0.3712  0.1707 -0.3097
 6700TIP3    H120064   3.159   0.184   2.287 -0.7370  1.0255 -0.8739
 6700TIP3    H220065   3.038   0.220   2.372 -1.0896  0.8887 -1.3153
 6701TIP3   OH220066   1.181   5.289   4.711  0.0653 -0.5363  0.5282
 6701TIP3    H120067   1.199   5.291   4.617  1.0295 -2.0475  0.6511
 6701TIP3    H220068   1.145   5.376   4.730  0.0766 -0.1180 -1.1805
 6702TIP3   OH220069   6.495   1.735   2.482 -0.1353 -0.5004  0.2605
 6702TIP3    H120070   6.470   1.669   2.547 -1.8265 -1.0366 -0.8774
 6702TIP3    H220071   6.466   1.818   2.520  0.8357 -0.5139  1.1106
 6703TIP3   OH220072   2.208   2.042   0.722 -0.3284 -0.0414 -0.1989
 6703TIP3    H120073   2.167   2.008   0.802 -1.3146 -0.1614 -0.7317
 6703TIP3    H220074   2.294   2.072   0.750 -0.7751  0.2161  0.9766
 6704TIP3   OH220075   0.943   1.899   2.273  0.1219 -0.3742  0.3401
 6704TIP3    H120076   0.868   1.873   2.219 -0.6445  1.3762  0.5110
 6704TIP3    H220077   1.000   1.947   2.213 -0.3482  0.8847  0.8777
 6705TIP3   OH220078   3.795   3.327   4.380 -0.2678 -0.1968  0.0536
 6705TIP3    H120079   3.851   3.392   4.338  1.7278 -1.3206  0.8353
 6705TIP3    H220080   3.718   3.322   4.323 -0.1531  2.2301 -0.4496
 6706TIP3   OH220081   4.992   5.549   1.278 -0.1812  0.0018  0.2744
 6706TIP3    H120082   4.980   5.495   1.356 -1.4881  3.3069  2.5613
 6706TIP3    H220083   5.082   5.581   1.285  0.1315 -0.7127 -0.3328
 6707TIP3   OH220084   6.684   1.718   5.486 -0.5702 -0.4419  0.0350
 6707TIP3    H120085   6.722   1.630   5.485 -0.2742 -0.3089 -1.0875
 6707TIP3    H220086   6.595   1.705   5.519  0.1688 -0.8520  2.0109
 6708TIP3   OH220087   6.789   5.234   3.594 -0.4433 -0.4801 -0.4733
 6708TIP3    H120088   6.735   5.173   3.643 -0.2617 -0.2893 -0.0259
 6708TIP3    H220089   6.862   5.255   3.654 -1.2396  1.2483 -0.0504
 6709TIP3   OH220090   3.400   1.743   0.890 -0.5315 -0.4831  0.8595
 6709TIP3    H120091   3.365   1.744   0.801 -1.4276 -1.7907  1.1654
 6709TIP3    H220092   3.391   1.833   0.920 -1.1123 -0.2292 -0.0418
 6710TIP3   OH220093   2.884   1.778   4.709  0.3378  0.1883 -0.2463
 6710TIP3    H120094   2.816   1.727   4.664  0.5935 -1.9393  1.5768
 6710TIP3    H220095   2.963   1.726   4.700  0.7288  0.4574  1.2910
 6711TIP3   OH220096   0.950   0.215   0.014 -0.0989 -0.5821  0.4905
 6711TIP3    H120097   0.913   0.164   0.087 -0.5175  0.2381  0.8665
 6711TIP3    H220098   0.899   0.188  -0.062  0.2381 -1.3325  0.5260
 6712TIP3   OH220099   7.128   3.990   1.543 -0.3709 -0.1508 -0.5944
 6712TIP3    H120100   7.079   3.908   1.554 -0.6604  0.0322 -0.5090
 6712TIP3    H220101   7.089   4.030   1.465  0.0091 -0.2614 -0.8446
 6713TIP3   OH220102   5.338   5.336   0.173  0.2640 -0.5252  0.3242
 6713TIP3    H120103   5.380   5.421   0.159  1.6067 -1.5983 -3.5406
 6713TIP3    H220104   5.406   5.272   0.150 -1.0715 -2.6487  1.9545
 6714TIP3   OH220105   2.685   5.163   4.507 -0.2823 -0.5451  0.5923
 6714TIP3    H120106   2.644   5.249   4.508  0.0832 -0.3658  0.2394
 6714TIP3    H220107   2.755   5.168   4.572  0.1290 -0.3796  0.1424
 6715TIP3   OH220108   4.844   0.483   5.672 -0.2886  0.3298  0.2437
 6715TIP3    H120109   4.785   0.530   5.614 -0.1432  2.3748  1.6360
 6715TIP3    H220110   4.931   0.493   5.633 -0.4782 -0.2979 -0.3561
 6716TIP3   OH220111   5.120   6.044   3.921 -0.0939 -0.8747 -0.2312
 6716TIP3    H120112   5.066   6.088   3.987  1.0803 -0.4469  0.4780
 6716TIP3    H220113   5.057   6.001   3.863 -1.1766 -0.5702  0.6865
 6717TIP3   OH220114   1.390   2.230   1.820  0.0882  0.2841  0.4657
 6717TIP3    H120115   1.423   2.152   1.864  1.4202  0.7656  0.3677
 6717TIP3    H220116   1.406   2.213   1.727  0.3041  0.6451  0.4381
 6718TIP3   OH220117   1.244   1.543   1.826 -0.0353 -0.6422 -0.0364
 6718TIP3    H120118   1.161   1.496   1.817  0.6920 -1.8367 -0.8734
 6718TIP3    H220119   1.232   1.599   1.903 -0.8327 -2.4915  1.2659
 6719TIP3   OH220120   2.821   2.461   2.854  0.0745 -0.1946 -0.2046
 6719TIP3    H120121   2.781   2.424   2.933 -2.3775 -0.2511 -1.3589
 6719TIP3    H220122   2.905   2.417   2.846  1.2218  1.0878  3.2621
 6720TIP3   OH220123   0.874   0.833   5.337  0.0601 -0.2110 -0.7258
 6720TIP3    H120124   0.860   0.791   5.252 -0.4948 -0.8834 -0.3101
 6720TIP3    H220125   0.918   0.767   5.390 -1.2059 -0.4450  0.0745
 6721TIP3   OH220126   4.614   4.990   2.740 -0.5021  0.2080 -0.0736
 6721TIP3    H120127   4.701   5.021   2.718 -0.5002  0.3041  0.0675
 6721TIP3    H220128   4.589   5.041   2.818 -0.6801  0.1775 -0.1098
 6722TIP3   OH220129   5.532   5.940   5.292  0.4126 -0.2162 -0.1803
 6722TIP3    H120130   5.441   5.916   5.312 -0.7992  0.1853 -4.3643
 6722TIP3    H220131   5.569   5.860   5.255  0.9733  0.3193 -0.7829
 6723TIP3   OH220132   6.879   4.944   3.686 -0.4170  0.0359 -0.2208
 6723TIP3    H120133   6.880   5.022   3.742 -1.6451 -1.0134  1.3324
 6723TIP3    H220134   6.886   4.870   3.747 -2.8985 -1.1978 -1.3225
 6724TIP3   OH220135   2.742   5.020   1.906  0.7649  0.0508 -0.0398
 6724TIP3    H120136   2.811   5.077   1.872  2.1897 -0.6457  1.4858
 6724TIP3    H220137   2.788   4.940   1.934 -0.5122 -0.1452  1.7316
 6725TIP3   OH220138   3.663   1.092   5.615 -0.1348 -0.2345  0.3171
 6725TIP3    H120139   3.732   1.027   5.624  1.1148  0.6128 -2.2777
 6725TIP3    H220140   3.707   1.176   5.626 -0.5967  0.3441 -1.8963
 6726TIP3   OH220141   3.920   1.356   0.188  0.6012 -0.0366 -0.4315
 6726TIP3    H120142   3.833   1.395   0.192  0.3919 -0.5678  0.3213
 6726TIP3    H220143   3.910   1.280   0.131  0.4382 -0.4228  0.1063
 6727TIP3   OH220144   0.318   0.241   0.505  0.6155 -0.1360  0.4552
 6727TIP3    H120145   0.309   0.203   0.418 -1.5502  0.2104  0.4665
 6727TIP3    H220146   0.273   0.180   0.564  0.7576  0.3565  1.0962
 6728TIP3   OH220147   6.090   1.054   2.354  0.7632  0.3892 -0.2868
 6728TIP3    H120148   6.029   1.050   2.428  2.6391 -0.6111  1.2974
 6728TIP3    H220149   6.071   0.976   2.302  0.5123  0.2353  0.0352
 6729TIP3   OH220150   5.529   6.308   0.573  0.6631 -0.6945 -0.0624
 6729TIP3    H120151   5.569   6.234   0.528  3.0769  0.2008  0.4824
 6729TIP3    H220152   5.596   6.376   0.573 -0.7754  0.8219  1.1736
 6730TIP3   OH220153   6.617   5.719   1.472 -0.1789  0.1826 -0.0971
 6730TIP3    H120154   6.603   5.625   1.479  0.8469  0.0982  1.1703
 6730TIP3    H220155   6.690   5.737   1.531  0.4629  1.5901 -1.2693
 6731TIP3   OH220156   7.066   6.742   2.905  0.0992 -0.5643 -0.5393
 6731TIP3    H120157   6.974   6.768   2.902 -0.3105 -1.9717 -1.0656
 6731TIP3    H220158   7.109   6.811   2.955 -1.3017 -0.0563  0.0098
 6732TIP3   OH220159   5.377   6.497   4.116  0.2012  0.4038  0.1630
 6732TIP3    H120160   5.336   6.537   4.039  0.6615  2.5611  0.9816
 6732TIP3    H220161   5.449   6.444   4.080 -0.2735  0.4986 -0.9549
 6733TIP3   OH220162   0.713   6.710   0.292 -0.1569 -0.4085 -0.3580
 6733TIP3    H120163   0.753   6.677   0.372  0.3433  1.2445  0.1213
 6733TIP3    H220164   0.633   6.753   0.321 -0.2586 -0.2853 -0.8129
 6734TIP3   OH220165   4.940   0.638   0.782  0.2149 -0.0398  0.4376
 6734TIP3    H120166   4.974   0.700   0.847  0.3491 -1.1746  1.4830
 6734TIP3    H220167   4.850   0.621   0.809 -0.1713  0.4782 -0.4576
 6735TIP3   OH220168   2.561   4.710   4.304  0.0965  0.2454  0.3753
 6735TIP3    H120169   2.593   4.800   4.308 -0.5532  0.6071 -1.3294
 6735TIP3    H220170   2.470   4.719   4.273 -0.1800 -0.9620  0.8080
 6736TIP3   OH220171   1.659   0.049   0.610  0.8427  0.0278  0.1330
 6736TIP3    H120172   1.740   0.039   0.560  0.7757  1.2750 -0.2547
 6736TIP3    H220173   1.638   0.142   0.603 -0.6672 -0.2876  0.1617
 6737TIP3   OH220174   6.875   5.500   4.599 -0.5414 -0.0859 -0.0118
 6737TIP3    H120175   6.857   5.594   4.587  1.7101  0.8859  2.8077
 6737TIP3    H220176   6.831   5.478   4.681  0.8712 -0.7881  0.6012
 6738TIP3   OH220177   1.172   1.627   1.543 -0.2795 -0.2341  0.5960
 6738TIP3    H120178   1.200   1.680   1.617  1.7129 -2.0077  1.2114
 6738TIP3    H220179   1.137   1.547   1.582 -1.0945 -0.3611 -0.3496
 6739TIP3   OH220180   3.866   2.330   1.106  0.4865  0.3464 -0.0070
 6739TIP3    H120181   3.779   2.290   1.100  0.1708  0.4082  3.0472
 6739TIP3    H220182   3.927   2.258   1.088 -0.1494 -0.2970  0.3759
 6740TIP3   OH220183   3.067   3.309   5.209 -0.0638 -0.1910  0.4033
 6740TIP3    H120184   3.105   3.378   5.263 -0.4927  2.4797 -2.4397
 6740TIP3    H220185   2.987   3.348   5.172 -1.0673 -2.7029 -0.3181
 6741TIP3   OH220186   6.635   5.440   5.599 -0.5253  0.2616  0.3477
 6741TIP3    H120187   6.543   5.465   5.600 -0.5556  0.1671 -0.0772
 6741TIP3    H220188   6.664   5.453   5.509 -0.2793 -0.2618  0.3411
 6742TIP3   OH220189   0.622   0.640   4.263  0.3980  0.0943  0.7290
 6742TIP3    H120190   0.550   0.612   4.319 -1.0546  0.2468 -0.9855
 6742TIP3    H220191   0.644   0.728   4.294 -0.7133  0.3747  0.7335
 6743TIP3   OH220192   4.531   0.842   3.201  0.3997  0.4372  0.2653
 6743TIP3    H120193   4.487   0.758   3.210 -0.5532  0.6335 -1.9470
 6743TIP3    H220194   4.467   0.906   3.232  0.8337  0.4185  1.2227
 6744TIP3   OH220195   7.045   4.902   5.482  0.0349  0.2639  0.6241
 6744TIP3    H120196   7.137   4.877   5.481 -0.4526 -1.7077  0.6731
 6744TIP3    H220197   7.020   4.909   5.390 -0.4809 -2.3183  0.4911
 6745TIP3   OH220198   3.807   2.977   4.220  0.3260 -0.0531 -0.2101
 6745TIP3    H120199   3.783   3.017   4.303  0.0024 -0.6800  0.0063
 6745TIP3    H220200   3.748   2.902   4.212  1.6849 -1.1916 -0.0220
 6746TIP3   OH220201   0.841   6.596   5.065 -0.5409 -0.0779  0.2011
 6746TIP3    H120202   0.782   6.529   5.032 -0.7160  0.4908 -0.6499
 6746TIP3    H220203   0.786   6.654   5.118 -1.0683  1.2390 -1.6926
 6747TIP3   OH220204   1.626   5.989   2.865 -0.3939  0.3064  0.1801
 6747TIP3    H120205   1.632   5.966   2.958  0.0798 -1.1518 -0.1875
 6747TIP3    H220206   1.717   6.002   2.838 -0.5316  0.7181 -0.0864
 6748TIP3   OH220207   6.570   1.662   1.326 -0.3940 -0.5676  0.8520
 6748TIP3    H120208   6.474   1.661   1.322 -0.3698 -0.8927  0.2800
 6748TIP3    H220209   6.593   1.754   1.312 -0.5948 -0.6056  0.2547
 6749TIP3   OH220210   1.021   2.501   4.431 -0.2668 -1.0206 -0.1718
 6749TIP3    H120211   0.937   2.457   4.440 -3.0722  3.3664 -1.6019
 6749TIP3    H220212   1.044   2.488   4.339 -1.5802  0.9300 -0.8499
 6750TIP3   OH220213   3.519   3.268   4.327 -0.1166  0.0126 -0.1427
 6750TIP3    H120214   3.544   3.181   4.359  0.9754  0.5737  0.5954
 6750TIP3    H220215   3.523   3.324   4.404  1.6205  1.1998 -1.0179
 6751TIP3   OH220216   4.748   0.947   3.403 -0.1266  0.3167 -0.0554
 6751TIP3    H120217   4.737   0.852   3.409 -1.3283  0.4161 -0.4676
 6751TIP3    H220218   4.661   0.980   3.382  0.1924  1.5516  0.4736
 6752TIP3   OH220219   6.156   0.540   5.763 -0.2309  0.5910  0.3347
 6752TIP3    H120220   6.102   0.463   5.748  1.6550 -1.0073  1.2469
 6752TIP3    H220221   6.146   0.560   5.856  1.3921 -0.3398  0.7598
 6753TIP3   OH220222   5.544   1.105   0.850 -0.1037 -0.2586  0.1688
 6753TIP3    H120223   5.468   1.130   0.903  0.0870 -0.8074  0.7188
 6753TIP3    H220224   5.580   1.028   0.895  0.2688 -0.5275 -0.5715
 6754TIP3   OH220225   6.877   0.419   2.819  0.2214 -0.3963 -0.5628
 6754TIP3    H120226   6.957   0.367   2.812 -1.2595 -3.0096  0.5858
 6754TIP3    H220227   6.893   0.495   2.762  3.1862 -1.1804 -0.9469
 6755TIP3   OH220228   6.537   0.033   1.247 -0.5692 -0.2431  0.2237
 6755TIP3    H120229   6.490   0.065   1.324  0.1234 -0.7309  0.8612
 6755TIP3    H220230   6.502  -0.056   1.234  0.3896 -0.7355  0.9032
 6756TIP3   OH220231   2.652   3.001   0.163  0.2102  0.3313  0.0374
 6756TIP3    H120232   2.632   3.072   0.225 -0.2870 -0.2974  0.6179
 6756TIP3    H220233   2.569   2.987   0.117 -0.0553 -0.6873  0.7868
 6757TIP3   OH220234   4.560   6.731   2.235  0.1654  0.2946 -0.4193
 6757TIP3    H120235   4.487   6.731   2.296 -0.8850  0.3926 -1.6404
 6757TIP3    H220236   4.536   6.667   2.168  1.9350 -0.8618 -0.0169
 6758TIP3   OH220237   2.527   2.511   1.430  0.6849  0.1194  0.1130
 6758TIP3    H120238   2.575   2.590   1.454 -1.1887  1.2014  0.4947
 6758TIP3    H220239   2.511   2.521   1.336  2.0089 -0.7240 -0.2246
 6759TIP3   OH220240   1.355   6.696   1.080  0.4975 -0.3453 -0.8643
 6759TIP3    H120241   1.267   6.687   1.117  1.3525  1.2690  1.8438
 6759TIP3    H220242   1.346   6.764   1.013 -0.3398 -0.3338 -0.7525
 6760TIP3   OH220243   0.083   3.208   2.613  0.3482 -0.1587  0.0263
 6760TIP3    H120244  -0.003   3.242   2.637  0.1552 -0.3571 -0.3940
 6760TIP3    H220245   0.140   3.238   2.684 -0.2766 -0.9929  0.8976
 6761TIP3   OH220246   2.976   2.514   0.255 -0.0939  0.4005  0.7090
 6761TIP3    H120247   2.967   2.607   0.231  0.4726  0.1964 -0.4045
 6761TIP3    H220248   3.014   2.474   0.177 -0.1863 -0.7460  1.2405
 6762TIP3   OH220249   6.586   5.774   3.649  0.1971 -0.2780 -0.1377
 6762TIP3    H120250   6.597   5.866   3.674  0.7022 -0.5703  0.7909
 6762TIP3    H220251   6.638   5.726   3.714 -2.3805 -1.4252  1.2436
 6763TIP3   OH220252   2.628   6.402   0.267  0.4173  0.4468 -0.5422
 6763TIP3    H120253   2.596   6.318   0.301  0.0854  1.1652  0.9870
 6763TIP3    H220254   2.632   6.389   0.172 -0.2368 -1.0890 -0.3886
 6764TIP3   OH220255   3.477   4.281   4.758  0.1149  0.2184  0.7824
 6764TIP3    H120256   3.500   4.353   4.699  0.7910  0.0666  0.8521
 6764TIP3    H220257   3.382   4.288   4.768 -0.2402 -0.5807 -1.4116
 6765TIP3   OH220258   2.361   4.098   4.101  0.0085 -0.2697  0.2207
 6765TIP3    H120259   2.386   4.006   4.098  0.6491 -0.0923 -0.1032
 6765TIP3    H220260   2.313   4.113   4.019  1.0611 -0.0056 -0.3717
 6766TIP3   OH220261   6.683   4.806   3.577 -0.0787 -0.3364  0.3623
 6766TIP3    H120262   6.601   4.856   3.575 -0.2375 -0.6174 -0.6331
 6766TIP3    H220263   6.744   4.863   3.623 -0.7361  0.0258  0.8120
 6767TIP3   OH220264   6.423   4.018   1.372 -0.0471  0.1222 -0.0961
 6767TIP3    H120265   6.457   4.070   1.299 -1.4115 -0.2178 -1.0032
 6767TIP3    H220266   6.395   3.936   1.333 -1.4373  0.1898  0.6712
 6768TIP3   OH220267   3.210   1.143   4.057 -0.3656 -0.3247 -0.0818
 6768TIP3    H120268   3.236   1.052   4.068 -1.0205 -0.3830  1.1297
 6768TIP3    H220269   3.196   1.175   4.146 -0.6139  0.8202 -0.5170
 6769TIP3   OH220270   3.364   3.978   4.240  0.0163 -0.1354 -0.2105
 6769TIP3    H120271   3.430   4.016   4.182  0.6998  0.6512  1.0617
 6769TIP3    H220272   3.306   4.052   4.262 -0.7505 -0.6164 -0.5641
 6770TIP3   OH220273   4.158   4.487   4.217 -0.3205 -0.3674  0.0715
 6770TIP3    H120274   4.172   4.555   4.284 -3.3893  1.0806 -0.6118
 6770TIP3    H220275   4.246   4.454   4.199  0.9552  1.2675  2.6566
 6771TIP3   OH220276   3.010   3.474   0.602 -0.0411 -0.3586  0.0176
 6771TIP3    H120277   3.000   3.563   0.636  0.7106  0.2594 -1.2851
 6771TIP3    H220278   2.968   3.477   0.516  0.7948 -1.0066 -0.4259
 6772TIP3   OH220279   3.964   2.246   1.453 -0.4144  0.3809  0.2110
 6772TIP3    H120280   3.883   2.208   1.488 -0.0126  0.6785  1.5181
 6772TIP3    H220281   4.033   2.185   1.480 -0.2331 -0.1167 -1.3003
 6773TIP3   OH220282   4.755   1.543   0.035 -0.0156 -0.2983  0.4478
 6773TIP3    H120283   4.764   1.454   0.069 -1.5901 -0.2126  1.1930
 6773TIP3    H220284   4.671   1.573   0.071 -0.6855  0.6061 -1.7607
 6774TIP3   OH220285   3.702   1.838   1.511  0.6741 -1.0544  0.3681
 6774TIP3    H120286   3.730   1.780   1.440  1.2400  1.6112 -1.8040
 6774TIP3    H220287   3.609   1.853   1.496  0.6838 -0.8714  0.4764
 6775TIP3   OH220288   0.452   2.413   5.683 -0.2289  0.7505 -0.4717
 6775TIP3    H120289   0.414   2.446   5.765  0.7260  0.1933  0.2112
 6775TIP3    H220290   0.437   2.319   5.686  0.4461  0.6383 -0.5973
 6776TIP3   OH220291   4.211   5.704   4.266  0.0813  0.2663  0.3691
 6776TIP3    H120292   4.297   5.744   4.278  0.2483 -0.4054  1.5525
 6776TIP3    H220293   4.188   5.722   4.175  1.3105  0.7637  0.1485
 6777TIP3   OH220294   5.587   3.613   2.425  0.2740  1.1977  0.3212
 6777TIP3    H120295   5.592   3.639   2.333  1.3009 -0.9997 -0.3182
 6777TIP3    H220296   5.667   3.562   2.439 -0.5922  0.2369  2.0021
 6778TIP3   OH220297   7.070   6.099   2.007 -0.4325 -0.1416 -0.3560
 6778TIP3    H120298   7.143   6.069   2.061  1.1934  2.3592 -1.0014
 6778TIP3    H220299   7.070   6.194   2.018 -4.1012 -0.0542  0.1662
 6779TIP3   OH220300   6.029   2.122   0.323 -0.0848  0.4112  0.4052
 6779TIP3    H120301   6.104   2.171   0.358  0.4278 -0.8792  1.1608
 6779TIP3    H220302   6.032   2.138   0.229  1.0476  0.5149  0.4456
 6780TIP3   OH220303   4.143   5.977   3.076 -0.1883  0.8130  0.0729
 6780TIP3    H120304   4.048   5.978   3.090 -0.1585  0.2773  0.3142
 6780TIP3    H220305   4.168   5.884   3.082  0.2750  0.8886 -0.4904
 6781TIP3   OH220306   2.316   2.527   2.386 -0.1292 -0.2908  0.2317
 6781TIP3    H120307   2.318   2.596   2.453  2.1804 -1.0106  0.9944
 6781TIP3    H220308   2.408   2.506   2.370 -0.7281 -2.4254 -0.7939
 6782TIP3   OH220309   2.227   3.112   2.478 -0.1716 -0.4300  0.1386
 6782TIP3    H120310   2.207   3.056   2.403  1.5226 -0.9512  0.0380
 6782TIP3    H220311   2.225   3.201   2.442 -0.1120 -0.6243 -0.3576
 6783TIP3   OH220312   2.886   3.413   4.515 -0.2958 -0.3100 -0.4905
 6783TIP3    H120313   2.857   3.502   4.532  0.1195 -0.0765 -0.9633
 6783TIP3    H220314   2.864   3.364   4.594  0.6259  0.4983  0.2847
 6784TIP3   OH220315   1.242   4.069   5.228 -0.6840  0.2009  0.3627
 6784TIP3    H120316   1.147   4.075   5.217 -0.9076 -1.8606  0.8110
 6784TIP3    H220317   1.255   4.063   5.323 -0.3437 -2.0657  0.2194
 6785TIP3   OH220318   0.800   4.146   3.176  0.2979  0.0197 -0.3628
 6785TIP3    H120319   0.850   4.134   3.257  0.9305  0.9660 -0.5907
 6785TIP3    H220320   0.856   4.202   3.122 -0.4378  0.0008 -1.1657
 6786TIP3   OH220321   4.787   6.644   4.409 -0.2325 -0.3653  0.0768
 6786TIP3    H120322   4.767   6.642   4.315 -0.0769  0.8797  0.0071
 6786TIP3    H220323   4.863   6.585   4.418  1.0650  1.0713 -0.9295
 6787TIP3   OH220324   5.818   4.288   4.155 -0.5268 -0.4815  0.0871
 6787TIP3    H120325   5.845   4.353   4.091 -0.9235 -0.9360 -0.5471
 6787TIP3    H220326   5.788   4.339   4.230  2.1817  0.0637  0.9039
 6788TIP3   OH220327   1.408   0.184   5.636  0.1070 -0.3178  0.2881
 6788TIP3    H120328   1.476   0.251   5.625  2.5748 -2.7419 -0.6745
 6788TIP3    H220329   1.404   0.169   5.730 -0.4344  1.0950  0.5099
 6789TIP3   OH220330   0.053   1.298   1.823  0.2605 -0.4213  0.8903
 6789TIP3    H120331   0.133   1.251   1.845 -0.0131 -0.1654  2.5324
 6789TIP3    H220332   0.005   1.304   1.905 -2.2829 -2.0960 -0.3441
 6790TIP3   OH220333   3.264   1.820   4.713 -0.3634 -0.3776  0.1903
 6790TIP3    H120334   3.335   1.814   4.777 -0.0482 -0.6370 -0.1789
 6790TIP3    H220335   3.298   1.876   4.643  0.8179 -3.1494 -1.6438
 6791TIP3   OH220336   5.065   1.105   0.158 -0.4920  0.3754 -0.2754
 6791TIP3    H120337   5.156   1.117   0.131 -0.4661  1.5026  0.2504
 6791TIP3    H220338   5.071   1.070   0.247 -0.5782  0.1958 -0.3391
 6792TIP3   OH220339   5.423   4.908   2.195  0.0543  0.2507 -0.3062
 6792TIP3    H120340   5.487   4.842   2.168 -0.1912 -1.0336  1.9733
 6792TIP3    H220341   5.338   4.868   2.177 -0.1012 -0.3025  1.4726
 6793TIP3   OH220342   6.391   3.510   4.630  0.1553 -0.0679  0.0827
 6793TIP3    H120343   6.318   3.453   4.605  0.5199 -1.3492  1.7607
 6793TIP3    H220344   6.452   3.503   4.556  0.1263 -1.7783  0.1764
 6794TIP3   OH220345   2.841   1.319   5.214  0.7576 -0.2445  0.7248
 6794TIP3    H120346   2.929   1.355   5.226  0.9698 -0.3096 -0.5421
 6794TIP3    H220347   2.849   1.228   5.244  1.0829 -0.2174  0.7284
 6795TIP3   OH220348   5.154   4.210   4.512 -0.0794  0.3524 -0.3503
 6795TIP3    H120349   5.142   4.132   4.457  0.4033 -0.6422  0.9123
 6795TIP3    H220350   5.151   4.283   4.450 -1.8642 -0.5481 -1.4160
 6796TIP3   OH220351   5.160   3.730   5.081 -0.4540 -0.4531 -0.2532
 6796TIP3    H120352   5.117   3.680   5.012 -2.5966  0.2381  0.4978
 6796TIP3    H220353   5.183   3.813   5.041  0.7519 -1.0194 -0.8001
 6797TIP3   OH220354   4.288   1.807   0.260  0.4802  0.2262 -0.4693
 6797TIP3    H120355   4.375   1.843   0.245  0.2368  1.2375  0.4327
 6797TIP3    H220356   4.236   1.881   0.291  0.0210 -0.8940  1.6668
 6798TIP3   OH220357   3.495   2.717   2.669 -0.2375  0.4387  0.1920
 6798TIP3    H120358   3.498   2.663   2.748  1.0191 -0.6422 -0.5439
 6798TIP3    H220359   3.540   2.798   2.694 -2.3998  1.3576  1.3950
 6799TIP3   OH220360   2.150   6.585   3.676  0.4327  0.4396  0.2500
 6799TIP3    H120361   2.078   6.537   3.633  0.1782 -0.0589  1.2134
 6799TIP3    H220362   2.191   6.520   3.733  2.8033  0.1920 -1.5648
 6800TIP3   OH220363   3.057   1.905   3.683  0.5516 -0.1260  1.0678
 6800TIP3    H120364   3.049   2.000   3.686 -2.1800 -0.1637 -1.0646
 6800TIP3    H220365   2.985   1.877   3.626  2.1762 -3.3591  0.3941
 6801TIP3   OH220366   5.313   6.248   2.843  0.5045 -0.2128 -0.1039
 6801TIP3    H120367   5.337   6.274   2.932  1.1840  0.5636 -0.5016
 6801TIP3    H220368   5.220   6.224   2.850  0.4198  0.2878  0.7171
 6802TIP3   OH220369   3.590   1.951   0.652  0.1689 -0.3908 -0.2218
 6802TIP3    H120370   3.604   2.026   0.710  0.4821  1.1896 -2.2299
 6802TIP3    H220371   3.669   1.898   0.661  1.3967  1.2144 -1.1151
 6803TIP3   OH220372   3.046   6.048   0.221 -0.3082  0.2515  0.4571
 6803TIP3    H120373   3.138   6.066   0.201 -0.2179  0.0570  0.6964
 6803TIP3    H220374   3.007   6.135   0.233 -0.2386  0.3475  0.0005
 6804TIP3   OH220375   4.965   2.597   2.027 -0.2874  0.0832 -0.1211
 6804TIP3    H120376   4.908   2.543   1.973 -1.2538  0.4792  0.4780
 6804TIP3    H220377   4.958   2.558   2.115 -0.1226  0.5150  0.0844
 6805TIP3   OH220378   6.315   3.686   4.867 -0.1582  0.0904  0.0579
 6805TIP3    H120379   6.297   3.742   4.791 -1.6417 -1.0716 -0.4939
 6805TIP3    H220380   6.340   3.602   4.830 -2.8704 -1.1303  0.7242
 6806TIP3   OH220381   1.228   1.590   0.797  0.0372  0.0845 -0.0756
 6806TIP3    H120382   1.317   1.622   0.811 -0.0920  0.7208 -0.6222
 6806TIP3    H220383   1.226   1.565   0.704 -0.3528  0.0858 -0.0710
 6807TIP3   OH220384   0.778   3.005   4.067  0.0882 -0.0618  0.5749
 6807TIP3    H120385   0.831   2.956   4.003  1.1359 -1.0031  2.1065
 6807TIP3    H220386   0.802   2.968   4.152 -1.8512  0.6212  1.4785
 6808TIP3   OH220387   0.060   2.834   1.525  0.7873 -0.1004 -0.0764
 6808TIP3    H120388   0.122   2.849   1.596  0.0737  1.4818  0.2583
 6808TIP3    H220389   0.033   2.922   1.498 -0.7333 -0.7342 -0.7219
 6809TIP3   OH220390   2.149   2.076   5.652 -0.3562  0.4853 -0.2598
 6809TIP3    H120391   2.117   1.994   5.688  0.1609 -0.3412 -1.6110
 6809TIP3    H220392   2.220   2.102   5.710 -1.2216  0.5605  0.7960
 6810TIP3   OH220393   5.382   2.841   1.448  0.4761 -0.2405 -0.2354
 6810TIP3    H120394   5.366   2.841   1.542 -1.6635  0.5896 -0.5437
 6810TIP3    H220395   5.417   2.754   1.429 -1.5221 -1.3605  0.9827
 6811TIP3   OH220396   5.817   1.297   4.633  0.0178 -0.4835  0.1489
 6811TIP3    H120397   5.867   1.248   4.699  0.3683 -1.2417 -0.6568
 6811TIP3    H220398   5.768   1.230   4.586  0.9634 -0.1635 -1.3636
 6812TIP3   OH220399   2.812   5.511   1.383 -0.2817  0.0842  0.2678
 6812TIP3    H120400   2.874   5.485   1.451 -1.0977  0.3834  1.1553
 6812TIP3    H220401   2.866   5.536   1.308  0.5795 -1.8269  0.2221
 6813TIP3   OH220402   6.271   5.730   0.181  0.2170  0.1985 -0.3823
 6813TIP3    H120403   6.289   5.824   0.173 -3.2887  1.1253  0.8453
 6813TIP3    H220404   6.205   5.713   0.115 -0.2348 -1.0541  0.3676
 6814TIP3   OH220405   6.088   5.307   2.483 -0.2314 -0.0546 -0.1876
 6814TIP3    H120406   6.136   5.373   2.532  1.5838 -1.8867  0.6244
 6814TIP3    H220407   6.017   5.280   2.541 -0.4772  0.5618 -0.1918
 6815TIP3   OH220408   0.487   3.902   2.974 -0.5935  0.3297 -0.3321
 6815TIP3    H120409   0.419   3.957   2.936 -0.6956  1.2473  1.0898
 6815TIP3    H220410   0.499   3.937   3.062  0.2977 -1.0992  0.1459
 6816TIP3   OH220411   2.260   2.512   0.359 -0.5161  0.4146  0.6120
 6816TIP3    H120412   2.337   2.500   0.304 -0.5726 -1.1582  0.8398
 6816TIP3    H220413   2.191   2.462   0.316 -1.3769  1.6055  0.5363
 6817TIP3   OH220414   3.883   0.535   2.949  0.5588 -0.6025  0.6376
 6817TIP3    H120415   3.942   0.463   2.971  0.1368 -1.1785 -0.0788
 6817TIP3    H220416   3.795   0.502   2.971  0.2092 -0.8779 -1.0256
 6818TIP3   OH220417   6.595   6.594   1.662 -0.2810 -0.1279  0.3131
 6818TIP3    H120418   6.580   6.510   1.619 -0.7662  1.0022 -1.8723
 6818TIP3    H220419   6.524   6.650   1.631  1.1064  1.6379  0.1535
 6819TIP3   OH220420   2.572   5.110   3.498 -0.3372  0.1190 -0.2635
 6819TIP3    H120421   2.640   5.087   3.562 -0.0822  0.9017 -0.2441
 6819TIP3    H220422   2.497   5.135   3.551  0.0308  1.2346 -0.2559
 6820TIP3   OH220423   6.429   2.940   0.744 -0.1713 -0.1858  0.2484
 6820TIP3    H120424   6.434   2.845   0.734  0.0070 -0.0956 -0.5206
 6820TIP3    H220425   6.512   2.972   0.711 -1.0091  0.3842 -1.4152
 6821TIP3   OH220426   3.982   1.291   0.467 -0.3781  0.4889 -0.7717
 6821TIP3    H120427   3.960   1.303   0.375  0.1024  0.1390 -0.9341
 6821TIP3    H220428   3.987   1.196   0.479 -0.6196  0.5259 -0.3419
 6822TIP3   OH220429   1.482   0.897   5.498 -0.3924  0.1116 -0.0721
 6822TIP3    H120430   1.569   0.860   5.483 -1.1825 -1.6668 -0.5774
 6822TIP3    H220431   1.467   0.956   5.424  0.6639  1.0426  0.4317
 6823TIP3   OH220432   6.402   6.381   3.026 -0.1485 -0.1102 -0.2663
 6823TIP3    H120433   6.423   6.342   2.941 -2.0614  1.3494 -1.4905
 6823TIP3    H220434   6.378   6.471   3.005  0.3500  0.5931  1.9905
 6824TIP3   OH220435   0.813   2.511   1.710 -0.2454  0.1512  0.6025
 6824TIP3    H120436   0.811   2.548   1.622 -1.4293 -0.8374  0.1839
 6824TIP3    H220437   0.802   2.585   1.769 -0.6707  0.6722 -0.1320
 6825TIP3   OH220438   4.755   2.263   5.168  0.0451  0.6608 -0.1395
 6825TIP3    H120439   4.673   2.219   5.144  0.9873 -0.3710 -1.6644
 6825TIP3    H220440   4.764   2.334   5.105  0.6920  0.2978 -0.4635
 6826TIP3   OH220441   0.033   2.458   1.706  0.2980 -0.3355 -0.0507
 6826TIP3    H120442   0.029   2.454   1.611  2.0606  0.5953 -0.2020
 6826TIP3    H220443  -0.056   2.482   1.733 -0.8455 -2.9045 -1.2577
 6827TIP3   OH220444   2.670   2.704   4.416  0.2424  0.2346  0.6107
 6827TIP3    H120445   2.580   2.736   4.418  0.4485  1.1499 -1.6168
 6827TIP3    H220446   2.722   2.782   4.396  1.4607 -0.4422  1.0405
 6828TIP3   OH220447   4.500   2.809   5.403  0.0169  0.3906 -0.1079
 6828TIP3    H120448   4.454   2.765   5.331 -0.6026  2.7823 -1.2775
 6828TIP3    H220449   4.587   2.770   5.403 -1.2310 -2.6883  0.7250
 6829TIP3   OH220450   2.997   5.682   2.014  0.4002 -0.2276  0.0566
 6829TIP3    H120451   2.943   5.746   2.061 -1.3438 -1.4547 -0.2224
 6829TIP3    H220452   3.050   5.640   2.082 -2.0189 -1.9081  1.0129
 6830TIP3   OH220453   2.853   1.891   3.886  0.6144 -0.0388  0.1823
 6830TIP3    H120454   2.782   1.907   3.824  0.2595 -0.3428  0.5053
 6830TIP3    H220455   2.878   1.800   3.869 -0.2675 -0.5007  1.2705
 6831TIP3   OH220456   3.617   2.763   4.853 -0.6459 -0.4780 -0.1526
 6831TIP3    H120457   3.584   2.764   4.943 -2.0329 -0.2229 -0.6277
 6831TIP3    H220458   3.589   2.847   4.817  2.1123  0.5552 -0.1082
 6832TIP3   OH220459   4.903   1.827   4.821 -0.1157 -0.7376 -0.1742
 6832TIP3    H120460   4.877   1.918   4.834 -1.2410 -0.9944 -0.5107
 6832TIP3    H220461   4.878   1.784   4.903 -1.4658 -1.1217 -0.7525
 6833TIP3   OH220462   5.086   1.209   3.940 -0.1303  0.7150 -0.0450
 6833TIP3    H120463   5.142   1.202   4.017  0.4549  0.3793 -0.4856
 6833TIP3    H220464   4.997   1.209   3.974  0.1183  0.3598  0.6189
 6834TIP3   OH220465   1.776   2.414   4.847  0.0837  0.3260 -0.1767
 6834TIP3    H120466   1.763   2.396   4.940  3.7556  0.7188  0.5827
 6834TIP3    H220467   1.827   2.340   4.815  2.6208  2.1373 -0.6835
 6835TIP3   OH220468   0.168   3.464   4.227  0.8412  0.4280  0.5056
 6835TIP3    H120469   0.102   3.395   4.232  1.7918 -0.4270  2.1665
 6835TIP3    H220470   0.170   3.488   4.135 -1.0167 -0.2575  0.2389
 6836TIP3   OH220471   5.837   3.758   5.882  0.3386 -0.1088 -0.2637
 6836TIP3    H120472   5.831   3.705   5.803 -0.5211 -2.3560  1.2033
 6836TIP3    H220473   5.876   3.700   5.947  1.3989  1.7911  0.9051
 6837TIP3   OH220474   7.185   2.444   3.830  0.5842  0.6516  0.1232
 6837TIP3    H120475   7.209   2.507   3.898 -0.8634  0.4563  0.8488
 6837TIP3    H220476   7.171   2.497   3.752  0.8057  1.0570  0.3571
 6838TIP3   OH220477   2.584   0.522   2.661 -0.5814 -0.2513  0.0408
 6838TIP3    H120478   2.623   0.440   2.631 -0.3097  0.0466 -0.4406
 6838TIP3    H220479   2.656   0.584   2.662 -0.2554 -0.5743  2.7527
 6839TIP3   OH220480   1.817   2.901   1.338  0.6696 -0.2350 -0.1262
 6839TIP3    H120481   1.730   2.940   1.326  0.0349 -1.2833  0.8541
 6839TIP3    H220482   1.854   2.896   1.250  0.1893  1.2118 -0.4355
 6840TIP3   OH220483   0.168   2.205   5.812 -0.3862  0.6943  0.4580
 6840TIP3    H120484   0.158   2.133   5.875 -2.3621  0.8705  0.4023
 6840TIP3    H220485   0.215   2.273   5.861  2.8225 -1.0549  0.0896
 6841TIP3   OH220486   0.224   5.605   5.758  0.3143 -0.5137 -0.3101
 6841TIP3    H120487   0.309   5.585   5.721  1.6458  1.0746  1.6678
 6841TIP3    H220488   0.179   5.655   5.690  0.3808 -2.4465 -1.8624
 6842TIP3   OH220489   1.257   6.434   3.015  0.3435  0.6966  0.1471
 6842TIP3    H120490   1.215   6.397   3.093  0.0088  1.0644  0.1407
 6842TIP3    H220491   1.291   6.519   3.044  1.4922  0.2197  0.2778
 6843TIP3   OH220492   5.974   2.762   2.097 -0.1885  0.3129  0.3974
 6843TIP3    H120493   6.067   2.746   2.117  0.4975  0.2869 -2.4459
 6843TIP3    H220494   5.950   2.836   2.153  1.2637 -0.2353  1.8271
 6844TIP3   OH220495   6.122   6.489   3.899 -0.3809  0.1539  0.1885
 6844TIP3    H120496   6.174   6.556   3.944  0.4747 -0.3542 -0.0088
 6844TIP3    H220497   6.073   6.446   3.969 -0.0372  0.2199  0.4746
 6845TIP3   OH220498   6.112   0.250   4.751  0.0690 -0.6265 -0.3947
 6845TIP3    H120499   6.097   0.210   4.665 -1.8429  0.1786 -0.4736
 6845TIP3    H220500   6.104   0.177   4.813  2.6137 -1.4462 -0.8980
 6846TIP3   OH220501   5.766   5.464   3.674 -0.5021  0.2080 -0.3648
 6846TIP3    H120502   5.684   5.430   3.707  0.0240 -0.6665  0.0712
 6846TIP3    H220503   5.763   5.447   3.579 -0.4758 -0.5881 -0.2290
 6847TIP3   OH220504   0.177   4.183   1.060 -0.0754  0.3066 -0.3670
 6847TIP3    H120505   0.157   4.245   0.989 -0.7732  0.6349  0.1019
 6847TIP3    H220506   0.107   4.119   1.056 -0.1140  0.3229  0.0213
 6848TIP3   OH220507   0.479   2.360   0.278  0.4850 -0.4322 -0.2640
 6848TIP3    H120508   0.534   2.437   0.290  0.5629 -0.6265  0.7440
 6848TIP3    H220509   0.404   2.375   0.335 -0.4327 -0.2617 -1.4818
 6849TIP3   OH220510   4.420   5.024   0.803  0.2201  0.0265 -0.1736
 6849TIP3    H120511   4.327   5.046   0.804  0.3681  0.9116 -1.7283
 6849TIP3    H220512   4.430   4.962   0.730  0.9942  0.8595 -0.8102
 6850TIP3   OH220513   5.943   0.666   1.051 -0.0136  0.0361 -0.2603
 6850TIP3    H120514   5.985   0.582   1.066  0.3721 -0.0340 -1.6073
 6850TIP3    H220515   5.924   0.667   0.957 -0.4277  1.2589 -0.1810
 6851TIP3   OH220516   1.868   5.760   0.756  0.8291 -0.0155  0.1163
 6851TIP3    H120517   1.930   5.832   0.746  0.7353 -0.0071 -0.4372
 6851TIP3    H220518   1.922   5.681   0.752  0.7715 -0.0217 -0.7369
 6852TIP3   OH220519   4.947   0.152   5.702  0.3951  0.5346  0.4812
 6852TIP3    H120520   4.942   0.062   5.669 -0.8354 -0.2261  2.5163
 6852TIP3    H220521   4.926   0.207   5.626  2.2960 -0.7862 -1.0868
 6853TIP3   OH220522   6.343   0.031   2.070  0.2640 -0.2634 -0.1046
 6853TIP3    H120523   6.415  -0.020   2.033  1.0510 -0.0110  1.0273
 6853TIP3    H220524   6.280   0.037   1.999  1.0080 -1.1587 -0.8805
 6854TIP3   OH220525   0.606   2.118   1.194  0.2116 -0.4657  0.0478
 6854TIP3    H120526   0.529   2.064   1.174  0.7778 -1.4851  0.5218
 6854TIP3    H220527   0.663   2.060   1.244  0.7326  0.6785  0.8145
 6855TIP3   OH220528   5.195   6.371   2.232 -0.6732 -0.2077 -0.4089
 6855TIP3    H120529   5.230   6.457   2.258 -1.6229  0.1680 -0.3192
 6855TIP3    H220530   5.151   6.339   2.311 -2.0374  0.1358 -0.9998
 6856TIP3   OH220531   5.391   4.384   0.741 -0.1023 -0.2387 -0.1503
 6856TIP3    H120532   5.371   4.474   0.766 -0.0203 -0.1798 -0.2993
 6856TIP3    H220533   5.483   4.372   0.763  0.0648 -0.0799 -0.7394
 6857TIP3   OH220534   2.069   4.026   2.825 -0.6209  0.4073 -0.0295
 6857TIP3    H120535   1.982   3.990   2.813 -0.3512 -0.7791  1.3624
 6857TIP3    H220536   2.072   4.052   2.917  0.6091  0.0796  0.0415
 6858TIP3   OH220537   1.383   2.592   3.373 -0.1607 -0.0963  0.2922
 6858TIP3    H120538   1.441   2.635   3.310  0.4244 -1.9746 -0.5218
 6858TIP3    H220539   1.387   2.499   3.350 -0.1753 -0.8323  2.9076
 6859TIP3   OH220540   0.578   6.005   4.183  0.2412 -0.0050  0.6995
 6859TIP3    H120541   0.602   6.020   4.091  1.1564  1.0264  1.0955
 6859TIP3    H220542   0.555   6.091   4.216 -0.3643 -0.4220  1.3698
 6860TIP3   OH220543   1.144   3.954   1.779 -0.7296  0.6230  0.5277
 6860TIP3    H120544   1.068   3.916   1.734 -1.3018  0.2037  1.7950
 6860TIP3    H220545   1.135   3.925   1.870  2.3697 -1.6482  0.2558
 6861TIP3   OH220546   4.525   4.590   5.794 -0.2531 -0.0667  0.2826
 6861TIP3    H120547   4.487   4.517   5.745  0.2166 -1.3591  1.7646
 6861TIP3    H220548   4.574   4.548   5.865 -0.0763  1.7001  1.2496
 6862TIP3   OH220549   4.334   0.900   1.372  0.4943 -0.1256  0.5135
 6862TIP3    H120550   4.401   0.943   1.425  0.1601  0.9547  0.0916
 6862TIP3    H220551   4.330   0.951   1.291 -0.1314 -0.7776  0.1183
 6863TIP3   OH220552   4.705   5.549   5.822 -0.3182  0.0272 -0.1068
 6863TIP3    H120553   4.789   5.579   5.786 -0.1894  0.2178  0.3385
 6863TIP3    H220554   4.717   5.456   5.838 -0.0836  0.1155  0.2423
 6864TIP3   OH220555   4.605   6.528   1.534 -0.0657 -0.7413 -0.5535
 6864TIP3    H120556   4.652   6.535   1.451  0.6061 -2.5318 -0.3732
 6864TIP3    H220557   4.657   6.579   1.595 -1.1777  1.5668 -1.4113
 6865TIP3   OH220558   0.781   4.424   0.962  0.1809  0.7721 -0.0790
 6865TIP3    H120559   0.688   4.437   0.946  0.4171  1.8330 -0.6756
 6865TIP3    H220560   0.823   4.503   0.928  1.1657  0.9874  1.5000
 6866TIP3   OH220561   4.241   1.023   4.864 -0.4082  0.1455  0.3789
 6866TIP3    H120562   4.232   1.101   4.810 -0.5986 -0.8248 -1.0701
 6866TIP3    H220563   4.329   0.990   4.843 -1.6502 -2.0521 -1.9991
 6867TIP3   OH220564   2.417   4.137   0.860  0.0024  0.7934  0.2359
 6867TIP3    H120565   2.357   4.075   0.819  0.1217 -0.5134  1.9383
 6867TIP3    H220566   2.415   4.213   0.802 -1.9911  0.1470 -0.6522
 6868TIP3   OH220567   3.806   2.437   5.011  1.0736  0.5249 -0.7995
 6868TIP3    H120568   3.765   2.514   5.050 -0.6887 -0.2395 -1.0590
 6868TIP3    H220569   3.869   2.407   5.076  0.3573  1.0426  0.1504
 6869TIP3   OH220570   4.814   2.803   3.582 -0.1920 -0.5329 -0.2013
 6869TIP3    H120571   4.757   2.832   3.653  0.8156  0.3324  0.2749
 6869TIP3    H220572   4.880   2.749   3.625  1.1971  1.0564 -0.2325
 6870TIP3   OH220573   2.970   5.214   0.491 -0.3771  0.1210  0.0319
 6870TIP3    H120574   2.928   5.184   0.410  0.1517  1.6245 -0.8215
 6870TIP3    H220575   3.002   5.133   0.531 -1.3273 -0.7388 -0.8518
 6871TIP3   OH220576   1.880   0.244   3.280 -0.1165 -0.9421  0.0838
 6871TIP3    H120577   1.824   0.274   3.209  0.2719 -0.2018  0.0811
 6871TIP3    H220578   1.968   0.246   3.244  0.2824  0.9976  1.0448
 6872TIP3   OH220579   4.818   1.046   0.527 -0.0579  0.1992 -1.3729
 6872TIP3    H120580   4.899   1.024   0.573  0.0396  1.4883 -0.9032
 6872TIP3    H220581   4.813   0.982   0.456 -0.1734 -1.8353  0.3408
 6873TIP3   OH220582   1.959   0.597   1.373 -0.2779  0.3747 -0.5478
 6873TIP3    H120583   1.898   0.562   1.437 -0.8116  2.7822  0.3758
 6873TIP3    H220584   1.904   0.623   1.299 -0.2487  1.5077 -0.1855
 6874TIP3   OH220585   3.231   0.680   3.163 -0.0080  0.5160  0.0404
 6874TIP3    H120586   3.248   0.759   3.213  1.3130 -0.3897  1.0864
 6874TIP3    H220587   3.143   0.654   3.189  0.7642 -0.1336  2.2711
 6875TIP3   OH220588   5.431   0.464   3.954 -0.5322  0.0343  0.4725
 6875TIP3    H120589   5.404   0.402   4.022 -0.4470 -0.7651 -0.1937
 6875TIP3    H220590   5.517   0.494   3.982  1.0415 -2.8125 -0.8370
 6876TIP3   OH220591   7.076   1.353   0.896  0.1731 -0.2130 -0.6110
 6876TIP3    H120592   7.098   1.384   0.809 -1.5413 -0.0641 -1.0315
 6876TIP3    H220593   7.077   1.432   0.950  3.2112 -0.5553  0.0304
 6877TIP3   OH220594   4.957   1.835   5.866 -0.0584 -0.2646  0.1983
 6877TIP3    H120595   4.978   1.750   5.828  1.1718 -0.0452  0.3627
 6877TIP3    H220596   4.873   1.821   5.910 -0.6014 -0.9949 -1.0216
 6878TIP3   OH220597   1.469   2.026   3.866 -0.3266 -1.1774  0.0492
 6878TIP3    H120598   1.441   1.977   3.944 -3.2178 -0.8478 -0.6665
 6878TIP3    H220599   1.431   1.979   3.793 -0.7897  0.5488 -0.8715
 6879TIP3   OH220600   6.006   3.809   5.200  0.2436 -0.1844  0.2714
 6879TIP3    H120601   5.919   3.771   5.188  0.6335 -1.1015  0.2711
 6879TIP3    H220602   6.046   3.757   5.270  1.1205 -0.3570 -0.3350
 6880TIP3   OH220603   0.610   1.456   1.426 -0.1878  0.7561 -1.0602
 6880TIP3    H120604   0.653   1.421   1.348  2.9544 -1.8102  1.5623
 6880TIP3    H220605   0.520   1.424   1.420  0.5068 -1.0450 -2.6949
 6881TIP3   OH220606   5.760   3.122   3.824 -0.1335 -0.1068  0.3873
 6881TIP3    H120607   5.676   3.092   3.789 -1.2124  0.3306  2.3974
 6881TIP3    H220608   5.763   3.215   3.802  0.9824 -0.5935 -1.7272
 6882TIP3   OH220609   3.259   0.837   5.559  0.2864  0.4708  0.2403
 6882TIP3    H120610   3.314   0.759   5.551  1.0931  1.0755 -0.3470
 6882TIP3    H220611   3.297   0.885   5.632  1.4056  1.5369 -0.9959
 6883TIP3   OH220612   6.314   5.753   3.640  0.2094  0.6022 -0.4639
 6883TIP3    H120613   6.299   5.670   3.686 -0.0448 -1.3899 -3.7918
 6883TIP3    H220614   6.409   5.764   3.640  0.4163 -0.8721 -1.7526
 6884TIP3   OH220615   6.853   1.940   1.824 -0.7209  0.3246  0.1996
 6884TIP3    H120616   6.910   2.002   1.778 -1.1060  0.1029 -0.6017
 6884TIP3    H220617   6.792   1.995   1.874 -0.0134  0.5641  0.8173
 6885TIP3   OH220618   0.508   1.057   5.650 -0.6210  0.1644 -0.0677
 6885TIP3    H120619   0.538   1.138   5.691  0.1643 -0.3981  0.5014
 6885TIP3    H220620   0.572   1.041   5.580  0.3409 -0.9303  1.0161
 6886TIP3   OH220621   0.649   0.627   0.191  0.6939  0.5285 -0.0258
 6886TIP3    H120622   0.612   0.546   0.227  1.2700  0.5272  0.5769
 6886TIP3    H220623   0.649   0.688   0.265  0.5555  0.9825 -0.3957
 6887TIP3   OH220624   4.936   5.387   5.554 -0.1481 -0.0032  0.0787
 6887TIP3    H120625   4.920   5.404   5.461  1.7584  0.3102 -0.2402
 6887TIP3    H220626   4.910   5.468   5.598 -1.3607 -0.2661 -0.1083
 6888TIP3   OH220627   1.086   4.807   2.372 -0.1116 -0.1760 -0.5628
 6888TIP3    H120628   1.129   4.893   2.371 -1.4861  0.5406 -2.0930
 6888TIP3    H220629   1.098   4.772   2.284 -3.5534  0.6109 -1.5231
 6889TIP3   OH220630   5.670   3.389   3.735  0.4335 -0.3481  0.3601
 6889TIP3    H120631   5.603   3.453   3.711  0.9973  0.0179 -0.2698
 6889TIP3    H220632   5.688   3.406   3.828  0.3192  0.1706  0.2896
 6890TIP3   OH220633   6.237   0.811   2.450  0.7780  0.2094 -0.0265
 6890TIP3    H120634   6.206   0.899   2.428 -0.8853  0.3033  2.3447
 6890TIP3    H220635   6.314   0.825   2.504 -0.8658  0.4087  2.4197
 6891TIP3   OH220636   1.559   0.978   4.843  0.0422  0.1401  0.1626
 6891TIP3    H120637   1.635   0.919   4.841 -1.1823 -1.5077 -1.2317
 6891TIP3    H220638   1.486   0.921   4.868 -0.7910  1.6309  1.2250
 6892TIP3   OH220639   2.784   6.062   2.842  0.1702  0.3938  0.7605
 6892TIP3    H120640   2.877   6.081   2.845  0.4831 -0.4137 -1.4167
 6892TIP3    H220641   2.742   6.134   2.889  1.8773  0.7850  1.7327
 6893TIP3   OH220642   4.091   1.028   1.581 -0.3484 -0.3068 -0.5008
 6893TIP3    H120643   4.084   0.948   1.529  0.5928 -0.8789  0.2137
 6893TIP3    H220644   4.181   1.058   1.566 -0.0324 -0.5172  0.7947
 6894TIP3   OH220645   0.484   5.582   3.909 -0.3376 -0.1083 -0.8470
 6894TIP3    H120646   0.502   5.584   3.815  0.4608  1.8906 -0.7085
 6894TIP3    H220647   0.562   5.621   3.949 -1.5091  0.9872  0.4732
 6895TIP3   OH220648   0.501   2.935   4.095  0.1476  0.2603 -0.5325
 6895TIP3    H120649   0.487   2.844   4.119 -0.8092  0.4883 -0.1809
 6895TIP3    H220650   0.596   2.947   4.101  0.2341 -0.5671 -0.0584
 6896TIP3   OH220651   1.217   3.695   2.442  0.2703 -0.1058 -0.1681
 6896TIP3    H120652   1.299   3.657   2.411 -0.5670 -1.3691 -0.8960
 6896TIP3    H220653   1.243   3.779   2.481  1.7270  0.2151 -1.6958
 6897TIP3   OH220654   3.672   0.815   4.916  0.5598  0.3100  0.0368
 6897TIP3    H120655   3.611   0.876   4.959  0.3650  2.5055 -3.0329
 6897TIP3    H220656   3.671   0.737   4.972 -2.1913  1.6385  2.1040
 6898TIP3   OH220657   3.413   5.906   3.995 -0.2120  0.4118  0.1279
 6898TIP3    H120658   3.382   5.850   3.924 -1.7050 -0.2620  1.2472
 6898TIP3    H220659   3.485   5.957   3.957  0.0782 -1.0637 -1.3933
 6899TIP3   OH220660   0.416   4.257   0.622 -0.5704  0.3328 -0.8577
 6899TIP3    H120661   0.365   4.323   0.575 -2.2480 -0.3821 -0.1530
 6899TIP3    H220662   0.507   4.279   0.605 -1.0868  2.5266 -1.0576
 6900TIP3   OH220663   4.135   5.121   0.830  0.4402 -0.2721  0.1532
 6900TIP3    H120664   4.162   5.195   0.775 -3.0314  1.3454  0.3443
 6900TIP3    H220665   4.107   5.162   0.912 -3.1926 -1.4855 -0.3492
 6901TIP3   OH220666   0.373   2.035   0.879  0.2294  0.2055 -0.2668
 6901TIP3    H120667   0.402   2.085   0.803 -0.1947 -1.3250 -1.4919
 6901TIP3    H220668   0.443   1.972   0.894 -0.8865 -1.3156 -1.1634
 6902TIP3   OH220669   3.799   0.757   5.743 -0.0219 -0.0327  0.1469
 6902TIP3    H120670   3.725   0.726   5.691  0.1390  0.4739 -0.3918
 6902TIP3    H220671   3.823   0.682   5.798 -1.2137 -0.0658  0.6532
 6903TIP3   OH220672   6.417   3.157   1.669 -0.0578  0.0288  0.8500
 6903TIP3    H120673   6.357   3.132   1.599 -0.5468  0.0079  1.2703
 6903TIP3    H220674   6.404   3.251   1.680  0.3281  0.1105  0.6264
 6904TIP3   OH220675   0.194   1.390   4.259  0.3670 -0.5040  0.3081
 6904TIP3    H120676   0.171   1.427   4.174  1.2704  0.9667  0.6619
 6904TIP3    H220677   0.125   1.328   4.278 -0.7364  0.3521 -0.7575
 6905TIP3   OH220678   0.088   3.381   4.802 -0.4843 -0.2380 -1.0718
 6905TIP3    H120679   0.176   3.386   4.765 -0.7559 -2.2785 -2.1151
 6905TIP3    H220680   0.037   3.444   4.752  0.8231  2.9077  1.2188
 6906TIP3   OH220681   0.959   5.192   3.158 -0.4355  0.6176  0.2175
 6906TIP3    H120682   1.037   5.221   3.110  1.5376  0.6222  3.1438
 6906TIP3    H220683   0.909   5.272   3.173  1.0504  1.3306  1.6296
 6907TIP3   OH220684   5.167   1.128   2.723 -0.0559 -0.3576 -0.5624
 6907TIP3    H120685   5.080   1.137   2.684 -0.1139  0.4691 -0.2577
 6907TIP3    H220686   5.150   1.102   2.813 -0.0926  1.6225  0.0609
 6908TIP3   OH220687   0.176   5.168   2.430 -0.8697  0.1244 -0.2978
 6908TIP3    H120688   0.263   5.176   2.471 -1.1220 -2.7115  1.0093
 6908TIP3    H220689   0.121   5.229   2.479 -0.2687 -0.3127  0.9734
 6909TIP3   OH220690   5.496   1.410   4.233  0.0486 -0.1089  0.3414
 6909TIP3    H120691   5.543   1.345   4.180  3.2795  0.4044  2.3210
 6909TIP3    H220692   5.552   1.487   4.231 -1.8774  1.3679  1.0632
 6910TIP3   OH220693   5.403   1.108   2.276  0.1996 -0.1724  0.2137
 6910TIP3    H120694   5.389   1.150   2.361  1.4663 -0.2965  0.4967
 6910TIP3    H220695   5.344   1.032   2.277  2.0705 -1.6836  2.0858
 6911TIP3   OH220696   1.006   1.471   5.754  0.7036 -0.4559  0.0292
 6911TIP3    H120697   1.075   1.445   5.816  0.1833  0.0574  0.8478
 6911TIP3    H220698   1.032   1.559   5.726 -0.3733  0.4030  1.5376
 6912TIP3   OH220699   2.084   2.350   3.252  0.5722  0.1388  0.1529
 6912TIP3    H120700   2.117   2.372   3.165 -0.9433 -0.5939 -0.6549
 6912TIP3    H220701   2.093   2.431   3.303  2.5501  0.2583 -0.3073
 6913TIP3   OH220702   6.565   3.146   4.312 -0.0528  0.0765  0.1423
 6913TIP3    H120703   6.580   3.052   4.310 -1.5491 -0.1960  0.6642
 6913TIP3    H220704   6.501   3.161   4.242  0.1696  0.7108  0.0685
 6914TIP3   OH220705   0.356   5.015   0.161 -0.3932  0.4239 -0.0207
 6914TIP3    H120706   0.334   4.947   0.224  0.2442  0.6100  0.4074
 6914TIP3    H220707   0.395   5.085   0.213  1.8717 -0.1723 -0.7887
 6915TIP3   OH220708   6.097   3.415   4.998  0.7693  0.4201 -0.2481
 6915TIP3    H120709   6.025   3.414   4.935  0.0172  1.4994  0.5498
 6915TIP3    H220710   6.154   3.344   4.971  0.5297  0.9296 -2.2157
 6916TIP3   OH220711   2.157   5.366   3.575 -0.9308  0.5568  0.0081
 6916TIP3    H120712   2.120   5.368   3.486  0.6371 -1.9270 -0.7862
 6916TIP3    H220713   2.120   5.288   3.615  0.8433 -0.1751  0.3292
 6917TIP3   OH220714   3.059   4.758   0.977 -0.4252 -0.0819  0.2633
 6917TIP3    H120715   2.988   4.809   0.939 -0.6838 -1.7194 -1.5631
 6917TIP3    H220716   3.018   4.709   1.048 -1.4767 -1.9119 -1.5197
 6918TIP3   OH220717   5.518   1.585   4.874  0.2261 -0.2432  0.1799
 6918TIP3    H120718   5.445   1.591   4.814 -2.3567 -0.3150  3.0455
 6918TIP3    H220719   5.545   1.493   4.870 -1.3480 -0.7538  0.6304
 6919TIP3   OH220720   5.901   5.193   2.293 -0.1834 -0.2179 -0.6450
 6919TIP3    H120721   5.901   5.099   2.310 -1.3999 -0.4075 -1.5021
 6919TIP3    H220722   5.937   5.233   2.372 -1.4159 -1.2956  0.5027
 6920TIP3   OH220723   4.705   5.977   5.557  0.2268  0.2552  0.2045
 6920TIP3    H120724   4.611   5.974   5.541  0.4538 -0.7785 -1.1439
 6920TIP3    H220725   4.745   5.951   5.474  1.7701  2.4393  0.1708
 6921TIP3   OH220726   4.088   0.180   5.733 -0.1640  0.1158  0.0782
 6921TIP3    H120727   4.021   0.241   5.703  0.3973 -0.3957 -2.4632
 6921TIP3    H220728   4.170   0.229   5.730  0.2695 -0.6461 -1.8430
 6922TIP3   OH220729   2.535   1.211   4.454  0.0463  0.2589 -0.4516
 6922TIP3    H120730   2.539   1.153   4.531  1.0512  0.3088 -0.4485
 6922TIP3    H220731   2.487   1.288   4.485  0.9103  0.5173  0.3090
 6923TIP3   OH220732   4.565   3.038   5.557 -0.0290 -0.2749 -0.7725
 6923TIP3    H120733   4.560   2.954   5.512 -0.2489 -0.5946 -0.1535
 6923TIP3    H220734   4.520   3.024   5.640 -3.9606  1.5382 -2.3387
 6924TIP3   OH220735   3.137   3.451   5.745  0.3637  0.5379 -0.2319
 6924TIP3    H120736   3.140   3.392   5.670  1.3180 -2.0703  1.6866
 6924TIP3    H220737   3.083   3.525   5.717 -1.0867 -1.3442 -2.7401
 6925TIP3   OH220738   4.987   2.555   2.952  0.2576  0.8888 -0.2310
 6925TIP3    H120739   4.997   2.614   2.877  1.2058  1.6708  0.4858
 6925TIP3    H220740   4.930   2.603   3.012 -0.2455  0.3985 -0.3164
 6926TIP3   OH220741   4.383   4.123   2.690  0.1708  0.2762  0.2473
 6926TIP3    H120742   4.294   4.135   2.722 -0.5568 -0.6528 -1.2675
 6926TIP3    H220743   4.419   4.053   2.744  0.0886  0.8624  1.0646
 6927TIP3   OH220744   4.163   6.584   4.078  0.2498 -0.3725  0.3356
 6927TIP3    H120745   4.142   6.494   4.050  0.4035 -0.2977 -0.0333
 6927TIP3    H220746   4.254   6.579   4.108  0.6586 -0.1079 -0.7939
 6928TIP3   OH220747   0.181   2.235   4.399 -0.2299 -0.4288 -0.2758
 6928TIP3    H120748   0.198   2.152   4.355  1.5167 -0.0784 -0.3319
 6928TIP3    H220749   0.107   2.272   4.351 -0.3556 -1.4796 -0.9195
 6929TIP3   OH220750   4.054   2.143   1.067 -0.3762 -0.0464  0.8212
 6929TIP3    H120751   4.091   2.191   1.141  3.4609 -1.6971  0.2412
 6929TIP3    H220752   4.087   2.054   1.078  2.0241  0.0057 -3.7172
 6930TIP3   OH220753   4.611   0.118   5.451 -0.2284  0.2956 -0.4820
 6930TIP3    H120754   4.651   0.043   5.408  0.5239  0.2055  0.3422
 6930TIP3    H220755   4.590   0.179   5.379  0.2559 -0.1851 -1.0378
 6931TIP3   OH220756   6.414   3.091   5.127  0.1319 -0.5910 -0.3163
 6931TIP3    H120757   6.466   3.010   5.121 -0.8703 -1.3134  0.5876
 6931TIP3    H220758   6.457   3.142   5.195 -0.2625 -1.1344  0.3435
 6932TIP3   OH220759   5.775   0.364   1.980 -0.2834  0.4923  0.8014
 6932TIP3    H120760   5.767   0.292   2.043 -2.3063  0.5920  0.7067
 6932TIP3    H220761   5.714   0.343   1.910  2.3627  0.0507 -1.5798
 6933TIP3   OH220762   3.995   5.533   1.619  0.0190 -0.0820 -0.3192
 6933TIP3    H120763   3.945   5.510   1.541 -1.1124  2.3134 -0.3642
 6933TIP3    H220764   4.058   5.598   1.588 -1.2474  1.8190  0.9234
 6934TIP3   OH220765   5.693   0.217   4.630  0.2578 -0.2952 -0.3659
 6934TIP3    H120766   5.727   0.130   4.651  1.0851  0.1380  0.1520
 6934TIP3    H220767   5.599   0.204   4.619 -0.2702 -0.6195  3.4429
 6935TIP3   OH220768   3.215   1.495   0.333 -0.0418  0.1076  0.0054
 6935TIP3    H120769   3.211   1.578   0.284 -0.1930  1.1564  1.7364
 6935TIP3    H220770   3.194   1.429   0.267  0.4945  1.3828 -1.5275
 6936TIP3   OH220771   3.303   3.221   0.355  0.2898 -0.7939  0.4815
 6936TIP3    H120772   3.209   3.207   0.358 -0.1770  1.0791 -1.9201
 6936TIP3    H220773   3.317   3.300   0.408 -0.1710  1.1813 -2.1222
 6937TIP3   OH220774   3.206   1.440   3.407  0.4889 -0.2129  0.4937
 6937TIP3    H120775   3.226   1.351   3.379 -1.1534 -0.5121  0.1572
 6937TIP3    H220776   3.292   1.482   3.419  1.2968 -1.1041 -1.6270
 6938TIP3   OH220777   0.170   6.539   5.252 -0.7646  0.5222  0.5618
 6938TIP3    H120778   0.102   6.538   5.185 -0.2892  0.8614  0.0592
 6938TIP3    H220779   0.137   6.596   5.321 -1.4468 -0.1779  0.8206
 6939TIP3   OH220780   1.618   0.074   0.890 -0.3695 -0.4948  0.3776
 6939TIP3    H120781   1.621   0.042   0.800  1.3050 -0.2726  0.3205
 6939TIP3    H220782   1.620  -0.005   0.944 -2.2397 -0.6640  0.2489
 6940TIP3   OH220783   3.360   6.176   5.083  0.4032 -0.5279  0.3838
 6940TIP3    H120784   3.311   6.123   5.146 -3.1048 -1.6206 -2.9107
 6940TIP3    H220785   3.341   6.266   5.108  0.8859 -0.8735  2.1132
 6941TIP3   OH220786   1.685   0.563   1.358 -0.1806  0.1921 -0.1397
 6941TIP3    H120787   1.653   0.618   1.430 -1.5571 -1.2180  0.4016
 6941TIP3    H220788   1.605   0.529   1.318  0.6122 -1.0315 -0.7360
 6942TIP3   OH220789   5.740   2.876   0.087 -0.3296  0.8442  0.1095
 6942TIP3    H120790   5.733   2.796   0.034 -0.8487  1.4221 -0.7014
 6942TIP3    H220791   5.777   2.941   0.029 -0.5632  1.3903  0.5597
 6943TIP3   OH220792   4.698   5.102   4.617 -0.0025 -0.2140 -0.1000
 6943TIP3    H120793   4.656   5.187   4.630 -1.2810 -0.8349 -0.0259
 6943TIP3    H220794   4.774   5.121   4.561 -0.4455  0.9220 -0.3468
 6944TIP3   OH220795   5.763   4.647   0.605  0.1351 -0.2728  0.4677
 6944TIP3    H120796   5.751   4.669   0.512  0.2481  0.7375  0.6793
 6944TIP3    H220797   5.762   4.551   0.607  0.5797 -0.3234 -0.6404
 6945TIP3   OH220798   2.678   6.732   4.438 -0.7205  0.1093 -0.1142
 6945TIP3    H120799   2.593   6.689   4.452 -1.0048  0.7073  0.0386
 6945TIP3    H220800   2.704   6.705   4.350 -0.6957 -0.7011  0.1349
 6946TIP3   OH220801   1.892   3.650   3.353 -0.0303 -0.1139 -0.1908
 6946TIP3    H120802   1.861   3.627   3.441  0.0779  1.2534  0.2331
 6946TIP3    H220803   1.812   3.672   3.305 -0.1261 -1.2388 -0.5698
 6947TIP3   OH220804   1.229   6.198   4.198 -0.0463  0.6602 -0.5683
 6947TIP3    H120805   1.264   6.282   4.227  0.2701  0.5227 -0.5536
 6947TIP3    H220806   1.170   6.171   4.268 -0.8793  1.3203 -1.0022
 6948TIP3   OH220807   2.533   2.470   0.854 -0.1946  0.4194 -0.3127
 6948TIP3    H120808   2.602   2.536   0.867  2.2961 -1.8863 -0.8447
 6948TIP3    H220809   2.514   2.472   0.761  0.9436 -0.5093 -0.5909
 6949TIP3   OH220810   2.214   3.477   4.967 -0.1063  0.0251 -0.6012
 6949TIP3    H120811   2.267   3.445   4.895 -0.8432  1.0095 -1.6123
 6949TIP3    H220812   2.141   3.523   4.925 -1.1134 -0.2704  0.7577
 6950TIP3   OH220813   6.065   1.196   3.990  0.3474  0.2400  0.1720
 6950TIP3    H120814   6.003   1.128   4.017  0.3997  0.8185  1.7991
 6950TIP3    H220815   6.048   1.270   4.048  0.7981  1.3733 -1.0835
 6951TIP3   OH220816   3.178   4.284   2.282 -0.3162 -0.4944  1.1879
 6951TIP3    H120817   3.166   4.318   2.193  2.0522 -1.9280  0.2351
 6951TIP3    H220818   3.162   4.360   2.339 -0.9534  0.6940 -0.4874
 6952TIP3   OH220819   4.852   3.376   0.846  0.2041 -0.6406 -0.0814
 6952TIP3    H120820   4.800   3.345   0.772  1.6558 -1.1514 -0.9236
 6952TIP3    H220821   4.943   3.375   0.814  0.4936  4.3399 -0.2088
 6953TIP3   OH220822   6.951   5.708   1.468 -0.0428  0.0252  0.0797
 6953TIP3    H120823   6.950   5.616   1.440  2.1414  0.2648 -0.9941
 6953TIP3    H220824   6.908   5.755   1.396 -1.7235 -0.1602  0.9060
 6954TIP3   OH220825   5.311   3.204   0.140 -0.1324 -0.4977  0.2056
 6954TIP3    H120826   5.257   3.172   0.212  0.1629  2.4655  1.9551
 6954TIP3    H220827   5.258   3.191   0.062 -2.6348  0.4847  1.5992
 6955TIP3   OH220828   2.628   1.955   5.664 -0.4015  0.8581 -0.3943
 6955TIP3    H120829   2.667   1.889   5.721  0.0127  0.5027 -1.0842
 6955TIP3    H220830   2.648   2.039   5.707  0.0613  0.6031 -0.1094
 6956TIP3   OH220831   2.753   6.626   4.869 -0.0575 -0.0770 -0.4628
 6956TIP3    H120832   2.794   6.650   4.786 -0.1475  0.5794 -0.3168
 6956TIP3    H220833   2.819   6.571   4.913  0.2292  0.0728 -0.7015
 6957TIP3   OH220834   2.431   6.626   0.741 -0.3878 -0.4685  0.0514
 6957TIP3    H120835   2.451   6.579   0.660 -0.9253  0.7770 -0.8321
 6957TIP3    H220836   2.470   6.713   0.728 -0.1548 -0.3691  1.2934
 6958TIP3   OH220837   0.914   5.314   0.690  0.1694  0.4257  0.3435
 6958TIP3    H120838   0.991   5.346   0.643 -1.3051  3.2644 -0.4131
 6958TIP3    H220839   0.905   5.373   0.765 -0.0545 -1.2585  1.6948
 6959TIP3   OH220840   3.806   1.334   1.828  0.4107 -0.7723 -0.0494
 6959TIP3    H120841   3.813   1.325   1.733  1.2690 -1.3664  0.0580
 6959TIP3    H220842   3.778   1.424   1.842 -2.2345 -1.3610 -0.9576
 6960TIP3   OH220843   5.361   5.108   1.185 -0.2135 -0.3143  0.2228
 6960TIP3    H120844   5.350   5.203   1.189  1.1397 -0.1460  0.7460
 6960TIP3    H220845   5.329   5.077   1.270  2.8543  0.1566  1.6932
 6961TIP3   OH220846   4.697   5.624   1.985 -0.2699  0.4763 -0.1791
 6961TIP3    H120847   4.768   5.574   1.944  0.0170 -0.0862  0.9672
 6961TIP3    H220848   4.628   5.559   1.999  0.4585  0.1131  2.1892
 6962TIP3   OH220849   5.442   3.871   1.345 -0.4218 -0.2472 -0.1642
 6962TIP3    H120850   5.502   3.878   1.419 -1.2524  0.8287  0.4344
 6962TIP3    H220851   5.452   3.953   1.297 -2.6385  0.7731  0.9547
 6963TIP3   OH220852   0.165   2.682   5.567  0.4486  0.1889 -0.0522
 6963TIP3    H120853   0.251   2.712   5.594  0.2185  1.7095 -0.8596
 6963TIP3    H220854   0.121   2.762   5.536 -1.4077 -0.4728  0.7678
 6964TIP3   OH220855   4.793   2.222   3.598 -0.4593 -0.0572  0.1791
 6964TIP3    H120856   4.758   2.233   3.509  1.4354 -0.0978 -0.6089
 6964TIP3    H220857   4.850   2.298   3.611 -1.8993  0.7885  1.9974
 6965TIP3   OH220858   4.074   1.986   3.636  0.8255 -0.3251  0.1047
 6965TIP3    H120859   4.110   1.926   3.702  1.9064 -0.8418 -0.9315
 6965TIP3    H220860   4.003   2.031   3.682  1.2446 -1.0054  1.4868
 6966TIP3   OH220861   4.268   1.745   5.760 -0.0583 -0.4237 -0.6314
 6966TIP3    H120862   4.349   1.743   5.711  0.1380 -0.4180 -0.3104
 6966TIP3    H220863   4.295   1.758   5.851 -0.4020 -0.6462 -0.4932
 6967TIP3   OH220864   3.235   1.594   3.729  0.1236  0.3624  0.0543
 6967TIP3    H120865   3.269   1.676   3.694 -0.7663  0.1480 -1.3758
 6967TIP3    H220866   3.312   1.539   3.740  0.4169  0.2544 -2.1044
 6968TIP3   OH220867   6.587   1.371   1.755  0.2972  0.5215  0.1336
 6968TIP3    H120868   6.526   1.383   1.683 -0.1428 -0.5799  0.2942
 6968TIP3    H220869   6.549   1.420   1.828  0.5941  1.3981 -0.2921
 6969TIP3   OH220870   0.976   6.602   4.819 -0.1538 -0.2309 -0.0173
 6969TIP3    H120871   0.923   6.593   4.898  0.0589  1.8255  0.4170
 6969TIP3    H220872   0.912   6.611   4.748 -0.4200  1.2722  0.3825
 6970TIP3   OH220873   7.027   4.844   0.818  0.0576 -0.5515 -0.4364
 6970TIP3    H120874   7.022   4.772   0.756  0.9116 -0.3216 -0.7804
 6970TIP3    H220875   7.115   4.881   0.806  0.3807 -0.7366  1.1533
 6971TIP3   OH220876   0.689   4.875   0.912  0.1223  0.1923  0.1947
 6971TIP3    H120877   0.601   4.853   0.942 -0.2889  2.1491  0.5171
 6971TIP3    H220878   0.706   4.962   0.946  1.4857  0.5914 -1.3524
 6972TIP3   OH220879   3.374   1.718   5.077 -0.3989  0.3099  0.1975
 6972TIP3    H120880   3.350   1.665   5.001  1.1201  0.6436 -0.5408
 6972TIP3    H220881   3.435   1.784   5.043 -2.3613  2.7184  1.0318
 6973TIP3   OH220882   1.739   6.791   1.446 -0.8084 -0.4518 -0.2647
 6973TIP3    H120883   1.769   6.701   1.433 -2.6954 -1.4062  1.3890
 6973TIP3    H220884   1.761   6.811   1.536 -2.3253 -0.1082  0.0662
 6974TIP3   OH220885   7.049   0.651   4.691  0.3618 -0.1809  0.0895
 6974TIP3    H120886   7.129   0.697   4.665 -0.1951  0.3469 -0.7381
 6974TIP3    H220887   6.979   0.715   4.678 -0.3811 -1.1084 -0.6412
 6975TIP3   OH220888   3.959   1.140   1.967  0.0281 -0.0752  0.5120
 6975TIP3    H120889   3.923   1.217   1.924  0.2712  0.1372  0.6900
 6975TIP3    H220890   3.901   1.125   2.042 -1.9500 -1.9412 -1.2430
 6976TIP3   OH220891   4.845   0.972   3.813  0.3208 -0.0206 -0.3798
 6976TIP3    H120892   4.919   0.914   3.830  0.3668 -0.4937 -2.0578
 6976TIP3    H220893   4.767   0.916   3.823  0.0680  0.6547  2.1763
 6977TIP3   OH220894   1.815   4.683   1.061 -0.0018  0.9474 -0.3808
 6977TIP3    H120895   1.886   4.623   1.082 -0.7223  0.5451  1.0092
 6977TIP3    H220896   1.825   4.756   1.123 -0.4832  1.1380 -0.5185
 6978TIP3   OH220897   4.570   1.690   3.664 -0.9450  0.1509  0.0613
 6978TIP3    H120898   4.636   1.624   3.640 -1.8890 -1.0411  0.6466
 6978TIP3    H220899   4.507   1.688   3.592 -0.2397  1.4819 -0.6288
 6979TIP3   OH220900   2.289   1.098   4.825  0.3956  0.3485  0.5909
 6979TIP3    H120901   2.271   1.020   4.773  0.2456 -0.1388  1.3479
 6979TIP3    H220902   2.230   1.165   4.790  2.3064  0.8954 -1.7553
 6980TIP3   OH220903   2.505   3.406   0.052 -0.3018 -0.1913 -0.6400
 6980TIP3    H120904   2.425   3.449   0.022 -0.4733  0.8215  1.1338
 6980TIP3    H220905   2.574   3.446  -0.001 -0.7984  0.1040 -1.0723
 6981TIP3   OH220906   7.093   3.490   5.478 -0.1693  0.4994  0.2899
 6981TIP3    H120907   7.137   3.569   5.443  1.9120 -0.7338 -0.0838
 6981TIP3    H220908   7.103   3.498   5.573 -2.0691  1.7807  0.4396
 6982TIP3   OH220909   4.352   4.475   3.845  0.2676  0.7222 -0.5983
 6982TIP3    H120910   4.385   4.558   3.879 -0.2345  1.3292 -1.5458
 6982TIP3    H220911   4.326   4.494   3.755 -0.3081 -0.3450 -0.6799
 6983TIP3   OH220912   4.549   3.206   5.355  0.3125  0.2859  0.3068
 6983TIP3    H120913   4.547   3.147   5.430  1.4894 -1.2818 -0.8202
 6983TIP3    H220914   4.629   3.183   5.309  0.0160  1.7418 -1.0128
 6984TIP3   OH220915   0.466   5.241   0.339 -0.2784 -0.0304 -0.2654
 6984TIP3    H120916   0.423   5.295   0.273  0.6961  0.4916 -0.5088
 6984TIP3    H220917   0.424   5.265   0.421  0.7904  1.8969 -0.2184
 6985TIP3   OH220918   1.333   0.130   0.739 -0.4600  0.0505  0.6905
 6985TIP3    H120919   1.393   0.202   0.720 -0.5335  0.4204  1.7702
 6985TIP3    H220920   1.361   0.059   0.681 -0.3507  0.9199 -0.3478
 6986TIP3   OH220921   1.207   0.424   1.823  0.2487 -0.6790 -0.1658
 6986TIP3    H120922   1.130   0.441   1.879  0.5697  0.4972 -0.0641
 6986TIP3    H220923   1.170   0.399   1.739 -0.2771  0.8986 -0.4324
 6987TIP3   OH220924   1.320   6.498   3.422  0.4037  0.0988 -0.6713
 6987TIP3    H120925   1.245   6.557   3.423  0.8708  0.7136 -1.2789
 6987TIP3    H220926   1.394   6.553   3.398  1.6935  0.2532  2.9704
 6988TIP3   OH220927   7.088   0.231   1.875 -0.0648 -0.6821 -0.0770
 6988TIP3    H120928   7.004   0.273   1.856  0.1354 -0.4434 -0.4455
 6988TIP3    H220929   7.072   0.181   1.956 -0.4907 -0.4450 -0.0107
 6989TIP3   OH220930   5.144   0.870   2.055 -0.1886  0.1588 -0.3958
 6989TIP3    H120931   5.239   0.867   2.066 -0.1536  2.3877  0.5143
 6989TIP3    H220932   5.127   0.959   2.023 -2.1905  1.0322  2.6436
 6990TIP3   OH220933   6.714   1.756   5.183  0.1565  0.0827 -0.0428
 6990TIP3    H120934   6.745   1.726   5.098 -1.8364 -0.5404 -0.5941
 6990TIP3    H220935   6.788   1.804   5.220  2.1584 -2.2491 -0.7565
 6991TIP3   OH220936   1.989   5.596   0.276 -0.5373 -0.0393  0.1873
 6991TIP3    H120937   1.948   5.526   0.327  0.1435 -0.4224  0.2200
 6991TIP3    H220938   1.989   5.672   0.335  2.5591 -1.1273  1.8077
 6992TIP3   OH220939   6.012   6.276   1.360  0.4677  0.0897 -0.5517
 6992TIP3    H120940   5.932   6.319   1.390 -0.2352  0.9589 -3.4097
 6992TIP3    H220941   5.985   6.225   1.284  2.1950 -1.7493 -0.0247
 6993TIP3   OH220942   5.968   4.977   1.699 -0.1266 -0.4360  0.0461
 6993TIP3    H120943   6.030   4.905   1.691  0.5737  0.2408 -0.8177
 6993TIP3    H220944   5.998   5.026   1.776  0.1813 -0.3337 -0.1383
 6994TIP3   OH220945   1.526   5.440   5.802 -0.1119 -0.2971 -0.1745
 6994TIP3    H120946   1.474   5.510   5.839  0.2827 -0.0068 -0.1650
 6994TIP3    H220947   1.466   5.365   5.796 -0.2618 -0.2512  0.7405
 6995TIP3   OH220948   4.541   3.385   0.283  0.1495 -0.2463  0.0108
 6995TIP3    H120949   4.526   3.405   0.376 -3.4825  0.2945 -0.5670
 6995TIP3    H220950   4.532   3.290   0.277  2.1684 -0.5158  0.3901
 6996TIP3   OH220951   4.728   2.163   0.364 -0.0303 -0.4670  0.1461
 6996TIP3    H120952   4.756   2.126   0.280  0.8732 -0.2462  0.3401
 6996TIP3    H220953   4.727   2.258   0.349  2.4943 -0.2475  1.0457
 6997TIP3   OH220954   3.672   3.780   0.795 -0.0756  0.2367  0.0245
 6997TIP3    H120955   3.765   3.802   0.785 -0.0797  0.9269  1.1930
 6997TIP3    H220956   3.626   3.859   0.767 -0.4105 -0.6036 -1.9607
 6998TIP3   OH220957   6.129   3.690   0.101 -0.0074  0.1002 -0.7339
 6998TIP3    H120958   6.072   3.744   0.046 -1.6724 -0.3285  0.4766
 6998TIP3    H220959   6.162   3.751   0.167 -1.5533 -0.2005  0.3815
 6999TIP3   OH220960   3.069   1.990   4.028 -0.7952 -0.5396  0.0472
 6999TIP3    H120961   3.008   1.974   3.956 -1.0876 -0.3247  0.2464
 6999TIP3    H220962   3.014   2.016   4.101 -0.5982 -1.9275  0.7093
 7000TIP3   OH220963   2.981   6.390   4.610  0.1471 -0.3720  0.0671
 7000TIP3    H120964   2.962   6.317   4.670 -1.2737  0.8314  1.1687
 7000TIP3    H220965   3.044   6.444   4.658 -0.6584  0.3682  0.3109
 7001TIP3   OH220966   0.522   0.785   5.612  0.6597 -0.0252 -0.0943
 7001TIP3    H120967   0.493   0.875   5.628  2.2447  0.5090 -0.1076
 7001TIP3    H220968   0.534   0.780   5.518  0.2570 -0.3683 -0.1322
 7002TIP3   OH220969   4.294   5.632   0.156 -0.1840  0.1727 -0.0272
 7002TIP3    H120970   4.319   5.540   0.168 -1.7826 -0.3308 -0.3422
 7002TIP3    H220971   4.375   5.681   0.170  0.2236 -1.0837  2.7039
 7003TIP3   OH220972   0.070   4.604   5.701 -0.2107  0.7447 -0.3321
 7003TIP3    H120973   0.081   4.671   5.769  1.1946  0.0242  0.1823
 7003TIP3    H220974   0.082   4.521   5.746 -1.8504  0.1146 -0.9876
 7004TIP3   OH220975   4.100   2.577   2.810 -0.1004 -0.0663 -0.4710
 7004TIP3    H120976   4.022   2.609   2.764  0.3471  0.4575 -0.8696
 7004TIP3    H220977   4.154   2.538   2.741 -0.1308 -0.6943 -0.1534
 7005TIP3   OH220978   6.581   4.609   4.069  0.1946 -0.0060  0.2120
 7005TIP3    H120979   6.622   4.597   3.983 -1.0917  0.3917 -0.4929
 7005TIP3    H220980   6.637   4.674   4.112  0.7772 -0.0921 -0.3822
 7006TIP3   OH220981   6.902   2.918   1.593 -0.3033 -0.1792  0.1427
 7006TIP3    H120982   6.819   2.964   1.586  0.6206  1.3419 -1.4921
 7006TIP3    H220983   6.936   2.942   1.679 -1.2009 -0.2190  0.5146
 7007TIP3   OH220984   0.744   2.137   0.649 -0.0540 -0.1881 -0.6149
 7007TIP3    H120985   0.823   2.190   0.658 -0.4740  0.3401  0.0926
 7007TIP3    H220986   0.755   2.067   0.713 -0.1504 -0.1136 -0.5150
 7008TIP3   OH220987   6.650   0.897   1.628  0.2823 -0.1973  0.0313
 7008TIP3    H120988   6.580   0.956   1.600  0.8526  0.1637 -0.6618
 7008TIP3    H220989   6.723   0.955   1.649  0.2175 -0.5335  1.2783
 7009TIP3   OH220990   5.693   4.806   3.530 -0.2271 -0.6400  0.3664
 7009TIP3    H120991   5.599   4.816   3.545 -0.5586 -1.0406 -1.2822
 7009TIP3    H220992   5.730   4.891   3.555 -1.0409 -0.4039  0.8101
 7010TIP3   OH220993   5.058   5.921   2.215  0.4393  0.1087  0.1519
 7010TIP3    H120994   5.030   5.861   2.146 -0.2830  0.2054  0.3479
 7010TIP3    H220995   4.986   5.918   2.279 -0.0043  1.7919 -0.2135
 7011TIP3   OH220996   0.601   6.507   2.531 -0.7534 -0.6636  0.2819
 7011TIP3    H120997   0.515   6.479   2.562 -0.6053 -0.0972  1.2530
 7011TIP3    H220998   0.620   6.586   2.583  0.1884 -0.5797 -0.1817
 7012TIP3   OH220999   3.940   0.446   0.760 -0.1824 -0.4278 -0.2693
 7012TIP3    H121000   4.007   0.408   0.817 -1.1078 -0.5320  0.7859
 7012TIP3    H221001   3.863   0.390   0.773 -1.4343  1.4814  0.9581
 7013TIP3   OH221002   4.434   4.285   4.549 -0.6530 -0.3641 -0.0016
 7013TIP3    H121003   4.341   4.271   4.532 -1.0184  0.7869  0.9006
 7013TIP3    H221004   4.438   4.372   4.591  0.8855 -0.1156 -0.5938
 7014TIP3   OH221005   3.886   3.862   2.893 -0.0558 -0.8144 -0.6023
 7014TIP3    H121006   3.811   3.885   2.838 -0.3318  0.2112  0.1744
 7014TIP3    H221007   3.865   3.775   2.927  0.4939 -1.8419 -2.7135
 7015TIP3   OH221008   1.349   3.181   3.345 -0.0171 -0.0869 -0.5226
 7015TIP3    H121009   1.320   3.260   3.299 -1.0986 -1.0026 -1.4759
 7015TIP3    H221010   1.274   3.121   3.339  1.4844 -1.9627 -1.6694
 7016TIP3   OH221011   1.056   1.129   2.667 -0.5024 -0.3883  0.0990
 7016TIP3    H121012   1.049   1.215   2.626  0.6857  0.7625  2.1734
 7016TIP3    H221013   1.078   1.070   2.594 -1.2551  1.0526 -1.3457
 7017TIP3   OH221014   4.214   3.111   2.995 -0.3357 -0.2209 -0.5358
 7017TIP3    H121015   4.150   3.091   3.063 -1.1553 -0.0230 -1.2352
 7017TIP3    H221016   4.250   3.026   2.969  1.4824 -0.1833  1.5224
 7018TIP3   OH221017   5.795   1.312   0.474  1.0051 -0.5113  0.1537
 7018TIP3    H121018   5.767   1.222   0.487 -0.6324 -0.1820 -0.7623
 7018TIP3    H221019   5.718   1.356   0.437  2.2190  0.9245 -0.7804
 7019TIP3   OH221020   3.809   2.789   3.526 -0.6069  0.2492 -0.1815
 7019TIP3    H121021   3.799   2.718   3.590 -1.1794  2.9570  3.0141
 7019TIP3    H221022   3.724   2.832   3.525  0.3112  2.1526 -0.3553
 7020TIP3   OH221023   3.545   4.223   5.631  0.2886 -0.1215  0.2821
 7020TIP3    H121024   3.495   4.216   5.549 -0.9600  0.2776  0.9803
 7020TIP3    H221025   3.499   4.167   5.693 -0.7501  2.0443  1.5989
 7021TIP3   OH221026   6.047   3.785   1.068 -0.0553  0.4372  0.1386
 7021TIP3    H121027   6.045   3.859   1.007 -1.4607 -0.9218 -1.5828
 7021TIP3    H221028   6.116   3.728   1.033 -2.1977 -1.3036 -1.4919
 7022TIP3   OH221029   0.279   4.964   0.562 -0.9204  0.1725 -0.3076
 7022TIP3    H121030   0.268   5.055   0.588 -1.1960 -0.3075  1.4026
 7022TIP3    H221031   0.361   4.937   0.603 -1.4142 -0.6507  0.1698
 7023TIP3   OH221032   6.714   1.424   4.241  0.6368 -0.8114  0.1426
 7023TIP3    H121033   6.637   1.480   4.250  0.3558 -0.9112 -1.3574
 7023TIP3    H221034   6.697   1.349   4.297 -1.8824 -2.3970 -2.4798
 7024TIP3   OH221035   4.590   5.689   2.233  0.1010  0.0081  0.4047
 7024TIP3    H121036   4.592   5.619   2.298  0.1654  0.3491  0.7683
 7024TIP3    H221037   4.628   5.649   2.154 -1.3517 -0.8650  0.1171
 7025TIP3   OH221038   4.479   0.212   0.974 -0.0104  0.4576 -0.3788
 7025TIP3    H121039   4.470   0.263   0.894 -1.5030 -2.5309 -2.2655
 7025TIP3    H221040   4.574   0.199   0.984  0.2171  1.2089 -1.3934
 7026TIP3   OH221041   0.025   2.532   0.461  0.5520  0.1873 -0.1302
 7026TIP3    H121042   0.010   2.609   0.407 -1.3187  1.2151  1.6988
 7026TIP3    H221043  -0.020   2.551   0.543 -0.9254 -3.2618  0.0547
 7027TIP3   OH221044   1.220   0.954   5.198 -0.8364 -0.0450 -0.0636
 7027TIP3    H121045   1.198   0.872   5.242 -2.2415 -0.5243 -1.5460
 7027TIP3    H221046   1.305   0.980   5.234 -0.5040 -1.9986  0.6346
 7028TIP3   OH221047   3.424   2.908   1.484  0.1080 -0.4168  0.0541
 7028TIP3    H121048   3.465   2.845   1.543 -0.2707  0.5442  1.4067
 7028TIP3    H221049   3.461   2.993   1.511 -1.7377  0.3176  0.4579
 7029TIP3   OH221050   3.925   0.069   0.154 -0.4227 -0.3110 -0.6867
 7029TIP3    H121051   3.862   0.016   0.203  0.3147  0.1623  0.8518
 7029TIP3    H221052   4.010   0.044   0.191  0.1657  0.0921 -1.7339
 7030TIP3   OH221053   2.768   3.814   2.877 -0.7708  0.5666 -0.3039
 7030TIP3    H121054   2.746   3.811   2.784  1.6417 -0.4799 -0.9264
 7030TIP3    H221055   2.842   3.753   2.886 -1.5228 -0.0793  2.4821
 7031TIP3   OH221056   7.096   1.699   3.661  0.3684 -0.1639  0.3851
 7031TIP3    H121057   7.104   1.606   3.640 -1.1702  0.0235 -1.2621
 7031TIP3    H221058   7.186   1.732   3.655  0.8539 -1.4111  0.3668
 7032TIP3   OH221059   3.930   5.133   4.715  0.3906  0.4391  0.0577
 7032TIP3    H121060   3.905   5.160   4.626  2.5605  0.0720 -0.7188
 7032TIP3    H221061   3.874   5.186   4.772 -1.3304  0.4047 -1.5010
 7033TIP3   OH221062   6.563   0.211   3.497  0.0372  0.3039 -0.3551
 7033TIP3    H121063   6.640   0.157   3.517  0.9839  1.1501 -1.6054
 7033TIP3    H221064   6.593   0.274   3.432 -2.0970 -0.3161 -2.0919
 7034TIP3   OH221065   2.699   1.285   2.077 -0.2205 -0.3692  0.4850
 7034TIP3    H121066   2.685   1.195   2.104  2.2895 -1.4908 -1.5360
 7034TIP3    H221067   2.789   1.287   2.045 -0.2523  2.8228  0.2521
 7035TIP3   OH221068   2.936   1.265   0.386  0.0292  0.6661  0.0631
 7035TIP3    H121069   3.024   1.274   0.424 -0.2811  3.8187  0.3183
 7035TIP3    H221070   2.952   1.266   0.291  0.3314 -0.3925  0.0852
 7036TIP3   OH221071   3.185   2.525   3.881  0.0452 -0.2289  0.0492
 7036TIP3    H121072   3.175   2.467   3.806  1.8901  0.0410 -0.4600
 7036TIP3    H221073   3.132   2.601   3.860 -1.2408 -1.0817  0.0711
 7037TIP3   OH221074   0.402   0.628   3.114  0.3253 -1.0977  0.3637
 7037TIP3    H121075   0.421   0.714   3.152 -1.9804  0.2608 -1.2698
 7037TIP3    H221076   0.488   0.587   3.103  1.5434  1.1388  0.8580
 7038TIP3   OH221077   0.667   4.163   1.265 -0.0881 -0.4480 -0.1540
 7038TIP3    H121078   0.725   4.131   1.334 -1.8224 -1.4447  0.9004
 7038TIP3    H221079   0.694   4.254   1.252  1.5846 -0.8229  0.3961
 7039TIP3   OH221080   0.056   2.007   1.857  0.2403 -0.1530 -0.4941
 7039TIP3    H121081  -0.025   2.015   1.806  0.2462 -0.3016 -0.5273
 7039TIP3    H221082   0.089   2.097   1.864 -0.5725  0.0866  0.5643
 7040TIP3   OH221083   5.315   3.094   3.658 -0.2306 -0.5828  0.1724
 7040TIP3    H121084   5.352   3.057   3.738  0.8897 -0.1018 -0.0904
 7040TIP3    H221085   5.370   3.058   3.588 -0.4339 -0.0629 -0.2615
 7041TIP3   OH221086   2.221   3.290   0.467 -0.0319  0.1229 -0.0300
 7041TIP3    H121087   2.244   3.313   0.377 -0.5038  1.2863  0.1298
 7041TIP3    H221088   2.136   3.331   0.482  1.0025  1.8628  1.6403
 7042TIP3   OH221089   3.982   6.070   5.059 -0.6308 -0.8923  0.5809
 7042TIP3    H121090   4.009   5.980   5.073 -1.9566 -1.4091  0.0593
 7042TIP3    H221091   3.948   6.099   5.143  0.2988 -0.6886  0.8893
 7043TIP3   OH221092   4.003   3.749   2.150 -0.3424  0.1956  0.7554
 7043TIP3    H121093   4.014   3.783   2.239 -3.0415 -1.1196  1.7085
 7043TIP3    H221094   3.981   3.825   2.098  0.5357  0.8818  1.3508
 7044TIP3   OH221095   6.957   0.906   1.120 -0.5443 -0.2254 -0.4186
 7044TIP3    H121096   6.881   0.864   1.080 -1.3602  2.4418 -1.9607
 7044TIP3    H221097   6.920   0.969   1.181  0.3379  1.4000 -1.4911
 7045TIP3   OH221098   1.813   4.516   3.507 -0.2720  0.3597 -0.1755
 7045TIP3    H121099   1.772   4.433   3.481  0.3840 -0.1226  0.2818
 7045TIP3    H221100   1.895   4.518   3.457 -0.0740  0.5100  0.1560
 7046TIP3   OH221101   5.688   2.082   3.167  0.7270 -0.2572 -0.0693
 7046TIP3    H121102   5.719   2.022   3.100  2.7458 -0.2197  0.7580
 7046TIP3    H221103   5.704   2.037   3.250  1.7562  1.1401  0.5401
 7047TIP3   OH221104   0.079   0.994   5.222  0.7390  0.1338  0.0790
 7047TIP3    H121105   0.040   0.939   5.290  1.0449 -1.2115 -0.8096
 7047TIP3    H221106   0.154   1.035   5.265  1.9043 -1.9656  0.1592
 7048TIP3   OH221107   6.673   0.800   2.695  0.7271  0.1164  0.0237
 7048TIP3    H121108   6.764   0.770   2.703  1.2719  1.4061 -0.9110
 7048TIP3    H221109   6.668   0.875   2.754  0.5670  0.6449 -0.6482
 7049TIP3   OH221110   7.113   2.184   2.161 -0.2167 -0.4896  0.1434
 7049TIP3    H121111   7.143   2.155   2.075 -0.0697  0.9516 -0.3174
 7049TIP3    H221112   7.097   2.103   2.209  1.0622 -1.3151 -0.7574
 7050TIP3   OH221113   2.354   1.178   3.487  0.0124 -0.1661 -0.5395
 7050TIP3    H121114   2.341   1.214   3.399 -0.3337 -1.8033 -1.2001
 7050TIP3    H221115   2.422   1.111   3.476 -0.4082 -0.7539  0.3189
 7051TIP3   OH221116   5.820   0.287   2.490 -0.6829  0.2775 -0.8988
 7051TIP3    H121117   5.793   0.223   2.556  1.1903 -0.9481 -1.2689
 7051TIP3    H221118   5.765   0.268   2.414 -1.0936  0.0369 -0.5441
 7052TIP3   OH221119   1.504   4.121   2.758 -0.0394 -0.2024 -0.5505
 7052TIP3    H121120   1.511   4.199   2.813 -1.4192  0.0903 -0.7525
 7052TIP3    H221121   1.488   4.049   2.819  0.2509 -0.1768 -0.4413
 7053TIP3   OH221122   1.345   5.377   2.889 -0.2126  0.6551  0.0238
 7053TIP3    H121123   1.351   5.355   2.796 -3.2794  0.4962 -0.2484
 7053TIP3    H221124   1.356   5.472   2.892 -2.4773  1.0055 -0.8945
 7054TIP3   OH221125   1.133   5.035   0.056 -0.3199  0.0528 -0.3600
 7054TIP3    H121126   1.065   5.019   0.121 -0.8973 -2.3668 -1.4608
 7054TIP3    H221127   1.215   5.018   0.102 -0.5937  0.3895  0.2647
 7055TIP3   OH221128   0.231   0.498   1.556  0.2752 -0.2106  0.0953
 7055TIP3    H121129   0.257   0.582   1.517 -1.6136  0.5707  0.3599
 7055TIP3    H221130   0.213   0.442   1.481 -1.3948  0.6406 -0.1952
 7056TIP3   OH221131   4.252   1.826   5.168  0.1400  0.4696 -0.1746
 7056TIP3    H121132   4.337   1.793   5.198 -0.2621 -0.0861  0.3782
 7056TIP3    H221133   4.190   1.797   5.235 -0.5047  0.7555 -0.6397
 7057TIP3   OH221134   5.182   6.282   0.999 -0.5416  0.0866  0.2496
 7057TIP3    H121135   5.254   6.245   0.949 -1.0713  0.4194 -0.7959
 7057TIP3    H221136   5.111   6.292   0.936 -1.7591 -0.8718  1.3918
 7058TIP3   OH221137   4.412   4.297   5.654  0.6859 -0.4689 -0.1476
 7058TIP3    H121138   4.328   4.263   5.683  1.5149 -2.6213 -0.1041
 7058TIP3    H221139   4.477   4.245   5.701  2.0475  0.2790 -1.1150
 7059TIP3   OH221140   4.152   6.002   0.569  0.1866  0.2525  0.5621
 7059TIP3    H121141   4.232   6.044   0.538 -0.0841  1.5501  1.5320
 7059TIP3    H221142   4.154   6.014   0.664 -0.3724 -1.1456  0.7805
 7060TIP3   OH221143   3.392   0.093   1.092 -0.7321 -0.0412  0.2518
 7060TIP3    H121144   3.329   0.110   1.022 -1.8549 -3.5107  0.1981
 7060TIP3    H221145   3.386   0.169   1.149 -3.8277  0.5016 -0.6080
 7061TIP3   OH221146   0.109   6.609   2.936  0.1662 -0.2911  0.1624
 7061TIP3    H121147   0.026   6.654   2.919  0.0955 -0.4400  0.1060
 7061TIP3    H221148   0.175   6.664   2.896  0.0908 -0.1852  0.1828
 7062TIP3   OH221149   6.805   3.218   4.076  0.1072 -0.5021  0.3332
 7062TIP3    H121150   6.743   3.285   4.048  1.7209  0.7641 -0.4225
 7062TIP3    H221151   6.849   3.191   3.995  1.6069 -0.2148  1.0132
 7063TIP3   OH221152   0.378   4.729   1.519 -0.1307  0.2690  0.3865
 7063TIP3    H121153   0.376   4.643   1.561 -1.5308 -0.3346 -0.8327
 7063TIP3    H221154   0.324   4.785   1.575 -1.1048 -0.2558 -0.0007
 7064TIP3   OH221155   6.455   6.243   4.209 -0.4127  0.3926  0.1401
 7064TIP3    H121156   6.509   6.247   4.130  0.5126  2.4069  0.8054
 7064TIP3    H221157   6.408   6.326   4.210 -2.0859 -0.5213  0.6106
 7065TIP3   OH221158   5.954   1.386   2.930 -0.0158  0.0894  0.2080
 7065TIP3    H121159   6.041   1.399   2.891 -0.6664 -0.1581 -1.3800
 7065TIP3    H221160   5.972   1.342   3.013  1.4105  0.4692  0.1331
 7066TIP3   OH221161   2.836   2.536   5.161 -0.2454 -0.3337  0.3333
 7066TIP3    H121162   2.838   2.476   5.086 -3.3867  1.1421 -1.1643
 7066TIP3    H221163   2.781   2.492   5.225 -0.5087 -0.1205  0.2575
 7067TIP3   OH221164   5.842   4.352   1.947  0.3635  0.2639 -0.6487
 7067TIP3    H121165   5.816   4.300   1.872  2.9989  0.2243 -1.6244
 7067TIP3    H221166   5.857   4.288   2.017  1.9103 -0.1458 -1.3318
 7068TIP3   OH221167   2.002   5.554   0.607  0.4826  0.1877 -0.3400
 7068TIP3    H121168   2.064   5.519   0.543  0.7583  1.5823 -0.8776
 7068TIP3    H221169   1.916   5.539   0.569  0.6402  0.8941 -1.0088
 7069TIP3   OH221170   5.603   5.284   3.460 -0.5954 -0.3034  0.4998
 7069TIP3    H121171   5.593   5.340   3.384 -2.3008 -1.4797 -0.2212
 7069TIP3    H221172   5.678   5.229   3.440 -0.2451  0.2580  0.2498
 7070TIP3   OH221173   3.013   4.443   0.631 -0.4266  0.1514  0.4864
 7070TIP3    H121174   3.104   4.432   0.660  0.1185  0.0346 -1.1938
 7070TIP3    H221175   2.962   4.401   0.700  0.8460 -0.5294  1.0610
 7071TIP3   OH221176   0.030   4.873   1.544 -0.5508 -0.7089 -0.0247
 7071TIP3    H121177   0.046   4.917   1.461 -0.3039 -1.9200 -0.6449
 7071TIP3    H221178  -0.016   4.938   1.597  1.1390  0.8141 -0.3335
 7072TIP3   OH221179   6.970   5.092   5.642 -0.1292  0.5977  0.0034
 7072TIP3    H121180   6.984   5.016   5.585  2.7408  1.2131 -0.2773
 7072TIP3    H221181   6.973   5.056   5.731 -3.5505 -0.2021 -0.0533
 7073TIP3   OH221182   4.563   4.860   4.636 -0.2337  0.0852  0.4183
 7073TIP3    H121183   4.657   4.859   4.654 -0.1268 -0.0277 -0.1328
 7073TIP3    H221184   4.547   4.945   4.594 -0.6719  0.8180  1.9984
 7074TIP3   OH221185   6.821   2.461   4.978  0.2573  0.1235 -0.5004
 7074TIP3    H121186   6.886   2.478   5.046 -0.6075  0.0803  0.3491
 7074TIP3    H221187   6.782   2.547   4.960 -0.5550 -0.1094  0.1317
 7075TIP3   OH221188   5.437   1.510   1.042 -0.4472 -0.1455 -0.4351
 7075TIP3    H121189   5.374   1.463   1.098 -0.3912 -1.2005 -1.2166
 7075TIP3    H221190   5.511   1.449   1.033 -0.2114  0.2336 -1.1798
 7076TIP3   OH221191   1.306   3.193   0.314 -0.0113 -0.1186 -0.3023
 7076TIP3    H121192   1.231   3.153   0.271  0.4508 -0.3730 -0.8750
 7076TIP3    H221193   1.364   3.120   0.335 -0.0541  0.0407  0.4226
 7077TIP3   OH221194   0.859   1.288   3.324  0.1523 -0.1966 -0.1000
 7077TIP3    H121195   0.929   1.228   3.350  1.4670  1.2818 -0.0572
 7077TIP3    H221196   0.841   1.339   3.402  0.6326  0.9395 -0.7057
 7078TIP3   OH221197   1.607   2.977   5.220  0.3272 -0.1907  0.5485
 7078TIP3    H121198   1.632   2.999   5.310 -0.1047 -1.7779  1.0921
 7078TIP3    H221199   1.664   2.903   5.197  0.4551  0.2192 -0.5011
 7079TIP3   OH221200   4.524   5.390   5.599 -0.3195 -0.2493  0.0460
 7079TIP3    H121201   4.584   5.334   5.549 -0.7146 -0.8189  0.2052
 7079TIP3    H221202   4.543   5.370   5.690 -2.1609 -1.9911  0.1048
 7080TIP3   OH221203   2.671   3.608   1.814  0.1141 -0.2327 -0.0379
 7080TIP3    H121204   2.705   3.581   1.900  1.5473 -0.3777 -0.6287
 7080TIP3    H221205   2.582   3.572   1.811  0.3173 -0.8653  1.0788
 7081TIP3   OH221206   2.465   6.426   0.522 -0.3625  0.0340  0.5542
 7081TIP3    H121207   2.534   6.371   0.559  0.0252  0.4572  0.4681
 7081TIP3    H221208   2.485   6.430   0.429 -0.2865  0.4700  0.5898
 7082TIP3   OH221209   4.085   5.424   4.186  0.6003 -0.4228 -0.5004
 7082TIP3    H121210   4.151   5.472   4.135 -1.4085  1.5219 -1.4404
 7082TIP3    H221211   4.133   5.349   4.221  3.7406  1.7305  0.3071
 7083TIP3   OH221212   6.031   4.420   0.775  0.1051  0.3025  0.1721
 7083TIP3    H121213   6.035   4.445   0.867  0.0957  2.0039 -0.2705
 7083TIP3    H221214   5.940   4.435   0.749 -0.6153 -2.7129  0.5132
 7084TIP3   OH221215   3.759   2.889   2.658 -0.5209  0.4120  0.4826
 7084TIP3    H121216   3.836   2.909   2.712 -0.0633 -0.1760  0.0624
 7084TIP3    H221217   3.793   2.884   2.569 -1.0452  0.1540  0.2916
 7085TIP3   OH221218   0.336   6.403   2.901 -0.2183  0.0632 -0.3879
 7085TIP3    H121219   0.261   6.431   2.952  1.0800  0.3218  1.4846
 7085TIP3    H221220   0.346   6.310   2.921  0.4418  0.2199  0.0526
 7086TIP3   OH221221   5.102   2.264   1.065  0.1567  0.0266 -0.3841
 7086TIP3    H121222   5.194   2.291   1.061 -0.2533  1.7396  0.7435
 7086TIP3    H221223   5.103   2.182   1.115  0.9779  0.6159  0.5995
 7087TIP3   OH221224   4.650   3.530   3.362  0.2888 -0.4706  0.5377
 7087TIP3    H121225   4.684   3.466   3.425  1.2399 -0.7203 -0.2075
 7087TIP3    H221226   4.557   3.538   3.384  0.8815  0.6020  2.9545
 7088TIP3   OH221227   6.298   3.664   1.001 -0.0767  0.7793 -0.4847
 7088TIP3    H121228   6.354   3.740   1.017  3.0647 -1.1852 -1.2529
 7088TIP3    H221229   6.307   3.611   1.080  0.0144 -0.0515 -1.0403
 7089TIP3   OH221230   6.076   2.045   1.148  0.3793 -0.1642  0.3598
 7089TIP3    H121231   6.033   2.005   1.223 -0.4925 -2.1408 -1.0851
 7089TIP3    H221232   6.170   2.042   1.169  0.0792  0.4211  1.8430
 7090TIP3   OH221233   5.892   2.774   3.036  0.1687 -0.0933  0.2510
 7090TIP3    H121234   5.801   2.745   3.033 -0.4539  1.7582 -0.0858
 7090TIP3    H221235   5.921   2.772   2.944  0.1253  0.2826  0.2256
 7091TIP3   OH221236   3.867   5.012   1.094  0.1712  0.0309  0.3739
 7091TIP3    H121237   3.790   5.066   1.079  0.3192 -0.2647 -1.6980
 7091TIP3    H221238   3.833   4.929   1.126 -0.3936 -0.1330 -0.6314
 7092TIP3   OH221239   1.169   1.981   2.150 -0.0210  0.8491  0.1622
 7092TIP3    H121240   1.212   2.065   2.132 -0.6973  1.0245 -0.6923
 7092TIP3    H221241   1.184   1.966   2.243 -1.2985  2.7560  0.7334
 7093TIP3   OH221242   2.502   0.708   3.318  0.3677 -0.0487 -0.4857
 7093TIP3    H121243   2.496   0.657   3.399 -0.3540 -0.1548 -0.6039
 7093TIP3    H221244   2.546   0.650   3.256 -0.0537 -0.3640 -0.4892
 7094TIP3   OH221245   4.708   1.236   3.886  0.0447  0.0945 -0.5217
 7094TIP3    H121246   4.765   1.215   3.812  0.0215 -1.9094 -0.0475
 7094TIP3    H221247   4.650   1.160   3.893 -1.2144  1.1092  0.3750
 7095TIP3   OH221248   7.019   4.621   3.098 -0.1516  0.6690 -0.2051
 7095TIP3    H121249   7.083   4.693   3.093  0.1483  0.3540 -1.2868
 7095TIP3    H221250   7.072   4.543   3.113 -0.0842  0.1994 -2.5262
 7096TIP3   OH221251   5.101   2.629   4.656  0.1065 -0.6536  0.1568
 7096TIP3    H121252   5.192   2.657   4.650 -0.3513  0.8201 -0.2244
 7096TIP3    H221253   5.064   2.651   4.570 -0.6613 -1.0726  0.3718
 7097TIP3   OH221254   3.152   1.122   2.143  0.6204  0.2883  0.3704
 7097TIP3    H121255   3.245   1.140   2.155  1.6798 -2.5591 -2.0686
 7097TIP3    H221256   3.122   1.093   2.229  2.0282  1.0376  1.1499
 7098TIP3   OH221257   3.557   4.868   0.127 -0.1614  0.2793 -0.5083
 7098TIP3    H121258   3.626   4.801   0.122  0.4856  0.9253 -0.3114
 7098TIP3    H221259   3.604   4.951   0.130 -0.9633  0.7688 -1.0017
 7099TIP3   OH221260   5.698   1.157   2.152 -0.6594 -0.0444  0.3467
 7099TIP3    H121261   5.650   1.087   2.195 -2.3228 -0.3294 -1.8216
 7099TIP3    H221262   5.787   1.124   2.145 -0.7085 -0.6440  1.9991
 7100TIP3   OH221263   2.256   0.835   3.236  0.0529 -0.1046  1.0690
 7100TIP3    H121264   2.344   0.836   3.272  1.0192  3.0684 -0.9803
 7100TIP3    H221265   2.250   0.751   3.189  1.8599 -0.5087  1.5112
 7101TIP3   OH221266   4.357   3.768   0.614  0.1806 -0.0206 -0.5071
 7101TIP3    H121267   4.306   3.848   0.599  0.2709  0.0149 -0.6177
 7101TIP3    H221268   4.359   3.760   0.709 -0.2692 -0.1701 -0.5050
 7102TIP3   OH221269   2.387   2.398   3.099  0.3102  0.7575 -0.3812
 7102TIP3    H121270   2.365   2.482   3.058  0.1361  1.9051  1.8956
 7102TIP3    H221271   2.482   2.403   3.114 -0.0293  1.6266  1.8488
 7103TIP3   OH221272   6.040   5.606   3.933 -0.1596  0.0968 -0.0105
 7103TIP3    H121273   6.109   5.644   3.879  0.7740 -0.1537  0.9695
 7103TIP3    H221274   6.022   5.673   3.999 -1.5978  0.5805 -0.8468
 7104TIP3   OH221275   6.615   1.891   1.583 -0.3858 -0.0200 -0.2078
 7104TIP3    H121276   6.639   1.980   1.608  0.5266 -0.8432  2.0385
 7104TIP3    H221277   6.675   1.870   1.511 -0.7285  1.2101 -0.8760
 7105TIP3   OH221278   6.851   3.706   3.300 -0.0430  0.0756  0.2437
 7105TIP3    H121279   6.773   3.757   3.279  0.1275 -0.2738 -1.3224
 7105TIP3    H221280   6.924   3.765   3.280  0.1287  0.3535  1.5727
 7106TIP3   OH221281   2.491   3.414   0.635 -0.3200  0.4236  0.1824
 7106TIP3    H121282   2.435   3.354   0.685  2.0090 -0.9230  1.3700
 7106TIP3    H221283   2.504   3.489   0.693  0.2046  0.0866  0.5136
 7107TIP3   OH221284   3.123   5.687   0.452 -0.3511 -0.5770 -0.0841
 7107TIP3    H121285   3.072   5.608   0.474 -1.1795  0.0215  0.2259
 7107TIP3    H221286   3.059   5.758   0.458  0.4296  0.1420 -0.1756
 7108TIP3   OH221287   7.111   1.138   2.044 -0.2342  0.4679 -0.0745
 7108TIP3    H121288   7.152   1.179   2.120 -0.4903  0.7132 -0.0657
 7108TIP3    H221289   7.135   1.046   2.050 -2.3125 -0.0386  1.7086
 7109TIP3   OH221290   0.157   6.734   1.439  0.0837 -0.0812 -0.1112
 7109TIP3    H121291   0.253   6.736   1.429  0.0293  0.2133 -0.6440
 7109TIP3    H221292   0.143   6.733   1.533  0.6083  0.5104 -0.0187
 7110TIP3   OH221293   1.648   3.415   3.922  0.0101  0.0850  0.4257
 7110TIP3    H121294   1.560   3.420   3.960  0.3303 -0.9926  1.3675
 7110TIP3    H221295   1.698   3.484   3.968  0.0250 -0.2678  0.9471
 7111TIP3   OH221296   1.971   6.017   1.878 -0.2581 -0.1397 -0.7945
 7111TIP3    H121297   2.055   6.063   1.872  1.4721 -2.9116  0.2719
 7111TIP3    H221298   1.957   6.005   1.972 -1.4578 -0.3909 -0.9866
 7112TIP3   OH221299   2.182   3.850   1.921 -0.1730  0.1996 -0.1351
 7112TIP3    H121300   2.237   3.923   1.893  1.1052 -0.6916 -0.0272
 7112TIP3    H221301   2.180   3.792   1.845 -0.7448  0.0857 -0.0362
 7113TIP3   OH221302   0.185   0.079   1.106  0.0597  0.2028  0.3317
 7113TIP3    H121303   0.275   0.049   1.095  0.0276 -0.3519  1.4238
 7113TIP3    H221304   0.176   0.092   1.201 -1.1232 -0.1398  0.2814
 7114TIP3   OH221305   3.676   0.950   4.677 -0.1649  0.3171  0.2184
 7114TIP3    H121306   3.766   0.969   4.653 -0.1362  0.1804  0.2224
 7114TIP3    H221307   3.681   0.879   4.741 -0.3055 -0.0258 -0.1481
 7115TIP3   OH221308   1.492   1.502   0.582 -0.1406  0.4635 -0.5050
 7115TIP3    H121309   1.582   1.515   0.613  0.4090  0.1014 -1.8736
 7115TIP3    H221310   1.471   1.585   0.538  0.0010  0.0872 -1.2914
 7116TIP3   OH221311   5.481   2.601   1.431 -0.3179  0.6643  0.4705
 7116TIP3    H121312   5.428   2.521   1.426  0.8913 -0.0876 -1.5149
 7116TIP3    H221313   5.555   2.577   1.486  0.3739  0.1704 -0.6418
 7117TIP3   OH221314   2.928   2.929   1.223  0.0937  0.4184  0.3588
 7117TIP3    H121315   2.901   3.018   1.199  1.0456  0.3776 -0.9648
 7117TIP3    H221316   2.941   2.933   1.318 -0.4666  1.5176  0.4129
 7118TIP3   OH221317   4.602   4.170   0.770 -0.6098 -0.4955 -0.2546
 7118TIP3    H121318   4.543   4.137   0.838 -0.8172  1.2129  0.4479
 7118TIP3    H221319   4.549   4.173   0.691 -1.2752  0.3509  0.2123
 7119TIP3   OH221320   6.205   5.071   3.568 -0.3228  0.1977  0.0387
 7119TIP3    H121321   6.198   5.132   3.495 -0.8645  1.1100  0.8378
 7119TIP3    H221322   6.120   5.076   3.612 -0.4557 -1.2853  0.0087
 7120TIP3   OH221323   4.725   2.511   1.850  0.2026 -0.2008 -0.0414
 7120TIP3    H121324   4.741   2.582   1.788 -0.1617  0.0492  0.1433
 7120TIP3    H221325   4.667   2.550   1.915  0.7236 -0.4151  0.5522
 7121TIP3   OH221326   1.534   4.925   1.266 -0.0701  0.6690  0.0656
 7121TIP3    H121327   1.488   4.964   1.340  1.2003  0.2172  1.1349
 7121TIP3    H221328   1.533   4.993   1.198 -1.1465  1.1340  0.5234
 7122TIP3   OH221329   6.615   5.455   1.547  0.2622 -0.6657  0.8180
 7122TIP3    H121330   6.652   5.519   1.607 -3.2491  1.5147  0.9456
 7122TIP3    H221331   6.579   5.387   1.604  0.3356 -0.6018  0.9409
 7123TIP3   OH221332   1.825   0.529   4.974 -0.0085  0.2366  0.1006
 7123TIP3    H121333   1.754   0.531   4.910  0.3528  0.5283 -0.3020
 7123TIP3    H221334   1.891   0.471   4.934  1.8852  3.3088 -1.6324
 7124TIP3   OH221335   4.186   0.931   0.371  0.0507 -0.2126  0.3024
 7124TIP3    H121336   4.211   1.015   0.411 -2.3090  1.8774 -2.1750
 7124TIP3    H221337   4.093   0.922   0.392 -0.1473 -1.3012 -0.9455
 7125TIP3   OH221338   3.279   4.199   4.449 -0.2037 -0.2260  0.4950
 7125TIP3    H121339   3.267   4.138   4.522  0.1583 -0.3394  0.4645
 7125TIP3    H221340   3.225   4.275   4.471 -0.6306 -0.5434  0.5503
 7126TIP3   OH221341   6.998   5.736   0.989 -0.0346  0.4135  0.3166
 7126TIP3    H121342   7.073   5.789   0.960  0.6917  0.5886  2.3720
 7126TIP3    H221343   7.037   5.667   1.042 -1.2461 -0.3019  0.2993
 7127TIP3   OH221344   2.528   5.335   2.931 -0.3318  0.0978  0.8727
 7127TIP3    H121345   2.487   5.420   2.918  0.4068  0.4218  0.5801
 7127TIP3    H221346   2.563   5.312   2.845 -0.9024 -0.7141  0.8408
 7128TIP3   OH221347   4.766   3.361   0.603 -0.1342  0.2049  0.1479
 7128TIP3    H121348   4.794   3.392   0.516 -2.3680  2.3901  0.0796
 7128TIP3    H221349   4.715   3.282   0.585  0.3544  0.0125 -0.4147
 7129TIP3   OH221350   1.214   2.715   0.578 -0.3295 -0.2299  0.0893
 7129TIP3    H121351   1.272   2.727   0.503  1.3701 -0.1104  1.3715
 7129TIP3    H221352   1.254   2.766   0.648 -2.7188  0.9295  0.7017
 7130TIP3   OH221353   4.017   5.819   0.237  0.5104  0.5072 -0.3023
 7130TIP3    H121354   3.966   5.874   0.297 -1.2191 -0.3194 -0.9577
 7130TIP3    H221355   4.068   5.762   0.294  1.0387  1.6081  0.3692
 7131TIP3   OH221356   6.799   1.998   5.475 -0.0072 -0.5879  0.6140
 7131TIP3    H121357   6.740   2.039   5.413 -1.0819  1.0707  2.5988
 7131TIP3    H221358   6.772   1.906   5.477 -0.2484 -0.5728 -0.9700
 7132TIP3   OH221359   0.089   6.341   3.033 -0.3049 -0.0209 -0.6770
 7132TIP3    H121360   0.042   6.295   2.963  0.0272  1.7582 -2.1638
 7132TIP3    H221361   0.087   6.433   3.006 -0.3897  0.7849  1.8275
 7133TIP3   OH221362   6.053   5.361   4.890  0.3198  0.0796  0.2233
 7133TIP3    H121363   6.019   5.300   4.956 -1.3534  1.0539  0.3096
 7133TIP3    H221364   6.031   5.447   4.924 -2.8428  0.6158 -2.6461
 7134TIP3   OH221365   6.801   3.956   5.126  0.2253  0.1019 -0.3471
 7134TIP3    H121366   6.828   3.865   5.140 -0.6457  0.0500  1.1008
 7134TIP3    H221367   6.710   3.951   5.098  0.0609  0.5438  0.0877
 7135TIP3   OH221368   1.943   5.146   3.149  0.2020 -0.0377  0.2780
 7135TIP3    H121369   1.859   5.103   3.133 -0.7081  1.7716 -0.1736
 7135TIP3    H221370   2.002   5.076   3.175 -1.1225 -1.5541 -0.6213
 7136TIP3   OH221371   0.604   5.164   2.072 -0.7688  0.1940  0.3084
 7136TIP3    H121372   0.662   5.162   1.996 -0.0661  0.6101  0.8205
 7136TIP3    H221373   0.516   5.151   2.036 -0.3823 -0.1837 -0.5048
 7137TIP3   OH221374   5.920   2.138   0.926  0.2592 -0.2120  0.1028
 7137TIP3    H121375   5.982   2.121   0.997  1.4618 -1.0396 -1.0851
 7137TIP3    H221376   5.956   2.090   0.852 -1.7458 -0.5876 -0.6824
 7138TIP3   OH221377   3.614   4.665   2.949 -0.6633 -0.2195  0.0190
 7138TIP3    H121378   3.528   4.629   2.970 -0.3548 -0.4458  0.9617
 7138TIP3    H221379   3.607   4.695   2.859 -2.3577  1.6140  0.6856
 7139TIP3   OH221380   5.251   5.650   2.876  0.4251  0.1094 -0.0105
 7139TIP3    H121381   5.274   5.739   2.904 -0.1150  0.4115 -0.5227
 7139TIP3    H221382   5.159   5.641   2.898  0.2451  0.0035 -0.8003
 7140TIP3   OH221383   0.401   4.490   5.349 -0.2061  0.0055 -0.5383
 7140TIP3    H121384   0.460   4.451   5.285 -1.2566 -1.5260 -0.6338
 7140TIP3    H221385   0.421   4.446   5.431  0.0436  0.8270 -0.1421
 7141TIP3   OH221386   1.471   6.517   3.808 -0.1653 -0.1667 -0.0105
 7141TIP3    H121387   1.404   6.476   3.862  1.8682 -1.7366  1.4930
 7141TIP3    H221388   1.435   6.603   3.786 -2.1750 -0.4958  1.6632
 7142TIP3   OH221389   0.179   2.256   1.808  0.5990 -0.2727  0.7352
 7142TIP3    H121390   0.225   2.284   1.887  1.2769 -0.6053  0.4642
 7142TIP3    H221391   0.133   2.334   1.778  2.0824  0.4587  0.2581
 7143TIP3   OH221392   2.763   5.748   0.405  0.1369 -0.3622 -0.0693
 7143TIP3    H121393   2.760   5.653   0.396  0.0014 -0.2899 -0.7808
 7143TIP3    H221394   2.815   5.778   0.331  0.5760  0.0871  0.4067
 7144TIP3   OH221395   5.369   3.647   1.202  0.8198 -0.2647 -0.0361
 7144TIP3    H121396   5.457   3.621   1.227  0.7430 -1.2825 -0.7766
 7144TIP3    H221397   5.356   3.732   1.245  1.9366 -0.3699  0.5419
 7145TIP3   OH221398   6.679   2.074   1.990  0.1962  0.2974 -0.3227
 7145TIP3    H121399   6.739   2.109   2.055  1.5162 -0.9393 -0.8373
 7145TIP3    H221400   6.600   2.051   2.040  2.0766 -3.0470  1.4244
 7146TIP3   OH221401   1.189   5.078   3.881 -0.2873  0.1919 -0.8337
 7146TIP3    H121402   1.233   5.025   3.948 -2.1418  0.1922  0.4712
 7146TIP3    H221403   1.107   5.032   3.864 -0.2656  0.7090 -2.4426
 7147TIP3   OH221404   2.986   5.484   0.608 -0.2021 -0.2051  0.1909
 7147TIP3    H121405   2.983   5.394   0.576 -1.8153 -0.0900 -0.0785
 7147TIP3    H221406   2.985   5.476   0.704 -0.5068 -0.4692  0.1656
 7148TIP3   OH221407   1.830   3.478   2.021  0.1624 -0.4335  0.4450
 7148TIP3    H121408   1.768   3.436   1.961 -0.0722 -0.3488  0.6286
 7148TIP3    H221409   1.901   3.507   1.964 -0.7029  0.8868  0.0005
 7149TIP3   OH221410   0.876   1.128   1.154  0.0950  0.0354  0.1943
 7149TIP3    H121411   0.820   1.088   1.087  0.7449  1.3737 -1.1821
 7149TIP3    H221412   0.928   1.055   1.188 -0.7208 -0.7818 -0.2564
 7150TIP3   OH221413   0.991   2.716   0.222 -0.0763  0.3058 -0.1704
 7150TIP3    H121414   1.007   2.654   0.293 -1.9050 -0.0119  0.0287
 7150TIP3    H221415   0.924   2.674   0.168 -1.8461  2.2832  0.3108
 7151TIP3   OH221416   5.610   2.476   3.587  0.4712 -0.2366  0.2202
 7151TIP3    H121417   5.574   2.394   3.555 -0.4483  0.4129 -0.4339
 7151TIP3    H221418   5.605   2.469   3.683  0.7920 -1.0977  0.1812
 7152TIP3   OH221419   5.085   3.367   3.311 -0.3088 -0.3268 -0.2396
 7152TIP3    H121420   5.076   3.304   3.240  0.1301  0.1205 -0.6975
 7152TIP3    H221421   5.070   3.315   3.391  2.8996 -1.7546 -0.3751
 7153TIP3   OH221422   1.024   5.599   0.303  0.5174  0.1614 -0.1218
 7153TIP3    H121423   1.097   5.661   0.312  2.0943 -1.5450 -0.3229
 7153TIP3    H221424   0.990   5.615   0.215  1.3674  0.2981 -0.4422
 7154TIP3   OH221425   3.693   3.160   4.888 -0.0164 -0.4832 -0.2559
 7154TIP3    H121426   3.699   3.130   4.979 -0.5144 -1.4206 -0.5160
 7154TIP3    H221427   3.616   3.114   4.853 -2.4494  2.9860  0.0004
 7155TIP3   OH221428   2.196   1.966   1.886  0.3717  0.1258 -0.1733
 7155TIP3    H121429   2.173   1.905   1.816 -2.5310 -0.2962  0.9824
 7155TIP3    H221430   2.173   2.052   1.851  1.1740  0.1958 -0.5524
 7156TIP3   OH221431   6.814   4.911   1.669  0.3621  0.3486  0.2272
 7156TIP3    H121432   6.835   4.843   1.606  0.3432  1.1792 -0.6906
 7156TIP3    H221433   6.785   4.985   1.617 -0.3826  0.8066  1.2473
 7157TIP3   OH221434   4.030   5.407   1.346  0.5412 -0.2553  0.5778
 7157TIP3    H121435   4.095   5.400   1.416  1.8073  0.2622 -0.4938
 7157TIP3    H221436   4.023   5.319   1.312  2.5308  0.0516 -0.8363
 7158TIP3   OH221437   0.584   5.492   0.787  0.4052 -0.3448 -0.3514
 7158TIP3    H121438   0.545   5.486   0.875  0.1665 -0.7912 -0.4868
 7158TIP3    H221439   0.510   5.493   0.728  0.5912 -1.4971 -0.6277
 7159TIP3   OH221440   1.038   2.920   2.021 -0.0296  0.0995 -0.3583
 7159TIP3    H121441   1.127   2.921   1.988  0.8861 -0.1970  1.8932
 7159TIP3    H221442   1.011   3.011   2.022  0.3380  0.2136 -0.8125
 7160TIP3   OH221443   5.390   0.577   5.353  0.3975  0.8300  0.6221
 7160TIP3    H121444   5.400   0.482   5.344  2.7232  1.0408  0.2759
 7160TIP3    H221445   5.297   0.590   5.374 -0.1965 -1.4244 -0.3233
 7161TIP3   OH221446   6.182   4.074   5.354  0.8895  1.1473 -0.4118
 7161TIP3    H121447   6.264   4.063   5.403  0.9289  0.7420 -0.5701
 7161TIP3    H221448   6.188   4.011   5.283  0.0123  0.4326  0.1390
 7162TIP3   OH221449   3.669   1.245   1.215  0.0263 -0.6912  0.3382
 7162TIP3    H121450   3.577   1.263   1.235  0.2777 -0.4164  1.2950
 7162TIP3    H221451   3.699   1.324   1.169 -0.2469 -0.8428 -0.1109
 7163TIP3   OH221452   7.059   1.242   1.543 -0.2451 -0.6324  0.0193
 7163TIP3    H121453   7.102   1.215   1.623  0.7689  1.8333  0.4015
 7163TIP3    H221454   7.126   1.235   1.475  0.6511  2.3413  0.4501
 7164TIP3   OH221455   4.000   1.494   4.708  0.1977 -0.4182 -0.1652
 7164TIP3    H121456   3.918   1.528   4.672  0.8266  0.1224 -1.1140
 7164TIP3    H221457   4.013   1.544   4.788 -0.7309 -0.9817  0.3687
 7165TIP3   OH221458   2.801   5.058   3.646 -0.3792  0.3953 -0.1495
 7165TIP3    H121459   2.877   5.082   3.593  1.6958 -1.6196  1.6641
 7165TIP3    H221460   2.820   5.094   3.733 -2.4487  1.4184 -0.0438
 7166TIP3   OH221461   6.605   6.551   2.658 -0.1589 -0.4192 -0.7105
 7166TIP3    H121462   6.631   6.545   2.750  1.6383 -2.8635 -1.2908
 7166TIP3    H221463   6.621   6.464   2.622  0.0806  0.6986 -3.5864
 7167TIP3   OH221464   4.951   2.715   4.438  0.4483 -0.3424 -0.2770
 7167TIP3    H121465   4.972   2.800   4.477  0.8433 -1.0630  1.1655
 7167TIP3    H221466   4.859   2.700   4.460 -0.6102  1.0762 -3.2649
 7168TIP3   OH221467   4.641   5.202   0.767 -0.1494  0.0046  0.5938
 7168TIP3    H121468   4.632   5.234   0.677 -0.9821  0.0288  0.6780
 7168TIP3    H221469   4.560   5.155   0.784  0.0271 -0.0500  1.3129
 7169TIP3   OH221470   5.587   4.680   4.213  0.0385 -0.4141  0.1805
 7169TIP3    H121471   5.615   4.685   4.121 -2.3249 -2.6167 -0.8111
 7169TIP3    H221472   5.661   4.640   4.258  0.4275 -1.4652 -1.2848
 7170TIP3   OH221473   5.374   4.123   0.678 -0.0480 -0.1598  0.2313
 7170TIP3    H121474   5.299   4.109   0.620 -0.5736 -0.0675  0.8817
 7170TIP3    H221475   5.364   4.214   0.708 -1.1453 -0.9283  2.3677
 7171TIP3   OH221476   2.401   2.852   2.725  0.0538 -0.0930 -0.1729
 7171TIP3    H121477   2.373   2.780   2.781 -0.7290  0.1958 -0.1877
 7171TIP3    H221478   2.405   2.928   2.783 -0.6923  0.1933 -0.4842
 7172TIP3   OH221479   1.038   6.400   3.252  0.4302 -0.2245 -0.2489
 7172TIP3    H121480   1.009   6.344   3.180 -0.5955  0.9129 -0.7529
 7172TIP3    H221481   1.022   6.348   3.331  1.6348 -1.5084 -0.8225
 7173TIP3   OH221482   5.504   0.175   1.254  0.1384 -0.8227 -0.3088
 7173TIP3    H121483   5.470   0.217   1.333  2.4141  1.3354 -0.3229
 7173TIP3    H221484   5.479   0.234   1.183 -0.3702 -1.8092 -0.9550
 7174TIP3   OH221485   1.459   2.628   2.176 -0.1932  0.6692 -0.1469
 7174TIP3    H121486   1.539   2.608   2.128 -0.0598 -0.1847  0.4102
 7174TIP3    H221487   1.389   2.625   2.110  0.0282 -0.1529 -0.3528
 7175TIP3   OH221488   1.468   1.226   4.353 -0.0173 -0.1474 -0.0154
 7175TIP3    H121489   1.511   1.141   4.368  0.6321  0.4163  1.5136
 7175TIP3    H221490   1.405   1.234   4.424  1.9136  1.8546  1.6294
 7176TIP3   OH221491   5.856   5.401   5.458  0.1176 -0.2509 -0.0359
 7176TIP3    H121492   5.784   5.358   5.412 -0.7788  0.7803  0.3387
 7176TIP3    H221493   5.818   5.429   5.541  0.9433  0.3512  0.1553
 7177TIP3   OH221494   4.692   5.915   3.356  0.1849 -0.4899 -0.2383
 7177TIP3    H121495   4.752   5.987   3.337  0.8383 -0.8586  0.3818
 7177TIP3    H221496   4.748   5.845   3.390 -0.4218 -1.3228 -0.8892
 7178TIP3   OH221497   5.220   5.100   3.753  0.1365  0.2479 -0.1405
 7178TIP3    H121498   5.301   5.050   3.756 -1.0436 -1.8349 -0.9194
 7178TIP3    H221499   5.179   5.086   3.838 -1.8666 -3.2679 -1.4797
 7179TIP3   OH221500   1.845   5.212   0.607 -0.2339  0.8554 -0.3099
 7179TIP3    H121501   1.851   5.276   0.536  0.6549  1.0697 -0.0651
 7179TIP3    H221502   1.766   5.236   0.655 -0.3079  1.3135 -0.6561
 7180TIP3   OH221503   0.551   5.098   1.435  0.4935  0.0540 -0.7283
 7180TIP3    H121504   0.604   5.040   1.491  1.3770 -1.0282 -2.5641
 7180TIP3    H221505   0.556   5.183   1.477  1.4249 -0.6292  0.6333
 7181TIP3   OH221506   3.451   4.272   3.141 -0.0349  0.4449  0.1711
 7181TIP3    H121507   3.476   4.289   3.232 -0.2744  0.9818  0.1397
 7181TIP3    H221508   3.372   4.218   3.148  0.6618 -0.5707  0.2728
 7182TIP3   OH221509   3.805   2.881   0.610 -0.3881 -0.0180 -0.4664
 7182TIP3    H121510   3.800   2.795   0.652 -1.4194 -0.2031 -0.9555
 7182TIP3    H221511   3.794   2.943   0.683 -1.8326 -0.3363 -0.3800
 7183TIP3   OH221512   0.322   4.239   4.959  0.2292  0.3283  0.5255
 7183TIP3    H121513   0.241   4.274   4.924  1.6277  2.2106 -1.0357
 7183TIP3    H221514   0.373   4.214   4.882  0.4704 -2.6028  1.5033
 7184TIP3   OH221515   2.594   1.799   4.830  0.0241 -0.1417 -0.4739
 7184TIP3    H121516   2.577   1.756   4.746  0.2541  0.1303 -0.6608
 7184TIP3    H221517   2.659   1.744   4.873  0.9810  0.4738 -1.0873
 7185TIP3   OH221518   3.940   3.803   1.695  0.6356 -0.1898  0.2632
 7185TIP3    H121519   3.952   3.712   1.719 -0.9803 -0.2988  0.8210
 7185TIP3    H221520   3.995   3.816   1.618 -0.9747 -2.3437 -1.3796
 7186TIP3   OH221521   5.402   1.874   0.501 -0.6839  0.0053 -0.2229
 7186TIP3    H121522   5.376   1.966   0.506 -1.5229 -0.2917  1.9636
 7186TIP3    H221523   5.332   1.832   0.451 -1.5316  0.1784  0.7907
 7187TIP3   OH221524   2.023   6.651   1.672 -0.1748 -0.5344 -0.3633
 7187TIP3    H121525   1.961   6.591   1.629 -0.5017 -0.9912  0.7082
 7187TIP3    H221526   1.970   6.727   1.696 -0.3613 -0.9563  0.6202
 7188TIP3   OH221527   1.017   3.827   3.711  0.0842  0.2564 -0.1995
 7188TIP3    H121528   0.992   3.838   3.802 -1.2789 -0.3947 -0.4737
 7188TIP3    H221529   1.095   3.881   3.701 -1.3356  2.6444  0.6557
 7189TIP3   OH221530   6.378   1.739   1.109  0.3432  0.0613  0.0150
 7189TIP3    H121531   6.352   1.740   1.017 -0.1258 -1.0322  0.1312
 7189TIP3    H221532   6.300   1.711   1.157  1.2866 -1.8900  0.4987
 7190TIP3   OH221533   6.382   3.995   3.124 -0.1046  0.1360  0.1499
 7190TIP3    H121534   6.378   3.901   3.108 -0.4009 -0.0307  1.1062
 7190TIP3    H221535   6.421   4.031   3.045 -0.7743 -0.6930 -0.5910
 7191TIP3   OH221536   3.290   2.772   4.800  0.3003 -0.7163  0.4508
 7191TIP3    H121537   3.245   2.719   4.735 -1.2380  2.2058 -1.0605
 7191TIP3    H221538   3.379   2.780   4.766 -0.4584  0.7108 -1.3961
 7192TIP3   OH221539   6.638   2.234   3.636 -0.3799 -0.0720 -0.2181
 7192TIP3    H121540   6.575   2.193   3.694  0.8335 -1.4634  0.1781
 7192TIP3    H221541   6.686   2.295   3.693 -1.0558  0.6631 -0.4219
 7193TIP3   OH221542   0.490   4.778   3.307  0.1791 -0.0588  0.0235
 7193TIP3    H121543   0.523   4.819   3.388 -0.4395  0.7139 -0.1042
 7193TIP3    H221544   0.423   4.716   3.337  0.9504 -0.8277  0.1994
 7194TIP3   OH221545   1.296   1.142   0.994 -0.2978  0.0648  0.0540
 7194TIP3    H121546   1.213   1.188   0.997  0.5444  1.6158  2.8455
 7194TIP3    H221547   1.361   1.209   0.974  0.4726 -0.7910 -0.4002
 7195TIP3   OH221548   6.564   1.910   3.329 -0.0771  0.5292  0.3395
 7195TIP3    H121549   6.553   2.004   3.347  1.6589  0.9262 -0.4591
 7195TIP3    H221550   6.615   1.878   3.404  0.4276  0.5128 -0.0063
 7196TIP3   OH221551   3.231   1.158   5.686 -0.3063 -0.4670  0.6786
 7196TIP3    H121552   3.284   1.236   5.666  0.1198 -1.0024 -0.3644
 7196TIP3    H221553   3.143   1.181   5.658 -0.2305 -0.2709  0.6001
 7197TIP3   OH221554   6.867   6.108   3.491  0.1834 -0.1133  0.0652
 7197TIP3    H121555   6.777   6.088   3.464  0.1370  0.0514  0.0957
 7197TIP3    H221556   6.875   6.202   3.478  0.4445 -0.1736 -0.2124
 7198TIP3   OH221557   0.613   0.232   1.946 -0.3853 -0.2061 -0.4631
 7198TIP3    H121558   0.519   0.214   1.943 -0.4816 -0.5519  2.4096
 7198TIP3    H221559   0.619   0.325   1.967 -0.1327 -0.4843  0.7486
 7199TIP3   OH221560   5.822   1.514   1.508 -0.1353  0.1218  0.4507
 7199TIP3    H121561   5.827   1.418   1.509  0.8660  0.1370 -0.9149
 7199TIP3    H221562   5.887   1.541   1.443 -0.4989  1.7297  0.7151
 7200TIP3   OH221563   2.678   6.582   1.623 -0.1144 -0.2270  0.3812
 7200TIP3    H121564   2.624   6.585   1.545 -0.2560  0.3888  0.4938
 7200TIP3    H221565   2.686   6.674   1.650 -0.3759 -0.4645  1.2938
 7201TIP3   OH221566   5.536   6.423   3.526 -0.0356  0.4952 -0.5619
 7201TIP3    H121567   5.619   6.384   3.556 -0.8218  0.1110  1.3012
 7201TIP3    H221568   5.508   6.367   3.454  0.7434 -0.1015 -0.4190
 7202TIP3   OH221569   4.334   4.378   0.463  0.1092  0.4707  0.0601
 7202TIP3    H121570   4.402   4.427   0.417  0.0430  1.0766  0.5924
 7202TIP3    H221571   4.270   4.357   0.395  1.5812 -1.5566 -0.8122
 7203TIP3   OH221572   3.831   5.535   0.651 -0.3156  0.1776  0.2384
 7203TIP3    H121573   3.860   5.547   0.561 -0.6018  0.8595  0.2363
 7203TIP3    H221574   3.771   5.461   0.647  1.0771 -0.9999  0.1828
 7204TIP3   OH221575   3.556   0.075   4.822  0.4192 -0.2520  0.8960
 7204TIP3    H121576   3.464   0.093   4.802  1.2757  2.9170 -1.0388
 7204TIP3    H221577   3.591   0.036   4.742  0.9954 -0.3377  1.1861
 7205TIP3   OH221578   2.893   2.462   4.759  0.0313  0.0875 -0.5748
 7205TIP3    H121579   2.824   2.417   4.711 -0.8278 -1.5073  1.9486
 7205TIP3    H221580   2.851   2.541   4.793 -0.4137 -0.5443  0.3967
 7206TIP3   OH221581   2.034   2.173   1.088 -0.3635  0.4252  0.4172
 7206TIP3    H121582   2.088   2.122   1.148 -1.0982 -0.0402  0.7017
 7206TIP3    H221583   1.979   2.109   1.044 -1.3989  0.9599  0.8728
 7207TIP3   OH221584   0.204   6.740   3.531  0.0341  0.1113  0.1138
 7207TIP3    H121585   0.137   6.791   3.576 -0.6014 -0.0336 -0.6415
 7207TIP3    H221586   0.196   6.652   3.567  0.6803  0.3768  0.9339
 7208TIP3   OH221587   1.185  -0.022   4.230  0.0356 -0.1151  0.1105
 7208TIP3    H121588   1.272  -0.002   4.195 -0.8500  2.6726 -0.7273
 7208TIP3    H221589   1.130   0.050   4.200 -2.9595 -2.5209 -0.6681
 7209TIP3   OH221590   0.681   6.124   3.043  0.0870  0.1715  0.1044
 7209TIP3    H121591   0.690   6.167   3.129 -1.4811  1.5701 -0.3941
 7209TIP3    H221592   0.744   6.051   3.047  1.5819  1.4523  1.6437
 7210TIP3   OH221593   3.099   6.783   0.977 -0.0161 -0.2717 -0.2962
 7210TIP3    H121594   3.031   6.723   1.006  0.4391  0.1234  1.7215
 7210TIP3    H221595   3.051   6.860   0.946 -0.5259 -0.7886 -0.8154
 7211TIP3   OH221596   2.768   3.247   4.719  0.3488 -0.4078 -0.2765
 7211TIP3    H121597   2.818   3.207   4.790 -1.5427 -2.0585  0.2252
 7211TIP3    H221598   2.770   3.182   4.648  1.0858  0.6438 -1.2608
 7212TIP3   OH221599   3.707   3.214   2.575 -0.3856  0.2199 -0.0515
 7212TIP3    H121600   3.762   3.156   2.628 -1.4246  0.7997  1.7160
 7212TIP3    H221601   3.758   3.294   2.566 -0.6425  0.5128  1.0158
 7213TIP3   OH221602   2.578   6.689   2.423  0.2328 -0.0940 -0.2078
 7213TIP3    H121603   2.532   6.713   2.343 -0.3884 -0.2550  0.1010
 7213TIP3    H221604   2.632   6.614   2.398  1.5413  1.0332 -0.9670
 7214TIP3   OH221605   5.582   6.460   3.104  0.2602  0.2466 -0.0842
 7214TIP3    H121606   5.522   6.402   3.150 -1.4380  0.3072 -2.0644
 7214TIP3    H221607   5.605   6.413   3.024  1.4525  0.9773 -0.2010
 7215TIP3   OH221608   4.573   3.055   4.962  0.3753  0.2219 -0.4371
 7215TIP3    H121609   4.608   3.084   5.047  1.4052 -0.1807 -0.7066
 7215TIP3    H221610   4.585   3.130   4.904  1.6859 -0.1986 -0.7583
 7216TIP3   OH221611   7.170   0.288   1.187 -0.3383 -0.5540 -0.1752
 7216TIP3    H121612   7.227   0.361   1.208 -2.2779  1.2757 -0.9804
 7216TIP3    H221613   7.212   0.244   1.114  0.5792  0.0672 -0.0292
 7217TIP3   OH221614   0.604   3.554   5.665 -0.2163 -0.0162  0.3513
 7217TIP3    H121615   0.599   3.471   5.619  0.2850  1.1834 -2.0200
 7217TIP3    H221616   0.698   3.576   5.666 -0.4570  1.1117 -0.2039
 7218TIP3   OH221617   1.822   5.111   4.289  0.8015 -0.7468 -0.1035
 7218TIP3    H121618   1.800   5.055   4.365 -0.6714 -1.6063 -1.1015
 7218TIP3    H221619   1.796   5.058   4.213  0.4267  0.8549 -1.1314
 7219TIP3   OH221620   2.766   4.582   5.299 -0.1711  0.0602  0.0499
 7219TIP3    H121621   2.722   4.653   5.251 -2.4063 -1.4786 -0.3522
 7219TIP3    H221622   2.768   4.612   5.390 -2.1146  0.2307  0.0822
 7220TIP3   OH221623   2.526   5.288   3.899  0.3129  0.5499 -0.2909
 7220TIP3    H121624   2.604   5.270   3.951  0.6753  0.4245 -0.8721
 7220TIP3    H221625   2.483   5.361   3.944 -0.7488 -1.1537  1.6454
 7221TIP3   OH221626   1.569   5.728   2.317 -0.0348  0.0829  0.8049
 7221TIP3    H121627   1.600   5.675   2.244 -0.7727 -1.2148  1.3925
 7221TIP3    H221628   1.574   5.669   2.393  2.2429  1.8433  2.1725
 7222TIP3   OH221629   6.913   4.577   1.069  0.0253  0.0797 -0.2754
 7222TIP3    H121630   6.852   4.541   1.133 -0.3462 -0.3082 -0.8343
 7222TIP3    H221631   6.859   4.593   0.991  0.7098 -0.7008 -0.9358
 7223TIP3   OH221632   3.151   3.878   5.487 -0.7863 -0.2584 -0.5656
 7223TIP3    H121633   3.142   3.945   5.420  0.6919 -0.3948 -0.9421
 7223TIP3    H221634   3.232   3.833   5.465 -2.0364 -2.5859 -0.6651
 7224TIP3   OH221635   2.321   3.427   4.095 -0.1359  0.6738  0.7015
 7224TIP3    H121636   2.290   3.376   4.171  2.4931 -0.5437  1.0605
 7224TIP3    H221637   2.299   3.518   4.117 -1.7344  0.0938  1.6992
 7225TIP3   OH221638   3.775   4.568   2.662  0.0420  0.0756 -0.4624
 7225TIP3    H121639   3.700   4.624   2.684  0.8349  1.9394 -2.2731
 7225TIP3    H221640   3.770   4.557   2.567  1.6202 -0.4413 -0.5085
 7226TIP3   OH221641   4.224   3.461   1.966 -0.2794  0.0943  0.2826
 7226TIP3    H121642   4.142   3.475   1.918 -1.2085 -1.3157  1.3617
 7226TIP3    H221643   4.196   3.439   2.055  1.3887  2.9713  1.6748
 7227TIP3   OH221644   5.651   3.614   1.604  0.3049 -0.0627 -0.4053
 7227TIP3    H121645   5.634   3.697   1.560  1.6883 -1.1683 -3.2808
 7227TIP3    H221646   5.568   3.568   1.600  0.2403  0.1076 -1.3759
 7228TIP3   OH221647   1.107   6.761   1.466 -0.1528  1.0600  0.1906
 7228TIP3    H121648   1.202   6.768   1.464 -0.0769  0.3479  0.8763
 7228TIP3    H221649   1.083   6.783   1.556 -0.5351  0.1909  0.3149
 7229TIP3   OH221650   3.339   0.536   4.470 -0.1870 -0.1375 -0.4411
 7229TIP3    H121651   3.338   0.582   4.554  3.2693  0.4203 -0.5928
 7229TIP3    H221652   3.377   0.451   4.489 -2.5332 -1.3957 -0.9501
 7230TIP3   OH221653   0.422   6.494   5.123 -0.5116  0.1181 -0.2212
 7230TIP3    H121654   0.366   6.450   5.059 -0.1291 -1.8508  0.6939
 7230TIP3    H221655   0.371   6.492   5.204  0.3294 -0.5709  0.3224
 7231TIP3   OH221656   2.539   4.544  -0.003  0.2686  0.5351  0.5571
 7231TIP3    H121657   2.585   4.506   0.072 -0.8546 -0.4491  0.7766
 7231TIP3    H221658   2.465   4.485  -0.018 -0.1804  1.3600 -0.6048
 7232TIP3   OH221659   5.274   0.476   2.200 -0.6554 -0.0560  0.2440
 7232TIP3    H121660   5.309   0.489   2.112 -0.6718  0.1551  0.2672
 7232TIP3    H221661   5.342   0.427   2.246 -0.9209 -0.7255 -0.0724
 7233TIP3   OH221662   6.578   5.697   1.156 -0.5286 -0.4421  0.5962
 7233TIP3    H121663   6.631   5.755   1.102 -0.4641  0.3874  1.5293
 7233TIP3    H221664   6.616   5.703   1.243 -0.0982 -2.4248  0.5848
 7234TIP3   OH221665   4.715   3.784   5.597 -0.0374 -0.3431 -0.3344
 7234TIP3    H121666   4.795   3.833   5.618  0.3901 -0.6782 -1.1299
 7234TIP3    H221667   4.713   3.782   5.501 -1.0766 -0.2247 -0.3268
 7235TIP3   OH221668   2.063   4.795   2.372  0.0551 -0.5333  0.5868
 7235TIP3    H121669   2.018   4.772   2.454 -1.3534  0.7458  0.2324
 7235TIP3    H221670   2.078   4.890   2.380 -0.1870 -0.3726 -0.6616
 7236TIP3   OH221671   4.597   5.603   3.596  0.2559  0.5029 -0.1469
 7236TIP3    H121672   4.618   5.531   3.537  2.1360  1.5037 -0.7948
 7236TIP3    H221673   4.551   5.666   3.541 -0.9934  0.0116  0.3112
 7237TIP3   OH221674   6.877   0.102   2.868 -0.3973 -0.1504 -0.1217
 7237TIP3    H121675   6.956   0.085   2.816  1.7906  1.3029  2.4760
 7237TIP3    H221676   6.808   0.056   2.821  2.5136 -4.3338 -0.8757
 7238TIP3   OH221677   3.780   4.551   1.466 -0.1807  0.0715 -0.4224
 7238TIP3    H121678   3.767   4.457   1.480  2.4289 -0.5086 -1.3272
 7238TIP3    H221679   3.695   4.589   1.484 -0.8173 -2.1977  2.1392
 7239TIP3   OH221680   1.987   3.314   4.886  0.1040 -0.2709 -0.4673
 7239TIP3    H121681   2.067   3.267   4.908  0.0564  0.2762  1.0115
 7239TIP3    H221682   1.994   3.332   4.792  1.2565 -1.0515 -0.5448
 7240TIP3   OH221683   5.554   6.754   2.495  0.1450 -0.6212 -0.6688
 7240TIP3    H121684   5.600   6.804   2.428 -0.2780  0.2938 -0.2897
 7240TIP3    H221685   5.530   6.819   2.561 -0.7264 -1.2660 -0.3393
 7241TIP3   OH221686   5.708   0.793   0.262  0.0610  0.5946 -0.0203
 7241TIP3    H121687   5.709   0.852   0.187 -2.0515  0.6997 -0.0222
 7241TIP3    H221688   5.617   0.763   0.268  0.8891 -2.0655  0.4722
 7242TIP3   OH221689   0.637   0.651   4.780  0.3015  0.1451 -0.1562
 7242TIP3    H121690   0.564   0.612   4.731  0.7089 -2.2108  0.9684
 7242TIP3    H221691   0.673   0.718   4.721  0.7961 -2.5380 -3.1605
 7243TIP3   OH221692   1.881   5.335   0.379  0.4810  0.1618  0.2009
 7243TIP3    H121693   1.939   5.290   0.317 -1.4194  2.1291 -3.3160
 7243TIP3    H221694   1.795   5.294   0.364 -0.4204  2.0305 -0.0406
 7244TIP3   OH221695   6.651   4.827   5.212 -0.0433  0.2419  0.4211
 7244TIP3    H121696   6.709   4.850   5.285  1.1787  0.5917 -0.6322
 7244TIP3    H221697   6.605   4.909   5.191 -1.2079 -0.1148  1.4748
 7245TIP3   OH221698   5.407   6.471   0.844 -0.3058 -0.7684 -0.1224
 7245TIP3    H121699   5.377   6.386   0.813 -0.3159 -0.4459 -1.0311
 7245TIP3    H221700   5.438   6.516   0.765  0.2006 -0.1348  0.4235
 7246TIP3   OH221701   4.819   3.204   0.170 -0.1634 -0.2328  0.3587
 7246TIP3    H121702   4.786   3.148   0.240 -0.8434  1.2384  1.2517
 7246TIP3    H221703   4.815   3.149   0.092 -0.8556 -1.4085  1.1852
 7247TIP3   OH221704   4.082   5.645   4.522 -0.5735  0.4147  0.0959
 7247TIP3    H121705   4.086   5.550   4.532 -1.7915  0.3285 -0.1051
 7247TIP3    H221706   4.121   5.662   4.437 -0.6996  0.0618 -0.0313
 7248TIP3   OH221707   4.617   4.670   0.692  0.1841 -0.2708 -0.1713
 7248TIP3    H121708   4.628   4.647   0.784  1.6656 -0.2396 -0.3159
 7248TIP3    H221709   4.551   4.740   0.692 -0.8230 -1.1942  0.7187
 7249TIP3   OH221710   4.576   3.623   4.634 -0.2816  0.2350 -0.0599
 7249TIP3    H121711   4.515   3.552   4.656 -0.4568  0.1228 -0.8889
 7249TIP3    H221712   4.521   3.700   4.622  0.0504  0.9812  2.5920
 7250TIP3   OH221713   2.448   3.470   1.792  0.0104  0.0993 -0.5233
 7250TIP3    H121714   2.512   3.399   1.794  0.8900  0.8890  0.6280
 7250TIP3    H221715   2.363   3.425   1.783  0.6369 -1.0012 -1.2246
 7251TIP3   OH221716   2.938   3.160   5.651  0.0639  0.0351 -0.4001
 7251TIP3    H121717   2.986   3.163   5.568  1.9036  0.5014  0.6257
 7251TIP3    H221718   3.005   3.140   5.716 -1.3530 -0.3834  0.9799
 7252TIP3   OH221719   7.066   0.169   2.176  0.0089 -0.8172 -0.2924
 7252TIP3    H121720   7.032   0.092   2.221 -1.5135  0.4747  0.8911
 7252TIP3    H221721   6.989   0.224   2.161  1.3004  1.5838  1.1610
 7253TIP3   OH221722   5.467   0.988   3.565  0.1943 -0.0977 -0.4978
 7253TIP3    H121723   5.520   0.909   3.559  2.1479  1.1720 -0.6889
 7253TIP3    H221724   5.457   1.003   3.659  0.5249 -0.1040 -0.4624
 7254TIP3   OH221725   4.995   5.826   3.052 -0.2447 -0.0496 -0.3110
 7254TIP3    H121726   4.969   5.777   2.974 -3.1636  0.7992  0.0124
 7254TIP3    H221727   5.013   5.914   3.020  1.7905 -0.4523 -0.4188
 7255TIP3   OH221728   0.669   1.393   3.131  0.3183 -0.4117  0.2357
 7255TIP3    H121729   0.722   1.450   3.075 -0.6220 -0.0068 -0.2651
 7255TIP3    H221730   0.728   1.366   3.201  0.8512  0.9774  0.3503
 7256TIP3   OH221731   4.727   3.644   4.047  0.4226 -0.1611  0.4969
 7256TIP3    H121732   4.671   3.678   4.117  1.7546  1.3935  0.8554
 7256TIP3    H221733   4.712   3.703   3.974  0.5125 -0.6267  0.0939
 7257TIP3   OH221734   1.445   3.768   1.490 -1.1063 -0.0697  0.0609
 7257TIP3    H121735   1.390   3.842   1.467 -2.0263 -0.9987 -0.8165
 7257TIP3    H221736   1.391   3.691   1.472  0.9451 -1.1063 -2.4583
 7258TIP3   OH221737   5.971   2.188   3.450 -0.3298 -0.4304  0.4231
 7258TIP3    H121738   5.895   2.139   3.483  0.0520 -2.4227 -1.4306
 7258TIP3    H221739   5.933   2.259   3.398 -0.9729 -1.7604 -0.9766
 7259TIP3   OH221740   5.421   2.188   3.179  0.1063  0.0630 -0.3633
 7259TIP3    H121741   5.501   2.137   3.171  0.3885  0.5008 -0.3466
 7259TIP3    H221742   5.382   2.185   3.091  0.4589  0.3671 -0.5340
 7260TIP3   OH221743   3.024   6.515   0.810 -0.4060 -0.7092  0.1797
 7260TIP3    H121744   3.039   6.438   0.865 -2.0104 -0.0734  1.6125
 7260TIP3    H221745   3.109   6.559   0.807  0.0560 -1.5219  0.9822
 7261TIP3   OH221746   6.517   2.983   0.409 -0.1732 -0.3365 -0.2561
 7261TIP3    H121747   6.546   3.056   0.463  1.0208 -1.3368  0.5330
 7261TIP3    H221748   6.427   3.005   0.384 -0.0263  1.1232  0.4133
 7262TIP3   OH221749   4.335   5.498   1.198  0.2883  0.1725 -0.3919
 7262TIP3    H121750   4.311   5.584   1.162  2.2717  1.4045  1.0625
 7262TIP3    H221751   4.279   5.488   1.274  1.3527  1.1127  0.5544
 7263TIP3   OH221752   6.667   4.787   5.607  0.7849  0.2778 -0.2922
 7263TIP3    H121753   6.680   4.857   5.672  1.7533  0.6764 -0.9008
 7263TIP3    H221754   6.681   4.706   5.656  0.7991  0.5507  0.1614
 7264TIP3   OH221755   6.614   6.004   1.426 -0.5332  0.1389 -0.3136
 7264TIP3    H121756   6.618   6.006   1.330 -1.2473  1.1055 -0.3356
 7264TIP3    H221757   6.584   5.915   1.446 -0.5376 -0.0205 -0.9963
 7265TIP3   OH221758   6.723   5.801   0.933 -0.0734  0.3803  0.2920
 7265TIP3    H121759   6.807   5.757   0.945  0.2461  1.1807  1.0798
 7265TIP3    H221760   6.745   5.893   0.920 -0.7849  0.4590 -0.5158
 7266TIP3   OH221761   0.429   3.447   2.673  0.2513  0.4966 -0.1541
 7266TIP3    H121762   0.426   3.528   2.724  1.0316  0.2510  0.2983
 7266TIP3    H221763   0.379   3.384   2.725 -1.1671  0.9245 -0.9655
 7267TIP3   OH221764   6.570   4.451   5.379 -0.2951  0.1106 -0.3037
 7267TIP3    H121765   6.503   4.402   5.331  0.3566  0.0286 -1.1690
 7267TIP3    H221766   6.653   4.408   5.355 -0.0558 -1.1341  2.3711
 7268TIP3   OH221767   4.330   6.438   4.504  0.1534 -0.0259 -0.7485
 7268TIP3    H121768   4.323   6.343   4.504  0.4546 -0.0495 -0.3180
 7268TIP3    H221769   4.421   6.456   4.526 -0.2928  0.3783  0.8923
 7269TIP3   OH221770   6.311   0.565   1.746 -0.4411 -0.7650 -0.0087
 7269TIP3    H121771   6.391   0.617   1.744 -1.1350  0.3278 -0.7335
 7269TIP3    H221772   6.267   0.585   1.663 -1.9150 -0.5822  0.7776
 7270TIP3   OH221773   6.743   4.083   2.592 -0.7136  0.2267  0.3553
 7270TIP3    H121774   6.715   4.139   2.664  1.0903  0.4661  0.9277
 7270TIP3    H221775   6.776   4.004   2.634 -0.0068  0.2056 -0.2100
 7271TIP3   OH221776   6.836   1.221   5.216 -0.1838 -0.2005  0.0161
 7271TIP3    H121777   6.892   1.156   5.173  0.4653 -0.3636  1.0721
 7271TIP3    H221778   6.888   1.302   5.215  0.0809 -0.3491  0.9855
 7272TIP3   OH221779   5.897   0.545   2.664  0.2445 -0.1114  0.4015
 7272TIP3    H121780   5.989   0.520   2.675  0.4979  0.5916 -0.0342
 7272TIP3    H221781   5.862   0.483   2.601  0.3781 -0.4702  0.6763
 7273TIP3   OH221782   3.754   6.778   1.887 -0.2292  0.0588 -0.1318
 7273TIP3    H121783   3.759   6.836   1.811  3.7209  1.4687  0.9388
 7273TIP3    H221784   3.749   6.690   1.850  1.1985  0.7230 -2.0902
 7274TIP3   OH221785   2.043   6.543   5.330  0.5714  0.1319  0.5257
 7274TIP3    H121786   2.081   6.622   5.292  1.8081  0.5209  2.4193
 7274TIP3    H221787   1.950   6.550   5.311  0.9328  0.9626 -1.1576
 7275TIP3   OH221788   0.382   4.651   1.801  0.0300 -0.3466 -0.6232
 7275TIP3    H121789   0.309   4.688   1.850  0.6349  0.8833 -0.5966
 7275TIP3    H221790   0.458   4.663   1.858  0.8819  1.7924 -2.0458
 7276TIP3   OH221791   0.464   1.064   3.146  0.3583 -0.3523  0.5131
 7276TIP3    H121792   0.543   1.062   3.201 -0.2544  2.3510  1.6441
 7276TIP3    H221793   0.485   1.126   3.076 -0.4826 -0.2575  0.3376
 7277TIP3   OH221794   7.161   0.600   2.259  0.5472 -0.2211 -0.3662
 7277TIP3    H121795   7.066   0.604   2.251  0.5604  1.4416 -0.0158
 7277TIP3    H221796   7.179   0.628   2.349  1.3234 -1.9541  0.0716
 7278TIP3   OH221797   5.990   3.122   5.676 -0.0593 -0.0895 -0.1421
 7278TIP3    H121798   5.957   3.194   5.622  0.8233 -0.8724 -1.8019
 7278TIP3    H221799   6.081   3.113   5.650  0.2775 -0.7855  1.2072
 7279TIP3   OH221800   5.536   1.977   5.356 -0.0119 -0.0649 -0.0608
 7279TIP3    H121801   5.581   1.913   5.301  0.9152 -1.0566  1.7595
 7279TIP3    H221802   5.606   2.034   5.388 -0.6456  0.9890 -0.5106
 7280TIP3   OH221803   0.718   4.697   5.371 -0.3777 -0.4714 -0.7273
 7280TIP3    H121804   0.771   4.641   5.428 -0.4380 -0.4586 -0.6587
 7280TIP3    H221805   0.717   4.652   5.287  0.8149  0.1553 -1.0973
 7281TIP3   OH221806   5.195   4.938   2.761 -0.5050 -0.9435 -0.7507
 7281TIP3    H121807   5.180   4.959   2.669  0.8049  1.4155 -0.4946
 7281TIP3    H221808   5.286   4.906   2.764  0.4488  1.5794 -0.0039
 7282TIP3   OH221809   3.165   2.848   0.616  0.0383  0.0425 -0.0390
 7282TIP3    H121810   3.143   2.785   0.684 -0.8626  2.6391  2.2431
 7282TIP3    H221811   3.258   2.867   0.631  0.2362 -0.4694 -0.5517
 7283TIP3   OH221812   4.797   2.595   3.152 -0.1078 -0.3378  0.4499
 7283TIP3    H121813   4.744   2.653   3.099  1.7152  0.5620 -0.4741
 7283TIP3    H221814   4.758   2.600   3.239 -3.0217 -1.6617 -0.6459
 7284TIP3   OH221815   3.864   3.454   5.304 -0.2077  0.0191  0.2170
 7284TIP3    H121816   3.860   3.431   5.212 -0.6895  1.8622 -0.2716
 7284TIP3    H221817   3.776   3.433   5.338 -0.1963 -0.1635  0.1343
 7285TIP3   OH221818   3.287   2.311   5.349 -0.2867  0.2428 -0.8770
 7285TIP3    H121819   3.262   2.403   5.346  1.2337  0.6690 -1.7338
 7285TIP3    H221820   3.290   2.290   5.442 -1.1084  0.9122 -0.6885
 7286TIP3   OH221821   1.432   1.435   1.028  0.2614  0.0904 -0.9457
 7286TIP3    H121822   1.427   1.523   1.064 -0.2383 -0.0168 -0.7446
 7286TIP3    H221823   1.370   1.384   1.080  0.1299 -0.2551 -1.4333
 7287TIP3   OH221824   3.851   0.730   3.797 -0.2583 -0.5634 -0.3522
 7287TIP3    H121825   3.819   0.771   3.878 -2.7062 -2.4544 -0.2204
 7287TIP3    H221826   3.897   0.800   3.751  0.7112  0.7402  2.3769
 7288TIP3   OH221827   4.592   4.219   1.923 -0.0712  0.4430 -0.0475
 7288TIP3    H121828   4.516   4.160   1.923 -0.9069  1.4816 -0.2310
 7288TIP3    H221829   4.576   4.278   1.996 -0.5604  2.0359 -1.3809
 7289TIP3   OH221830   2.801   5.074   0.287  0.2260  0.4199  0.1899
 7289TIP3    H121831   2.856   5.029   0.222 -0.8184 -0.0531 -0.3845
 7289TIP3    H221832   2.719   5.091   0.241  0.1543  1.8331  0.7964
 7290TIP3   OH221833   3.647   5.314   0.809  0.2642 -0.0777 -0.6972
 7290TIP3    H121834   3.665   5.318   0.716  1.5878  0.9741 -0.4340
 7290TIP3    H221835   3.553   5.332   0.817 -0.0663 -1.1774 -1.8632
 7291TIP3   OH221836   1.416   3.064   1.473 -0.2211 -0.3491 -0.1942
 7291TIP3    H121837   1.495   3.114   1.496 -1.0033  1.0629 -0.4437
 7291TIP3    H221838   1.429   3.040   1.382 -0.4743  0.7194 -0.5295
 7292TIP3   OH221839   0.807   3.888   5.119  0.4691  0.3374  0.2354
 7292TIP3    H121840   0.719   3.887   5.157  0.9714  0.4930  1.4560
 7292TIP3    H221841   0.803   3.826   5.046 -0.3242 -0.6043  1.0574
 7293TIP3   OH221842   6.167   0.878   0.077 -0.4527  0.2535 -0.1068
 7293TIP3    H121843   6.110   0.811   0.114 -0.8169 -0.0075 -1.1207
 7293TIP3    H221844   6.177   0.942   0.147 -0.5239 -0.5912  0.6997
 7294TIP3   OH221845   2.941   3.463   2.732 -0.2360 -0.3499 -0.3725
 7294TIP3    H121846   2.954   3.442   2.640 -0.8083 -0.1930 -0.4922
 7294TIP3    H221847   2.847   3.452   2.746 -0.1463 -0.4138  0.2017
 7295TIP3   OH221848   4.908   2.527   0.764  0.0785 -0.4893  0.2072
 7295TIP3    H121849   4.956   2.527   0.682  1.9447 -0.8779  1.2406
 7295TIP3    H221850   4.970   2.493   0.828 -1.7040 -1.3455  1.5697
 7296TIP3   OH221851   2.369   4.890   2.108 -0.5038  0.3154  0.1433
 7296TIP3    H121852   2.353   4.813   2.163  3.2081  0.7772  2.1913
 7296TIP3    H221853   2.290   4.897   2.054 -2.8405 -2.3990  2.7943
 7297TIP3   OH221854   5.101   4.614   4.875  0.4867 -0.2306  0.0328
 7297TIP3    H121855   5.026   4.556   4.880 -0.1445  0.4907 -0.7521
 7297TIP3    H221856   5.070   4.697   4.910  0.7512  0.2269 -0.7815
 7298TIP3   OH221857   5.168   3.854   2.682  0.3833 -0.2832 -0.0977
 7298TIP3    H121858   5.169   3.949   2.688  2.0599 -0.3146  4.4333
 7298TIP3    H221859   5.256   3.831   2.651 -0.0911 -0.3850 -1.3958
 7299TIP3   OH221860   1.181   0.723   5.356  0.2562 -0.3032  0.2681
 7299TIP3    H121861   1.134   0.752   5.434  0.2464 -1.5366  0.7486
 7299TIP3    H221862   1.147   0.635   5.339  1.6675 -0.8317  0.0519
 7300TIP3   OH221863   1.700   6.183   2.630 -0.1078 -0.3483 -0.7211
 7300TIP3    H121864   1.703   6.121   2.557 -3.4256 -1.0543 -0.3946
 7300TIP3    H221865   1.617   6.229   2.620 -0.4163 -0.0373  2.2716
 7301TIP3   OH221866   2.882   3.415   1.994  0.1390  0.4957 -0.4170
 7301TIP3    H121867   2.963   3.459   1.971 -0.2782  1.2658 -0.4293
 7301TIP3    H221868   2.838   3.474   2.055  0.1260 -0.4435  0.5149
 7302TIP3   OH221869   3.942   0.075   0.717 -0.5803  0.3505  0.3489
 7302TIP3    H121870   4.029   0.114   0.712 -0.3442 -0.2233 -0.2242
 7302TIP3    H221871   3.957  -0.014   0.749 -1.0353  0.4873  0.9603
 7303TIP3   OH221872   5.955   5.978   2.079 -0.5257 -0.2162 -0.2324
 7303TIP3    H121873   5.863   5.983   2.105 -0.1741 -1.7140  1.4644
 7303TIP3    H221874   5.954   5.928   1.997 -1.2698  0.6659 -0.7868
 7304TIP3   OH221875   2.496   3.096   1.447 -0.1078 -0.0793  0.1511
 7304TIP3    H121876   2.552   3.029   1.487 -0.7739 -0.5721  0.2728
 7304TIP3    H221877   2.408   3.059   1.451 -0.6455  1.2088  1.1209
 7305TIP3   OH221878   2.950   5.722   0.895 -0.1794 -0.3266  0.0630
 7305TIP3    H121879   2.901   5.802   0.875  0.2396 -0.0972 -0.0468
 7305TIP3    H221880   3.038   5.739   0.864  1.3215  1.1365  4.4746
 7306TIP3   OH221881   3.632   1.131   1.864  0.2041 -0.2324  0.0461
 7306TIP3    H121882   3.674   1.102   1.945 -0.3485  0.8468  0.7529
 7306TIP3    H221883   3.667   1.219   1.850 -0.2920 -0.1133 -0.4602
 7307TIP3   OH221884   4.439   5.664   3.145  0.0223  0.5720 -0.4806
 7307TIP3    H121885   4.472   5.735   3.089  0.5689 -0.5211 -1.6077
 7307TIP3    H221886   4.495   5.590   3.124 -0.9749 -0.3831  0.1596
 7308TIP3   OH221887   7.083   1.579   1.043  0.2225  0.1518 -0.4844
 7308TIP3    H121888   7.106   1.581   1.136  1.3711 -0.6102 -0.7218
 7308TIP3    H221889   7.155   1.626   1.000  0.6725 -1.0603 -1.1272
 7309TIP3   OH221890   2.077   5.439   1.788 -0.1985  0.6951  0.0882
 7309TIP3    H121891   2.053   5.502   1.719  0.9592  0.8543 -0.1897
 7309TIP3    H221892   2.172   5.445   1.793 -0.2275  0.3211  1.3749
 7310TIP3   OH221893   3.283   5.193   1.755  0.1454  0.2990  0.1487
 7310TIP3    H121894   3.335   5.273   1.760 -0.3060  0.5709  0.5984
 7310TIP3    H221895   3.202   5.220   1.710  0.1059  0.0385  0.0626
 7311TIP3   OH221896   5.068   5.223   0.815  0.4049  0.5203  0.2788
 7311TIP3    H121897   4.999   5.158   0.807  2.3906 -1.7047  0.1945
 7311TIP3    H221898   5.053   5.264   0.901 -1.8331  1.2147 -0.3778
 7312TIP3   OH221899   5.539   0.189   5.356  0.0900 -0.0261 -0.8445
 7312TIP3    H121900   5.444   0.195   5.342 -0.1435 -0.3794  0.4304
 7312TIP3    H221901   5.576   0.193   5.268 -1.2665 -2.5062 -1.6623
 7313TIP3   OH221902   0.027   0.706   2.718 -0.1424  0.0001 -0.5063
 7313TIP3    H121903   0.105   0.698   2.774 -1.3554 -0.2716  1.2482
 7313TIP3    H221904   0.029   0.628   2.663 -0.4726 -1.3814  1.3287
 7314TIP3   OH221905   6.327   6.392   5.553 -0.0488  0.4501  0.5160
 7314TIP3    H121906   6.283   6.412   5.635 -0.5744  0.1535  0.3154
 7314TIP3    H221907   6.275   6.320   5.515 -0.2632  1.0726 -0.4155
 7315TIP3   OH221908   6.925   0.542   5.749 -0.3198  0.0567 -0.4188
 7315TIP3    H121909   6.922   0.447   5.734  0.4594 -0.0374 -0.0553
 7315TIP3    H221910   6.928   0.551   5.845  2.1505  0.3197 -0.4555
 7316TIP3   OH221911   0.166   3.328   3.951  0.3351 -0.3179 -0.1701
 7316TIP3    H121912   0.213   3.282   3.882 -0.3023  0.5704 -1.2315
 7316TIP3    H221913   0.169   3.269   4.026  0.2894 -1.6899 -1.2216
 7317TIP3   OH221914   5.392   5.684   5.076 -0.1024 -0.1621 -0.4162
 7317TIP3    H121915   5.384   5.708   4.984 -0.2746 -0.2053 -0.4136
 7317TIP3    H221916   5.452   5.610   5.077 -0.3128 -0.3373 -0.5232
 7318TIP3   OH221917   0.454   3.959   4.978 -0.1836  0.5738  0.1063
 7318TIP3    H121918   0.485   3.919   5.059 -0.5066  0.8716  0.3791
 7318TIP3    H221919   0.389   4.024   5.006  1.7120  2.7123 -0.1242
 7319TIP3   OH221920   0.357   6.227   4.634  0.0286 -0.5119 -0.5764
 7319TIP3    H121921   0.328   6.152   4.582  0.1167  0.4323 -2.0290
 7319TIP3    H221922   0.412   6.278   4.575  0.0024  0.6872  0.3988
 7320TIP3   OH221923   1.113   6.161   1.796  0.2216 -0.3665 -0.3041
 7320TIP3    H121924   1.142   6.070   1.800  1.1205 -0.1091 -0.6401
 7320TIP3    H221925   1.046   6.162   1.728  0.3816 -0.7396 -0.4693
 7321TIP3   OH221926   2.121   4.048   5.432  0.2571  0.2292  0.7015
 7321TIP3    H121927   2.057   4.119   5.438 -0.5159 -0.1335 -1.7618
 7321TIP3    H221928   2.140   4.024   5.522 -1.0658  2.1440  1.5483
 7322TIP3   OH221929   2.994   5.114   1.888  0.1536 -0.1944 -0.4255
 7322TIP3    H121930   3.028   5.150   1.806  0.7573 -0.7119 -0.4112
 7322TIP3    H221931   2.999   5.187   1.950  1.5461 -0.3223 -0.3429
 7323TIP3   OH221932   0.213   5.165   5.753 -0.5956 -0.0653  0.1506
 7323TIP3    H121933   0.123   5.168   5.785 -0.0221 -0.4970  1.9343
 7323TIP3    H221934   0.266   5.191   5.828  0.7912  0.0929 -0.8370
 7324TIP3   OH221935   6.407   3.027   2.823 -0.8378  0.1039 -0.5055
 7324TIP3    H121936   6.377   2.953   2.770 -1.2485 -0.7199  0.8287
 7324TIP3    H221937   6.442   2.987   2.903  1.1634  1.2198 -0.7485
 7325TIP3   OH221938   1.337   3.186   5.414 -0.7430 -0.1622 -0.6906
 7325TIP3    H121939   1.293   3.270   5.424 -0.6142 -0.3011  1.4439
 7325TIP3    H221940   1.409   3.204   5.353 -0.6222  1.3270 -0.1526
 7326TIP3   OH221941   3.378   5.884   1.997  0.2714 -0.2023  0.1229
 7326TIP3    H121942   3.291   5.883   2.037 -0.7294  0.4368 -1.9250
 7326TIP3    H221943   3.438   5.871   2.071 -1.4598  0.9362  1.8298
 7327TIP3   OH221944   2.247   0.198   3.483 -0.0847 -0.4222 -0.5582
 7327TIP3    H121945   2.340   0.210   3.467 -0.0700  0.2808  0.0076
 7327TIP3    H221946   2.207   0.282   3.458 -0.4351 -0.3707  0.1439
 7328TIP3   OH221947   2.639   6.510   1.051  0.7172 -0.1366  0.3631
 7328TIP3    H121948   2.591   6.484   1.130  0.7944  0.1847  0.5212
 7328TIP3    H221949   2.632   6.435   0.992  0.0070 -0.0878  0.3777
 7329TIP3   OH221950   6.963   4.724   2.235  0.9706  0.3807 -0.3340
 7329TIP3    H121951   6.923   4.700   2.151  2.2801 -0.5794 -0.7157
 7329TIP3    H221952   6.958   4.645   2.288  2.2411  0.2537 -0.3609
 7330TIP3   OH221953   5.937   0.047   3.434 -0.6019  0.7567  0.0069
 7330TIP3    H121954   5.862   0.051   3.494  0.0045 -0.9150  0.9833
 7330TIP3    H221955   5.937  -0.044   3.403 -0.5972  1.4551 -2.2002
 7331TIP3   OH221956   5.117   5.200   5.744 -0.2018  0.5614 -0.2153
 7331TIP3    H121957   5.108   5.173   5.653  0.7805 -0.2255 -0.1005
 7331TIP3    H221958   5.164   5.284   5.740  1.1663 -0.1911 -0.3933
 7332TIP3   OH221959   2.621   6.777   0.970  0.3412  0.1976  0.1465
 7332TIP3    H121960   2.619   6.685   0.994 -4.1380 -0.3313 -1.2989
 7332TIP3    H221961   2.668   6.779   0.887  0.8178 -0.6954  0.3802
 7333TIP3   OH221962   4.216   0.269   4.860 -0.3822 -0.2970 -0.4144
 7333TIP3    H121963   4.203   0.362   4.844  2.6513  0.0796 -1.3219
 7333TIP3    H221964   4.185   0.226   4.780  0.4863  0.1852 -1.0177
 7334TIP3   OH221965   2.335   1.291   3.230 -0.0980  0.6116  0.2331
 7334TIP3    H121966   2.297   1.220   3.177  2.5461 -1.4265  0.8572
 7334TIP3    H221967   2.261   1.349   3.249 -1.4589  0.9060 -4.6548
 7335TIP3   OH221968   2.443   0.340   0.379  0.4147  0.2908  0.2962
 7335TIP3    H121969   2.382   0.390   0.433 -0.2606  0.5086 -0.6511
 7335TIP3    H221970   2.409   0.250   0.382 -0.8596  0.6582 -1.4098
 7336TIP3   OH221971   5.505   5.062   1.859 -0.1155  0.4496 -0.3575
 7336TIP3    H121972   5.574   5.032   1.800  0.8683  0.2768  0.8594
 7336TIP3    H221973   5.458   4.983   1.884  0.3490  0.3328  0.1735
 7337TIP3   OH221974   4.367   6.144   4.424  0.1775 -0.1871  0.3242
 7337TIP3    H121975   4.458   6.161   4.398  0.3198 -0.4572  0.6449
 7337TIP3    H221976   4.367   6.053   4.453  0.1053  0.2407  1.6960
 7338TIP3   OH221977   3.616   4.728   1.729 -0.3487 -0.5130 -0.3027
 7338TIP3    H121978   3.648   4.679   1.805  2.4811 -1.2606 -1.8029
 7338TIP3    H221979   3.538   4.681   1.701 -0.8431 -0.8301  1.5081
 7339TIP3   OH221980   1.774   4.821   0.647  0.4013  0.0013  0.0491
 7339TIP3    H121981   1.799   4.865   0.566 -1.4544 -0.0710 -0.6130
 7339TIP3    H221982   1.706   4.759   0.621  0.9108 -1.1892  1.4259
 7340TIP3   OH221983   3.306   1.177   3.372 -0.0271 -0.0567 -0.3062
 7340TIP3    H121984   3.327   1.161   3.464  1.7705 -0.3399 -0.7176
 7340TIP3    H221985   3.391   1.198   3.332 -0.6871 -0.4651 -2.0017
 7341TIP3   OH221986   6.296   3.857   5.096  0.1001  0.2465  0.0197
 7341TIP3    H121987   6.377   3.905   5.117 -0.7278  1.8309 -0.2571
 7341TIP3    H221988   6.304   3.836   5.003  0.4281 -0.0993  0.1223
 7342TIP3   OH221989   6.056   5.360   5.820 -1.0297 -0.0491  0.1780
 7342TIP3    H121990   6.021   5.272   5.807 -0.1381 -0.5565  1.0651
 7342TIP3    H221991   6.145   5.356   5.784 -1.1084  0.5984 -0.1079
 7343TIP3   OH221992   3.183   6.529   4.748  0.0626 -0.5127 -0.7047
 7343TIP3    H121993   3.136   6.522   4.831 -1.0526  0.2653 -1.2372
 7343TIP3    H221994   3.272   6.555   4.772 -0.0161 -1.1382  0.2828
 7344TIP3   OH221995   5.727   2.713   3.901  0.3895  0.1207  0.0566
 7344TIP3    H121996   5.667   2.708   3.827 -1.6118 -1.3104  1.6825
 7344TIP3    H221997   5.776   2.631   3.897 -1.1000 -0.8932  1.3470
 7345TIP3   OH221998   4.309   5.110   5.430  0.0465 -0.0181  0.4759
 7345TIP3    H121999   4.356   5.036   5.469  1.3669  0.4134 -0.2262
 7345TIP3    H222000   4.229   5.118   5.482  0.6050 -0.9642  1.5252
 7346TIP3   OH222001   1.508   4.672   0.629  0.9354 -0.3622 -0.4966
 7346TIP3    H122002   1.425   4.632   0.652  1.5000 -1.2732  0.0326
 7346TIP3    H222003   1.554   4.605   0.579  0.9123  0.5416 -1.7806
 7347TIP3   OH222004   6.010   1.093   2.757 -1.3744  0.1519 -0.4100
 7347TIP3    H122005   5.926   1.063   2.793 -0.3908 -0.5459  1.4676
 7347TIP3    H222006   6.072   1.024   2.781  0.0490  1.4256 -0.2602
 7348TIP3   OH222007   2.631   1.600   0.474  0.2720 -0.0019  0.3630
 7348TIP3    H122008   2.605   1.680   0.518 -0.0952 -0.5256  1.1212
 7348TIP3    H222009   2.719   1.582   0.506  0.2233 -0.0836  0.4504
 7349TIP3   OH222010   1.028   4.355   0.423 -0.1058 -0.0897  0.6878
 7349TIP3    H122011   1.039   4.416   0.496 -0.8827  0.3417  0.4604
 7349TIP3    H222012   1.032   4.268   0.464  1.5782  0.0667  0.9302
 7350TIP3   OH222013   3.176   1.765   5.349  0.9024 -0.3555 -0.2421
 7350TIP3    H122014   3.178   1.858   5.371 -0.3269 -0.7978  2.0618
 7350TIP3    H222015   3.158   1.764   5.255  2.2900  1.7004 -0.6109
 7351TIP3   OH222016   3.526   4.368   3.402  0.0861  0.1757  0.0157
 7351TIP3    H122017   3.612   4.410   3.397 -0.4004  1.0681 -2.7894
 7351TIP3    H222018   3.480   4.415   3.472  1.3699  0.6303  0.5832
 7352TIP3   OH222019   0.794   1.917   4.761 -0.0319 -0.1465 -0.0447
 7352TIP3    H122020   0.823   1.826   4.759  1.0902  0.1981 -0.0980
 7352TIP3    H222021   0.873   1.968   4.743 -0.9843  0.7785 -1.9462
 7353TIP3   OH222022   3.768   4.876   2.413  0.1453  0.1702 -0.0428
 7353TIP3    H122023   3.819   4.915   2.485  0.5455 -0.6041  0.1033
 7353TIP3    H222024   3.773   4.940   2.343  1.5504  0.0102 -0.1187
 7354TIP3   OH222025   4.837   1.148   0.845  0.1770  0.0366 -0.2218
 7354TIP3    H122026   4.821   1.204   0.769  3.4677  1.1391 -0.2488
 7354TIP3    H222027   4.751   1.111   0.865 -1.3445  1.8033 -2.7843
 7355TIP3   OH222028   6.385   3.466   3.953 -0.2482  0.2999 -0.0567
 7355TIP3    H122029   6.406   3.527   3.882 -0.6165  1.0100  0.4271
 7355TIP3    H222030   6.306   3.421   3.924  0.1554 -0.1134 -0.5164
 7356TIP3   OH222031   6.254   3.323   0.279  0.3786  0.0013  0.2629
 7356TIP3    H122032   6.176   3.364   0.318  1.3519  1.0197  1.2078
 7356TIP3    H222033   6.278   3.381   0.207  0.2380 -0.3504 -0.0710
 7357TIP3   OH222034   5.255   4.190   1.137  0.3002  0.0992  0.2542
 7357TIP3    H122035   5.240   4.152   1.050 -0.7135  0.6292  0.1787
 7357TIP3    H222036   5.173   4.174   1.185  0.9892 -0.5235  1.2454
 7358TIP3   OH222037   0.422   1.504   2.797  0.2220 -0.4509 -0.1557
 7358TIP3    H122038   0.479   1.523   2.723 -0.0904 -0.6736 -0.4557
 7358TIP3    H222039   0.442   1.572   2.861  0.9058 -0.5970 -0.2092
 7359TIP3   OH222040   2.900   2.822   1.766 -0.1006  0.6476  0.5481
 7359TIP3    H122041   2.922   2.739   1.808 -2.1387 -0.0567  0.3558
 7359TIP3    H222042   2.847   2.868   1.830  1.1323  1.8918  0.7038
 7360TIP3   OH222043   0.453   3.121   4.984 -0.4837 -0.7295 -0.1717
 7360TIP3    H122044   0.380   3.062   4.964 -0.8104 -0.1391 -0.7840
 7360TIP3    H222045   0.502   3.077   5.053 -0.6857 -1.7502 -0.6599
 7361TIP3   OH222046   3.429   5.559   2.338  0.2206 -0.2973  0.3111
 7361TIP3    H122047   3.510   5.514   2.312 -0.5128 -1.0484 -0.7782
 7361TIP3    H222048   3.379   5.491   2.383 -0.3653 -0.2323 -0.2302
 7362TIP3   OH222049   4.147   4.578   4.617  0.2554 -0.2826  0.0598
 7362TIP3    H122050   4.237   4.569   4.650  0.3551  0.7342  0.0851
 7362TIP3    H222051   4.095   4.599   4.694 -0.1097 -1.3765  0.1326
 7363TIP3   OH222052   5.235   3.225   0.962 -0.0968 -0.1565  0.8932
 7363TIP3    H122053   5.166   3.273   1.006 -0.7795  0.4248 -0.7545
 7363TIP3    H222054   5.296   3.292   0.931 -0.5124 -0.4037 -0.5113
 7364TIP3   OH222055   6.302   2.142   4.994  0.1093 -0.0389  0.0871
 7364TIP3    H122056   6.253   2.205   5.047 -0.9355 -1.1159  0.4411
 7364TIP3    H222057   6.299   2.178   4.905 -0.8023  0.2334  0.2178
 7365TIP3   OH222058   5.476   2.831   4.022  0.0427  0.6373 -0.0788
 7365TIP3    H122059   5.415   2.765   3.989 -0.1853  1.2139 -0.8385
 7365TIP3    H222060   5.560   2.786   4.026 -0.8345 -1.1054  3.8050
 7366TIP3   OH222061   1.402   2.405   1.327  0.0234  0.5124 -0.1893
 7366TIP3    H122062   1.391   2.333   1.390 -0.7795  0.2424 -0.6208
 7366TIP3    H222063   1.334   2.389   1.261  0.4313  1.1606 -0.7752
 7367TIP3   OH222064   6.210   2.187   2.355 -0.1152  0.2710  0.3693
 7367TIP3    H122065   6.156   2.257   2.318  0.1702  0.4301  0.2476
 7367TIP3    H222066   6.178   2.177   2.445 -0.0357  0.6819  0.4463
 7368TIP3   OH222067   6.914   2.826   2.288  0.4196  0.5381 -0.2767
 7368TIP3    H122068   6.962   2.744   2.300 -1.5591 -0.7105 -0.4421
 7368TIP3    H222069   6.880   2.821   2.199 -0.8657  0.8822  0.1748
 7369TIP3   OH222070   5.283   3.092   2.514 -0.2604 -0.0116  0.1521
 7369TIP3    H122071   5.231   3.151   2.568  0.4060  1.2825 -0.5771
 7369TIP3    H222072   5.327   3.034   2.577 -0.2158  0.8607  0.9454
 7370TIP3   OH222073   4.847   1.242   1.454 -0.0434  0.4700  0.2851
 7370TIP3    H122074   4.832   1.200   1.369  1.0791 -0.0458  0.3174
 7370TIP3    H222075   4.865   1.333   1.433  1.5939  0.0776 -0.1921
 7371TIP3   OH222076   6.271   5.778   2.067  0.2696  0.6142 -0.0797
 7371TIP3    H122077   6.200   5.782   2.002 -0.8372 -1.0075  0.9611
 7371TIP3    H222078   6.346   5.746   2.018 -0.4033 -0.0704 -0.6973
 7372TIP3   OH222079   7.090   1.405   3.578  0.5352  0.0896  0.3651
 7372TIP3    H122080   7.160   1.340   3.568  1.1997  0.7914  0.3959
 7372TIP3    H222081   7.012   1.361   3.543  1.2957 -0.1737 -1.0729
 7373TIP3   OH222082   4.946   5.360   5.286  0.4210 -0.0029 -0.2172
 7373TIP3    H122083   5.023   5.387   5.236 -0.5572  0.0057 -1.7544
 7373TIP3    H222084   4.915   5.281   5.241  1.0009 -1.5684  1.9185
 7374TIP3   OH222085   5.171   1.392   1.569 -0.1427 -0.7875  0.6845
 7374TIP3    H122086   5.099   1.434   1.617 -0.1984  0.5449 -0.4909
 7374TIP3    H222087   5.143   1.301   1.559 -1.2000 -0.5258  1.1184
 7375TIP3   OH222088   6.523   1.411   0.589 -0.0233  0.0211  0.2652
 7375TIP3    H122089   6.555   1.458   0.666 -2.2725  1.3724  0.4801
 7375TIP3    H222090   6.432   1.391   0.610 -0.3384 -0.6469 -1.5764
 7376TIP3   OH222091   6.481   3.750   5.427 -0.5504 -0.6299  0.5195
 7376TIP3    H122092   6.427   3.714   5.498  2.1581 -1.1597  2.4846
 7376TIP3    H222093   6.504   3.675   5.373  0.6584 -0.9981  1.4876
 7377TIP3   OH222094   0.147   5.813   2.266 -0.1717 -0.5236 -0.3517
 7377TIP3    H122095   0.224   5.802   2.321 -0.8925 -4.1839  0.1534
 7377TIP3    H222096   0.116   5.724   2.249 -4.8868  0.6927  0.3398
 7378TIP3   OH222097   3.988   2.878   0.118  0.2145  0.2087  0.3906
 7378TIP3    H122098   4.064   2.912   0.167  1.0751  1.1238 -1.4885
 7378TIP3    H222099   3.979   2.938   0.044 -0.7104 -1.4338 -0.8855
 7379TIP3   OH222100   6.473   4.976   3.993  0.4230  0.3217 -0.0536
 7379TIP3    H122101   6.390   5.022   3.976  0.5306  0.1913 -0.9499
 7379TIP3    H222102   6.473   4.962   4.088 -0.2938  0.8712  0.0392
 7380TIP3   OH222103   2.166   2.112   4.232 -0.6757  0.5843 -0.3928
 7380TIP3    H122104   2.121   2.028   4.246 -0.5718  0.6750  0.5202
 7380TIP3    H222105   2.107   2.161   4.175 -0.1213 -0.6052 -2.0822
 7381TIP3   OH222106   3.741   6.180   4.929  0.1204 -0.7608 -0.9640
 7381TIP3    H122107   3.765   6.270   4.950  0.6625 -0.9849 -0.5919
 7381TIP3    H222108   3.823   6.131   4.938  0.0500 -1.1215 -2.1557
 7382TIP3   OH222109   2.719   0.898   5.354 -0.1310  0.5835 -0.2689
 7382TIP3    H122110   2.742   0.858   5.270  1.3426 -1.7075  1.1170
 7382TIP3    H222111   2.758   0.985   5.350  0.3548  0.3306 -1.7565
 7383TIP3   OH222112   1.793   4.357   2.916 -0.3615  0.1966  0.4974
 7383TIP3    H122113   1.698   4.357   2.912 -0.3236 -0.4384 -0.6890
 7383TIP3    H222114   1.821   4.325   2.830  0.8838 -1.8399  1.5730
 7384TIP3   OH222115   3.402   5.000   2.793  0.4613 -0.4567  0.2077
 7384TIP3    H122116   3.353   5.060   2.849 -1.5349 -0.6629 -1.2219
 7384TIP3    H222117   3.488   4.992   2.836 -0.7231 -0.1141  2.8419
 7385TIP3   OH222118   1.650   5.570   1.495 -0.0239 -0.3293  0.0974
 7385TIP3    H122119   1.595   5.527   1.560  1.2578 -0.0322  1.4288
 7385TIP3    H222120   1.655   5.661   1.524 -1.3790  0.4177 -1.7870
 7386TIP3   OH222121   0.286   5.906   0.094  0.1172  0.5088  0.3170
 7386TIP3    H122122   0.231   5.973   0.054  1.0120  0.7470 -0.5883
 7386TIP3    H222123   0.271   5.828   0.041 -0.5979  0.1121  1.1010
 7387TIP3   OH222124   3.643   4.865   2.033  0.5838 -0.2510  0.4408
 7387TIP3    H122125   3.657   4.785   1.983  0.4212  0.0546 -0.1034
 7387TIP3    H222126   3.547   4.872   2.042  0.6264 -0.6513  1.3804
 7388TIP3   OH222127   2.267   5.746   5.655 -0.0377  0.0016  0.6654
 7388TIP3    H122128   2.287   5.726   5.563  0.7087  0.6022  0.6852
 7388TIP3    H222129   2.253   5.660   5.695  2.3946 -0.5033  0.5859
 7389TIP3   OH222130   3.127   0.169   5.741 -0.5369  0.0932  0.4882
 7389TIP3    H122131   3.050   0.195   5.690 -0.1033 -0.1565 -0.3026
 7389TIP3    H222132   3.100   0.090   5.788  0.1735 -1.8961 -2.2365
 7390TIP3   OH222133   6.057   6.577   4.589  0.2554  0.0437  0.9775
 7390TIP3    H122134   6.019   6.662   4.611 -1.2672 -0.5204  0.6286
 7390TIP3    H222135   6.060   6.576   4.493 -1.1900 -0.8743  0.9124
 7391TIP3   OH222136   6.410   6.115   1.183 -0.8041  0.3375 -0.1899
 7391TIP3    H122137   6.406   6.184   1.116 -0.3465 -0.1493 -0.7327
 7391TIP3    H222138   6.382   6.158   1.263 -2.7231  0.6065 -0.9510
 7392TIP3   OH222139   4.514   1.347   2.224  0.5790 -0.6527  0.1839
 7392TIP3    H122140   4.460   1.327   2.147 -0.1891  1.9148 -0.0248
 7392TIP3    H222141   4.455   1.334   2.299  0.2926  0.0947  0.0952
 7393TIP3   OH222142   4.036   3.256   4.908 -0.4739 -0.8032 -0.3106
 7393TIP3    H122143   3.955   3.270   4.956 -1.0094 -1.0416 -1.1177
 7393TIP3    H222144   4.069   3.172   4.941 -0.9798 -1.1017 -0.5411
 7394TIP3   OH222145   1.600   3.287   0.080 -0.0115  0.3758 -0.3946
 7394TIP3    H122146   1.677   3.280   0.135 -0.4549 -2.0532  0.0464
 7394TIP3    H222147   1.599   3.378   0.050  0.5684  1.6688  3.1001
 7395TIP3   OH222148   0.883   2.770   5.385 -0.1765  0.4289  0.0603
 7395TIP3    H122149   0.976   2.789   5.373  0.2112  0.4589  2.5843
 7395TIP3    H222150   0.875   2.676   5.366  0.0916  0.6890 -1.4161
 7396TIP3   OH222151   5.456   0.823   2.594  0.4726  0.3843 -0.1572
 7396TIP3    H122152   5.424   0.800   2.681 -1.0288 -1.6072 -1.1673
 7396TIP3    H222153   5.518   0.753   2.571 -0.0395  0.2343 -1.1402
 7397TIP3   OH222154   1.698   3.264   5.023  0.1355 -0.0532 -0.0142
 7397TIP3    H122155   1.749   3.345   5.033 -0.3953  0.3469 -0.4900
 7397TIP3    H222156   1.687   3.254   4.929 -0.4695 -0.2559  0.0764
 7398TIP3   OH222157   3.749   5.631   0.202 -0.1353 -0.2979 -0.2480
 7398TIP3    H122158   3.825   5.678   0.170 -0.8826  0.4961 -0.9004
 7398TIP3    H222159   3.711   5.590   0.124  0.2670 -1.6511  0.2428
 7399TIP3   OH222160   1.743   2.998   5.464  0.1342  0.5222 -0.5463
 7399TIP3    H122161   1.713   3.071   5.519 -0.0267 -0.1275  0.2445
 7399TIP3    H222162   1.832   3.023   5.438  0.3406  0.6937  0.2867
 7400TIP3   OH222163   4.672   4.486   3.357  0.4363  0.0712  0.3440
 7400TIP3    H122164   4.727   4.452   3.427 -0.3757 -0.6480  0.6622
 7400TIP3    H222165   4.705   4.574   3.340  2.6567 -0.8615 -0.5415
 7401TIP3   OH222166   2.025   1.365   2.615 -0.6689  0.1599  0.3713
 7401TIP3    H122167   2.003   1.385   2.706 -0.1212 -1.9017  1.0280
 7401TIP3    H222168   2.105   1.414   2.598  0.4510 -1.0916  1.7768
 7402TIP3   OH222169   5.210   3.698   2.953  0.9670 -0.2519  0.6580
 7402TIP3    H122170   5.276   3.764   2.971  1.2130 -0.8408  2.0352
 7402TIP3    H222171   5.243   3.619   2.995  0.1159 -0.9586  0.0484
 7403TIP3   OH222172   3.119   4.890   0.041  0.1703 -0.0536  0.1642
 7403TIP3    H122173   3.047   4.941   0.078 -0.4309 -1.3007  0.7799
 7403TIP3    H222174   3.164   4.853   0.116 -0.4870 -1.8411 -0.2660
 7404TIP3   OH222175   0.389   5.417   3.083  0.2288  0.2417  0.3926
 7404TIP3    H122176   0.309   5.468   3.100  1.3149  2.0954  0.2434
 7404TIP3    H222177   0.384   5.344   3.144 -1.1738  0.7901  0.9876
 7405TIP3   OH222178   0.827   1.385   4.176  0.7221  0.3274  0.2318
 7405TIP3    H122179   0.866   1.329   4.109 -1.1242  0.9587 -1.5005
 7405TIP3    H222180   0.883   1.374   4.252  1.8748 -1.8733 -0.8236
 7406TIP3   OH222181   5.649   0.245   5.855  0.3427 -0.5765  0.7196
 7406TIP3    H122182   5.689   0.173   5.904 -0.4871 -0.4732  1.5926
 7406TIP3    H222183   5.619   0.204   5.774  2.2334 -0.6291  0.0198
 7407TIP3   OH222184   6.658   5.377   2.391 -0.7506 -0.7307  0.3780
 7407TIP3    H122185   6.717   5.333   2.452 -0.5839 -1.0093  0.0250
 7407TIP3    H222186   6.583   5.317   2.383 -1.6851  0.2036  1.7951
 7408TIP3   OH222187   4.149   5.391   0.391 -0.8384 -0.0850 -0.3258
 7408TIP3    H122188   4.227   5.351   0.353 -0.9883 -2.0740  1.2560
 7408TIP3    H222189   4.163   5.485   0.382  1.1028 -0.4122 -1.2898
 7409TIP3   OH222190   1.995   4.688   2.639  0.0228 -0.6324 -0.6782
 7409TIP3    H122191   1.985   4.703   2.733  1.1084  0.0030 -0.6522
 7409TIP3    H222192   2.054   4.614   2.632  1.2896  0.3545 -0.8404
 7410TIP3   OH222193   3.430   1.465   5.190  0.1776  0.4172  0.6092
 7410TIP3    H122194   3.405   1.414   5.113  2.4462  1.6706 -1.0536
 7410TIP3    H222195   3.374   1.542   5.187  2.3285  2.0196 -1.6990
 7411TIP3   OH222196   6.266   2.284   1.037 -0.1096  0.3885 -1.2318
 7411TIP3    H122197   6.271   2.217   0.969 -2.6446 -0.6395 -0.5559
 7411TIP3    H222198   6.223   2.239   1.110 -0.5386  2.3684 -0.2038
 7412TIP3   OH222199   3.132   0.728   3.488  0.3741  0.1774 -0.2393
 7412TIP3    H122200   3.203   0.793   3.484  0.5018  0.0339 -0.3295
 7412TIP3    H222201   3.091   0.742   3.573  0.9612 -0.2085  0.1180
 7413TIP3   OH222202   0.317   1.755   4.803 -0.1839  0.6167  0.2015
 7413TIP3    H122203   0.340   1.754   4.896  0.4858  0.2277  0.0417
 7413TIP3    H222204   0.297   1.846   4.785 -0.8162  0.6152  0.8410
 7414TIP3   OH222205   1.519   4.150   3.176 -0.2253  0.7507 -0.2420
 7414TIP3    H122206   1.437   4.146   3.127 -0.0379  1.5626 -0.6377
 7414TIP3    H222207   1.578   4.201   3.120 -0.4119  2.8577  1.3745
 7415TIP3   OH222208   1.340   1.064   1.711 -0.2392 -0.0586  0.0611
 7415TIP3    H122209   1.249   1.044   1.688 -0.5415  0.3537  0.8633
 7415TIP3    H222210   1.345   1.159   1.708 -0.2731  0.0100  1.5758
 7416TIP3   OH222211   3.637   3.310   5.867 -0.2705  0.1485  0.1613
 7416TIP3    H122212   3.668   3.268   5.787 -0.8655 -0.0423  0.0232
 7416TIP3    H222213   3.708   3.369   5.893  0.2464 -0.3511 -0.0835
 7417TIP3   OH222214   5.472   4.883   2.743  0.7550 -0.8165 -0.2553
 7417TIP3    H122215   5.548   4.915   2.791  0.1489  0.1899  0.0620
 7417TIP3    H222216   5.489   4.905   2.652  0.6693 -0.2319 -0.1323
 7418TIP3   OH222217   1.766   5.537   0.949 -0.3499 -0.1842 -0.0790
 7418TIP3    H122218   1.857   5.516   0.927  0.0203  0.0754  1.1053
 7418TIP3    H222219   1.733   5.457   0.990 -0.7890 -0.4125 -0.8677
 7419TIP3   OH222220   1.263   3.107   3.820 -0.4991  0.1927 -0.3352
 7419TIP3    H122221   1.338   3.066   3.776  0.7954  1.2218  0.7972
 7419TIP3    H222222   1.263   3.069   3.907 -0.5118  1.1046  0.0744
 7420TIP3   OH222223   4.165   0.858   3.192  0.0121 -0.8516 -0.5704
 7420TIP3    H122224   4.084   0.887   3.232  0.4443 -0.8368  0.3119
 7420TIP3    H222225   4.144   0.772   3.155  0.1351 -1.8666  1.5612
 7421TIP3   OH222226   4.190   2.308   5.419 -0.0462  0.2513  0.0480
 7421TIP3    H122227   4.224   2.248   5.486  0.4113 -0.8454 -1.1027
 7421TIP3    H222228   4.162   2.250   5.348 -3.4906  1.1559  0.5008
 7422TIP3   OH222229   1.734   0.873   3.001  0.7389 -0.3929 -0.6193
 7422TIP3    H122230   1.645   0.850   2.975  0.1473 -0.1440  1.0385
 7422TIP3    H222231   1.758   0.806   3.065  0.5373  1.2162  1.2382
 7423TIP3   OH222232   2.572   3.003   4.834  0.6663  0.1221  0.1626
 7423TIP3    H122233   2.622   3.064   4.888 -0.9204 -0.3053  2.2809
 7423TIP3    H222234   2.624   2.923   4.832  1.2175  0.4776  0.1862
 7424TIP3   OH222235   2.357   0.059   0.926  0.2715 -0.2111  0.6907
 7424TIP3    H122236   2.419   0.028   0.860  0.0559 -0.8594  0.7818
 7424TIP3    H222237   2.409   0.063   1.007  0.4248  0.1639  0.5793
 7425TIP3   OH222238   2.462   2.040   0.845  0.1750 -0.9757  0.2537
 7425TIP3    H122239   2.543   2.050   0.794 -0.9051  2.9235 -1.0828
 7425TIP3    H222240   2.455   2.122   0.893 -2.9407 -1.2052  0.3702
 7426TIP3   OH222241   1.931   1.142   4.925 -0.0735 -0.3080  0.4873
 7426TIP3    H122242   1.978   1.060   4.938  1.1433  0.3567  0.4250
 7426TIP3    H222243   1.999   1.206   4.907 -1.0852  0.4965 -0.6464
 7427TIP3   OH222244   6.184   3.984   0.950  0.4597  0.7405 -0.2659
 7427TIP3    H122245   6.219   4.020   1.032 -1.5601 -0.3777  1.1579
 7427TIP3    H222246   6.141   4.059   0.908 -0.6776  0.8237  0.9710
 7428TIP3   OH222247   2.634   0.967   1.681 -0.0977 -0.7021 -0.4019
 7428TIP3    H122248   2.580   0.972   1.602  0.0287 -0.6569 -0.4843
 7428TIP3    H222249   2.584   0.911   1.740 -0.0475 -0.9854 -0.6261
 7429TIP3   OH222250   6.360   1.528   1.671 -0.4095  0.1813  0.4399
 7429TIP3    H122251   6.280   1.486   1.703 -1.2833  1.7054  0.3897
 7429TIP3    H222252   6.359   1.514   1.577 -0.3487 -0.2423  0.5032
 7430TIP3   OH222253   1.504   6.805   1.801 -0.2578  0.5320 -0.2032
 7430TIP3    H122254   1.458   6.835   1.722  0.4477  0.7288 -0.5516
 7430TIP3    H222255   1.482   6.712   1.807 -2.8480  1.1338  1.1527
 7431TIP3   OH222256   3.596   6.130   0.793  0.5794  0.5920 -0.3073
 7431TIP3    H122257   3.543   6.053   0.813 -2.3053  2.8359  1.5795
 7431TIP3    H222258   3.662   6.131   0.862 -0.3738  0.6173  0.6367
 7432TIP3   OH222259   1.388   0.605   4.244 -0.3094  0.3806  0.2126
 7432TIP3    H122260   1.400   0.699   4.255 -1.6812  0.5746  0.1463
 7432TIP3    H222261   1.295   0.594   4.226 -0.6067 -1.1995  2.3475
 7433TIP3   OH222262   3.294   0.350   3.189  0.2797  0.2364  0.0713
 7433TIP3    H122263   3.201   0.328   3.197  1.0497 -3.8627 -0.2106
 7433TIP3    H222264   3.313   0.401   3.268 -2.0217  0.5346  0.5130
 7434TIP3   OH222265   4.076   0.725   1.925 -0.0102 -0.1744 -0.7063
 7434TIP3    H122266   4.164   0.693   1.947 -0.3216 -0.4642  0.1639
 7434TIP3    H222267   4.091   0.814   1.894  0.6018 -0.2466 -0.6441
 7435TIP3   OH222268   4.058   2.807   5.196  0.2994  0.7438 -0.0511
 7435TIP3    H122269   4.059   2.843   5.284 -1.5262  1.4709 -0.2732
 7435TIP3    H222270   4.099   2.721   5.204 -0.0691  0.6854  1.5545
 7436TIP3   OH222271   2.585   4.427   1.262 -0.3757 -0.6434 -0.0044
 7436TIP3    H122272   2.522   4.413   1.191  0.2997 -0.4604 -0.6477
 7436TIP3    H222273   2.589   4.343   1.307 -0.1469 -1.0227 -0.7250
 7437TIP3   OH222274   2.996   5.133   5.526 -0.1530  0.4371  0.4550
 7437TIP3    H122275   3.037   5.176   5.452  0.7782  0.0754  0.7460
 7437TIP3    H222276   3.064   5.131   5.594 -0.8443  0.3674  1.1563
 7438TIP3   OH222277   1.782   3.650   4.069  0.7459  0.2485  0.5943
 7438TIP3    H122278   1.766   3.744   4.064  0.5343  0.1988  0.2321
 7438TIP3    H222279   1.841   3.632   3.996  0.9291  0.1295  0.7719
 7439TIP3   OH222280   0.848   6.251   0.834 -0.5216 -0.1915 -0.5836
 7439TIP3    H122281   0.831   6.157   0.837 -0.0799 -0.2564  0.3968
 7439TIP3    H222282   0.778   6.291   0.885  0.3041 -0.1708  0.5864
 7440TIP3   OH222283   5.253   2.490   3.029  0.7719  0.3404  0.0691
 7440TIP3    H122284   5.169   2.529   3.006  0.0973 -0.5756  0.9256
 7440TIP3    H222285   5.303   2.492   2.947 -0.4042  0.0878 -0.6746
 7441TIP3   OH222286   1.868   1.832   1.564 -0.5004 -0.4495  0.5505
 7441TIP3    H122287   1.893   1.915   1.606  2.9193 -1.9832  1.8955
 7441TIP3    H222288   1.888   1.846   1.471 -1.5144  0.7129  0.4746
 7442TIP3   OH222289   3.231   1.013   1.084  0.0320 -0.6705 -0.3423
 7442TIP3    H122290   3.289   0.990   1.157  0.4889  0.0929 -0.4506
 7442TIP3    H222291   3.181   1.088   1.115  0.4239 -0.1718 -0.9051
 7443TIP3   OH222292   1.511   2.698   0.620 -0.3536  0.0960 -0.1663
 7443TIP3    H122293   1.477   2.620   0.575 -0.2155 -0.7050  1.0710
 7443TIP3    H222294   1.605   2.695   0.604 -0.2601 -0.3750  0.4236
 7444TIP3   OH222295   3.360   1.214   4.873 -0.2128  0.4005  0.0670
 7444TIP3    H122296   3.437   1.204   4.929  1.1974 -1.4155 -2.0216
 7444TIP3    H222297   3.286   1.193   4.930  1.0078  0.1224  1.6253
 7445TIP3   OH222298   2.356   0.549   5.117 -0.1030  0.3314  0.5334
 7445TIP3    H122299   2.371   0.607   5.192  0.7329 -0.0803  0.6935
 7445TIP3    H222300   2.440   0.546   5.072 -0.3230 -0.2468  0.1578
 7446TIP3   OH222301   2.406   3.922   5.071 -0.1267  0.0769  0.2026
 7446TIP3    H122302   2.433   4.000   5.024 -1.3575  0.5331  0.2324
 7446TIP3    H222303   2.426   3.942   5.163  0.6830 -0.1419  0.0865
 7447TIP3   OH222304   0.729   2.282   2.697 -0.0493  0.2639  0.2140
 7447TIP3    H122305   0.757   2.196   2.728 -0.6842 -0.1110 -0.2265
 7447TIP3    H222306   0.793   2.305   2.631 -0.6791 -0.5297 -0.6974
 7448TIP3   OH222307   0.540   4.040   5.568  0.0808 -0.2929  0.0014
 7448TIP3    H122308   0.536   3.955   5.611 -0.5350 -0.2273  0.0779
 7448TIP3    H222309   0.614   4.032   5.507 -0.2801 -1.0541 -0.3554
 7449TIP3   OH222310   5.962   3.981   0.083  0.5313 -0.0581 -0.2257
 7449TIP3    H122311   6.022   4.018   0.019  1.5900  1.5288  1.5708
 7449TIP3    H222312   6.016   3.965   0.160 -0.9641 -0.5069  0.7861
 7450TIP3   OH222313   2.970   1.169   3.047 -0.4745 -0.0102  0.1083
 7450TIP3    H122314   3.016   1.137   2.970 -1.9114  0.5088 -0.9998
 7450TIP3    H222315   2.985   1.263   3.047  0.1545 -0.0956  0.9231
 7451TIP3   OH222316   6.599   2.708   5.410  0.4325 -0.3711 -0.1215
 7451TIP3    H122317   6.516   2.681   5.450 -0.7333  0.2829 -1.9809
 7451TIP3    H222318   6.637   2.769   5.474 -0.4482 -0.7859  0.8281
 7452TIP3   OH222319   0.734   4.777   3.127  0.1108  0.2407  0.3382
 7452TIP3    H122320   0.790   4.699   3.128 -2.5467 -1.8213  0.0445
 7452TIP3    H222321   0.672   4.764   3.199 -0.6216  1.9342  0.0731
 7453TIP3   OH222322   0.094   5.739   4.007 -0.2026 -0.4944  0.5010
 7453TIP3    H122323   0.153   5.700   4.072 -1.4470 -0.4759  1.6821
 7453TIP3    H222324   0.025   5.781   4.059 -1.9290 -1.5430 -0.8141
 7454TIP3   OH222325   6.745   5.097   4.095 -0.1962 -0.2447  0.1486
 7454TIP3    H122326   6.694   5.155   4.152  0.1093  1.0195 -0.8286
 7454TIP3    H222327   6.733   5.010   4.134 -1.1943  0.3565  1.2797
 7455TIP3   OH222328   1.253   1.902   2.409 -0.0868 -0.2157 -0.1716
 7455TIP3    H122329   1.318   1.967   2.434 -0.6147  0.7328 -1.1966
 7455TIP3    H222330   1.262   1.833   2.474  1.0538  0.4957  0.4526
 7456TIP3   OH222331   1.276   4.913   1.649  0.3200  0.3048  0.2258
 7456TIP3    H122332   1.310   4.829   1.621 -2.2127 -0.6226 -0.3118
 7456TIP3    H222333   1.182   4.900   1.655 -0.0271  2.7751  1.3220
 7457TIP3   OH222334   0.377   4.064   3.983  0.2068 -0.0282 -0.4416
 7457TIP3    H122335   0.454   4.101   4.025 -0.4317  1.2469 -0.3250
 7457TIP3    H222336   0.304   4.088   4.041 -0.3347 -0.8157 -0.7721
 7458TIP3   OH222337   2.013   1.288   1.464 -0.9210  0.1254  0.3825
 7458TIP3    H122338   1.954   1.333   1.525 -0.4925  0.6890  0.3947
 7458TIP3    H222339   2.005   1.338   1.382 -1.7662 -0.8384 -0.1575
 7459TIP3   OH222340   3.562   6.539   2.882 -0.1335 -0.1213  0.3053
 7459TIP3    H122341   3.495   6.560   2.948 -0.3660  0.8505 -0.2150
 7459TIP3    H222342   3.593   6.625   2.852  0.9013 -0.5660  0.0881
 7460TIP3   OH222343   5.911   2.144   2.611 -0.3874  0.2125  0.0172
 7460TIP3    H122344   5.991   2.094   2.627 -0.9896 -1.2853 -1.4232
 7460TIP3    H222345   5.846   2.106   2.671 -0.4337  0.3654  0.0645
 7461TIP3   OH222346   1.193   0.325   2.800 -0.0403  0.1422 -0.3529
 7461TIP3    H122347   1.283   0.308   2.771  0.2358 -0.1042  0.6344
 7461TIP3    H222348   1.142   0.252   2.764  0.0786  0.4640 -1.2098
 7462TIP3   OH222349   0.624   6.321   1.032  0.2900  0.2976 -0.1675
 7462TIP3    H122350   0.659   6.234   1.053  1.8557  0.8050 -0.6152
 7462TIP3    H222351   0.646   6.375   1.108  1.4845  0.8864 -0.9100
 7463TIP3   OH222352   5.698   5.953   0.987 -0.0471 -0.1211 -0.2364
 7463TIP3    H122353   5.716   6.006   0.909 -2.3619  0.7836 -0.2130
 7463TIP3    H222354   5.658   5.873   0.953 -0.7975  0.1523 -0.0036
 7464TIP3   OH222355   4.456   3.566   4.952 -0.0418 -0.0286  0.1761
 7464TIP3    H122356   4.419   3.642   4.997 -0.5294 -0.1752  0.0211
 7464TIP3    H222357   4.500   3.517   5.022  0.5263  0.5401  0.2292
 7465TIP3   OH222358   3.176   5.758   5.721 -0.1533 -0.2073 -0.1199
 7465TIP3    H122359   3.222   5.732   5.641 -0.6300 -0.8784 -0.1871
 7465TIP3    H222360   3.097   5.803   5.689 -0.3233 -0.4387 -0.0300
 7466TIP3   OH222361   0.530   5.281   4.841 -0.2582  0.2827 -0.1553
 7466TIP3    H122362   0.484   5.281   4.756 -0.6024  0.0837  0.0264
 7466TIP3    H222363   0.607   5.226   4.827 -0.9313 -0.7232 -0.0213
 7467TIP3   OH222364   5.815   6.477   1.160  0.2300  0.2307 -0.2227
 7467TIP3    H122365   5.769   6.428   1.091 -2.2387  1.0164  0.7611
 7467TIP3    H222366   5.776   6.445   1.241  0.8349  1.5797  0.6173
 7468TIP3   OH222367   1.589   2.867   0.288 -0.3205 -0.3803 -0.6531
 7468TIP3    H122368   1.662   2.928   0.286 -0.8149  0.4788  2.5392
 7468TIP3    H222369   1.628   2.784   0.318 -0.2992 -0.5926 -1.2461
 7469TIP3   OH222370   5.154   3.167   5.303 -0.1375 -0.1172 -0.1415
 7469TIP3    H122371   5.217   3.237   5.291  0.3745 -0.6986 -0.9723
 7469TIP3    H222372   5.134   3.168   5.397 -0.0920  1.0767 -0.1306
 7470TIP3   OH222373   2.548   0.298   3.717 -0.0988  0.1872  0.4343
 7470TIP3    H122374   2.473   0.353   3.693  0.1314  1.0309  1.5204
 7470TIP3    H222375   2.551   0.303   3.813  0.0574 -1.5883  0.5503
 7471TIP3   OH222376   0.284   1.618   1.547  0.3040  0.1168  0.1485
 7471TIP3    H122377   0.230   1.605   1.625  0.5240 -0.1335  0.2606
 7471TIP3    H222378   0.283   1.533   1.503 -0.4706  0.4712 -0.5405
 7472TIP3   OH222379   3.028   6.105   2.408 -0.3184 -0.4138 -0.0783
 7472TIP3    H122380   3.019   6.020   2.450 -2.3632  0.5985  1.7048
 7472TIP3    H222381   3.121   6.127   2.420 -0.2443 -1.3993  1.4494
 7473TIP3   OH222382   6.582   3.813   3.316 -0.2990  0.3067  0.5474
 7473TIP3    H122383   6.546   3.894   3.354  1.3300  2.7512 -2.5604
 7473TIP3    H222384   6.507   3.772   3.272 -0.6125  1.9324 -0.5308
 7474TIP3   OH222385   6.057   1.738   4.740 -0.0877 -0.6320  0.5226
 7474TIP3    H122386   5.991   1.688   4.691  0.2917 -1.8823  1.2204
 7474TIP3    H222387   6.014   1.759   4.823 -0.5956  1.1404 -0.1567
 7475TIP3   OH222388   6.222   2.982   3.867 -0.3402  0.5718  0.1124
 7475TIP3    H122389   6.254   2.895   3.843  0.2113  0.8808 -0.2874
 7475TIP3    H222390   6.166   2.966   3.943 -0.6600 -0.1961 -0.2653
 7476TIP3   OH222391   0.810   0.988   2.548  0.2162 -0.8534 -0.6079
 7476TIP3    H122392   0.755   0.913   2.524  1.5463 -2.4680  1.1093
 7476TIP3    H222393   0.848   0.964   2.632  1.5070  1.3353 -0.4967
 7477TIP3   OH222394   2.944   3.695   2.098  0.4010  0.2263  0.2601
 7477TIP3    H122395   3.003   3.771   2.091 -0.0499  0.7334  1.7152
 7477TIP3    H222396   2.856   3.732   2.091  0.1779 -0.1883  0.8529
 7478TIP3   OH222397   1.296   1.089   2.863 -0.0611  0.1333 -0.2121
 7478TIP3    H122398   1.281   0.996   2.877  0.7037  0.1561  0.8684
 7478TIP3    H222399   1.224   1.117   2.806 -0.9065 -0.8749  0.3301
 7479TIP3   OH222400   3.248   4.271   4.185 -0.0737  0.1281 -0.3298
 7479TIP3    H122401   3.157   4.247   4.201 -0.4513  1.4567 -0.3087
 7479TIP3    H222402   3.283   4.292   4.272  0.7687 -1.9212 -0.1136
 7480TIP3   OH222403   3.252   4.795   1.171 -0.2241  0.6182  0.1036
 7480TIP3    H122404   3.195   4.772   1.098 -2.0283  2.2663  0.9286
 7480TIP3    H222405   3.297   4.875   1.142  1.0175 -0.1566 -0.1757
 7481TIP3   OH222406   0.492   1.096   1.470 -0.1022  0.1611 -0.4428
 7481TIP3    H122407   0.556   1.084   1.540 -1.2652  1.9985  1.0411
 7481TIP3    H222408   0.408   1.070   1.509 -0.2617 -3.4709 -2.7527
 7482TIP3   OH222409   1.604   5.485   4.745  0.3674  0.0194 -0.0751
 7482TIP3    H122410   1.538   5.497   4.676  0.1377 -0.9399 -0.0378
 7482TIP3    H222411   1.570   5.412   4.797  0.9363  0.2233  0.5825
 7483TIP3   OH222412   1.217   5.361   5.101 -0.0567 -0.4895 -0.6228
 7483TIP3    H122413   1.177   5.302   5.037  0.5314 -0.6305 -0.8760
 7483TIP3    H222414   1.176   5.338   5.184 -1.8188  0.6038 -1.1399
 7484TIP3   OH222415   0.475   1.319   1.971 -0.1355  0.3618  0.4433
 7484TIP3    H122416   0.507   1.342   1.884 -0.3154  1.9366  0.7652
 7484TIP3    H222417   0.401   1.261   1.954 -0.1223  0.5921 -0.4575
 7485TIP3   OH222418   5.117   5.280   0.344 -0.0183 -0.2777  0.2241
 7485TIP3    H122419   5.205   5.300   0.311  0.1837  1.8792  1.8044
 7485TIP3    H222420   5.059   5.305   0.272  0.5525  1.1536  0.2238
 7486TIP3   OH222421   7.034   0.720   2.512  0.5602 -0.1896  0.8661
 7486TIP3    H122422   7.108   0.663   2.532 -0.5041 -2.1990 -0.5815
 7486TIP3    H222423   6.957   0.665   2.525 -0.5541  1.0362 -0.1913
 7487TIP3   OH222424   4.638   5.134   3.781 -0.1554  0.1076  0.5996
 7487TIP3    H122425   4.572   5.138   3.711  0.7647 -2.2995 -0.5316
 7487TIP3    H222426   4.648   5.040   3.798  1.8927  0.4944  1.7974
 7488TIP3   OH222427   3.634   5.865   2.581  0.1331  0.5370 -0.8902
 7488TIP3    H122428   3.656   5.779   2.546 -1.4006 -0.7086  0.9245
 7488TIP3    H222429   3.665   5.862   2.672 -2.0463  0.8997 -0.0556
 7489TIP3   OH222430   2.521   5.640   0.938 -0.6732  0.1312 -0.3586
 7489TIP3    H122431   2.461   5.566   0.934  1.2871 -1.7786  2.1658
 7489TIP3    H222432   2.493   5.691   1.013  0.6176 -0.6505  0.6985
 7490TIP3   OH222433   4.354   3.090   3.339  0.6044 -0.0069  0.0676
 7490TIP3    H122434   4.400   3.150   3.281  0.9284  0.8067  1.1229
 7490TIP3    H222435   4.350   3.137   3.423  0.5526 -1.3196  0.8228
 7491TIP3   OH222436   7.020   6.042   3.139 -0.0322  0.0019 -0.3504
 7491TIP3    H122437   7.052   6.056   3.228 -2.8201 -1.3968  1.0170
 7491TIP3    H222438   7.026   6.128   3.097  1.4571  0.6642  1.1277
 7492TIP3   OH222439   0.261   3.693   2.120 -0.0628  0.3222  0.7010
 7492TIP3    H122440   0.252   3.625   2.054  0.1135 -0.6361  1.6468
 7492TIP3    H222441   0.314   3.761   2.077 -1.6434  0.6469 -0.8203
 7493TIP3   OH222442   7.059   0.972   2.634  0.2583 -0.7633 -0.4840
 7493TIP3    H122443   7.146   0.949   2.666  0.7694  1.8603  0.2733
 7493TIP3    H222444   7.027   0.893   2.591  2.5967 -2.1055  0.0891
 7494TIP3   OH222445   6.751   6.546   0.499  0.2815 -0.1580 -0.0977
 7494TIP3    H122446   6.698   6.467   0.488  0.1086  0.0274 -0.6654
 7494TIP3    H222447   6.719   6.605   0.431  0.7217  0.2300  0.0294
 7495TIP3   OH222448   0.181   0.508   3.641 -0.7873  1.1625  0.3959
 7495TIP3    H122449   0.192   0.537   3.550  0.4658  0.0323  0.1545
 7495TIP3    H222450   0.221   0.422   3.643 -1.8884  0.6460  1.7572
 7496TIP3   OH222451   0.615   4.007   2.523  0.4044  0.0669  0.6312
 7496TIP3    H122452   0.574   3.931   2.564 -1.9095  0.7896 -0.1729
 7496TIP3    H222453   0.581   4.006   2.433 -0.5977  2.6192  0.9031
 7497TIP3   OH222454   0.636   2.070   1.590 -0.1760  0.5600 -0.5057
 7497TIP3    H122455   0.564   2.084   1.652 -0.6013 -1.6111 -0.4332
 7497TIP3    H222456   0.595   2.028   1.515  0.9758 -0.4792 -0.5776
 7498TIP3   OH222457   0.204   6.802   0.839  0.6347  0.5439 -0.1184
 7498TIP3    H122458   0.267   6.767   0.901  0.0083 -1.6953 -0.6488
 7498TIP3    H222459   0.195   6.733   0.773 -1.1673  1.4666 -0.9035
 7499TIP3   OH222460   6.835   5.502   5.835  0.0721  0.0905 -0.0931
 7499TIP3    H122461   6.775   5.519   5.762 -0.5020  2.9441  0.8826
 7499TIP3    H222462   6.784   5.448   5.896  0.7131 -2.6930 -1.8778
 7500TIP3   OH222463   3.272   6.233   0.162 -0.0540  0.2097 -0.3036
 7500TIP3    H122464   3.363   6.251   0.138  0.8903 -2.8202  0.5250
 7500TIP3    H222465   3.231   6.319   0.169  2.5898  1.6506 -1.2587
 7501TIP3   OH222466   5.432   1.631   3.651  0.8454  0.7821 -0.2021
 7501TIP3    H122467   5.370   1.560   3.668  1.3487  0.0434 -1.3902
 7501TIP3    H222468   5.396   1.705   3.700 -0.5009  0.1367 -0.1609
 7502TIP3   OH222469   6.432   4.788   0.725 -0.1612  0.3315 -0.7460
 7502TIP3    H122470   6.435   4.742   0.641 -0.8055  2.2489 -1.8911
 7502TIP3    H222471   6.365   4.856   0.712  0.2117  1.0994  1.1064
 7503TIP3   OH222472   1.354   3.345   0.559 -0.7128 -0.0361 -0.5617
 7503TIP3    H122473   1.332   3.304   0.476 -0.3997  0.0618 -0.6943
 7503TIP3    H222474   1.355   3.273   0.622 -0.7417 -0.1407 -0.6815
 7504TIP3   OH222475   2.149   5.074   3.551  0.3154 -0.4101 -0.0806
 7504TIP3    H122476   2.179   5.028   3.629  1.0206  0.8338  0.4043
 7504TIP3    H222477   2.212   5.050   3.483 -1.0482 -2.5781 -0.7018
 7505TIP3   OH222478   2.504   2.472   2.749 -0.8351 -0.1552  0.5646
 7505TIP3    H122479   2.577   2.497   2.805 -2.3854  0.4560  2.4465
 7505TIP3    H222480   2.500   2.377   2.754 -0.0246 -0.2167  0.2105
 7506TIP3   OH222481   3.649   5.725   5.762  0.0977 -0.5739 -0.0788
 7506TIP3    H122482   3.664   5.761   5.674 -0.9661 -1.0029 -0.4599
 7506TIP3    H222483   3.731   5.740   5.808  0.3152  0.6519 -0.7984
 7507TIP3   OH222484   5.066   4.872   3.823 -0.1646  0.0590 -0.7235
 7507TIP3    H122485   5.048   4.906   3.910  1.8890 -1.3356  0.3286
 7507TIP3    H222486   5.075   4.950   3.768 -2.1406  0.9417  0.1081
 7508TIP3   OH222487   4.079   3.122   1.561  0.7619  0.0450 -0.1031
 7508TIP3    H122488   4.021   3.047   1.573  0.0019  0.0453 -3.0597
 7508TIP3    H222489   4.059   3.180   1.635  1.9366 -2.8651  2.7653
 7509TIP3   OH222490   4.178   2.862   1.363 -0.7145  0.2925 -0.4255
 7509TIP3    H122491   4.253   2.803   1.352  0.2559  1.3696  0.2758
 7509TIP3    H222492   4.175   2.913   1.282 -0.2884  0.6936 -0.1904
 7510TIP3   OH222493   0.427   3.378   5.095  0.1237  0.9012 -0.4175
 7510TIP3    H122494   0.415   3.288   5.063 -0.4153  0.0742  1.9343
 7510TIP3    H222495   0.515   3.380   5.130 -0.2685  0.9311  0.5856
 7511TIP3   OH222496   0.671   5.044   4.470  0.6231  0.0731 -0.0950
 7511TIP3    H122497   0.707   5.129   4.445  0.5432  0.1747  0.1318
 7511TIP3    H222498   0.663   4.996   4.387 -1.4000  1.0838 -0.5647
 7512TIP3   OH222499   3.700   2.383   1.621 -0.1743  0.2020 -0.0173
 7512TIP3    H122500   3.686   2.290   1.606 -1.4762  0.0052  2.0044
 7512TIP3    H222501   3.709   2.391   1.716  0.6796  2.0616 -0.2054
 7513TIP3   OH222502   3.464   1.131   3.884 -0.1168 -0.4572 -0.2461
 7513TIP3    H122503   3.486   1.153   3.975  0.5308  4.1817 -1.2722
 7513TIP3    H222504   3.378   1.089   3.890 -0.6709  0.8239  2.4846
 7514TIP3   OH222505   0.818   0.387   0.787 -0.7398  0.2387 -0.1520
 7514TIP3    H122506   0.834   0.296   0.812  0.5939 -0.3324 -2.7423
 7514TIP3    H222507   0.748   0.416   0.845  0.2285 -1.7446  2.1774
 7515TIP3   OH222508   3.841   6.205   2.234 -0.0474  0.2621 -1.0119
 7515TIP3    H122509   3.855   6.139   2.302  0.1379  0.5451 -0.7702
 7515TIP3    H222510   3.765   6.255   2.264  0.9429  1.3764 -0.2046
 7516TIP3   OH222511   5.299   2.355   4.794  0.2479  0.0901 -0.4195
 7516TIP3    H122512   5.228   2.418   4.782  0.6775  0.3374 -1.8485
 7516TIP3    H222513   5.357   2.397   4.858  0.2698  0.9284 -0.9719
 7517TIP3   OH222514   1.718   4.174   5.220 -0.1748 -0.4647  0.0225
 7517TIP3    H122515   1.781   4.211   5.158  1.5811 -1.2128  1.2806
 7517TIP3    H222516   1.640   4.156   5.167  0.3628  1.1934 -1.4345
 7518TIP3   OH222517   1.080   3.342   3.477  0.2148 -0.0478 -0.2072
 7518TIP3    H122518   1.066   3.362   3.384 -0.3814  0.3439 -0.0385
 7518TIP3    H222519   1.148   3.275   3.477  0.7713  0.5012 -0.8934
 7519TIP3   OH222520   2.743   6.094   5.531 -0.5615  0.5696 -0.0822
 7519TIP3    H122521   2.678   6.060   5.592 -2.6805 -1.8010 -3.3015
 7519TIP3    H222522   2.738   6.189   5.540 -3.0534  0.3922  1.2071
 7520TIP3   OH222523   2.505   2.914   5.085 -0.1381  0.0548  0.8370
 7520TIP3    H122524   2.586   2.908   5.034  0.0307 -0.6298  1.1727
 7520TIP3    H222525   2.472   3.002   5.068  0.0612 -0.0711 -0.2337
 7521TIP3   OH222526   4.981   2.803   2.801  0.2614  0.3635  0.7398
 7521TIP3    H122527   4.907   2.827   2.857 -0.7391  1.7229 -1.0767
 7521TIP3    H222528   5.038   2.880   2.803  1.6499 -0.6403  2.0496
 7522TIP3   OH222529   0.306   3.090   3.401 -0.4434  0.0071 -0.5126
 7522TIP3    H122530   0.253   3.159   3.360 -0.4436  0.9034  0.9381
 7522TIP3    H222531   0.359   3.055   3.329 -1.0905  0.9087 -1.4583
 7523TIP3   OH222532   0.688   3.104   5.176  0.3770  0.2157  0.0281
 7523TIP3    H122533   0.746   3.098   5.252  1.0385 -2.0683 -0.5910
 7523TIP3    H222534   0.742   3.077   5.102 -1.2174 -1.2238 -0.6730
 7524TIP3   OH222535   6.139   2.510   0.672  0.0630  0.2089  0.4158
 7524TIP3    H122536   6.169   2.559   0.749  0.1504 -0.6174  0.9267
 7524TIP3    H222537   6.055   2.472   0.700 -0.9620  1.5890 -0.6137
 7525TIP3   OH222538   1.403   1.809   0.901  0.1248  0.2862  0.3593
 7525TIP3    H122539   1.310   1.828   0.891  0.0625  0.4236  1.1436
 7525TIP3    H222540   1.408   1.754   0.979  0.6973  0.2183  0.2791
 7526TIP3   OH222541   2.962   6.761   0.053 -0.1345  0.0596  0.0352
 7526TIP3    H122542   2.944   6.823  -0.018  0.2511  1.8096  1.3852
 7526TIP3    H222543   2.877   6.748   0.095  0.2473  2.0138  1.5170
 7527TIP3   OH222544   6.323   5.167   5.520 -0.2452  0.1518 -0.0977
 7527TIP3    H122545   6.350   5.229   5.588 -0.8528 -0.0557  0.3444
 7527TIP3    H222546   6.347   5.209   5.438 -2.6521  2.0563  0.0507
 7528TIP3   OH222547   4.433   4.843   1.964  0.3387 -0.2396 -0.0209
 7528TIP3    H122548   4.446   4.748   1.967  0.3000 -0.2660 -0.6434
 7528TIP3    H222549   4.509   4.876   1.916  0.1662  0.0134 -0.1204
 7529TIP3   OH222550   0.102   1.964   5.134  0.5372 -0.3819 -0.0386
 7529TIP3    H122551   0.187   1.929   5.106  1.1655 -0.5688  1.8879
 7529TIP3    H222552   0.113   1.978   5.228 -1.4830 -0.0825  0.1887
 7530TIP3   OH222553   0.732   2.314   5.617  0.3415 -0.0862  0.1003
 7530TIP3    H122554   0.725   2.256   5.692  2.7471  1.0817  1.3242
 7530TIP3    H222555   0.668   2.383   5.634  2.1716  1.2338  2.1993
 7531TIP3   OH222556   6.092   1.669   1.853 -0.0851 -0.2605 -0.2226
 7531TIP3    H122557   6.124   1.662   1.943 -1.6047 -0.0424  0.3623
 7531TIP3    H222558   6.094   1.579   1.821 -0.2881 -0.4604  0.3053
 7532TIP3   OH222559   3.559   0.864   3.054 -0.5802 -0.1315 -0.2757
 7532TIP3    H122560   3.508   0.912   2.988 -1.1251 -0.2330  0.0686
 7532TIP3    H222561   3.647   0.903   3.049 -1.0756  1.1033  0.1763
 7533TIP3   OH222562   6.472   6.122   5.583 -0.1542  0.2719  0.2805
 7533TIP3    H122563   6.460   6.182   5.510  1.8397 -1.0911 -1.2904
 7533TIP3    H222564   6.539   6.060   5.552 -0.6310 -1.5146  2.5631
 7534TIP3   OH222565   2.784   2.365   0.006 -0.1090  0.1769  0.1597
 7534TIP3    H122566   2.784   2.457   0.031  1.6005 -0.3597  2.4257
 7534TIP3    H222567   2.869   2.332   0.034  0.1721 -1.6826 -2.4323
 7535TIP3   OH222568   3.823   3.382   5.040 -0.0628  0.1418 -0.0186
 7535TIP3    H122569   3.789   3.342   4.959 -0.2585  0.3481 -0.0387
 7535TIP3    H222570   3.780   3.467   5.044  2.0046  1.3315 -1.1385
 7536TIP3   OH222571   6.078   0.117   0.248  0.1003 -0.7765 -0.3319
 7536TIP3    H122572   6.170   0.139   0.234  0.7755 -1.8556  1.9580
 7536TIP3    H222573   6.073   0.023   0.232 -0.9949 -0.4767 -2.0001
 7537TIP3   OH222574   5.317   6.015   0.054  0.4398  0.0414  0.8266
 7537TIP3    H122575   5.278   5.980  -0.027  1.9385 -1.4820  0.7113
 7537TIP3    H222576   5.404   6.046   0.027  0.9425 -0.4456  1.8253
 7538TIP3   OH222577   3.616   0.298   1.403 -0.4178  0.1541 -0.4637
 7538TIP3    H122578   3.580   0.212   1.383  1.0887 -0.6314  0.0209
 7538TIP3    H222579   3.685   0.310   1.338 -1.8419  1.8817 -1.7492
 7539TIP3   OH222580   3.749   3.075   1.011 -0.3651  0.2284  0.4886
 7539TIP3    H122581   3.808   3.150   1.008 -0.5827  0.4586  1.6771
 7539TIP3    H222582   3.806   2.999   1.003 -0.0799  0.4875 -0.0142
 7540TIP3   OH222583   5.091   6.502   1.190  0.3816 -0.1955  0.9889
 7540TIP3    H122584   5.051   6.439   1.130  2.2098 -0.0869 -0.4160
 7540TIP3    H222585   5.093   6.584   1.141  0.7732  0.2134  1.6770
 7541TIP3   OH222586   3.419   1.864   1.489 -0.6689  0.1598 -0.8331
 7541TIP3    H122587   3.331   1.889   1.462 -0.2720  0.7891 -1.5745
 7541TIP3    H222588   3.405   1.809   1.566 -1.5877  2.4543  0.7565
 7542TIP3   OH222589   5.321   5.066   0.897  0.2769  0.3462 -0.3453
 7542TIP3    H122590   5.241   5.117   0.886  0.9551  2.0430  1.7944
 7542TIP3    H222591   5.324   5.046   0.991  1.3553 -1.4703 -0.7153
 7543TIP3   OH222592   5.546   5.809   3.833  0.0107 -0.5389  0.1734
 7543TIP3    H122593   5.535   5.800   3.928  1.5270  0.4376  0.4967
 7543TIP3    H222594   5.640   5.793   3.819  0.2201  1.2865 -0.8532
 7544TIP3   OH222595   4.041   4.130   1.539 -0.0708 -0.0432  0.0053
 7544TIP3    H122596   4.017   4.054   1.485 -1.0140 -0.7554  1.3783
 7544TIP3    H222597   4.049   4.095   1.627  0.9727  1.1988  0.4329
 7545TIP3   OH222598   4.787   3.594   1.449  0.0057 -0.6308 -0.3132
 7545TIP3    H122599   4.820   3.533   1.516  1.2876  0.0507 -0.2906
 7545TIP3    H222600   4.806   3.681   1.484 -1.0931 -0.2196 -0.6983
 7546TIP3   OH222601   6.157   4.190   0.745  0.1483  0.2551 -0.1307
 7546TIP3    H122602   6.109   4.271   0.759  0.5036  0.8968 -2.3181
 7546TIP3    H222603   6.125   4.157   0.661 -0.8046 -2.4949  1.1995
 7547TIP3   OH222604   2.504   6.010   5.141  0.1444 -0.2030  0.4077
 7547TIP3    H122605   2.469   6.098   5.154  2.1024  0.5113  1.2115
 7547TIP3    H222606   2.508   5.972   5.229  1.9865  0.0210  0.4521
 7548TIP3   OH222607   0.372   0.963   0.911  0.3616  0.3077 -0.1343
 7548TIP3    H122608   0.447   1.002   0.868 -0.0632 -1.2144 -2.4310
 7548TIP3    H222609   0.407   0.926   0.992  1.8247  0.6800 -0.5747
 7549TIP3   OH222610   6.300   2.149   4.216 -0.1692 -0.9062 -0.1871
 7549TIP3    H122611   6.253   2.218   4.262  0.1405 -0.6680 -0.2261
 7549TIP3    H222612   6.356   2.109   4.283 -0.5526 -1.3111 -0.0968
 7550TIP3   OH222613   3.126   1.422   1.723 -0.0808  0.3613 -0.4371
 7550TIP3    H122614   3.081   1.338   1.722  2.3614 -1.0606 -2.6725
 7550TIP3    H222615   3.067   1.482   1.677 -0.9429 -0.6468 -0.6644
 7551TIP3   OH222616   5.140   5.364   4.009  0.1067  0.1491 -0.2148
 7551TIP3    H122617   5.063   5.409   3.975  0.0516 -0.7362 -1.2792
 7551TIP3    H222618   5.213   5.405   3.963  0.3379  1.2343  1.0502
 7552TIP3   OH222619   3.691   1.399   3.974  0.1440  0.2711  0.3114
 7552TIP3    H122620   3.765   1.342   3.992 -0.3826 -0.7636 -0.6601
 7552TIP3    H222621   3.649   1.411   4.059  1.3433  0.7905  0.8531
 7553TIP3   OH222622   4.731   4.438   0.554 -0.1946 -0.3249  0.0628
 7553TIP3    H122623   4.803   4.477   0.603  0.5832 -2.6817  0.9329
 7553TIP3    H222624   4.652   4.483   0.585  0.2679 -1.6258  3.4885
 7554TIP3   OH222625   6.978   3.163   3.852 -0.0320 -0.3134 -0.0137
 7554TIP3    H122626   6.902   3.157   3.793 -1.0396  0.6752  1.1497
 7554TIP3    H222627   7.041   3.101   3.815 -1.7858 -1.9337 -0.4501
 7555TIP3   OH222628   5.796   2.293   0.059 -0.0459 -0.3247  0.0695
 7555TIP3    H122629   5.741   2.369   0.078  0.8573  0.4656 -0.3900
 7555TIP3    H222630   5.735   2.219   0.057 -0.8486  0.2796  1.1627
 7556TIP3   OH222631   7.133   3.827   0.241 -0.5770  0.3815  0.7285
 7556TIP3    H122632   7.126   3.836   0.146 -3.1571  2.8982  1.0488
 7556TIP3    H222633   7.227   3.811   0.256 -0.3751 -2.4468 -2.2734
 7557TIP3   OH222634   6.191   1.872   2.257  0.1667 -0.7943 -0.2622
 7557TIP3    H122635   6.248   1.942   2.288  0.1458 -0.3747 -1.1340
 7557TIP3    H222636   6.177   1.816   2.334  0.9078 -0.3382  0.2177
 7558TIP3   OH222637   0.417   2.137   1.780  0.0555 -0.6579  0.2911
 7558TIP3    H122638   0.334   2.181   1.798  0.4350  0.0358  0.3946
 7558TIP3    H222639   0.395   2.044   1.777 -0.6009 -0.5365  1.0283
 7559TIP3   OH222640   2.878   5.187   1.420 -0.0388  0.6159 -0.1358
 7559TIP3    H122641   2.787   5.194   1.394 -0.3944  0.2108  0.9368
 7559TIP3    H222642   2.927   5.229   1.349 -1.0987  1.4659 -0.3904
 7560TIP3   OH222643   4.855   3.187   5.800 -0.6245  0.0848  0.0826
 7560TIP3    H122644   4.822   3.140   5.877 -0.1223 -1.9252 -0.8597
 7560TIP3    H222645   4.950   3.185   5.810 -0.5777  0.2846 -0.3178
 7561TIP3   OH222646   5.382   6.265   2.573  0.2339 -0.2271  0.0053
 7561TIP3    H122647   5.453   6.329   2.569 -1.2487  1.5406  0.5615
 7561TIP3    H222648   5.357   6.262   2.665  0.9443 -2.4585  0.1954
 7562TIP3   OH222649   3.408   3.147   5.591  0.1545  0.3804 -0.1341
 7562TIP3    H122650   3.460   3.099   5.526  0.8353 -0.8454  1.2571
 7562TIP3    H222651   3.428   3.104   5.674 -1.5169  1.2195  0.7459
 7563TIP3   OH222652   5.122   0.388   1.521 -0.0241 -0.0210 -0.0990
 7563TIP3    H122653   5.029   0.363   1.521  0.2282 -1.1578 -1.6978
 7563TIP3    H222654   5.141   0.410   1.430  0.9331  1.6935  0.4737
 7564TIP3   OH222655   2.073   3.530   1.905 -0.3121 -0.2686 -0.1545
 7564TIP3    H122656   2.128   3.452   1.896  0.9300  0.0891  3.0365
 7564TIP3    H222657   2.116   3.582   1.972 -2.7091  1.7521 -0.0526
 7565TIP3   OH222658   2.677   6.641   2.742 -1.1265 -0.0876  0.1167
 7565TIP3    H122659   2.625   6.574   2.786 -0.6561 -1.7583 -1.7238
 7565TIP3    H222660   2.616   6.679   2.677 -0.6410 -0.7101 -0.7283
 7566TIP3   OH222661   0.139   5.538   2.110  0.2167  0.6807  0.0103
 7566TIP3    H122662   0.048   5.531   2.139 -0.1209  0.9297 -0.9778
 7566TIP3    H222663   0.134   5.562   2.018  1.2778 -0.5374 -0.4000
 7567TIP3   OH222664   5.954   5.267   3.664 -0.6837  0.2006  0.3601
 7567TIP3    H122665   5.920   5.356   3.668 -2.1372 -0.3272  0.5403
 7567TIP3    H222666   5.997   5.254   3.749 -1.3976  0.3801  0.7535
 7568TIP3   OH222667   0.071   6.121   1.589 -0.0635  0.1263 -0.3435
 7568TIP3    H122668  -0.006   6.089   1.542  1.3386 -0.7587 -2.2043
 7568TIP3    H222669   0.089   6.053   1.653 -0.0969 -0.3161 -0.7926
 7569TIP3   OH222670   0.320   2.095   4.822  0.6137 -0.2782  0.1377
 7569TIP3    H122671   0.355   2.135   4.742  0.6185 -1.5988 -0.5365
 7569TIP3    H222672   0.395   2.094   4.882  1.0098 -0.6031 -0.3522
 7570TIP3   OH222673   4.086   4.274   4.789  1.1380  0.1320  0.1062
 7570TIP3    H122674   4.083   4.179   4.783 -1.3946  0.1782 -0.4809
 7570TIP3    H222675   4.113   4.303   4.701  1.0880 -0.0126  0.0431
 7571TIP3   OH222676   6.102   0.036   4.918 -0.7532  0.2353 -0.0351
 7571TIP3    H122677   6.115  -0.052   4.884 -1.5947  0.7418 -1.7477
 7571TIP3    H222678   6.018   0.033   4.963 -0.5535  0.0571  0.3327
 7572TIP3   OH222679   0.322   0.705   1.393 -0.6197  0.8664 -0.3950
 7572TIP3    H122680   0.264   0.768   1.350 -1.2930  1.1930  0.9231
 7572TIP3    H222681   0.409   0.742   1.385 -0.6988  0.8472 -1.5649
 7573TIP3   OH222682   6.844   5.058   3.254 -0.2643 -0.1013  0.0277
 7573TIP3    H122683   6.917   5.059   3.317 -1.3807  0.9742  1.3761
 7573TIP3    H222684   6.831   4.966   3.234  0.5837 -0.4156  0.8340
 7574TIP3   OH222685   0.440   4.834   1.061  0.2464  0.6370  0.4826
 7574TIP3    H122686   0.423   4.763   1.123 -0.5165  1.9379  1.8050
 7574TIP3    H222687   0.423   4.914   1.110 -0.5610  1.7129 -1.4511
 7575TIP3   OH222688   4.359   3.975   4.302 -0.3520 -0.1730  0.1412
 7575TIP3    H122689   4.410   4.031   4.361 -0.2597 -2.6896  2.6451
 7575TIP3    H222690   4.409   3.975   4.220  1.3873  0.8016  1.1330
 7576TIP3   OH222691   6.351   4.336   3.643 -0.1353 -0.3261  0.2712
 7576TIP3    H122692   6.433   4.287   3.635  1.0517  1.4067  1.0408
 7576TIP3    H222693   6.327   4.357   3.552  1.2529  0.5896  0.0709
 7577TIP3   OH222694   0.718   5.530   4.279  0.2938  0.3546  0.0548
 7577TIP3    H122695   0.742   5.622   4.291 -0.1256  0.4499  0.1896
 7577TIP3    H222696   0.727   5.514   4.185  1.3223  0.2576  0.1581
 7578TIP3   OH222697   1.936   0.570   3.010 -0.0882  0.1388 -0.0036
 7578TIP3    H122698   2.020   0.534   3.037 -1.4204 -0.6027  3.8523
 7578TIP3    H222699   1.898   0.504   2.952  0.3071 -1.6229  1.6273
 7579TIP3   OH222700   6.623   3.903   2.118 -0.1255  0.4351  0.4468
 7579TIP3    H122701   6.707   3.910   2.162  0.3827 -0.9972 -0.2459
 7579TIP3    H222702   6.622   3.975   2.056  0.3074  0.8403  0.8997
 7580TIP3   OH222703   1.657   6.612   0.758 -0.4757  0.2347 -0.2759
 7580TIP3    H122704   1.681   6.562   0.836 -1.4447 -1.0683 -0.7758
 7580TIP3    H222705   1.602   6.552   0.707  1.7794  0.2792 -2.9831
 7581TIP3   OH222706   2.595   4.915   0.436 -0.1102  0.3752  0.2319
 7581TIP3    H122707   2.574   4.970   0.360 -2.2279 -0.6944 -0.0389
 7581TIP3    H222708   2.636   4.837   0.399 -1.2851 -0.2156  0.1425
 7582TIP3   OH222709   2.694   6.244   3.601 -0.5139  0.1044  0.4000
 7582TIP3    H122710   2.666   6.256   3.510  1.4769 -0.9041 -0.4064
 7582TIP3    H222711   2.623   6.194   3.641 -1.4849  0.6839 -0.5406
 7583TIP3   OH222712   2.669   6.179   1.473  0.3396  0.2005  0.5655
 7583TIP3    H122713   2.747   6.131   1.447 -0.0692 -0.6120  0.8188
 7583TIP3    H222714   2.698   6.236   1.544  0.9360  0.6962 -0.0741
 7584TIP3   OH222715   1.776   0.265   2.381  0.3077 -0.6089  0.4733
 7584TIP3    H122716   1.782   0.293   2.290  2.8828  1.4894  1.1383
 7584TIP3    H222717   1.800   0.173   2.379  0.2931 -0.6108 -0.9590
 7585TIP3   OH222718   4.227   2.848   2.442 -0.6414 -0.1313 -0.0451
 7585TIP3    H122719   4.220   2.895   2.360  0.2738  0.6199  0.2903
 7585TIP3    H222720   4.140   2.812   2.457 -1.2098  1.0006 -0.5750
 7586TIP3   OH222721   1.792   6.316   5.395  0.0388 -0.1635  0.2970
 7586TIP3    H122722   1.861   6.249   5.391 -0.0138 -0.2138  0.2337
 7586TIP3    H222723   1.769   6.333   5.304 -0.0406 -0.1548  0.3187
 7587TIP3   OH222724   4.932   0.362   3.072  0.3196 -0.3528  0.1730
 7587TIP3    H122725   5.013   0.317   3.049 -0.5981 -1.1880 -1.6245
 7587TIP3    H222726   4.892   0.384   2.988 -0.7322  1.1785  1.0190
 7588TIP3   OH222727   3.981   4.701   1.364  0.2723  0.0105  0.3345
 7588TIP3    H122728   3.942   4.621   1.399 -0.0545  0.0390  0.0418
 7588TIP3    H222729   3.972   4.766   1.434  1.3992 -0.4569  0.9388
 7589TIP3   OH222730   1.731   3.438   5.336 -0.5622 -0.2958 -0.0601
 7589TIP3    H122731   1.802   3.426   5.272  1.7658 -0.6550  2.4209
 7589TIP3    H222732   1.764   3.504   5.396 -2.9066  0.4255  0.5234
 7590TIP3   OH222733   4.665   4.848   3.852  0.7136  0.8831  0.3113
 7590TIP3    H122734   4.733   4.787   3.823 -1.4964 -1.7882  0.3307
 7590TIP3    H222735   4.681   4.859   3.946  1.1101  0.2711  0.3192
 7591TIP3   OH222736   2.867   1.586   2.977 -0.3315  0.0882 -0.0864
 7591TIP3    H122737   2.955   1.550   2.967  0.2464  1.6693 -1.0991
 7591TIP3    H222738   2.869   1.632   3.062  0.2450  1.1707 -0.6650
 7592TIP3   OH222739   6.009   5.555   3.153 -0.3282 -0.1311 -0.5392
 7592TIP3    H122740   5.977   5.640   3.123  2.3376  1.1466 -0.1165
 7592TIP3    H222741   6.093   5.543   3.107  0.6926 -1.1996  1.4502
 7593TIP3   OH222742   6.391   0.521   5.618 -0.4590 -0.0781  0.6207
 7593TIP3    H122743   6.309   0.542   5.661 -0.3364  0.4697  0.5958
 7593TIP3    H222744   6.443   0.602   5.624 -0.1178 -0.2608  0.1975
 7594TIP3   OH222745   3.313   5.794   1.517 -0.4366 -0.6705 -0.0050
 7594TIP3    H122746   3.387   5.767   1.464 -1.3581 -1.1709 -1.0782
 7594TIP3    H222747   3.352   5.827   1.598  0.8728 -3.5735  0.6821
 7595TIP3   OH222748   1.708   4.914   3.829 -0.3847  0.8779  0.3167
 7595TIP3    H122749   1.697   4.843   3.765 -2.1011  0.4421  1.0463
 7595TIP3    H222750   1.668   4.990   3.787 -1.8459  0.5046  0.9628
 7596TIP3   OH222751   7.036   5.424   2.638 -0.4008 -0.3554 -0.3280
 7596TIP3    H122752   7.088   5.434   2.558  0.4711  0.4564  0.3249
 7596TIP3    H222753   6.988   5.507   2.645  1.8224  0.8579  1.5786
 7597TIP3   OH222754   3.815   4.553   0.375 -0.6229  0.5163 -0.0144
 7597TIP3    H122755   3.777   4.640   0.366 -1.0972  0.2850 -0.2502
 7597TIP3    H222756   3.860   4.538   0.292 -3.3513 -0.8140 -1.3730
 7598TIP3   OH222757   4.081   1.148   0.870  0.1223 -0.2972 -0.0671
 7598TIP3    H122758   4.035   1.079   0.822  0.2640 -1.4103  1.3358
 7598TIP3    H222759   4.078   1.120   0.961  0.4658  1.4148  0.5057
 7599TIP3   OH222760   5.243   5.601   1.162 -0.1401 -0.0741 -0.1206
 7599TIP3    H122761   5.299   5.525   1.174 -0.3378 -0.0724  0.8745
 7599TIP3    H222762   5.302   5.676   1.164 -0.1430 -0.0828  0.7782
 7600TIP3   OH222763   5.410   4.004   3.747  0.4509 -0.3121  0.4963
 7600TIP3    H122764   5.332   4.044   3.787  0.5691 -0.3402  0.7537
 7600TIP3    H222765   5.465   3.980   3.821  0.7058 -0.2917  0.3127
 7601TIP3   OH222766   4.463   3.106   4.491  0.1140  0.0735  0.5005
 7601TIP3    H122767   4.528   3.158   4.442 -0.2159  0.0786  0.0648
 7601TIP3    H222768   4.513   3.069   4.564 -0.0696  2.6236  2.0013
 7602TIP3   OH222769   1.654   2.235   3.817  0.6045  0.1212 -0.4633
 7602TIP3    H122770   1.742   2.202   3.831  0.3362 -1.0885 -1.5114
 7602TIP3    H222771   1.599   2.181   3.873  0.5840  1.4246  0.8451
 7603TIP3   OH222772   4.536   3.439   4.229  0.1370 -0.6345  0.0217
 7603TIP3    H122773   4.462   3.440   4.289 -1.0077  3.0297 -1.1834
 7603TIP3    H222774   4.609   3.404   4.280 -1.7142 -1.5773  2.1592
 7604TIP3   OH222775   0.448   6.106   2.908 -0.8121 -0.1325  0.3506
 7604TIP3    H122776   0.394   6.053   2.968 -1.0157  0.7070  0.9332
 7604TIP3    H222777   0.537   6.093   2.938 -0.8988  0.1540  0.7381
 7605TIP3   OH222778   6.686   2.703   4.935 -0.2644  0.1480  0.3947
 7605TIP3    H122779   6.654   2.776   4.988 -1.3784 -0.3025  0.3591
 7605TIP3    H222780   6.750   2.743   4.876  0.6888  0.7363  1.7643
 7606TIP3   OH222781   6.578   3.701   1.497 -0.1369  0.2108  0.7215
 7606TIP3    H122782   6.582   3.738   1.409 -1.9788 -0.3819  0.3312
 7606TIP3    H222783   6.662   3.656   1.508  1.8926  3.7181  0.9551
 7607TIP3   OH222784   2.577   2.342   3.827  0.3568 -0.6286  0.1505
 7607TIP3    H122785   2.577   2.275   3.896 -0.1407 -2.1662 -1.2709
 7607TIP3    H222786   2.489   2.338   3.790  0.9661 -0.7008 -1.3617
 7608TIP3   OH222787   5.838   0.932   1.512  0.3423 -0.6676  0.4562
 7608TIP3    H122788   5.836   0.991   1.437 -0.2923 -0.7768  0.3886
 7608TIP3    H222789   5.931   0.929   1.537  0.2833  1.1565  1.0980
 7609TIP3   OH222790   4.855   1.028   2.001 -0.2366 -0.2090  0.4861
 7609TIP3    H122791   4.919   1.075   2.055 -0.6478  0.5897  0.2859
 7609TIP3    H222792   4.828   1.091   1.935  0.7344 -1.3638 -1.0921
 7610TIP3   OH222793   5.566   2.959   5.360 -0.0899 -0.0080  0.1279
 7610TIP3    H122794   5.563   3.048   5.326  1.3706 -0.3884 -1.1057
 7610TIP3    H222795   5.513   2.908   5.300  0.2253 -0.2054  0.0146
 7611TIP3   OH222796   1.350   0.859   0.082  0.3753  0.2488  0.0814
 7611TIP3    H122797   1.371   0.923   0.150  0.7604 -0.5881  0.7571
 7611TIP3    H222798   1.261   0.831   0.101 -0.1576  1.2454 -0.7702
 7612TIP3   OH222799   2.921   5.812   0.165 -0.0078  0.3581 -0.8281
 7612TIP3    H122800   2.977   5.734   0.160  0.2024  0.5145 -0.9095
 7612TIP3    H222801   2.982   5.885   0.165 -0.1312  0.4868  0.7441
 7613TIP3   OH222802   5.328   2.831   0.032 -0.0133  1.0321 -0.2744
 7613TIP3    H122803   5.374   2.821   0.115 -0.9159 -2.9701 -0.0553
 7613TIP3    H222804   5.387   2.885  -0.021  2.5315  0.3417  1.6088
 7614TIP3   OH222805   6.949   2.272   5.431  0.7239 -0.7156 -0.2034
 7614TIP3    H122806   6.926   2.305   5.344 -0.3883 -0.4930  0.1574
 7614TIP3    H222807   6.867   2.237   5.465  0.5338  1.3541  1.6907
 7615TIP3   OH222808   0.656   4.333   1.578  0.3181  0.1022  0.0137
 7615TIP3    H122809   0.730   4.290   1.535  0.1370  0.4636 -0.6747
 7615TIP3    H222810   0.697   4.387   1.646  0.8211  1.3166 -1.2017
 7616TIP3   OH222811   4.723   5.405   2.659  0.0495 -0.3191 -0.0131
 7616TIP3    H122812   4.817   5.425   2.656  0.1560 -0.8078 -0.0099
 7616TIP3    H222813   4.699   5.389   2.568  0.0568 -0.5912  0.0330
 7617TIP3   OH222814   3.915   6.337   4.205  0.3451 -0.6504  0.4650
 7617TIP3    H122815   3.842   6.275   4.212  0.8456 -1.4360 -0.8091
 7617TIP3    H222816   3.899   6.383   4.123  2.2991 -2.2912 -0.9524
 7618TIP3   OH222817   5.167   2.831   5.659 -0.0862  0.1540  0.4942
 7618TIP3    H122818   5.252   2.829   5.614 -0.0684 -0.5595  0.5495
 7618TIP3    H222819   5.145   2.924   5.664  0.3780  0.3020 -0.1125
 7619TIP3   OH222820   3.183   3.603   1.356  0.3140 -0.1217 -0.0602
 7619TIP3    H122821   3.114   3.667   1.376  0.4270 -0.4561  1.5238
 7619TIP3    H222822   3.177   3.591   1.261 -0.4728  1.3599 -0.2301
 7620TIP3   OH222823   5.533   6.198   5.147 -0.3409  0.6746  0.2078
 7620TIP3    H122824   5.469   6.243   5.203 -1.3420  0.8498 -1.0311
 7620TIP3    H222825   5.544   6.112   5.188 -0.9291  0.8516  0.7634
 7621TIP3   OH222826   1.448   3.758   0.334  0.3985  0.2478 -0.1403
 7621TIP3    H122827   1.370   3.772   0.281  0.9178  2.6856 -0.3888
 7621TIP3    H222828   1.414   3.728   0.419 -0.5367 -1.9345 -1.2078
 7622TIP3   OH222829   5.849   0.673   5.845  0.6774 -0.2921 -0.0055
 7622TIP3    H122830   5.855   0.667   5.940 -0.9557  0.2031  0.1619
 7622TIP3    H222831   5.821   0.586   5.817  2.2824 -0.7885 -0.1836
 7623TIP3   OH222832   3.033   4.520   2.677  0.1459  0.0288 -0.2813
 7623TIP3    H122833   3.038   4.603   2.724 -0.0464 -1.0385  1.7136
 7623TIP3    H222834   3.096   4.463   2.721 -0.6872 -1.2948 -0.7370
 7624TIP3   OH222835   2.808   5.273   2.930 -0.1412  0.5347 -0.5812
 7624TIP3    H122836   2.802   5.272   2.835  0.0637 -0.7817 -0.6002
 7624TIP3    H222837   2.721   5.296   2.960 -0.2257  0.8786 -1.0871
 7625TIP3   OH222838   1.223   2.095   4.250  0.0763 -0.6039 -0.6349
 7625TIP3    H122839   1.187   2.042   4.321  1.0821 -0.1191  0.2698
 7625TIP3    H222840   1.191   2.054   4.170 -0.1894 -1.8081  0.0744
 7626TIP3   OH222841   2.538   3.957   5.332  0.3079 -0.0858 -0.0995
 7626TIP3    H122842   2.527   4.037   5.382 -0.6512 -1.0123  1.2274
 7626TIP3    H222843   2.633   3.949   5.320  0.3797  1.7309 -1.1319
 7627TIP3   OH222844   0.388   3.405   1.702  0.3752  0.4821  0.4350
 7627TIP3    H122845   0.470   3.455   1.704  0.9620 -0.4592  1.0471
 7627TIP3    H222846   0.344   3.434   1.622  1.9664 -0.0116 -0.6702
 7628TIP3   OH222847   5.097   0.955   2.949  0.3864 -0.3065 -0.6594
 7628TIP3    H122848   5.141   0.875   2.922 -0.2059 -0.1056 -2.3039
 7628TIP3    H222849   5.092   0.948   3.045 -0.4577 -2.6512 -0.8028
 7629TIP3   OH222850   2.311   2.142   0.211  0.2586 -0.3669 -0.8331
 7629TIP3    H122851   2.309   2.161   0.117 -0.6690  0.1555 -0.7117
 7629TIP3    H222852   2.377   2.202   0.246  0.8892 -0.8323 -1.2008
 7630TIP3   OH222853   1.109   2.611   4.020  0.2301 -0.5423  0.3111
 7630TIP3    H122854   1.153   2.628   3.936  0.7875 -0.2135  0.6616
 7630TIP3    H222855   1.174   2.565   4.072  0.5529  0.8687  1.2093
 7631TIP3   OH222856   3.769   5.956   3.453  0.0139 -0.1082 -0.3935
 7631TIP3    H122857   3.783   5.872   3.496 -0.7141  0.2832  0.6758
 7631TIP3    H222858   3.683   5.947   3.410 -1.5024  0.9705  2.1683
 7632TIP3   OH222859   5.363   1.654   1.770 -0.2962  0.0702 -0.2149
 7632TIP3    H122860   5.385   1.685   1.858 -0.9560  0.6883 -0.2553
 7632TIP3    H222861   5.444   1.663   1.720 -0.3407  1.2795 -0.0950
 7633TIP3   OH222862   1.922   5.002   0.438 -0.0104 -0.0621  0.1670
 7633TIP3    H122863   1.977   5.059   0.384  0.7534  1.1282  2.0880
 7633TIP3    H222864   1.880   5.062   0.500 -1.1850 -1.3196  0.6183
 7634TIP3   OH222865   5.022   2.505   1.176 -0.0212 -0.4909  0.0861
 7634TIP3    H122866   5.043   2.422   1.133  1.0985  0.2347 -0.8221
 7634TIP3    H222867   5.106   2.541   1.203 -0.2401  1.4081 -1.5505
 7635TIP3   OH222868   1.002   5.180   4.915  0.2814 -0.0171  0.2279
 7635TIP3    H122869   0.918   5.195   4.871  0.0248  0.7571  0.9514
 7635TIP3    H222870   1.065   5.172   4.843 -0.3635 -0.3217 -0.3146
 7636TIP3   OH222871   5.151   0.987   0.407 -0.5060 -0.4909  0.0967
 7636TIP3    H122872   5.246   0.977   0.400 -0.5286 -0.5363 -0.1770
 7636TIP3    H222873   5.130   0.960   0.496 -0.4372 -1.9156 -0.2916
 7637TIP3   OH222874   5.056   5.380   4.696  0.3433  0.4444  0.5166
 7637TIP3    H122875   5.130   5.337   4.740 -0.1143 -1.9372 -0.8753
 7637TIP3    H222876   5.014   5.310   4.646 -0.5417  2.5178 -1.8368
 7638TIP3   OH222877   1.675   6.707   4.680 -0.1925 -0.0396 -0.1850
 7638TIP3    H122878   1.627   6.635   4.721 -0.3319 -0.9365 -1.8532
 7638TIP3    H222879   1.754   6.716   4.734  0.1843 -1.9468 -0.3425
 7639TIP3   OH222880   4.041   0.004   2.236  0.0652 -0.5438 -0.1813
 7639TIP3    H122881   4.016   0.021   2.327 -0.5685  0.0362 -0.4537
 7639TIP3    H222882   4.068   0.090   2.203  0.5333 -0.7999 -0.4734
 7640TIP3   OH222883   0.365   5.680   2.730  0.4752  0.4193  0.0035
 7640TIP3    H122884   0.437   5.715   2.677  0.3381 -0.6266 -0.9178
 7640TIP3    H222885   0.368   5.730   2.812  1.8109  0.8516 -0.2947
 7641TIP3   OH222886   2.278   2.291   4.415  0.3365 -0.0587  0.4284
 7641TIP3    H122887   2.327   2.354   4.362 -0.8555 -0.1344 -0.8341
 7641TIP3    H222888   2.263   2.217   4.356 -0.7233 -0.2891  0.9585
 7642TIP3   OH222889   6.869   6.767   5.019 -0.3897 -0.2536 -0.1767
 7642TIP3    H122890   6.830   6.743   5.103 -0.9940 -0.9827 -0.6498
 7642TIP3    H222891   6.911   6.851   5.035  0.5967 -0.9710  1.1968
 7643TIP3   OH222892   4.545   2.929   1.641  0.2126 -0.0450 -0.7479
 7643TIP3    H122893   4.544   2.994   1.712 -1.8330  2.5864 -2.9853
 7643TIP3    H222894   4.629   2.944   1.597  0.9213 -0.8219  0.2760
 7644TIP3   OH222895   4.195   1.004   4.186  0.1476 -0.1243  0.2262
 7644TIP3    H122896   4.158   0.983   4.100  0.7908 -0.8103  0.1035
 7644TIP3    H222897   4.282   1.039   4.166  0.1456  0.0823  0.5787
 7645TIP3   OH222898   4.193   4.622   5.825 -0.1974 -0.0299  0.3555
 7645TIP3    H122899   4.256   4.553   5.842 -0.5289 -0.1857  0.9702
 7645TIP3    H222900   4.114   4.595   5.871 -0.3635  0.7035  0.5217
 7646TIP3   OH222901   0.096   6.596   3.852  0.0392 -0.4296 -0.3181
 7646TIP3    H122902   0.140   6.535   3.793 -0.7043 -0.7193 -0.5840
 7646TIP3    H222903   0.165   6.629   3.909  1.1942  1.2715 -2.5291
 7647TIP3   OH222904   4.962   1.149   2.502  0.4020  0.1453  0.3453
 7647TIP3    H122905   4.888   1.187   2.455  0.6794  0.9379  0.5245
 7647TIP3    H222906   5.039   1.176   2.451  0.5736 -0.5944  0.2095
 7648TIP3   OH222907   0.017   6.464   5.828  0.1363  0.4600  0.2331
 7648TIP3    H122908   0.097   6.412   5.817  0.2646  0.9814 -1.6472
 7648TIP3    H222909  -0.052   6.412   5.787  0.0731  1.2450 -0.7189
 7649TIP3   OH222910   7.154   1.450   0.653 -0.2613 -0.2861  0.0444
 7649TIP3    H122911   7.232   1.491   0.691  0.0994 -0.4249 -0.5341
 7649TIP3    H222912   7.128   1.510   0.583 -1.3827  0.3696  0.9894
 7650TIP3   OH222913   1.917   1.005   0.077 -0.3189 -0.4879  0.1039
 7650TIP3    H122914   2.006   0.970   0.066  0.5409  1.8869 -0.9940
 7650TIP3    H222915   1.913   1.030   0.170  0.6005  0.5016 -0.1145
 7651TIP3   OH222916   6.290   1.673   3.702 -0.2983  0.5208  0.4665
 7651TIP3    H122917   6.311   1.762   3.674 -1.1573  0.4519 -0.4472
 7651TIP3    H222918   6.374   1.636   3.729  0.4299  0.8861 -1.2137
 7652TIP3   OH222919   3.357   5.490   3.616  0.2392 -0.0621  0.0510
 7652TIP3    H122920   3.412   5.561   3.581 -0.5680  0.9332  0.7153
 7652TIP3    H222921   3.269   5.513   3.588  0.0815 -1.3590 -0.5571
 7653TIP3   OH222922   1.604   3.257   3.667  0.1747  0.3200  0.2193
 7653TIP3    H122923   1.513   3.287   3.679 -0.7006 -2.3768  1.3178
 7653TIP3    H222924   1.647   3.280   3.750  0.0128  0.1691  0.3484
 7654TIP3   OH222925   6.492   4.565   0.531  0.7084  0.0183 -0.0615
 7654TIP3    H122926   6.483   4.518   0.448  1.1497 -0.9429  0.4259
 7654TIP3    H222927   6.573   4.532   0.569  0.0636 -0.2139  1.1713
 7655TIP3   OH222928   2.635   4.114   5.001  0.2255 -0.5196  0.6671
 7655TIP3    H122929   2.637   4.184   5.066  1.1473 -0.3502  0.4735
 7655TIP3    H222930   2.698   4.142   4.934 -3.4231  1.2751 -2.3822
 7656TIP3   OH222931   3.137   3.501   2.252 -0.0846 -0.0261  0.4501
 7656TIP3    H122932   3.166   3.444   2.180  0.6770 -0.8245  1.3565
 7656TIP3    H222933   3.087   3.570   2.209 -1.5056 -1.6465 -0.6678
 7657TIP3   OH222934   3.425   5.687   2.741 -0.2672 -0.1769 -0.0211
 7657TIP3    H122935   3.497   5.732   2.786 -1.9794  2.2944  0.4665
 7657TIP3    H222936   3.420   5.728   2.655 -1.8080  0.5810  0.3888
 7658TIP3   OH222937   6.239   0.156   1.445  0.4033  0.0051  0.4306
 7658TIP3    H122938   6.326   0.122   1.467 -1.1730 -2.0579  4.1878
 7658TIP3    H222939   6.203   0.092   1.384  1.1385  0.4240 -0.4752
 7659TIP3   OH222940   0.407   0.905   4.605 -0.2170 -0.1122 -0.5116
 7659TIP3    H122941   0.489   0.954   4.613 -0.1460  0.0128 -1.7433
 7659TIP3    H222942   0.378   0.891   4.695  0.4917  0.9701 -0.0928
 7660TIP3   OH222943   3.750   5.280   1.521 -0.2121  0.6096 -0.9512
 7660TIP3    H122944   3.685   5.211   1.537 -0.3188  1.1316  0.9854
 7660TIP3    H222945   3.811   5.240   1.459 -1.0308 -0.7476 -0.9258
 7661TIP3   OH222946   6.022   5.313   3.938  0.5724  0.2391  0.3387
 7661TIP3    H122947   6.003   5.407   3.938  0.0520  0.1531  1.3431
 7661TIP3    H222948   5.989   5.282   4.022  1.3995 -0.7211  0.3321
 7662TIP3   OH222949   2.091   5.462   2.068  0.7787 -0.1115  0.2593
 7662TIP3    H122950   2.097   5.434   1.976 -0.2691  0.3003  0.0535
 7662TIP3    H222951   2.136   5.547   2.069 -0.2014  0.4244 -0.1236
 7663TIP3   OH222952   2.674   0.241   1.554 -0.8747  0.3014 -0.2568
 7663TIP3    H122953   2.661   0.262   1.461 -0.3472 -0.2428 -0.4569
 7663TIP3    H222954   2.762   0.203   1.558 -0.8423  0.4437  0.4885
 7664TIP3   OH222955   3.661   2.287   5.415 -0.0789  0.2371 -0.4086
 7664TIP3    H122956   3.655   2.303   5.321  0.0203 -1.4183 -0.7281
 7664TIP3    H222957   3.707   2.363   5.450  0.8211  0.3868 -1.8487
 7665TIP3   OH222958   1.099   4.150   5.710  0.2565  0.4474 -0.0534
 7665TIP3    H122959   1.144   4.233   5.693 -0.0807  1.1661  2.2156
 7665TIP3    H222960   1.094   4.144   5.805 -2.4036 -0.7165 -0.1674
 7666TIP3   OH222961   1.303   2.931   1.959 -0.4395  0.3389 -0.0806
 7666TIP3    H122962   1.340   2.854   1.916  0.0701 -0.4363  1.6386
 7666TIP3    H222963   1.302   2.999   1.892 -0.2079 -0.9581 -1.4341
 7667TIP3   OH222964   3.316   6.108   1.627 -0.2370 -0.4175  0.0286
 7667TIP3    H122965   3.336   6.114   1.533  0.8552  1.3253  0.3313
 7667TIP3    H222966   3.378   6.045   1.661  0.0610 -0.2759 -0.2473
 7668TIP3   OH222967   3.379   1.773   0.607  0.1625  0.4858  0.1029
 7668TIP3    H122968   3.325   1.852   0.608  0.5296  0.7513 -0.4481
 7668TIP3    H222969   3.469   1.805   0.597  0.3445  0.0079  0.1448
 7669TIP3   OH222970   3.561   1.137   0.019  0.2464 -0.1790  0.8161
 7669TIP3    H122971   3.653   1.142  -0.006  0.2494 -0.0695  0.8521
 7669TIP3    H222972   3.554   1.190   0.099  0.1889 -0.3329  0.9155
 7670TIP3   OH222973   3.532   2.349   3.485  0.2579 -0.8695  0.2254
 7670TIP3    H122974   3.515   2.360   3.578  0.0901  0.4980  0.0572
 7670TIP3    H222975   3.613   2.398   3.469  0.4242 -1.3045 -0.3055
 7671TIP3   OH222976   1.253   3.706   0.149  0.0908 -0.2824 -0.4065
 7671TIP3    H122977   1.231   3.794   0.120  2.1248  1.2170  2.1285
 7671TIP3    H222978   1.176   3.653   0.127 -2.1566  2.5996 -0.0656
 7672TIP3   OH222979   1.374   2.839   2.778 -0.1372  0.0998  0.8535
 7672TIP3    H122980   1.385   2.757   2.826 -0.6725 -1.3225 -1.3524
 7672TIP3    H222981   1.398   2.907   2.842  1.7617 -1.7937  2.2896
 7673TIP3   OH222982   5.978   4.716   4.982 -0.0683 -0.8830 -0.1093
 7673TIP3    H122983   5.987   4.654   5.054  0.4396 -1.6780 -0.8390
 7673TIP3    H222984   5.985   4.802   5.024  0.2317 -1.3286  0.7849
 7674TIP3   OH222985   4.442   1.892   1.618  0.3334  0.8972 -0.5058
 7674TIP3    H122986   4.422   1.950   1.545  0.9738  2.0281  0.1919
 7674TIP3    H222987   4.510   1.938   1.667  0.0014  0.1035  0.7390
 7675TIP3   OH222988   2.952   3.231   1.486  0.0060  0.0548 -0.1873
 7675TIP3    H122989   2.908   3.267   1.563 -0.9221 -1.4584  0.0455
 7675TIP3    H222990   3.042   3.263   1.492 -0.0612  0.0290  1.5075
 7676TIP3   OH222991   4.162   4.123   5.624  0.0748 -0.4242  0.2276
 7676TIP3    H122992   4.221   4.052   5.602 -0.0120 -0.8979  1.4308
 7676TIP3    H222993   4.100   4.084   5.686 -0.9643  0.2848 -0.3462
 7677TIP3   OH222994   1.850   1.962   0.374 -0.1936  0.0592  0.4757
 7677TIP3    H122995   1.832   1.999   0.287 -1.0527 -0.9174  0.2317
 7677TIP3    H222996   1.779   1.901   0.390  1.9046 -2.6111  0.2392
 7678TIP3   OH222997   3.585   3.412   4.076 -0.6340 -0.2725  0.3015
 7678TIP3    H122998   3.657   3.351   4.087 -0.8484 -0.7125 -0.6142
 7678TIP3    H222999   3.589   3.437   3.983 -2.2266 -1.0438 -0.0051
 7679TIP3   OH223000   3.724   6.560   4.915 -0.1832 -0.2714  0.1971
 7679TIP3    H123001   3.664   6.494   4.879 -0.1852  0.0097 -0.3227
 7679TIP3    H223002   3.798   6.509   4.947 -0.1022 -0.5153 -0.3657
 7680TIP3   OH223003   1.486   2.454   0.452  0.4567 -0.1877 -0.7296
 7680TIP3    H123004   1.530   2.376   0.488 -0.3712 -0.3608 -0.0501
 7680TIP3    H223005   1.406   2.420   0.413 -0.5224  0.4367  0.6551
 7681TIP3   OH223006   2.932   2.106   4.253 -0.2616 -0.4458 -0.0046
 7681TIP3    H123007   2.905   2.065   4.335 -0.3504 -1.0397 -0.3177
 7681TIP3    H223008   2.874   2.181   4.242 -0.9503 -0.9728 -0.0424
 7682TIP3   OH223009   0.977   0.581   4.058  0.1808  0.5232 -0.0424
 7682TIP3    H123010   0.927   0.537   3.990 -0.8520  0.5422  0.6811
 7682TIP3    H223011   0.979   0.673   4.031 -1.6092  0.8310  0.7087
 7683TIP3   OH223012   2.949   5.636   5.584  0.2820  0.8238 -0.5122
 7683TIP3    H123013   2.938   5.650   5.678  1.6749  0.1343 -0.2096
 7683TIP3    H223014   2.940   5.722   5.545  0.6582  1.2744  0.3699
 7684TIP3   OH223015   1.317   6.146   2.244 -0.4287 -0.3779 -0.0584
 7684TIP3    H123016   1.282   6.110   2.325 -2.7312  0.5979 -0.5247
 7684TIP3    H223017   1.239   6.163   2.190  1.0358 -1.3772 -2.6512
 7685TIP3   OH223018   5.009   4.236   1.518  0.2432 -0.4248  0.2683
 7685TIP3    H123019   4.944   4.305   1.524  1.0287  0.3924 -0.3526
 7685TIP3    H223020   5.000   4.202   1.429  0.5705 -0.3930  0.2211
 7686TIP3   OH223021   2.150   0.588   0.879  0.4587 -0.2455 -0.1134
 7686TIP3    H123022   2.224   0.566   0.822 -0.4857  2.8916 -2.8338
 7686TIP3    H223023   2.074   0.552   0.834 -0.1054  0.4337  0.2783
 7687TIP3   OH223024  -0.004   4.824   3.010 -0.2331 -0.8311  0.5672
 7687TIP3    H123025   0.018   4.909   2.974 -0.9724 -0.6055  0.6359
 7687TIP3    H223026   0.039   4.822   3.096  1.4444 -1.3292 -0.2405
 7688TIP3   OH223027   2.655   4.217   0.529  0.0725  0.6444  0.1494
 7688TIP3    H123028   2.675   4.158   0.601 -1.2140  0.5972  0.5018
 7688TIP3    H223029   2.736   4.223   0.479  0.0535 -2.0691 -0.3552
 7689TIP3   OH223030   5.559   0.812   4.086 -0.1367  0.3055  0.1913
 7689TIP3    H123031   5.649   0.812   4.054 -0.2628  0.4349 -0.1622
 7689TIP3    H223032   5.540   0.904   4.104  0.2200  0.1546  1.4587
 7690TIP3   OH223033   3.976   0.225   1.955 -0.3687  0.0340  0.0006
 7690TIP3    H123034   3.911   0.225   2.025  0.1254  0.7949  0.4830
 7690TIP3    H223035   3.967   0.140   1.913 -0.4821 -0.5478  1.1746
 7691TIP3   OH223036   2.697   0.212   0.414  0.7811  0.0786  0.0481
 7691TIP3    H123037   2.688   0.147   0.345 -0.3387 -0.9468  1.1080
 7691TIP3    H223038   2.625   0.274   0.398  0.0331 -0.5953  0.7170
 7692TIP3   OH223039   4.464   2.105   1.395 -0.8289 -0.3327 -0.5125
 7692TIP3    H123040   4.534   2.073   1.338  0.3459 -0.4600  0.9215
 7692TIP3    H223041   4.462   2.199   1.379 -0.8039 -0.4211 -1.0659
 7693TIP3   OH223042   4.442   6.302   5.680  0.1276  0.0144 -0.2017
 7693TIP3    H123043   4.504   6.253   5.735 -0.4113 -1.9075 -1.2123
 7693TIP3    H223044   4.391   6.354   5.742  0.2669 -1.2442  1.0419
 7694TIP3   OH223045   0.059   3.805   0.946  0.0373  0.8260 -0.2809
 7694TIP3    H123046   0.004   3.863   0.893 -0.4432 -1.4134 -2.4481
 7694TIP3    H223047   0.135   3.788   0.890  0.9101  0.5899  0.9481
 7695TIP3   OH223048   2.542   4.384   1.759  0.2134  0.7612 -0.3534
 7695TIP3    H123049   2.532   4.298   1.719  1.1640  0.7790 -0.6398
 7695TIP3    H223050   2.565   4.365   1.850  1.6214  0.6955 -0.7106
 7696TIP3   OH223051   4.389   6.663   3.291 -0.1860 -0.3183 -0.2456
 7696TIP3    H123052   4.393   6.758   3.281 -0.5740 -0.3984 -1.3010
 7696TIP3    H223053   4.371   6.630   3.203  0.7487 -1.4251 -0.0513
 7697TIP3   OH223054   6.834   0.500   0.873  0.0332  0.0814  0.2542
 7697TIP3    H123055   6.896   0.433   0.846 -0.5420 -0.2374 -0.2958
 7697TIP3    H223056   6.770   0.504   0.802 -0.7386  0.1898  0.9403
 7698TIP3   OH223057   1.055   4.014   0.253  0.7809  0.8271  0.4489
 7698TIP3    H123058   1.017   3.927   0.238  0.8910  0.9027 -0.3527
 7698TIP3    H223059   1.008   4.048   0.329  0.9785 -0.0665  0.9903
 7699TIP3   OH223060   1.878   2.651   5.465  0.0641 -0.9900 -0.1683
 7699TIP3    H123061   1.904   2.568   5.426  0.9845 -0.6541 -0.2910
 7699TIP3    H223062   1.960   2.697   5.481 -0.3998 -0.3532  0.4629
 7700TIP3   OH223063   5.140   2.380   1.949 -0.1346 -0.4365  0.4302
 7700TIP3    H123064   5.057   2.352   1.910 -0.4740  1.5816 -0.4291
 7700TIP3    H223065   5.124   2.375   2.044  0.2802 -4.1620  0.4255
 7701TIP3   OH223066   4.168   2.287   1.272  0.0535  0.1615 -0.1472
 7701TIP3    H123067   4.100   2.285   1.340  1.9585 -2.4794  1.8864
 7701TIP3    H223068   4.249   2.307   1.319  1.1864  0.0881 -1.9767
 7702TIP3   OH223069   5.406   1.839   3.838  0.1704 -0.0248 -0.3703
 7702TIP3    H123070   5.312   1.829   3.856 -0.2132  0.0704 -2.1109
 7702TIP3    H223071   5.448   1.777   3.896 -1.0479 -0.6615 -0.1315
 7703TIP3   OH223072   1.773   2.370   5.189  0.3042  0.5683  0.5949
 7703TIP3    H123073   1.787   2.275   5.195 -0.9922  0.4118  1.5941
 7703TIP3    H223074   1.820   2.406   5.263 -0.9397  0.4698  1.4582
 7704TIP3   OH223075   6.506   2.788   5.168 -0.0587 -0.7141  0.2154
 7704TIP3    H123076   6.424   2.738   5.159  0.6215 -1.8334 -0.0051
 7704TIP3    H223077   6.533   2.773   5.259 -0.5079  0.3436  0.5416
 7705TIP3   OH223078   4.308   3.375   1.557  0.2147  0.0684  0.2955
 7705TIP3    H123079   4.358   3.442   1.604  1.0921  0.6821 -1.4427
 7705TIP3    H223080   4.261   3.424   1.489 -1.1380 -0.7777  0.5753
 7706TIP3   OH223081   0.454   2.859   2.626  0.0889 -0.4547 -0.0288
 7706TIP3    H123082   0.478   2.907   2.706  0.4978 -1.0613  0.2124
 7706TIP3    H223083   0.358   2.865   2.624  0.1779  1.4304 -0.6649
 7707TIP3   OH223084   5.274   2.383   1.454 -0.0315  0.1411  0.5970
 7707TIP3    H123085   5.194   2.427   1.481  1.3297  0.8491  3.9861
 7707TIP3    H223086   5.266   2.294   1.491  0.6327  0.1695  0.8259
 7708TIP3   OH223087   3.218   3.204   3.055  0.0319  0.3173  0.4981
 7708TIP3    H123088   3.222   3.119   3.012  1.8982  0.4518  0.3310
 7708TIP3    H223089   3.188   3.264   2.986  1.5598  0.2734 -0.2402
 7709TIP3   OH223090   0.949   3.793   5.380 -0.6466  0.3220 -0.4991
 7709TIP3    H123091   1.027   3.800   5.435 -0.2008  0.6263 -1.1535
 7709TIP3    H223092   0.976   3.737   5.307 -1.3275 -0.3398 -0.2577
 7710TIP3   OH223093   1.811   4.493   1.729  0.2421 -0.1949 -0.0302
 7710TIP3    H123094   1.752   4.538   1.668  0.0278  0.1966  0.4593
 7710TIP3    H223095   1.851   4.564   1.779  0.6575 -0.4973  0.0710
 7711TIP3   OH223096   3.588   6.286   5.714 -0.5128  0.8967 -0.3811
 7711TIP3    H123097   3.678   6.280   5.682 -1.0717 -1.0110 -1.7675
 7711TIP3    H223098   3.544   6.344   5.652 -0.5087  0.8517 -0.4265
 7712TIP3   OH223099   2.524   0.079   1.701  0.1616  0.2149 -0.0489
 7712TIP3    H123100   2.563   0.146   1.645 -0.0653  1.1659  0.9001
 7712TIP3    H223101   2.446   0.121   1.738 -0.8620 -1.0925 -0.6265
 7713TIP3   OH223102   6.118   6.492   3.633 -0.4149 -0.0857  0.3897
 7713TIP3    H123103   6.051   6.553   3.604 -1.3872 -1.3598 -0.1254
 7713TIP3    H223104   6.110   6.490   3.729  1.3215  2.4470  0.6753
 7714TIP3   OH223105   5.434   3.385   0.826  0.5491  0.2159 -0.0082
 7714TIP3    H123106   5.395   3.468   0.854  0.1411  0.2112 -0.5487
 7714TIP3    H223107   5.420   3.383   0.731 -0.3608 -0.9342  0.1312
 7715TIP3   OH223108   0.563   1.836   0.923  0.3769 -0.1206  0.3859
 7715TIP3    H123109   0.540   1.780   0.997 -0.4295 -0.6270 -0.2347
 7715TIP3    H223110   0.538   1.785   0.846 -0.3614  1.0848 -0.1897
 7716TIP3   OH223111   6.576   5.180   4.552  0.1298  0.3443  0.0902
 7716TIP3    H123112   6.634   5.160   4.626  1.2027  0.8594 -0.5887
 7716TIP3    H223113   6.512   5.108   4.552  0.3229  0.1477  1.2883
 7717TIP3   OH223114   5.987   0.162   0.508 -0.4833 -0.5536 -0.0030
 7717TIP3    H123115   5.998   0.159   0.413  0.4430  0.4445  0.0439
 7717TIP3    H223116   6.052   0.101   0.542  0.6384  0.6174  0.0395
 7718TIP3   OH223117   7.178   2.574   4.880  0.3024 -0.3951 -0.2157
 7718TIP3    H123118   7.261   2.565   4.926 -0.4179  1.9592  1.7442
 7718TIP3    H223119   7.115   2.527   4.935 -0.1090  0.1364 -0.2224
 7719TIP3   OH223120   1.063   4.338   2.061  0.0774  0.4275  0.1837
 7719TIP3    H123121   1.153   4.331   2.092  1.1576 -2.7692 -2.9618
 7719TIP3    H223122   1.062   4.419   2.009  1.1118  0.5589  0.3444
 7720TIP3   OH223123   4.159   5.599   0.789  0.6846  0.2664 -0.4899
 7720TIP3    H123124   4.234   5.658   0.793  1.3183 -0.5354 -0.2661
 7720TIP3    H223125   4.082   5.656   0.794  1.2882  1.0066  0.5838
 7721TIP3   OH223126   3.708   6.369   3.383  0.1983 -0.1314  0.3973
 7721TIP3    H123127   3.797   6.375   3.348 -0.4807  1.4608 -1.2698
 7721TIP3    H223128   3.700   6.280   3.416  1.8980 -0.8024 -0.8899
 7722TIP3   OH223129   0.692   1.575   0.435  0.1614 -0.0113 -0.2315
 7722TIP3    H123130   0.670   1.536   0.350 -0.4714  0.0006 -0.0847
 7722TIP3    H223131   0.705   1.668   0.415  1.6952 -0.2730 -0.5847
 7723TIP3   OH223132   2.336   3.120   2.031  0.0609  0.1685  0.1242
 7723TIP3    H123133   2.332   3.110   1.936  0.8142  1.7090 -0.0992
 7723TIP3    H223134   2.429   3.134   2.050 -0.0052 -0.6568  1.1611
 7724TIP3   OH223135   2.067   1.534   0.926  0.1433 -0.0928 -0.3597
 7724TIP3    H123136   2.134   1.472   0.955  1.0964  0.4726 -1.3171
 7724TIP3    H223137   2.111   1.590   0.862 -0.9834  0.9132 -0.2897
 7725TIP3   OH223138   1.953   4.733   3.182 -0.1470 -0.1785  0.2238
 7725TIP3    H123139   1.975   4.662   3.243 -1.1635 -1.0767 -0.4235
 7725TIP3    H223140   1.861   4.753   3.200  0.1990  1.1909  0.5826
 7726TIP3   OH223141   0.883   5.622   0.640  0.1765  0.6551  0.2712
 7726TIP3    H123142   0.802   5.668   0.662  0.6525  1.6646 -0.0190
 7726TIP3    H223143   0.857   5.557   0.574 -0.1430  2.0497 -1.0187
 7727TIP3   OH223144   6.211   3.870   4.032 -0.6324 -0.4874  0.1166
 7727TIP3    H123145   6.227   3.847   3.941 -1.1052  0.4433 -0.2128
 7727TIP3    H223146   6.223   3.964   4.035  0.9190 -0.6871  1.3581
 7728TIP3   OH223147   0.332   4.119   2.532  0.0235  0.1619 -0.5856
 7728TIP3    H123148   0.424   4.126   2.557 -0.1359  1.7651 -0.3252
 7728TIP3    H223149   0.301   4.039   2.573  0.9327  0.3873  0.5706
 7729TIP3   OH223150   6.107   6.552   4.324  0.0687  0.1258 -0.4460
 7729TIP3    H123151   6.062   6.609   4.262  0.7123 -0.0141 -1.0560
 7729TIP3    H223152   6.180   6.515   4.274  0.1287 -0.6153  0.1662
 7730TIP3   OH223153   2.474   4.005   0.408 -0.2024 -0.2275  0.3198
 7730TIP3    H123154   2.489   3.971   0.496 -0.6139  0.8602  0.8307
 7730TIP3    H223155   2.538   4.075   0.397 -0.6751  0.1766  0.0676
 7731TIP3   OH223156   6.299   0.658   4.789 -0.0690  0.7163 -0.5186
 7731TIP3    H123157   6.381   0.637   4.743  0.6479  0.2848  0.9091
 7731TIP3    H223158   6.319   0.737   4.839 -0.4675  0.5083 -0.0211
 7732TIP3   OH223159   6.942   3.082   1.382  0.0704  0.1812 -0.2528
 7732TIP3    H123160   6.964   3.140   1.455  0.2852 -0.5042  0.2375
 7732TIP3    H223161   6.930   2.996   1.423  1.3722 -0.4695 -1.1675
 7733TIP3   OH223162   2.320   4.086   1.480  0.2839 -0.1571 -0.2933
 7733TIP3    H123163   2.291   4.177   1.467 -1.1394 -0.5849 -0.2801
 7733TIP3    H223164   2.244   4.042   1.517  1.7263 -0.8127  2.1292
 7734TIP3   OH223165   0.173   3.013   0.496 -0.3776 -0.6645 -0.1333
 7734TIP3    H123166   0.178   2.941   0.559  1.0069  0.6638  1.3630
 7734TIP3    H223167   0.106   3.071   0.531 -0.6434 -0.6279 -0.6922
 7735TIP3   OH223168   2.842   4.088   1.362 -0.6709  0.0568 -0.8657
 7735TIP3    H123169   2.795   4.140   1.428  0.3378 -1.4352  1.1522
 7735TIP3    H223170   2.920   4.139   1.343 -0.6336  0.1963 -0.3677
 7736TIP3   OH223171   2.095   4.434   4.733 -0.9946  0.1687 -0.3322
 7736TIP3    H123172   2.021   4.378   4.756 -1.1226 -0.6665 -2.5434
 7736TIP3    H223173   2.170   4.375   4.731 -0.7931  0.4367 -0.8802
 7737TIP3   OH223174   1.826   6.283   0.571  0.3778 -0.3750  0.1934
 7737TIP3    H123175   1.855   6.292   0.662 -0.4295 -0.3621  0.4616
 7737TIP3    H223176   1.894   6.326   0.520  0.8956 -0.4717  0.7821
 7738TIP3   OH223177   5.298   4.671   4.673 -0.1014 -0.2936 -0.1428
 7738TIP3    H123178   5.283   4.639   4.762 -2.0683  2.8148  0.7893
 7738TIP3    H223179   5.354   4.748   4.683 -0.5726  0.2752 -1.5454
 7739TIP3   OH223180   4.003   5.565   5.689  0.2173 -0.2500  0.4936
 7739TIP3    H123181   3.943   5.627   5.731  0.7552  1.1625 -0.6914
 7739TIP3    H223182   4.090   5.600   5.707  0.7722 -2.3817  2.3609
 7740TIP3   OH223183   6.020   0.846   5.472  1.0628 -0.0911  0.1614
 7740TIP3    H123184   6.057   0.867   5.386 -0.4880  0.1342 -0.4782
 7740TIP3    H223185   5.956   0.777   5.455  0.6783  0.0092  1.1255
 7741TIP3   OH223186   1.348   1.313   5.913 -0.1842 -0.2940 -0.1212
 7741TIP3    H123187   1.337   1.353   5.827  2.0606 -1.5366 -1.0720
 7741TIP3    H223188   1.360   1.220   5.895 -2.1929 -1.0130  1.7871
 7742TIP3   OH223189   4.447   3.238   2.187 -0.8499  0.1287 -0.2715
 7742TIP3    H123190   4.502   3.175   2.232  0.3033 -0.0568 -1.8632
 7742TIP3    H223191   4.360   3.197   2.187 -1.5879  1.2295  3.8700
 7743TIP3   OH223192   1.955   6.438   4.671 -0.0324 -0.5182 -0.1648
 7743TIP3    H123193   1.866   6.404   4.663  0.1417 -1.3797  1.3415
 7743TIP3    H223194   2.002   6.398   4.598 -0.6399 -0.8394 -0.3850
 7744TIP3   OH223195   6.331   3.781   3.770 -0.4134 -0.1287 -0.1432
 7744TIP3    H123196   6.377   3.843   3.713 -1.6977  0.1316 -0.9492
 7744TIP3    H223197   6.353   3.695   3.735  0.1570 -0.0601  0.0337
 7745TIP3   OH223198   4.338   3.132   1.410  0.2351  0.3402 -0.0657
 7745TIP3    H123199   4.315   3.211   1.459  1.7519  0.5256  0.4055
 7745TIP3    H223200   4.289   3.062   1.453  0.8202  0.6499  1.1538
 7746TIP3   OH223201   0.957   3.488   2.027  0.6541 -0.0429  0.1182
 7746TIP3    H123202   1.034   3.503   1.972 -0.3330  1.1255 -1.0072
 7746TIP3    H223203   0.993   3.456   2.110  2.1642 -2.5986 -1.3913
 7747TIP3   OH223204   0.608   4.953   5.693 -0.2535  0.3152  0.5142
 7747TIP3    H123205   0.548   4.879   5.704  0.0001  0.3469  2.5560
 7747TIP3    H223206   0.683   4.916   5.646 -0.7128 -0.4074  0.3379
 7748TIP3   OH223207   4.641   5.227   2.016  0.1809 -0.3721  0.6494
 7748TIP3    H123208   4.604   5.293   1.957 -2.5908 -2.4952 -0.1784
 7748TIP3    H223209   4.575   5.214   2.083  1.1530 -1.5310  1.4344
 7749TIP3   OH223210   6.735   0.715   5.914  0.6094  0.1842  0.5111
 7749TIP3    H123211   6.736   0.652   5.842 -0.9682 -1.0704  1.5237
 7749TIP3    H223212   6.764   0.797   5.874  2.8065 -1.1388 -0.8416
 7750TIP3   OH223213   3.063   3.060   5.322 -0.2071 -0.5977  0.6485
 7750TIP3    H123214   2.985   3.010   5.298 -0.2844 -0.9521  1.5992
 7750TIP3    H223215   3.043   3.150   5.296 -1.1717 -0.5788  1.3891
 7751TIP3   OH223216   2.140   4.910   1.363  0.2291  0.0991  0.0281
 7751TIP3    H123217   2.180   4.851   1.426  2.0465  3.1557  1.9690
 7751TIP3    H223218   2.211   4.935   1.304  0.1580  1.9967  0.6606
 7752TIP3   OH223219   0.976   4.724   0.098  0.3679 -0.4695  0.0382
 7752TIP3    H123220   1.014   4.648   0.141 -2.1608 -0.8010  1.9814
 7752TIP3    H223221   0.959   4.786   0.169 -1.0791  0.2974 -0.9082
 7753TIP3   OH223222   6.115   3.757   0.698 -0.8027  0.4543  0.2951
 7753TIP3    H123223   6.120   3.768   0.603 -2.6761  0.9761  0.2333
 7753TIP3    H223224   6.031   3.794   0.723 -0.0447  0.9747  2.2697
 7754TIP3   OH223225   6.170   4.632   3.199  0.1484  0.4152 -0.4420
 7754TIP3    H123226   6.080   4.655   3.174  0.2342  0.2775 -0.8825
 7754TIP3    H223227   6.199   4.704   3.254  0.0102  0.7949 -0.8654
 7755TIP3   OH223228   1.557   3.659   4.959 -0.1265  0.9207  0.3704
 7755TIP3    H123229   1.580   3.632   4.870  0.9361  2.3840  0.1504
 7755TIP3    H223230   1.487   3.600   4.985  2.8287 -2.8857  0.4693
 7756TIP3   OH223231   7.060   5.951   5.257  0.1209  0.4020 -0.6932
 7756TIP3    H123232   7.037   6.022   5.317  0.1917  0.6842 -0.9947
 7756TIP3    H223233   7.049   5.989   5.170 -0.8612 -0.2719 -0.8855
 7757TIP3   OH223234   3.518   6.614   1.242 -0.6802 -0.2634  0.2520
 7757TIP3    H123235   3.516   6.525   1.207  1.6749  0.2105 -1.2686
 7757TIP3    H223236   3.435   6.653   1.213 -0.6566 -1.2129 -1.1904
 7758TIP3   OH223237   1.516   5.415   4.125  0.3705  0.3223  0.2229
 7758TIP3    H123238   1.580   5.373   4.068  0.3340 -0.0301  0.4413
 7758TIP3    H223239   1.533   5.509   4.115  0.7292  0.2408  0.0610
 7759TIP3   OH223240   2.243   2.086   1.254 -0.1337  0.2610 -0.2195
 7759TIP3    H123241   2.337   2.077   1.237 -0.6420 -1.6736 -2.5803
 7759TIP3    H223242   2.230   2.045   1.339  1.2238  1.3260  0.5543
 7760TIP3   OH223243   2.130   1.954   4.611  0.1039  0.3334  0.3696
 7760TIP3    H123244   2.065   1.971   4.542  1.4456  1.9209 -0.5617
 7760TIP3    H223245   2.173   2.038   4.625  0.1705 -0.0538  2.8842
 7761TIP3   OH223246   5.818   4.944   5.146  0.1178 -0.3848  0.2987
 7761TIP3    H123247   5.911   4.964   5.152  0.2042  0.2046 -2.0195
 7761TIP3    H223248   5.775   5.009   5.202  1.0801 -0.8116  1.5720
 7762TIP3   OH223249   1.337   6.646   0.242 -0.4183  0.3326 -0.2108
 7762TIP3    H123250   1.265   6.638   0.304 -0.4222  1.9355  0.0329
 7762TIP3    H223251   1.416   6.645   0.297 -0.2537 -0.9458 -0.4373
 7763TIP3   OH223252   3.416   3.899   2.173 -0.6327 -0.6313 -0.1212
 7763TIP3    H123253   3.434   3.838   2.244 -0.9986 -0.6210 -0.0161
 7763TIP3    H223254   3.389   3.844   2.100 -2.3752 -0.5325  0.4077
 7764TIP3   OH223255   7.069   5.231   3.327  0.5665  0.5219  0.0614
 7764TIP3    H123256   7.045   5.316   3.363 -1.4254  1.3028 -2.7690
 7764TIP3    H223257   7.055   5.239   3.233 -0.0146 -3.0377 -0.3182
 7765TIP3   OH223258   3.221   0.861   4.142 -0.7130  0.4449 -0.1641
 7765TIP3    H123259   3.127   0.865   4.123 -0.8964  1.2338  0.8140
 7765TIP3    H223260   3.229   0.901   4.229  0.3416 -0.9978  0.4459
 7766TIP3   OH223261   3.638   3.038   4.435  0.8967  0.3104 -0.3199
 7766TIP3    H123262   3.674   3.039   4.524 -2.1275  0.9635  1.0513
 7766TIP3    H223263   3.589   2.956   4.429  0.3274  0.6798 -1.0141
 7767TIP3   OH223264   6.165   0.171   5.740 -0.0510  0.3980  0.0780
 7767TIP3    H123265   6.167   0.107   5.811 -0.9863 -0.4589 -0.6257
 7767TIP3    H223266   6.088   0.146   5.688 -1.5390  3.1709  0.7395
 7768TIP3   OH223267   0.493   1.769   1.931  0.3284 -0.1129 -0.1201
 7768TIP3    H123268   0.419   1.801   1.879 -0.4782 -0.6298  0.6574
 7768TIP3    H223269   0.552   1.729   1.868  0.0628  0.5292 -0.7906
 7769TIP3   OH223270   6.716   5.980   2.443  0.0645  0.1366  0.6675
 7769TIP3    H123271   6.665   5.986   2.524 -0.8159  2.2166  0.0498
 7769TIP3    H223272   6.780   6.051   2.449 -0.8945  1.2242 -0.9794
 7770TIP3   OH223273   4.532   1.765   5.311  0.4013  0.4348  0.2479
 7770TIP3    H123274   4.563   1.753   5.401  1.6808  0.3806 -0.1690
 7770TIP3    H223275   4.539   1.678   5.272 -0.1379  0.4602  0.0986
 7771TIP3   OH223276   6.430   2.324   1.358  0.1978 -0.5059  1.1275
 7771TIP3    H123277   6.495   2.318   1.289 -1.8196 -0.2221 -0.9112
 7771TIP3    H223278   6.387   2.238   1.359  0.2326 -0.5286  2.0742
 7772TIP3   OH223279   5.596   1.580   1.316 -0.3176 -0.6880 -0.1974
 7772TIP3    H123280   5.555   1.497   1.340 -0.9338 -0.4400 -0.3684
 7772TIP3    H223281   5.651   1.559   1.241  0.1355 -1.0889  0.2399
 7773TIP3   OH223282   5.734   2.678   2.719  0.1408 -0.2229  0.0721
 7773TIP3    H123283   5.702   2.663   2.808  2.1060 -0.5781  0.7755
 7773TIP3    H223284   5.731   2.592   2.677  3.4110 -1.1225  1.3421
 7774TIP3   OH223285   0.193   2.726   3.203  0.2735 -0.1948 -0.0379
 7774TIP3    H123286   0.179   2.746   3.295 -0.1855  0.3219 -0.2148
 7774TIP3    H223287   0.288   2.723   3.193  0.3245 -0.6509  0.5328
 7775TIP3   OH223288   5.261   2.079   4.395  0.1401 -0.8742 -0.6632
 7775TIP3    H123289   5.281   2.113   4.482 -0.0140  1.0251 -1.3219
 7775TIP3    H223290   5.181   2.028   4.408  1.2554 -2.4135  0.6461
 7776TIP3   OH223291   3.286   1.199   2.838  0.0178 -0.0697 -1.0646
 7776TIP3    H123292   3.269   1.262   2.768 -2.8892 -0.3171 -0.7195
 7776TIP3    H223293   3.274   1.249   2.918 -1.5809 -0.8311 -0.7899
 7777TIP3   OH223294   6.885   6.621   3.077  0.3940 -0.3923 -0.0728
 7777TIP3    H123295   6.977   6.628   3.049  0.0892  0.2886 -0.9345
 7777TIP3    H223296   6.876   6.687   3.146  0.0395  0.9872 -1.4065
 7778TIP3   OH223297   5.754   3.537   5.653  0.3206  0.6136 -0.0260
 7778TIP3    H123298   5.718   3.468   5.709  0.8838  0.3437  0.0064
 7778TIP3    H223299   5.725   3.514   5.565 -0.3205  0.8790  0.1083
 7779TIP3   OH223300   3.662   0.943   3.574  0.2325  0.0045  0.3142
 7779TIP3    H123301   3.700   0.908   3.493  0.1370 -0.9178  0.6666
 7779TIP3    H223302   3.736   0.954   3.633 -0.1219 -3.2333  1.5480
 7780TIP3   OH223303   5.092   0.709   0.334 -0.2472  0.1954  0.4725
 7780TIP3    H123304   5.098   0.691   0.240  1.4200 -0.6282  0.6910
 7780TIP3    H223305   5.123   0.798   0.344 -1.6730  0.7660  0.1419
 7781TIP3   OH223306   2.372   0.362   4.249 -0.3653  0.8482  0.1140
 7781TIP3    H123307   2.365   0.431   4.183 -0.1060 -0.0692 -0.9164
 7781TIP3    H223308   2.315   0.390   4.320 -0.5844  1.9131 -0.4629
 7782TIP3   OH223309   4.345   1.635   4.884 -0.2032 -0.1557 -0.8468
 7782TIP3    H123310   4.302   1.717   4.859  0.4809  0.5188  0.0677
 7782TIP3    H223311   4.292   1.602   4.957 -0.6753 -0.7224 -1.4360
 7783TIP3   OH223312   0.524   4.928   4.225  0.0525  0.0118  0.0981
 7783TIP3    H123313   0.432   4.941   4.204 -0.3493 -0.4540  1.4414
 7783TIP3    H223314   0.525   4.849   4.279  1.2580 -0.0574  0.0012
 7784TIP3   OH223315   2.847   4.901   0.095  0.4498 -0.0314 -0.1440
 7784TIP3    H123316   2.822   4.840   0.164  2.8292 -0.7072  0.1933
 7784TIP3    H223317   2.843   4.849   0.015 -1.5421  0.5468 -0.4845
 7785TIP3   OH223318   7.156   3.444   1.978  0.2167  0.2775 -0.8364
 7785TIP3    H123319   7.132   3.464   2.068 -0.9650 -2.9210 -0.2977
 7785TIP3    H223320   7.251   3.429   1.980  0.3188  0.9865 -0.3085
 7786TIP3   OH223321   5.878   5.814   5.247  0.1209 -0.1302 -0.3645
 7786TIP3    H123322   5.949   5.771   5.294 -2.1752 -2.3599  1.3615
 7786TIP3    H223323   5.806   5.751   5.250 -1.6552  1.5829 -2.8850
 7787TIP3   OH223324   2.651   3.311   2.627 -0.0987  0.2296 -0.2559
 7787TIP3    H123325   2.608   3.342   2.707 -0.7833  1.7253 -1.1607
 7787TIP3    H223326   2.579   3.288   2.568  0.3789  0.5240 -0.9628
 7788TIP3   OH223327   0.155   4.902   0.987  0.2300 -0.2447  0.1813
 7788TIP3    H123328   0.094   4.966   0.949  0.7033  0.4506  0.5740
 7788TIP3    H223329   0.165   4.836   0.918  1.2836  1.1211 -1.0528
 7789TIP3   OH223330   5.894   2.604   0.967 -0.1712  0.4331 -0.5158
 7789TIP3    H123331   5.948   2.645   0.900 -0.4731  0.7702 -0.5550
 7789TIP3    H223332   5.888   2.512   0.940  1.5144  0.0675  0.2247
 7790TIP3   OH223333   1.082   0.311   2.139  0.0498  0.2896  0.5408
 7790TIP3    H123334   0.995   0.271   2.134  0.0079  0.5130 -1.6168
 7790TIP3    H223335   1.067   0.402   2.114  0.6838  0.7578  1.8033
 7791TIP3   OH223336   3.212   5.148   3.328 -0.3443 -0.2004 -0.1974
 7791TIP3    H123337   3.136   5.104   3.291  0.6655 -2.3855  0.1916
 7791TIP3    H223338   3.181   5.237   3.346 -2.0594 -0.2889 -2.3232
 7792TIP3   OH223339   4.889   0.827   5.365  0.3000  0.1600 -0.4364
 7792TIP3    H123340   4.957   0.795   5.425 -0.0092 -1.5048 -0.9152
 7792TIP3    H223341   4.936   0.879   5.300  0.4753  3.4162  2.0425
 7793TIP3   OH223342   2.831   2.500   4.308 -0.4099 -0.2962  0.0585
 7793TIP3    H123343   2.850   2.557   4.234  1.0476 -0.6195  0.1527
 7793TIP3    H223344   2.818   2.559   4.382 -1.2760 -0.0002 -0.3180
 7794TIP3   OH223345   5.909   2.472   3.919 -0.1814 -0.5942  0.5118
 7794TIP3    H123346   5.850   2.398   3.903  0.7716 -1.2039 -0.3930
 7794TIP3    H223347   5.953   2.485   3.835  0.1624  0.5606  0.8596
 7795TIP3   OH223348   4.875   0.463   0.011 -0.0591 -0.2324  0.0746
 7795TIP3    H123349   4.928   0.534   0.047 -0.9426  0.6125 -0.2410
 7795TIP3    H223350   4.904   0.385   0.058  0.2258  0.5023  1.1531
 7796TIP3   OH223351   6.425   0.143   0.519  0.1210  0.4458  0.1643
 7796TIP3    H123352   6.432   0.145   0.614  1.3361 -0.5069  0.1154
 7796TIP3    H223353   6.515   0.134   0.488 -0.3581 -0.6952 -1.0167
 7797TIP3   OH223354   2.836   4.450   1.697  0.2858 -0.1639 -0.2014
 7797TIP3    H123355   2.846   4.391   1.772 -0.9573 -1.0605 -0.7057
 7797TIP3    H223356   2.805   4.532   1.735 -3.0336 -1.4013  0.1282
 7798TIP3   OH223357   0.667   1.854   2.721  0.4070  0.0493  0.2408
 7798TIP3    H123358   0.609   1.926   2.746 -0.2905 -1.3942  3.1693
 7798TIP3    H223359   0.609   1.780   2.703  1.1862 -0.2589 -1.1891
 7799TIP3   OH223360   2.027   3.058   1.375 -1.0338 -0.3034  0.2489
 7799TIP3    H123361   1.944   3.018   1.400 -2.4045  0.6466 -2.5312
 7799TIP3    H223362   2.029   3.055   1.280  0.9655  1.9812  0.1043
 7800TIP3   OH223363   1.414   1.298   4.688  0.4638  0.0805 -0.5131
 7800TIP3    H123364   1.347   1.330   4.748  0.3487 -0.5706 -0.2893
 7800TIP3    H223365   1.487   1.272   4.746 -0.2551 -2.0801 -0.4846
 7801TIP3   OH223366   6.768   3.730   5.293 -0.2003 -0.1408  0.1449
 7801TIP3    H123367   6.716   3.775   5.359 -1.2309 -1.8212  0.5323
 7801TIP3    H223368   6.824   3.670   5.342 -0.1426 -0.5774 -0.4374
 7802TIP3   OH223369   3.144   3.088   1.667  0.0310 -0.3833  0.4082
 7802TIP3    H123370   3.163   3.013   1.610  1.4109 -1.1247  1.7507
 7802TIP3    H223371   3.224   3.140   1.664 -0.5086  0.4578  0.3816
 7803TIP3   OH223372   1.969   2.191   4.786 -0.8007 -0.3978 -0.1762
 7803TIP3    H123373   1.995   2.231   4.702 -0.5813  2.2336  1.0461
 7803TIP3    H223374   1.924   2.110   4.761  0.6066 -0.5001 -2.7461
 7804TIP3   OH223375   3.033   3.003   0.890 -0.5831  0.3268  0.5062
 7804TIP3    H123376   3.086   3.081   0.876  0.3923 -0.4654 -0.4006
 7804TIP3    H223377   2.971   3.003   0.817 -0.7457  0.3906  0.6451
 7805TIP3   OH223378   4.344   1.304   4.316  0.0799 -0.2125 -0.0301
 7805TIP3    H123379   4.408   1.285   4.384  1.0927  1.1384 -0.5477
 7805TIP3    H223380   4.264   1.328   4.364  0.8778  1.0782  0.7265
 7806TIP3   OH223381   1.212   3.389   5.138 -0.2617 -0.3416 -0.8172
 7806TIP3    H123382   1.169   3.303   5.135 -0.6771 -0.1129 -1.4339
 7806TIP3    H223383   1.305   3.369   5.146 -0.2148 -0.8777 -2.4021
 7807TIP3   OH223384   2.440   5.843   1.112 -0.0709  0.0302  0.1385
 7807TIP3    H123385   2.359   5.853   1.161  0.3876 -1.3955  1.2528
 7807TIP3    H223386   2.418   5.871   1.023 -1.5204  0.5137  0.6245
 7808TIP3   OH223387   2.779   0.820   4.454  0.2379  0.3017 -0.4432
 7808TIP3    H123388   2.750   0.729   4.463 -0.5727  0.7056  1.5150
 7808TIP3    H223389   2.698   0.872   4.462  0.9680  1.2758  0.9494
 7809TIP3   OH223390   4.057   3.487   2.203  0.2399  0.2728 -0.3007
 7809TIP3    H123391   4.110   3.497   2.282  1.0518 -0.9142 -0.6792
 7809TIP3    H223392   4.023   3.575   2.186  1.9190  1.0290  0.0598
 7810TIP3   OH223393   6.428   2.579   1.529 -0.5595  0.3782 -0.1804
 7810TIP3    H123394   6.458   2.624   1.609 -0.4115  1.5134 -0.8538
 7810TIP3    H223395   6.488   2.608   1.461  0.1515 -1.6610 -0.4604
 7811TIP3   OH223396   2.305   6.157   5.607 -0.1442 -0.5703  0.0366
 7811TIP3    H123397   2.228   6.108   5.635  0.3247 -1.4018 -0.0937
 7811TIP3    H223398   2.306   6.148   5.511  0.6340 -1.3801  0.1075
 7812TIP3   OH223399   6.734   2.648   0.240 -0.4756  0.1886  0.1006
 7812TIP3    H123400   6.674   2.696   0.184 -1.4113 -0.2695  0.6737
 7812TIP3    H223401   6.734   2.559   0.204 -1.1943 -0.1445  0.8868
 7813TIP3   OH223402   4.124   4.587   2.494 -0.1528 -0.4437 -0.4359
 7813TIP3    H123403   4.189   4.656   2.479 -1.2885  0.9547  0.6463
 7813TIP3    H223404   4.095   4.602   2.584  1.0167 -3.6808  0.5889
 7814TIP3   OH223405   4.775   4.971   1.593 -0.2496  0.0999 -0.4573
 7814TIP3    H123406   4.845   4.949   1.531  2.0762 -0.3398  2.0770
 7814TIP3    H223407   4.736   5.051   1.559  1.4163  0.2837 -2.1070
 7815TIP3   OH223408   5.067   3.747   5.334 -0.2494 -0.1243 -0.2500
 7815TIP3    H123409   5.090   3.722   5.244  1.4710 -0.1263  0.1559
 7815TIP3    H223410   5.075   3.665   5.384  3.2427  0.6585  0.6851
 7816TIP3   OH223411   6.090   0.507   4.583  0.1580  0.0305  0.0447
 7816TIP3    H123412   6.080   0.589   4.535 -3.4225 -0.4096 -0.2704
 7816TIP3    H223413   6.014   0.455   4.556  0.4765 -2.0629  2.7861
 7817TIP3   OH223414   1.611   3.648   3.487 -0.0339 -0.1313 -0.5828
 7817TIP3    H123415   1.516   3.660   3.487 -0.1322 -0.6668  0.7013
 7817TIP3    H223416   1.624   3.559   3.455 -0.0130 -0.2537 -0.2435
 7818TIP3   OH223417   0.871   3.517   2.707 -0.1775  0.0417  0.5198
 7818TIP3    H123418   0.909   3.537   2.622  0.3225 -0.7637  0.5328
 7818TIP3    H223419   0.806   3.449   2.689 -1.1498  0.9280  0.5934
 7819TIP3   OH223420   4.951   1.098   4.827 -0.3157 -0.3605  0.3094
 7819TIP3    H123421   4.990   1.078   4.742  1.5396  0.3780  0.9340
 7819TIP3    H223422   4.934   1.192   4.825 -0.8983 -0.4548  0.5243
 7820TIP3   OH223423   5.917   4.979   0.723  0.0771  0.2261  0.6207
 7820TIP3    H123424   5.881   4.902   0.767 -1.2228  0.5382  0.1365
 7820TIP3    H223425   5.860   4.994   0.648  0.1096  1.8272  0.8636
 7821TIP3   OH223426   5.589   2.301   1.902  0.2190  0.3006 -0.1084
 7821TIP3    H123427   5.660   2.258   1.854 -1.9416 -2.2411 -1.2979
 7821TIP3    H223428   5.574   2.245   1.978  1.4240  2.5173  1.8802
 7822TIP3   OH223429   4.165   1.695   0.031 -0.5484  0.2332  0.2493
 7822TIP3    H123430   4.132   1.771   0.079 -0.6169  0.7019 -0.5204
 7822TIP3    H223431   4.222   1.732  -0.036 -0.1806 -0.4319  0.1932
 7823TIP3   OH223432   1.583   5.129   2.498 -0.1588 -0.1520  0.1329
 7823TIP3    H123433   1.615   5.216   2.522 -1.2865  0.4954 -0.6172
 7823TIP3    H223434   1.658   5.088   2.454 -0.1290  1.0980 -1.0474
 7824TIP3   OH223435   3.886   3.155   2.790 -0.1800  0.1860 -0.3339
 7824TIP3    H123436   3.841   3.223   2.841  0.5596 -0.2972  1.0253
 7824TIP3    H223437   3.876   3.076   2.843  1.7800 -0.0458 -0.2521
 7825TIP3   OH223438   4.518   0.275   3.091 -0.1777  0.1173  0.3350
 7825TIP3    H123439   4.582   0.241   3.028  1.5877  2.5308  0.6603
 7825TIP3    H223440   4.472   0.344   3.042 -2.1536 -1.1581  0.3079
 7826TIP3   OH223441   6.635   1.270   5.509  0.2058 -0.0288  0.3818
 7826TIP3    H123442   6.696   1.341   5.489 -0.5000 -0.0022 -2.0379
 7826TIP3    H223443   6.691   1.197   5.536  1.1006  0.7575  0.7076
 7827TIP3   OH223444   6.809   1.513   0.687  0.2951  0.7258 -0.0361
 7827TIP3    H123445   6.868   1.529   0.761  1.2980  1.6211 -0.9912
 7827TIP3    H223446   6.838   1.575   0.620 -0.7412  0.0903 -1.1023
 7828TIP3   OH223447   4.387   0.607   0.320 -0.0965 -0.0654  0.4048
 7828TIP3    H123448   4.359   0.696   0.295  0.9940  0.6917  1.7321
 7828TIP3    H223449   4.328   0.583   0.392  0.3268  0.0541  0.7960
 7829TIP3   OH223450   1.795   6.490   5.638 -0.6916 -0.0660 -0.0185
 7829TIP3    H123451   1.829   6.402   5.622  0.8798  0.6521 -0.8359
 7829TIP3    H223452   1.701   6.482   5.622 -0.3997 -1.3363 -1.3709
 7830TIP3   OH223453   2.391   3.626   1.225  0.1991  0.5587 -0.0109
 7830TIP3    H123454   2.298   3.606   1.233  0.3824  0.2930  1.8990
 7830TIP3    H223455   2.435   3.547   1.257  1.1440  0.0697 -2.3296
 7831TIP3   OH223456   2.665   2.605   4.816  0.3042  0.4403  0.2768
 7831TIP3    H123457   2.605   2.554   4.870  1.4449 -0.1937  0.9924
 7831TIP3    H223458   2.625   2.604   4.729  0.1934 -1.5822  0.2914
 7832TIP3   OH223459   0.839   0.823   3.220 -0.1030 -0.4005  0.0530
 7832TIP3    H123460   0.851   0.783   3.306 -0.7548  0.0073  0.3473
 7832TIP3    H223461   0.927   0.845   3.190  0.1136 -0.4011  0.6862
 7833TIP3   OH223462   4.736   4.205   1.393 -0.1758  0.8688 -0.0024
 7833TIP3    H123463   4.767   4.138   1.332 -1.9727 -2.9410  2.8027
 7833TIP3    H223464   4.641   4.207   1.380 -0.3866  1.2545  1.3813
 7834TIP3   OH223465   5.618   0.483   4.685 -0.2142 -0.0090  0.0691
 7834TIP3    H123466   5.649   0.395   4.709 -0.7814  0.2155  1.7921
 7834TIP3    H223467   5.593   0.522   4.769  0.3925  1.9487 -0.6304
 7835TIP3   OH223468   4.603   0.639   1.722  0.0753 -0.0261  0.5168
 7835TIP3    H123469   4.629   0.726   1.753  1.8528 -0.1488 -0.5390
 7835TIP3    H223470   4.611   0.643   1.627 -0.9544 -1.0179  0.3613
 7836TIP3   OH223471   3.956   1.065   5.650  0.6661 -0.5888  0.3170
 7836TIP3    H123472   3.909   1.131   5.702  1.2393 -0.0389  0.1593
 7836TIP3    H223473   3.958   1.102   5.562  2.9671  0.3319  0.6521
 7837TIP3   OH223474   0.545   4.786   2.215  0.2175  0.0455  0.4285
 7837TIP3    H123475   0.634   4.814   2.239  1.0308 -0.6374 -1.5063
 7837TIP3    H223476   0.535   4.700   2.257  0.4901  0.1227  0.6572
 7838TIP3   OH223477   0.291   3.381   0.269  0.1752 -0.2002 -0.0931
 7838TIP3    H123478   0.315   3.315   0.335 -1.2682 -0.5264  0.1331
 7838TIP3    H223479   0.227   3.437   0.313 -0.9764 -0.5437 -1.2532
 7839TIP3   OH223480   6.276   1.778   4.571 -0.0529  0.1354  0.5496
 7839TIP3    H123481   6.280   1.874   4.564  0.0177  0.0480 -1.0297
 7839TIP3    H223482   6.219   1.762   4.646 -1.3183  1.4328 -0.0803
 7840TIP3   OH223483   1.484   5.082   2.751  0.3905 -0.4086  0.6832
 7840TIP3    H123484   1.394   5.101   2.778  0.6610  0.6710  0.8913
 7840TIP3    H223485   1.490   5.114   2.661  0.9165  0.7941  1.1119
 7841TIP3   OH223486   3.352   5.628   0.261 -0.0977 -0.7039  0.1577
 7841TIP3    H123487   3.443   5.620   0.289  0.3221  2.6789  0.2400
 7841TIP3    H223488   3.301   5.622   0.341 -0.0540 -2.9479  0.0749
 7842TIP3   OH223489   1.170   0.967   2.472 -0.8012 -0.2600 -0.4462
 7842TIP3    H123490   1.230   1.034   2.438  0.8763 -1.6887 -0.4275
 7842TIP3    H223491   1.195   0.887   2.427  0.2029 -1.8216  2.6228
 7843TIP3   OH223492   2.334   5.392   1.903  0.5541  0.1638 -0.1004
 7843TIP3    H123493   2.314   5.318   1.961  0.2275 -0.1909 -0.6439
 7843TIP3    H223494   2.429   5.402   1.907  0.5951 -0.2601  0.0222
 7844TIP3   OH223495   4.802   6.404   5.881 -0.1470  0.2488 -0.2147
 7844TIP3    H123496   4.847   6.445   5.808 -0.0515 -0.2193 -0.4253
 7844TIP3    H223497   4.744   6.339   5.840 -1.6982  1.4441 -0.0241
 7845TIP3   OH223498   0.551   0.921   3.925  0.1590  0.1576 -0.1146
 7845TIP3    H123499   0.601   1.003   3.925  0.9116 -0.2594  1.7535
 7845TIP3    H223500   0.617   0.852   3.930 -0.5322 -0.4859  0.4822
 7846TIP3   OH223501   0.247   2.790   4.365  0.3592  0.8609 -0.7484
 7846TIP3    H123502   0.207   2.817   4.283  0.2761 -0.5046 -1.1912
 7846TIP3    H223503   0.232   2.695   4.368  0.4029  0.8830  0.8152
 7847TIP3   OH223504   1.442   5.496   4.501  0.2919 -0.8521  0.1049
 7847TIP3    H123505   1.492   5.425   4.460  0.1191 -0.2539 -1.2021
 7847TIP3    H223506   1.351   5.473   4.485  0.0414 -2.2061  2.9324
 7848TIP3   OH223507   5.340   5.640   1.494  0.2525  0.2064 -0.1252
 7848TIP3    H123508   5.414   5.622   1.436  1.0894 -0.5488  1.1082
 7848TIP3    H223509   5.380   5.649   1.581 -1.0882 -0.0529  0.5456
 7849TIP3   OH223510   1.949   5.565   5.526 -0.2126  0.0631  0.3649
 7849TIP3    H123511   1.870   5.518   5.552  0.8278 -1.5810  0.7274
 7849TIP3    H223512   1.944   5.569   5.430 -0.2958 -0.8702  0.3223
 7850TIP3   OH223513   2.248   2.949   1.491  0.3594 -0.0808 -0.1662
 7850TIP3    H123514   2.169   2.991   1.457 -0.5948 -1.5764  0.1243
 7850TIP3    H223515   2.217   2.867   1.529  2.4976 -2.6372 -3.4295
 7851TIP3   OH223516   3.751   5.230   4.887  0.1047 -0.1809  0.0155
 7851TIP3    H123517   3.741   5.158   4.949 -1.3054 -0.9798 -1.0777
 7851TIP3    H223518   3.661   5.256   4.867  0.5702  2.4254  0.9527
 7852TIP3   OH223519   7.067   0.822   2.011  0.1166 -0.2365  0.0855
 7852TIP3    H123520   7.062   0.853   2.101 -1.2737 -0.0084 -0.0381
 7852TIP3    H223521   7.051   0.728   2.016  0.6964 -0.3367  0.1276
 7853TIP3   OH223522   4.392   5.353   1.766 -0.5986  0.2217 -0.2960
 7853TIP3    H123523   4.317   5.294   1.772  0.2718 -0.8623  0.2833
 7853TIP3    H223524   4.447   5.314   1.699 -0.7574  1.2771 -1.0580
 7854TIP3   OH223525   5.370   3.693   0.553 -0.0898  0.3431 -0.4847
 7854TIP3    H123526   5.414   3.729   0.476 -0.0803  0.9419 -0.2086
 7854TIP3    H223527   5.422   3.724   0.627 -0.3206  0.0991 -0.2167
 7855TIP3   OH223528   6.400   2.268   5.392 -0.2185 -0.0507 -0.2671
 7855TIP3    H123529   6.324   2.209   5.391  0.3804 -0.8238 -1.5614
 7855TIP3    H223530   6.476   2.210   5.397  0.3873  0.5854 -1.6198
 7856TIP3   OH223531   1.652   4.209   0.464 -0.4390  0.7201  0.5747
 7856TIP3    H123532   1.742   4.224   0.492 -0.4028  0.2124  0.7416
 7856TIP3    H223533   1.642   4.265   0.386  0.4286 -0.1649 -0.2027
 7857TIP3   OH223534   7.119   6.564   2.629  0.2837 -0.1162  0.0331
 7857TIP3    H123535   7.174   6.594   2.702  1.1093  0.5465 -0.8461
 7857TIP3    H223536   7.042   6.620   2.632  0.4987  0.1714  0.1498
 7858TIP3   OH223537   3.995   5.793   5.049 -0.2875  0.1923  0.3306
 7858TIP3    H123538   3.938   5.769   4.975  0.0099  0.5601 -0.0283
 7858TIP3    H223539   3.955   5.752   5.125  0.0906 -1.2500 -0.2176
 7859TIP3   OH223540   0.230   0.706   3.433  0.3762 -0.3244 -0.8937
 7859TIP3    H123541   0.324   0.700   3.451  0.3247  2.1127  0.7394
 7859TIP3    H223542   0.222   0.779   3.372 -0.4503 -0.7663 -1.3340
 7860TIP3   OH223543   3.206   0.402   1.497  0.5318  0.0330 -0.2932
 7860TIP3    H123544   3.121   0.422   1.458  0.4730  0.8988  0.2649
 7860TIP3    H223545   3.196   0.314   1.534  0.5911 -0.8387 -2.2100
 7861TIP3   OH223546   1.434   2.488   0.923  0.3060  0.3226  0.8489
 7861TIP3    H123547   1.468   2.559   0.869 -1.0828  0.3621 -0.0142
 7861TIP3    H223548   1.501   2.475   0.990  1.2119  1.5159  0.2139
 7862TIP3   OH223549   4.750   5.380   3.866  0.3967 -0.0840 -0.3257
 7862TIP3    H123550   4.705   5.301   3.836  0.9111 -0.9055  0.9608
 7862TIP3    H223551   4.686   5.424   3.922 -0.3318  1.1005 -2.0289
 7863TIP3   OH223552   2.591   0.035   3.142  0.0709 -0.1153  0.2468
 7863TIP3    H123553   2.653   0.019   3.072  0.1587 -1.7873  0.6736
 7863TIP3    H223554   2.585  -0.048   3.190  0.8532  1.2386  2.9012
 7864TIP3   OH223555   0.766   0.654   3.619 -0.0215 -0.0949  0.3752
 7864TIP3    H123556   0.764   0.593   3.545 -2.6405  0.5957 -0.2512
 7864TIP3    H223557   0.811   0.607   3.688  1.6991 -1.1331 -1.3588
 7865TIP3   OH223558   3.492   0.943   5.113  0.2303  0.7266  0.0607
 7865TIP3    H123559   3.519   0.929   5.204  0.7169  0.0821 -0.1761
 7865TIP3    H223560   3.488   1.038   5.103  0.6037  0.8033  0.6333
 7866TIP3   OH223561   1.704   1.588   1.229  0.3850 -0.2762  0.6126
 7866TIP3    H123562   1.720   1.494   1.226 -1.7707 -0.7074  0.4965
 7866TIP3    H223563   1.698   1.614   1.137 -0.2696 -0.3087  0.6362
 7867TIP3   OH223564   1.346   1.650   4.246 -0.1432 -0.2637 -0.1886
 7867TIP3    H123565   1.385   1.578   4.295  1.6511  0.1192 -0.9840
 7867TIP3    H223566   1.344   1.723   4.308 -1.2405 -0.7397  0.3737
 7868TIP3   OH223567   1.320   3.319   4.276  0.0749  0.1787 -0.4722
 7868TIP3    H123568   1.293   3.227   4.277  2.6255 -0.7559 -3.0404
 7868TIP3    H223569   1.408   3.318   4.312  0.8973  1.2305 -2.3306
 7869TIP3   OH223570   6.169   3.295   1.859  0.2085 -0.2888  0.5082
 7869TIP3    H123571   6.220   3.349   1.919 -1.2032  2.5325 -0.6424
 7869TIP3    H223572   6.213   3.304   1.775 -0.4636 -0.3097  0.1435
 7870TIP3   OH223573   4.518   2.786   4.930  0.1472  0.1335 -0.5105
 7870TIP3    H123574   4.489   2.764   4.841  1.6434  1.5977 -1.4175
 7870TIP3    H223575   4.563   2.870   4.920  1.1743 -0.1235  1.4901
 7871TIP3   OH223576   6.136   4.718   2.857  0.1746 -0.1547  0.0188
 7871TIP3    H123577   6.077   4.645   2.879 -0.7351 -0.1885 -2.2979
 7871TIP3    H223578   6.104   4.791   2.910 -2.1610 -0.1211 -1.2815
 7872TIP3   OH223579   3.199   5.483   3.983 -0.3424  0.1270 -0.1110
 7872TIP3    H123580   3.168   5.478   4.073 -0.3681  1.5207 -0.0146
 7872TIP3    H223581   3.292   5.503   3.991  0.3003 -2.3788 -0.4106
 7873TIP3   OH223582   5.505   4.541   1.842  0.2750  0.3494  0.2693
 7873TIP3    H123583   5.595   4.572   1.849  0.3253  0.4198 -0.5209
 7873TIP3    H223584   5.495   4.520   1.749  0.0877 -1.5546  0.6864
 7874TIP3   OH223585   6.421   2.418   0.611  0.8848 -0.2705 -0.5484
 7874TIP3    H123586   6.421   2.323   0.620  0.4287 -0.2436 -0.2025
 7874TIP3    H223587   6.328   2.442   0.605  1.0087  0.1237 -0.9380
 7875TIP3   OH223588   4.129   5.339   0.994  0.0087 -0.4237 -0.2497
 7875TIP3    H123589   4.173   5.317   1.076 -0.9370 -0.6019  0.2182
 7875TIP3    H223590   4.189   5.399   0.951  0.5307 -0.3397  0.5664
 7876TIP3   OH223591   5.668   5.246   4.959 -0.1951 -0.4266 -0.1202
 7876TIP3    H123592   5.740   5.226   5.019  1.1490 -1.7018 -2.0304
 7876TIP3    H223593   5.712   5.268   4.876 -1.9848  0.6144 -0.8571
 7877TIP3   OH223594   3.884   5.756   2.705 -0.0131  0.4517 -0.2340
 7877TIP3    H123595   3.856   5.701   2.631 -2.0337 -2.4469  2.4246
 7877TIP3    H223596   3.974   5.729   2.722  0.0759  0.2991 -0.9065
 7878TIP3   OH223597   4.514   4.861   3.422  0.0591  0.0618  0.1457
 7878TIP3    H123598   4.525   4.861   3.327  1.4360  1.7473  0.2508
 7878TIP3    H223599   4.530   4.952   3.448 -1.0919 -0.1969  1.9192
 7879TIP3   OH223600   0.792   3.321   1.836  0.2691 -0.2265 -0.1218
 7879TIP3    H123601   0.843   3.373   1.898  0.3189  0.5638 -0.7898
 7879TIP3    H223602   0.717   3.376   1.815  0.0670 -0.6297 -0.4816
 7880TIP3   OH223603   4.491   0.519   3.904 -0.6619 -0.3805 -0.2924
 7880TIP3    H123604   4.453   0.605   3.919 -2.8640 -1.4450  0.6468
 7880TIP3    H223605   4.582   0.527   3.932 -1.1706  1.2925  0.9958
 7881TIP3   OH223606   6.258   5.178   1.489 -0.4299 -0.2365 -0.0056
 7881TIP3    H123607   6.263   5.214   1.577 -0.5638 -2.1978  0.8573
 7881TIP3    H223608   6.328   5.222   1.441 -1.4591  2.1503  0.5313
 7882TIP3   OH223609   2.457   3.808   5.750  0.3976 -0.1091 -0.9174
 7882TIP3    H123610   2.369   3.781   5.777  0.5930  0.0987 -0.0259
 7882TIP3    H223611   2.463   3.900   5.776  0.0463  0.5899 -3.1335
 7883TIP3   OH223612   0.115   0.508   5.804 -0.3819 -0.1591  0.2626
 7883TIP3    H123613   0.199   0.527   5.764 -0.4316  1.4368  0.8542
 7883TIP3    H223614   0.051   0.522   5.734 -0.2016 -0.9372 -0.0656
 7884TIP3   OH223615   6.903   3.791   1.980  0.2861  0.5027 -0.5519
 7884TIP3    H123616   6.966   3.787   2.052  0.1139 -1.9021 -0.4540
 7884TIP3    H223617   6.825   3.831   2.019 -0.0491 -1.3759  0.8614
 7885TIP3   OH223618   1.318   2.431   4.878 -0.9021 -0.2759  0.4421
 7885TIP3    H123619   1.276   2.427   4.791 -1.1823 -0.6702  0.5930
 7885TIP3    H223620   1.392   2.490   4.866 -0.9973 -0.2501 -0.0455
 7886TIP3   OH223621   5.684   2.067   2.746  0.3231  0.0066 -0.2838
 7886TIP3    H123622   5.630   2.055   2.668 -0.1431 -0.2698  0.0765
 7886TIP3    H223623   5.624   2.105   2.810  0.7399  0.3697 -0.1033
 7887TIP3   OH223624   5.388   1.840   4.353  0.1594 -0.0036  0.6613
 7887TIP3    H123625   5.469   1.883   4.326 -0.5415 -0.3261 -2.3876
 7887TIP3    H223626   5.325   1.911   4.361  0.6356  0.2312  2.8962
 7888TIP3   OH223627   4.715   0.647   5.494 -0.1938 -0.0859  0.1881
 7888TIP3    H123628   4.766   0.696   5.430 -0.6980 -0.0516 -0.1968
 7888TIP3    H223629   4.646   0.709   5.521  0.2186  0.0201  1.0199
 7889TIP3   OH223630   4.594   4.255   3.698  0.1722  0.4658  0.6275
 7889TIP3    H123631   4.657   4.309   3.650 -0.6407  1.1188  0.2479
 7889TIP3    H223632   4.558   4.315   3.764  0.2483 -0.0158  1.1051
 7890TIP3   OH223633   6.161   2.991   0.111 -0.1880 -0.5740 -0.2603
 7890TIP3    H123634   6.177   3.004   0.204 -2.3036  1.8795 -0.1113
 7890TIP3    H223635   6.133   2.900   0.103  0.4720 -0.9463  1.4329
 7891TIP3   OH223636   3.764   3.887   0.362  0.1179  0.4539 -0.2874
 7891TIP3    H123637   3.675   3.868   0.331 -0.4564  1.5602  0.6366
 7891TIP3    H223638   3.819   3.827   0.311 -1.2556 -1.1443 -0.0145
 7892TIP3   OH223639   6.191   5.622   4.220 -0.4169 -0.2181 -0.8910
 7892TIP3    H123640   6.211   5.616   4.126 -1.0177 -0.3592 -1.0116
 7892TIP3    H223641   6.100   5.652   4.224  0.2162  1.8451 -0.3378
 7893TIP3   OH223642   4.314   4.541   1.451  0.7539  0.6196 -0.1187
 7893TIP3    H123643   4.264   4.461   1.435  0.6957  0.5828  0.2301
 7893TIP3    H223644   4.285   4.602   1.384 -0.3657  0.8744  0.5734
 7894TIP3   OH223645   2.370   5.801   1.606  0.0135  0.0034 -0.0745
 7894TIP3    H123646   2.328   5.725   1.566  1.8204 -1.6001  0.9455
 7894TIP3    H223647   2.302   5.868   1.606 -0.8952 -0.7247 -3.3537
 7895TIP3   OH223648   4.839   3.741   3.248 -0.3864 -0.0332 -0.0729
 7895TIP3    H123649   4.876   3.723   3.335  0.4353  0.1363 -0.3899
 7895TIP3    H223650   4.761   3.684   3.244 -0.2928 -0.2258  0.6743
 7896TIP3   OH223651   5.579   6.030   3.563  0.1899  0.0304 -0.1704
 7896TIP3    H123652   5.530   6.112   3.569 -0.7947 -0.6299  1.4253
 7896TIP3    H223653   5.512   5.962   3.562  1.0020 -0.7926 -1.2810
 7897TIP3   OH223654   1.131   3.003   3.137  0.5095 -0.0026  0.3447
 7897TIP3    H123655   1.047   3.045   3.117  0.2423  0.1708  1.7838
 7897TIP3    H223656   1.146   3.019   3.230  2.8313  1.1790 -0.1440
 7898TIP3   OH223657   1.747   1.654   2.657 -0.3409 -0.3208 -0.0102
 7898TIP3    H123658   1.719   1.693   2.574 -2.2451  0.8032  1.1008
 7898TIP3    H223659   1.771   1.564   2.634  0.4901  0.3451 -1.9829
 7899TIP3   OH223660   5.329   1.021   5.299  0.0549  0.6332 -0.6354
 7899TIP3    H123661   5.358   1.038   5.209  0.6527  0.9495 -0.3870
 7899TIP3    H223662   5.397   1.060   5.354 -0.4983  0.7809 -0.0425
 7900TIP3   OH223663   6.569   6.759   2.889  0.3001  0.1009 -0.2520
 7900TIP3    H123664   6.512   6.693   2.928 -0.1411 -0.1033 -1.2151
 7900TIP3    H223665   6.513   6.836   2.879  0.7925  0.6157  0.7992
 7901TIP3   OH223666   6.574   3.908   0.358  0.8477  0.0814  0.5596
 7901TIP3    H123667   6.482   3.905   0.385  0.5852 -1.7815 -0.3877
 7901TIP3    H223668   6.624   3.900   0.439  0.0982 -3.4303  0.8281
 7902TIP3   OH223669   1.869   6.201   3.456  0.4720 -0.0629  0.1485
 7902TIP3    H123670   1.778   6.215   3.430  0.7463  0.7823 -0.3833
 7902TIP3    H223671   1.878   6.106   3.460 -0.3290 -0.1601 -0.1812
 7903TIP3   OH223672   4.665   4.031   2.232  0.4687  0.0430  0.1787
 7903TIP3    H123673   4.670   4.116   2.275 -1.5514  0.5146 -0.4054
 7903TIP3    H223674   4.601   3.981   2.283 -0.0457 -0.3047 -0.7675
 7904TIP3   OH223675   7.039   0.232   3.063  0.3434 -0.2101  0.1569
 7904TIP3    H123676   6.976   0.213   2.994 -0.8717 -0.4981  1.2997
 7904TIP3    H223677   7.123   0.200   3.029 -0.0805  0.2801 -1.4339
 7905TIP3   OH223678   0.192   4.630   0.048  0.0085  0.1525  0.1269
 7905TIP3    H123679   0.189   4.565  -0.022  2.1255 -0.8229  0.8611
 7905TIP3    H223680   0.254   4.594   0.112  0.1571  2.2354  1.2497
 7906TIP3   OH223681   4.334   3.946   3.591 -0.9854 -0.1671  0.4562
 7906TIP3    H123682   4.332   3.862   3.637 -1.0630 -0.5229 -0.1867
 7906TIP3    H223683   4.427   3.962   3.573 -1.0799 -0.8698 -0.7605
 7907TIP3   OH223684   5.941   0.862   4.567 -0.3220 -0.6456 -0.0862
 7907TIP3    H123685   5.963   0.951   4.538 -0.4914 -0.1722  1.2038
 7907TIP3    H223686   5.990   0.849   4.647 -0.5778 -1.5980 -0.0700
 7908TIP3   OH223687   2.550   3.174   2.386  0.0401  0.2932  0.1042
 7908TIP3    H123688   2.598   3.201   2.308  0.8676  1.1947  0.8923
 7908TIP3    H223689   2.487   3.109   2.355  1.5682 -0.7289 -1.0396
 7909TIP3   OH223690   7.019   3.826   4.729  0.4974 -0.1499 -0.3311
 7909TIP3    H123691   6.950   3.891   4.715 -0.0536 -0.5224  0.5364
 7909TIP3    H223692   7.101   3.873   4.715  0.1101  0.7560  0.3717
 7910TIP3   OH223693   3.143   5.188   3.930 -0.7092  0.0586 -0.3108
 7910TIP3    H123694   3.214   5.204   3.868 -1.7425 -1.1732 -1.8777
 7910TIP3    H223695   3.141   5.093   3.940 -0.3825  0.2151  1.9126
 7911TIP3   OH223696   3.933   6.557   2.463 -0.1663 -0.3660  0.2514
 7911TIP3    H123697   3.901   6.613   2.392  0.9739  0.5409  0.4207
 7911TIP3    H223698   3.877   6.480   2.459 -1.8139  0.7808  0.0364
 7912TIP3   OH223699   4.628   0.203   1.586 -0.6252 -0.4452  0.3301
 7912TIP3    H123700   4.705   0.153   1.563 -0.5572  0.0028 -0.4477
 7912TIP3    H223701   4.602   0.247   1.505 -0.6462  0.8151  0.9843
 7913TIP3   OH223702   4.519   5.717   5.132 -0.3282 -0.2188  0.1472
 7913TIP3    H123703   4.515   5.622   5.121 -0.9670 -0.0894 -0.8815
 7913TIP3    H223704   4.448   5.751   5.078 -0.7426  0.8018  1.2757
 7914TIP3   OH223705   0.377   1.917   2.949 -0.2488 -0.4243  0.6455
 7914TIP3    H123706   0.387   2.011   2.934  1.7337 -0.3969  1.7697
 7914TIP3    H223707   0.337   1.883   2.869 -1.8173  1.4824  0.5615
 7915TIP3   OH223708   4.977   2.300   3.206  0.6886  0.2750 -0.1834
 7915TIP3    H123709   4.958   2.353   3.128  0.1726 -2.2823 -1.9465
 7915TIP3    H223710   4.905   2.320   3.267  0.0961  1.0390 -1.1111
 7916TIP3   OH223711   2.975   2.247   3.986  0.0042 -0.6266 -1.1188
 7916TIP3    H123712   3.013   2.297   4.058 -0.2733 -0.6126 -0.9790
 7916TIP3    H223713   3.033   2.171   3.977  1.4344  0.5862 -2.5000
 7917TIP3   OH223714   1.598   5.466   1.230  0.5546  0.1091 -0.1952
 7917TIP3    H123715   1.617   5.507   1.315  2.9505  1.3902 -1.2376
 7917TIP3    H223716   1.538   5.527   1.187  2.0935  1.3080 -0.7329
 7918TIP3   OH223717   5.789   3.606   3.462  0.4734  0.5832  0.3657
 7918TIP3    H123718   5.876   3.569   3.472  0.7187  1.0357 -0.0811
 7918TIP3    H223719   5.788   3.682   3.520  1.1236  1.8655 -1.2627
 7919TIP3   OH223720   2.422   6.083   4.808 -0.1350  0.0745 -0.2201
 7919TIP3    H123721   2.475   6.008   4.782  0.8554  0.8828 -0.6280
 7919TIP3    H223722   2.486   6.150   4.833 -0.9543  1.1062 -0.8055
 7920TIP3   OH223723   5.260  -0.007   5.602 -0.1168 -0.0168 -0.1041
 7920TIP3    H123724   5.201   0.067   5.592  0.2155  0.3758  0.7405
 7920TIP3    H223725   5.345   0.032   5.624  0.0704 -0.6457  0.3261
 7921TIP3   OH223726   0.242   3.749   3.598  0.3095 -0.8287 -0.5707
 7921TIP3    H123727   0.291   3.830   3.612 -1.7850  0.2532  1.0528
 7921TIP3    H223728   0.209   3.725   3.684 -1.5901 -1.7247 -1.4737
 7922TIP3   OH223729   6.450   5.389   2.156  0.3556 -0.4654  0.3167
 7922TIP3    H123730   6.426   5.363   2.245  1.0271 -1.3046  0.2681
 7922TIP3    H223731   6.512   5.461   2.169  0.3369 -0.4832  0.5209
 7923TIP3   OH223732   5.115   3.786   1.612 -0.2430  0.0582 -0.4147
 7923TIP3    H123733   5.209   3.775   1.628 -0.2991 -0.4791 -0.4215
 7923TIP3    H223734   5.082   3.826   1.693  0.3159  2.1712 -1.1878
 7924TIP3   OH223735   4.124   5.326   4.515 -0.5243 -0.5083  0.0757
 7924TIP3    H123736   4.155   5.279   4.592 -1.8213 -1.8250 -0.1716
 7924TIP3    H223737   4.179   5.292   4.443 -2.2355 -2.6432 -0.3164
 7925TIP3   OH223738   4.234   4.849   2.161  0.3411 -0.1609  0.0291
 7925TIP3    H123739   4.165   4.886   2.105 -1.1703 -0.4818  1.6133
 7925TIP3    H223740   4.297   4.812   2.099  0.7351  2.8456 -1.5827
 7926TIP3   OH223741   4.932   0.256   3.846 -0.4026 -0.2924  0.3827
 7926TIP3    H123742   4.898   0.219   3.927  0.3920  0.0944  0.8959
 7926TIP3    H223743   4.998   0.319   3.873  0.9398 -1.2174 -0.6051
 7927TIP3   OH223744   4.275   4.344   0.741  0.4434  0.0032 -0.0092
 7927TIP3    H123745   4.287   4.361   0.647 -0.0056  0.7829  0.0643
 7927TIP3    H223746   4.184   4.367   0.758  0.6501  0.3217  0.7085
 7928TIP3   OH223747   1.344   1.895   5.075  0.3519  0.1244 -0.3010
 7928TIP3    H123748   1.383   1.977   5.105  0.9275  0.2768 -1.3999
 7928TIP3    H223749   1.361   1.833   5.147  0.8855  0.6892  0.0746
 7929TIP3   OH223750   5.809   5.093   3.364  0.3987  0.0491 -0.7144
 7929TIP3    H123751   5.887   5.145   3.348  0.1851  0.3023 -0.9450
 7929TIP3    H223752   5.822   5.057   3.452  0.8498 -0.0537 -0.8198
 7930TIP3   OH223753   3.216   5.547   2.624  0.3219  0.6990  0.1912
 7930TIP3    H123754   3.190   5.631   2.664  1.6295  0.0912  2.5073
 7930TIP3    H223755   3.285   5.514   2.681  0.5308 -1.5178 -1.2345
 7931TIP3   OH223756   3.502   0.157   4.463  0.4659  0.1439 -0.0636
 7931TIP3    H123757   3.410   0.161   4.437 -0.1192 -1.7843  1.5058
 7931TIP3    H223758   3.509   0.219   4.535  0.2857 -0.0424  0.1147
 7932TIP3   OH223759   0.029   0.522   2.511  0.1383 -0.3188 -0.2574
 7932TIP3    H123760   0.123   0.506   2.522  0.2656  0.3378 -0.3484
 7932TIP3    H223761  -0.010   0.435   2.512  0.4229 -0.5210  2.6225
 7933TIP3   OH223762   1.584   4.667   1.197  0.2938  0.1700 -0.6506
 7933TIP3    H123763   1.574   4.760   1.220 -0.0564 -0.0583  0.1405
 7933TIP3    H223764   1.665   4.664   1.146  0.5181  0.8574 -0.3530
 7934TIP3   OH223765   4.967   3.379   3.920 -0.5022 -0.2245  0.3063
 7934TIP3    H123766   4.888   3.326   3.924 -0.8424  0.1763 -0.8089
 7934TIP3    H223767   5.013   3.348   3.842  0.8094 -0.9431  1.3332
 7935TIP3   OH223768   6.755   4.517   0.863 -0.3144  0.2160 -0.2296
 7935TIP3    H123769   6.701   4.581   0.911 -0.0829 -0.3295  0.7880
 7935TIP3    H223770   6.720   4.519   0.774 -1.8375  0.1066  0.3256
 7936TIP3   OH223771   0.962   0.584   5.466  0.2647 -0.8589  0.1128
 7936TIP3    H123772   0.931   0.585   5.556 -0.9833  0.8643 -0.2829
 7936TIP3    H223773   0.903   0.523   5.421  1.6151 -2.6392  0.6359
 7937TIP3   OH223774   4.180   1.418   0.009 -0.5142  0.4724 -0.4731
 7937TIP3    H123775   4.111   1.373   0.058  1.0471 -0.3492  1.0846
 7937TIP3    H223776   4.149   1.508   0.000 -1.2702  0.4052  1.2136
 7938TIP3   OH223777   2.155   1.861   3.187  0.3487  0.6950 -0.5410
 7938TIP3    H123778   2.066   1.840   3.216 -0.0309  0.6209 -1.7022
 7938TIP3    H223779   2.212   1.817   3.250 -0.4312  0.8056  0.2598
 7939TIP3   OH223780   1.580   3.030   1.244  0.2058  0.4051 -0.1328
 7939TIP3    H123781   1.543   2.970   1.179 -2.1936 -1.6320  2.8490
 7939TIP3    H223782   1.581   3.115   1.200 -2.2037 -0.6491 -2.5071
 7940TIP3   OH223783   2.845   2.549   1.597  0.2131  0.2339 -0.1569
 7940TIP3    H123784   2.803   2.619   1.646 -0.7790 -0.7751  0.4717
 7940TIP3    H223785   2.832   2.574   1.505 -2.1659 -0.2238 -0.0135
 7941TIP3   OH223786   5.102   0.152   0.519  0.0617  0.3656 -0.1527
 7941TIP3    H123787   5.114   0.166   0.613  0.8511  0.3655 -0.2476
 7941TIP3    H223788   5.191   0.149   0.484  0.1257 -4.3965 -0.2228
 7942TIP3   OH223789   1.793   6.551   2.437 -0.1615  0.0462  0.6934
 7942TIP3    H123790   1.845   6.482   2.396 -0.6694 -0.7937  1.4438
 7942TIP3    H223791   1.856   6.604   2.485  0.1449 -0.2761  0.6484
 7943TIP3   OH223792   0.695   0.062   0.407 -0.5380 -0.1804 -0.2674
 7943TIP3    H123793   0.722   0.041   0.318  0.2120 -0.9498  0.1263
 7943TIP3    H223794   0.735  -0.006   0.461 -1.7377 -0.2573  0.5635
 7944TIP3   OH223795   6.874   4.519   2.445  0.1893 -0.2300 -0.0922
 7944TIP3    H123796   6.914   4.434   2.461 -0.0973 -0.0569  1.8357
 7944TIP3    H223797   6.874   4.562   2.531 -1.0427  1.1088 -0.7135
 7945TIP3   OH223798   4.320   5.820   0.890  0.0837 -0.1163 -0.9052
 7945TIP3    H123799   4.403   5.782   0.919  0.6751  0.2449 -2.0342
 7945TIP3    H223800   4.307   5.895   0.948 -0.1226 -0.9004  0.0991
 7946TIP3   OH223801   1.193   2.423   4.633 -0.0586 -0.0397  0.7738
 7946TIP3    H123802   1.252   2.369   4.581 -0.4702  0.1388  0.1085
 7946TIP3    H223803   1.111   2.423   4.584  0.1527  1.8263  0.3625
 7947TIP3   OH223804   6.774   5.713   2.378 -0.2165 -0.0827 -0.5526
 7947TIP3    H123805   6.740   5.802   2.390 -0.5773 -0.2271 -0.4950
 7947TIP3    H223806   6.834   5.700   2.451  0.2297  0.2974 -0.8399
 7948TIP3   OH223807   1.568   5.043   5.086 -0.2153  0.0125 -0.1270
 7948TIP3    H123808   1.595   5.025   4.996  0.5846  0.2496  0.0594
 7948TIP3    H223809   1.472   5.041   5.083 -0.2486  1.5511 -1.3060
 7949TIP3   OH223810   4.664   0.745   2.156  0.0829 -0.4306  0.3459
 7949TIP3    H123811   4.577   0.720   2.124  0.0936 -1.6744  1.2051
 7949TIP3    H223812   4.687   0.822   2.105 -1.3360 -0.3447 -0.2142
 7950TIP3   OH223813   1.670   2.421   3.235  0.1713 -0.5832 -0.4430
 7950TIP3    H123814   1.696   2.456   3.149  0.1437  0.3313 -0.0976
 7950TIP3    H223815   1.685   2.327   3.228 -0.3799 -0.6060 -1.6435
 7951TIP3   OH223816   3.124   2.750   1.378 -0.2013 -0.0282  0.3893
 7951TIP3    H123817   3.083   2.805   1.310  1.8603  1.9662  0.6473
 7951TIP3    H223818   3.098   2.792   1.460 -0.1026 -0.5662  0.6968
 7952TIP3   OH223819   5.662   5.638   4.080 -0.8050 -0.9466  0.2583
 7952TIP3    H123820   5.634   5.547   4.091  1.1745 -1.6305  0.1247
 7952TIP3    H223821   5.591   5.690   4.118 -1.2875 -2.6021  1.7691
 7953TIP3   OH223822   2.302   2.849   4.770  0.1637  0.1848  0.1507
 7953TIP3    H123823   2.346   2.932   4.790 -1.1071  0.9358 -0.0629
 7953TIP3    H223824   2.342   2.820   4.688  0.5614  0.6272  0.1816
 7954TIP3   OH223825   0.677   4.320   0.645  0.2724 -0.3564 -0.1286
 7954TIP3    H123826   0.738   4.292   0.713 -0.9837 -0.3616  1.0540
 7954TIP3    H223827   0.620   4.384   0.689  0.6495  1.1596 -1.7224
 7955TIP3   OH223828   4.183   1.950   1.960  0.4042  0.6991 -0.2458
 7955TIP3    H123829   4.110   1.897   1.928 -1.0128  2.4191  0.0110
 7955TIP3    H223830   4.252   1.886   1.978 -1.3918 -1.1257  0.5560
 7956TIP3   OH223831   6.703   5.227   5.264 -0.0847 -0.5104  0.9236
 7956TIP3    H123832   6.684   5.177   5.343 -0.0346  0.6705  1.7022
 7956TIP3    H223833   6.625   5.216   5.210 -1.2829  0.8102  2.2807
 7957TIP3   OH223834   6.515   0.673   0.589 -0.6000  0.5740 -0.4170
 7957TIP3    H123835   6.564   0.714   0.518  0.2553 -0.0117 -0.1839
 7957TIP3    H223836   6.434   0.643   0.548 -0.0244  0.0441 -1.2092
 7958TIP3   OH223837   5.401   4.496   2.090 -0.3277 -0.4428 -0.4645
 7958TIP3    H123838   5.405   4.538   2.004  0.0852  1.1745  0.3095
 7958TIP3    H223839   5.476   4.532   2.138 -0.1761 -1.8037  0.3731
 7959TIP3   OH223840   3.515   6.421   4.534  0.0067 -0.0705 -0.1289
 7959TIP3    H123841   3.467   6.485   4.482 -1.6225 -0.4566  0.8546
 7959TIP3    H223842   3.607   6.437   4.511 -0.5744  0.4210 -2.3477
 7960TIP3   OH223843   6.794   1.675   2.273  0.6554 -0.8968 -0.3013
 7960TIP3    H123844   6.873   1.620   2.277  0.4489 -1.1636  0.2201
 7960TIP3    H223845   6.827   1.764   2.261  1.0640 -0.9522  0.3291
 7961TIP3   OH223846   6.087   2.484   4.584  0.1492 -0.9463  0.1831
 7961TIP3    H123847   6.110   2.571   4.615  2.3182 -0.7406 -1.7375
 7961TIP3    H223848   6.003   2.496   4.539  1.1056  0.5120 -1.3153
 7962TIP3   OH223849   1.702   0.688   2.649 -0.5150  1.0058  0.1450
 7962TIP3    H123850   1.708   0.782   2.663  0.3260  0.9300  0.3177
 7962TIP3    H223851   1.788   0.662   2.618 -1.5946  0.7809 -3.0311
 7963TIP3   OH223852   3.877   3.763   5.312 -0.0648  0.1617 -0.2251
 7963TIP3    H123853   3.955   3.710   5.330 -0.3706 -0.1972  0.0825
 7963TIP3    H223854   3.880   3.833   5.377  0.3981  0.5941 -0.7017
 7964TIP3   OH223855   1.881   3.994   2.263  0.2374 -0.3424 -0.1588
 7964TIP3    H123856   1.832   3.945   2.329 -2.5955 -0.1841 -1.9506
 7964TIP3    H223857   1.827   4.072   2.247  0.9788 -0.2297 -2.3834
 7965TIP3   OH223858   4.870   6.227   3.903  0.1838 -0.2093 -0.0217
 7965TIP3    H123859   4.815   6.165   3.855 -1.4524  0.4975  0.8407
 7965TIP3    H223860   4.830   6.312   3.885  1.8788  0.5161 -0.5037
 7966TIP3   OH223861   0.836   5.153   5.812 -0.0562 -0.3764 -0.9610
 7966TIP3    H123862   0.871   5.163   5.724 -0.9335  1.2965 -1.1641
 7966TIP3    H223863   0.741   5.156   5.801 -0.2738 -2.5002 -0.1826
 7967TIP3   OH223864   1.885   3.237   0.673  0.0431 -0.4135  0.2899
 7967TIP3    H123865   1.935   3.308   0.635  1.4734 -1.7808 -0.4998
 7967TIP3    H223866   1.945   3.196   0.736 -1.0907 -0.3428  1.4649
 7968TIP3   OH223867   6.643   2.601   1.827  0.6123  0.1528 -0.0436
 7968TIP3    H123868   6.731   2.571   1.846  0.8513  0.8962  0.0635
 7968TIP3    H223869   6.651   2.653   1.747  0.3778  0.6621  0.2513
 7969TIP3   OH223870   2.612   3.809   4.617  0.3027 -0.0477 -0.3006
 7969TIP3    H123871   2.542   3.802   4.683  0.3234  0.3333 -0.2373
 7969TIP3    H223872   2.595   3.736   4.557 -0.0670 -0.0435 -0.2061
 7970TIP3   OH223873   0.544   4.537   2.338 -0.2177  0.0737 -0.1012
 7970TIP3    H123874   0.477   4.553   2.405  1.0811 -0.8353  1.4860
 7970TIP3    H223875   0.581   4.452   2.361 -1.0423 -1.2372 -3.1592
 7971TIP3   OH223876   2.212   0.480   3.428 -0.0691  0.3105  0.1097
 7971TIP3    H123877   2.160   0.546   3.473  1.3206  1.7251 -0.2768
 7971TIP3    H223878   2.299   0.487   3.467  0.9724  1.0315 -2.2103
 7972TIP3   OH223879   0.188   5.219   4.651 -0.6497 -0.3441  0.6495
 7972TIP3    H123880   0.182   5.252   4.741  2.7628 -0.0304  0.8921
 7972TIP3    H223881   0.224   5.130   4.661  2.3215  0.6278 -0.3732
 7973TIP3   OH223882   1.223   0.668   3.537 -0.0806 -0.3494 -0.1015
 7973TIP3    H123883   1.256   0.594   3.588  0.5372 -0.2969 -0.4135
 7973TIP3    H223884   1.299   0.697   3.486 -0.4978  0.0695 -0.4863
 7974TIP3   OH223885   0.658   1.471   0.869  0.0622 -0.1994 -0.5775
 7974TIP3    H123886   0.575   1.491   0.912  0.9820  1.0886  0.6667
 7974TIP3    H223887   0.662   1.534   0.796  0.5681  0.6928  0.2053
 7975TIP3   OH223888   5.183   0.852   1.738 -0.7258  0.2077 -0.4648
 7975TIP3    H123889   5.094   0.833   1.767  0.7742 -2.9676  2.6435
 7975TIP3    H223890   5.201   0.940   1.771 -2.7599  1.1364 -1.6165
 7976TIP3   OH223891   2.473   2.752   3.493  0.5824  0.1093 -0.9967
 7976TIP3    H123892   2.540   2.687   3.515  1.4579  1.2701 -0.1531
 7976TIP3    H223893   2.455   2.797   3.576 -0.6603  0.3643 -1.3816
 7977TIP3   OH223894   2.054   2.792   4.871 -0.2956 -0.6509  0.0362
 7977TIP3    H123895   2.035   2.829   4.957 -0.7090  1.4130 -0.8854
 7977TIP3    H223896   2.150   2.796   4.865 -0.3246  0.1419  0.0163
 7978TIP3   OH223897   4.897   3.430  -0.001  0.0863 -0.0704 -0.8868
 7978TIP3    H123898   4.843   3.355   0.024  0.3901 -0.0471 -0.1390
 7978TIP3    H223899   4.980   3.416   0.044 -0.6047  1.8409  1.1985
 7979TIP3   OH223900   3.144   2.818   5.297 -0.4881 -0.0803  0.2447
 7979TIP3    H123901   3.050   2.805   5.285  0.0648 -1.5300 -4.2251
 7979TIP3    H223902   3.161   2.905   5.262  0.0187 -0.5674 -0.7641
 7980TIP3   OH223903   1.340   1.070   3.375  0.4626 -0.0845  0.0024
 7980TIP3    H123904   1.362   1.101   3.463  0.5209  1.8700 -0.6327
 7980TIP3    H223905   1.310   1.149   3.329  0.0989 -1.1150 -1.6362
 7981TIP3   OH223906   1.606   1.818   0.395 -0.5600  0.0949  0.0466
 7981TIP3    H123907   1.512   1.802   0.386 -0.8128  1.0755  0.8094
 7981TIP3    H223908   1.622   1.815   0.489  0.4059 -1.2334 -0.1279
 7982TIP3   OH223909   1.805   6.606   3.300  0.2682  0.2996  0.7562
 7982TIP3    H123910   1.894   6.577   3.284  0.0969  0.2766 -0.1674
 7982TIP3    H223911   1.749   6.545   3.252 -0.1378  1.5169 -0.3717
 7983TIP3   OH223912   5.207   3.551   1.821  0.6475  0.5110 -0.0051
 7983TIP3    H123913   5.129   3.578   1.869  0.7383 -0.7145  0.8675
 7983TIP3    H223914   5.195   3.458   1.805  0.3513  0.9631 -2.9231
 7984TIP3   OH223915   0.056   6.240   0.228 -0.3089 -0.0153 -0.1474
 7984TIP3    H123916   0.039   6.163   0.174  0.3871  0.4144 -1.0079
 7984TIP3    H223917   0.074   6.205   0.316 -2.8670 -0.6360  0.2069
 7985TIP3   OH223918   4.366   6.255   1.309 -0.1874  0.3070 -0.1699
 7985TIP3    H123919   4.303   6.229   1.375  0.7255 -0.1592  0.5476
 7985TIP3    H223920   4.346   6.200   1.233 -1.3130  0.9259 -0.3425
 7986TIP3   OH223921   0.504   3.556   0.180 -0.3646 -0.1677  0.4220
 7986TIP3    H123922   0.570   3.542   0.247 -0.1546 -2.2377 -0.1393
 7986TIP3    H223923   0.441   3.485   0.193 -0.8875  0.0232 -0.8871
 7987TIP3   OH223924   6.935   1.058   1.829 -0.1894  0.1965 -0.1498
 7987TIP3    H123925   6.876   1.132   1.843 -1.6330 -1.1981  1.7111
 7987TIP3    H223926   7.007   1.073   1.890 -1.5078 -0.8686  1.7789
 7988TIP3   OH223927   0.631   3.282   4.784 -0.0690 -0.1748  0.3491
 7988TIP3    H123928   0.608   3.228   4.860 -0.0862 -1.0381 -0.2443
 7988TIP3    H223929   0.624   3.221   4.710 -1.2905  0.9425 -0.5017
 7989TIP3   OH223930   5.050   5.928   2.632  0.0704 -0.7031  0.1121
 7989TIP3    H123931   5.068   5.982   2.554 -1.8468 -1.3364 -0.8283
 7989TIP3    H223932   5.127   5.871   2.639  0.2960 -0.6320 -1.3384
 7990TIP3   OH223933   0.113   1.980   3.759 -0.3888 -0.3458  0.3084
 7990TIP3    H123934   0.050   2.043   3.794  0.4914  0.4554  0.4960
 7990TIP3    H223935   0.191   2.032   3.741 -0.0895 -1.1479 -0.8036
 7991TIP3   OH223936   2.822   0.203   4.541 -0.0889  0.2806  0.1713
 7991TIP3    H123937   2.827   0.249   4.625  0.6050  0.9498 -0.2193
 7991TIP3    H223938   2.805   0.272   4.477  1.5780  0.1077 -0.5054
 7992TIP3   OH223939   3.073   5.667   3.241  0.6128  0.7299  0.4203
 7992TIP3    H123940   3.127   5.746   3.239  2.0810 -0.1526  2.3890
 7992TIP3    H223941   3.001   5.689   3.301 -2.2922  2.3837 -3.1878
 7993TIP3   OH223942   0.532   0.073   4.370  0.0499 -0.2992  0.0102
 7993TIP3    H123943   0.597   0.017   4.328  2.1390 -1.4679  4.1852
 7993TIP3    H223944   0.464   0.012   4.400  0.0911  0.0081  0.7671
 7994TIP3   OH223945   0.848   3.003   3.452  0.3425 -0.3693 -0.5616
 7994TIP3    H123946   0.825   2.961   3.536  0.3959  1.2482  0.2992
 7994TIP3    H223947   0.941   3.026   3.462  0.3291 -0.1080 -1.0409
 7995TIP3   OH223948   4.202   3.852   2.798 -0.0818  1.0871  0.2257
 7995TIP3    H123949   4.203   3.764   2.835 -0.6522  1.0937  0.2575
 7995TIP3    H223950   4.289   3.887   2.819 -0.4020  1.0980  1.5760
 7996TIP3   OH223951   4.263   3.840   5.619 -0.1396 -0.4939  0.2601
 7996TIP3    H123952   4.194   3.775   5.633 -0.4268 -0.2775 -0.1123
 7996TIP3    H223953   4.342   3.788   5.607 -0.1226 -0.7256  1.2740
 7997TIP3   OH223954   4.992   2.954   4.959  0.6625  0.0328  0.2317
 7997TIP3    H123955   5.086   2.936   4.965  1.7390  4.0480 -1.4572
 7997TIP3    H223956   4.962   2.902   4.885  1.4171 -1.4904  0.9420
 7998TIP3   OH223957   5.737   2.773   4.256  0.1605 -0.1986  0.0087
 7998TIP3    H123958   5.739   2.816   4.171 -0.5122 -0.7927 -0.3162
 7998TIP3    H223959   5.830   2.765   4.281  0.3484  0.1838 -0.5571
 7999TIP3   OH223960   4.920   2.021   3.742 -0.4237  0.5336 -0.7037
 7999TIP3    H123961   4.859   2.087   3.710 -0.4615  0.3953 -0.9144
 7999TIP3    H223962   4.867   1.967   3.801 -0.6809  0.0029 -1.4024
 8000TIP3   OH223963   7.013   5.952   2.841 -0.3164 -0.1801 -0.8246
 8000TIP3    H123964   6.940   5.896   2.865 -0.5249  0.1740 -0.6232
 8000TIP3    H223965   7.027   5.936   2.748  0.2765 -1.3173 -0.5611
 8001TIP3   OH223966   4.901   4.769   2.230  0.2458 -0.3709  0.3625
 8001TIP3    H123967   4.816   4.800   2.197  0.7315 -0.3468 -0.9272
 8001TIP3    H223968   4.920   4.692   2.177  1.8147  0.6056 -0.5618
 8002TIP3   OH223969   3.052   3.813   0.217  0.2695  0.4665  0.1341
 8002TIP3    H123970   2.982   3.814   0.152 -0.8368  0.3443  1.2694
 8002TIP3    H223971   3.125   3.769   0.174 -0.9880 -1.1078 -0.4658
 8003TIP3   OH223972   7.003   1.924   2.420 -0.3394  0.3280  0.1028
 8003TIP3    H123973   6.952   1.994   2.379  0.1125 -0.7616 -2.5242
 8003TIP3    H223974   6.941   1.880   2.478 -1.2636  1.4338 -0.0130
 8004TIP3   OH223975   5.007   5.552   2.057  0.2657 -0.3037  0.0425
 8004TIP3    H123976   5.095   5.515   2.061  0.0753 -0.7390  0.2986
 8004TIP3    H223977   4.959   5.495   1.996  0.0934 -0.2115  0.0892
 8005TIP3   OH223978   2.000   5.802   0.476 -0.1515  0.3690 -0.3400
 8005TIP3    H123979   2.065   5.872   0.484 -0.8545  1.1239 -1.0918
 8005TIP3    H223980   2.008   5.752   0.558 -0.4955  2.0772  0.7765
 8006TIP3   OH223981   3.051   5.790   4.076  0.2579 -0.0106 -0.1569
 8006TIP3    H123982   3.143   5.801   4.103  0.3999  0.3556 -0.7738
 8006TIP3    H223983   3.056   5.752   3.989 -0.1615  0.8144 -0.5509
 8007TIP3   OH223984   4.021   2.713   2.126  0.7847  0.1978 -0.1818
 8007TIP3    H123985   4.058   2.744   2.043 -0.7444 -0.8171 -1.2906
 8007TIP3    H223986   3.935   2.755   2.131  0.2499 -0.9151  0.1435
 8008TIP3   OH223987   2.686   1.056   2.858 -0.0226  0.1713  0.4867
 8008TIP3    H123988   2.647   0.999   2.792  0.3531  0.3487  0.1045
 8008TIP3    H223989   2.748   1.110   2.809 -1.0992  1.6377  0.6320
 8009TIP3   OH223990   3.971   1.914   3.390 -0.3415 -0.2307  0.1897
 8009TIP3    H123991   3.973   1.958   3.475  0.4008 -2.1068  1.1854
 8009TIP3    H223992   3.914   1.969   3.336 -2.4134 -0.0185  2.4543
 8010TIP3   OH223993   6.454   5.953   0.049 -0.6671  0.1021 -0.2133
 8010TIP3    H123994   6.468   5.951   0.143 -1.6660 -0.3496 -0.0650
 8010TIP3    H223995   6.504   6.030   0.019  1.8807 -1.2714  0.2696
 8011TIP3   OH223996   4.910   5.403   3.181 -0.0814  0.0236 -0.2293
 8011TIP3    H123997   4.978   5.448   3.231 -0.9465  0.4481  0.6120
 8011TIP3    H223998   4.954   5.374   3.101  1.2718 -0.4113  0.6386
 8012TIP3   OH223999   3.248   0.397   0.221 -0.3424  0.3766  0.2056
 8012TIP3    H124000   3.289   0.398   0.135 -1.6112 -1.5842 -0.4882
 8012TIP3    H224001   3.169   0.344   0.210 -1.5015  1.5546  2.1686
 8013TIP3   OH224002   6.144   5.259   5.273  0.1097 -0.6022  0.3899
 8013TIP3    H124003   6.113   5.347   5.291 -1.2322 -0.4042 -2.3135
 8013TIP3    H224004   6.238   5.268   5.263  0.0437  0.4389  0.6010
 8014TIP3   OH224005   6.337   1.431   1.385  0.2258 -0.1110  0.4689
 8014TIP3    H124006   6.374   1.430   1.297  1.3044  1.4620  0.8604
 8014TIP3    H224007   6.357   1.344   1.421  0.1366 -0.6183 -0.6604
 8015TIP3   OH224008   3.382   4.514   1.154  0.7069  0.4379 -0.1374
 8015TIP3    H124009   3.345   4.426   1.151  0.3168  0.6046 -0.1749
 8015TIP3    H224010   3.317   4.569   1.111  1.8231  0.4385 -1.9626
 8016TIP3   OH224011   5.954   2.456   1.720  0.3353  0.0474  0.1381
 8016TIP3    H124012   6.005   2.427   1.796  0.1003  1.4730  0.8831
 8016TIP3    H224013   6.011   2.520   1.677  0.3712 -0.5829 -0.7844
 8017TIP3   OH224014   6.968   0.291   0.709  0.1781  0.3456 -0.0549
 8017TIP3    H124015   7.057   0.277   0.743 -0.4281 -1.8175  0.8508
 8017TIP3    H224016   6.970   0.256   0.620  0.2275  0.2439 -0.0141
 8018TIP3   OH224017   7.079   2.677   3.355 -0.1731 -0.0543  0.2479
 8018TIP3    H124018   7.036   2.623   3.421 -1.2387 -0.7150 -0.9473
 8018TIP3    H224019   7.007   2.713   3.303  0.6756 -1.9867 -2.4473
 8019TIP3   OH224020   5.912   2.108   4.156 -0.4030  0.0148  0.2901
 8019TIP3    H124021   5.920   2.013   4.161  0.8905  0.1578  1.7502
 8019TIP3    H224022   5.877   2.133   4.241 -1.4427  0.8140 -0.3493
 8020TIP3   OH224023   1.344   2.571   2.446  0.2016 -0.0887  0.1053
 8020TIP3    H124024   1.355   2.574   2.351 -0.1763  3.1190  0.0408
 8020TIP3    H224025   1.431   2.588   2.482 -0.0671  1.2637  0.1986
 8021TIP3   OH224026   1.503   5.036   4.299  0.2171  0.1435 -0.0376
 8021TIP3    H124027   1.537   5.032   4.388  0.6673  0.1880 -0.2053
 8021TIP3    H224028   1.579   5.022   4.243 -0.2746 -1.1969 -0.4061
 8022TIP3   OH224029   6.085   6.600   2.075  0.2434 -0.1369 -0.4312
 8022TIP3    H124030   6.153   6.600   2.142 -1.7300 -0.9630  1.6999
 8022TIP3    H224031   6.090   6.513   2.036 -0.8452 -0.9693  1.1699
 8023TIP3   OH224032   4.549   0.793   4.449 -0.0792 -0.6711 -0.0701
 8023TIP3    H124033   4.566   0.785   4.355  1.8061  0.5234  0.1303
 8023TIP3    H224034   4.590   0.715   4.487 -1.2444 -1.3976 -0.2431
 8024TIP3   OH224035   3.332   5.001   3.073  0.2588  0.2957 -0.2854
 8024TIP3    H124036   3.255   5.022   3.125  0.3478 -0.2205  0.0726
 8024TIP3    H224037   3.405   5.007   3.135  0.2334 -1.5131 -0.0143
 8025TIP3   OH224038   4.107   1.108   4.418 -0.4458  0.2786  0.0043
 8025TIP3    H124039   4.133   1.108   4.326 -0.8581  0.0853 -0.1153
 8025TIP3    H224040   4.162   1.040   4.458  1.6941  2.1865  0.4916
 8026TIP3   OH224041   4.602   2.962   4.673  0.2482  0.4119  0.0132
 8026TIP3    H124042   4.682   3.003   4.705 -0.1113  2.4172 -1.4334
 8026TIP3    H224043   4.632   2.888   4.621  1.0950  0.4902  0.3704
 8027TIP3   OH224044   1.914   3.884   0.725 -0.3098 -0.2087 -0.4061
 8027TIP3    H124045   1.951   3.865   0.639 -0.5006 -1.0550 -0.3067
 8027TIP3    H224046   1.836   3.828   0.730  0.4570 -1.2114  0.8674
 8028TIP3   OH224047   5.981   0.175   5.265 -0.0495 -0.0208  0.0522
 8028TIP3    H124048   6.019   0.254   5.227  0.9591 -0.8497 -0.7235
 8028TIP3    H224049   5.917   0.207   5.329 -0.7959  1.4286 -1.3368
 8029TIP3   OH224050   5.739   6.644   2.185 -0.8461  0.1349  0.4894
 8029TIP3    H124051   5.814   6.655   2.126  0.4659 -2.1046  1.6130
 8029TIP3    H224052   5.662   6.661   2.129  0.4367  2.4007 -0.7171
 8030TIP3   OH224053   5.255   6.312   1.516 -0.0169  0.5547 -0.2917
 8030TIP3    H124054   5.197   6.248   1.557 -1.6446  2.1990  0.1267
 8030TIP3    H224055   5.257   6.287   1.424  0.4075 -0.8058  0.0628
 8031TIP3   OH224056   2.711   4.617   1.078  0.1606  0.1077 -0.0496
 8031TIP3    H124057   2.656   4.559   1.131  0.5979 -0.9807 -0.7439
 8031TIP3    H224058   2.666   4.621   0.994  1.4683 -1.4028 -0.8787
 8032TIP3   OH224059   3.542   4.887   5.449  0.2943 -0.3880  0.0940
 8032TIP3    H124060   3.517   4.903   5.540  0.2998  1.3245 -0.1614
 8032TIP3    H224061   3.622   4.836   5.454  1.1271  0.9640  1.1062
 8033TIP3   OH224062   3.133   6.262   4.087  0.0911  0.2330  0.0671
 8033TIP3    H124063   3.044   6.247   4.057  0.5226 -0.3497 -0.9571
 8033TIP3    H224064   3.128   6.345   4.136 -0.8028  0.7384 -0.8450
 8034TIP3   OH224065   3.866   6.262   2.993  0.4120  0.1322  0.1877
 8034TIP3    H124066   3.944   6.287   3.041  0.2417  0.5354  0.2604
 8034TIP3    H224067   3.798   6.251   3.060  0.2853  0.2592  0.0808
 8035TIP3   OH224068   1.431   3.811   2.067 -0.4985  0.9587  0.1745
 8035TIP3    H124069   1.479   3.885   2.028 -1.3204  1.9368  0.9614
 8035TIP3    H224070   1.430   3.831   2.161  2.3976 -1.8863  0.9848
 8036TIP3   OH224071   0.025   3.487   0.084  0.1864  0.4628 -0.3886
 8036TIP3    H124072   0.051   3.421   0.019 -0.1855  0.1895 -0.2652
 8036TIP3    H224073   0.047   3.571   0.043  0.4372  0.2722 -0.6498
 8037TIP3   OH224074   6.377   3.583   5.193 -0.0130  0.0536 -0.3692
 8037TIP3    H124075   6.385   3.654   5.129  0.0663 -0.7593 -1.2749
 8037TIP3    H224076   6.310   3.613   5.254  2.3112  2.3978  1.2587
 8038TIP3   OH224077   5.864   1.810   3.816  0.0059  0.5198 -0.2403
 8038TIP3    H124078   5.954   1.775   3.815 -0.1023  0.2408 -0.2300
 8038TIP3    H224079   5.809   1.733   3.825 -0.2244  0.7227  0.0768
 8039TIP3   OH224080   4.168   0.190   3.046 -0.2231 -0.4156 -0.5144
 8039TIP3    H124081   4.154   0.229   2.960  0.5633  0.5363 -0.2306
 8039TIP3    H224082   4.201   0.262   3.100 -1.1893 -0.8738  0.7309
 8040TIP3   OH224083   2.023   4.101   4.557  0.2622 -0.1482 -0.4656
 8040TIP3    H124084   2.103   4.154   4.544  0.7475 -0.8721 -0.4767
 8040TIP3    H224085   1.954   4.152   4.515  0.6167  0.7566  0.0145
 8041TIP3   OH224086   0.346   6.733   3.908 -0.6656 -0.3246 -0.1016
 8041TIP3    H124087   0.368   6.745   3.815  0.8757 -0.5068  0.2085
 8041TIP3    H224088   0.350   6.638   3.920 -1.2854 -0.3332  0.0693
 8042TIP3   OH224089   3.559   3.373   1.937  0.2512  0.1498  0.0905
 8042TIP3    H124090   3.481   3.361   1.989  1.0474 -0.8087  1.1081
 8042TIP3    H224091   3.630   3.336   1.990  1.3493  0.7193 -0.9215
 8043TIP3   OH224092   0.562   0.266   1.657 -0.2311 -0.0100  0.2236
 8043TIP3    H124093   0.606   0.213   1.724  0.2329  1.0425  0.7766
 8043TIP3    H224094   0.522   0.202   1.599  0.3121 -0.9698  0.8697
 8044TIP3   OH224095   7.196   5.913   1.828 -0.3555 -0.0990 -0.2245
 8044TIP3    H124096   7.164   5.985   1.882  1.2304  1.4989 -1.2884
 8044TIP3    H224097   7.118   5.880   1.783 -0.9480  1.9726 -0.8310
 8045TIP3   OH224098   4.134   1.776   3.788 -0.1489  0.0270 -0.0867
 8045TIP3    H124099   4.087   1.725   3.854  0.0138 -2.1276 -1.5575
 8045TIP3    H224100   4.226   1.760   3.807 -0.0033  1.6247  0.7773
 8046TIP3   OH224101   2.026   2.559   4.544 -0.2288 -0.3165  0.3371
 8046TIP3    H124102   2.092   2.575   4.612 -0.2293  0.5173  0.1512
 8046TIP3    H224103   1.989   2.645   4.526 -1.3943 -0.7791  0.4545
 8047TIP3   OH224104   7.108   0.875   5.659  0.0202 -0.5578  0.1232
 8047TIP3    H124105   7.153   0.857   5.741  0.4038  0.8800  0.2650
 8047TIP3    H224106   7.177   0.875   5.593  0.1593  0.9138  0.2282
 8048TIP3   OH224107   2.186   4.805   3.375 -0.2351 -0.5819 -0.0740
 8048TIP3    H124108   2.267   4.802   3.426 -0.8945  0.6821  1.1178
 8048TIP3    H224109   2.118   4.778   3.436 -0.6776 -2.2231 -1.2315
 8049TIP3   OH224110   5.311   1.423   2.428  0.2397 -0.3375 -0.2492
 8049TIP3    H124111   5.329   1.349   2.486 -1.7845  0.2923  1.2949
 8049TIP3    H224112   5.311   1.499   2.485  0.4443  0.6276 -1.4883
 8050TIP3   OH224113   0.453   6.631   1.462 -0.1474 -0.5615 -0.1469
 8050TIP3    H124114   0.513   6.673   1.523  0.5065  1.4689 -2.0222
 8050TIP3    H224115   0.386   6.590   1.517  0.8023  0.5134  1.9043
 8051TIP3   OH224116   4.838   4.371   3.550 -0.3761  0.6491 -0.3272
 8051TIP3    H124117   4.888   4.371   3.631  2.2978  0.5386 -1.8805
 8051TIP3    H224118   4.846   4.281   3.517 -1.4201  0.7010 -0.7645
 8052TIP3   OH224119   4.817   4.585   1.528  0.2016 -0.4581 -0.4057
 8052TIP3    H124120   4.907   4.605   1.553  0.2028  0.1632 -0.8723
 8052TIP3    H224121   4.804   4.632   1.445 -0.5513 -0.5297 -0.3389
 8053TIP3   OH224122   1.257   3.354   1.177  0.3102 -0.1648 -0.1879
 8053TIP3    H124123   1.226   3.338   1.088  0.4013 -0.4133 -0.1752
 8053TIP3    H224124   1.179   3.381   1.225  0.6563  2.3371 -0.8976
 8054TIP3   OH224125   0.979   3.755   2.793 -0.5137  0.7201 -0.3438
 8054TIP3    H124126   0.963   3.663   2.775  2.0731 -0.5208  2.7351
 8054TIP3    H224127   0.902   3.785   2.841 -0.8483 -0.2008 -0.3040
 8055TIP3   OH224128   3.411   4.220   5.408  0.4420 -0.8496  0.3236
 8055TIP3    H124129   3.327   4.199   5.366  0.6814  0.5900 -0.9789
 8055TIP3    H224130   3.468   4.147   5.386 -0.2318 -1.4498  0.5270
 8056TIP3   OH224131   5.859   3.518   2.440 -0.2077 -0.3834  0.1875
 8056TIP3    H124132   5.853   3.551   2.529 -1.2230  2.1138 -0.7249
 8056TIP3    H224133   5.916   3.581   2.395 -1.4395 -0.3650 -1.4197
 8057TIP3   OH224134   5.654   4.181   2.398 -0.1325  0.0177  0.5886
 8057TIP3    H124135   5.559   4.170   2.393 -0.1490  0.6223 -0.8418
 8057TIP3    H224136   5.689   4.092   2.400 -0.7944 -0.3124  4.4086
 8058TIP3   OH224137   3.236   1.639   0.073  0.0144  0.1698 -0.0422
 8058TIP3    H124138   3.147   1.622   0.043 -0.1871  1.0849  0.0213
 8058TIP3    H224139   3.288   1.644  -0.008 -0.2999  1.3196 -0.1941
 8059TIP3   OH224140   2.797   5.882   4.457 -0.9087  0.0416  0.3800
 8059TIP3    H124141   2.770   5.956   4.403 -0.6231 -0.0798  0.0680
 8059TIP3    H224142   2.841   5.822   4.397  0.0991  0.2618  0.8723
 8060TIP3   OH224143   3.025   4.501   0.317 -0.0316 -0.2092  0.2185
 8060TIP3    H124144   3.030   4.559   0.241  0.3527 -2.2731 -1.4200
 8060TIP3    H224145   3.044   4.558   0.391  1.8042  1.4818 -1.4207
 8061TIP3   OH224146   2.272   2.720   3.319 -0.2472 -0.4905  0.4853
 8061TIP3    H124147   2.257   2.798   3.266 -1.4490 -0.7817  0.3671
 8061TIP3    H224148   2.341   2.745   3.380 -0.4011  0.5572  0.2503
 8062TIP3   OH224149   6.953   1.487   2.031  0.5166 -0.0971  0.2966
 8062TIP3    H124150   6.909   1.564   1.995  1.1226 -0.4764 -1.3698
 8062TIP3    H224151   6.899   1.413   2.002  1.2587 -0.4411 -0.2557
 8063TIP3   OH224152   5.314   1.203   5.807  0.3089 -0.1306  0.2757
 8063TIP3    H124153   5.264   1.170   5.882  0.2423  1.0298  0.7591
 8063TIP3    H224154   5.372   1.270   5.844 -1.3744  2.1630 -0.9973
 8064TIP3   OH224155   3.507   6.345   0.456 -0.2433  0.3455  0.0232
 8064TIP3    H124156   3.420   6.328   0.491 -0.5079  2.0582  0.2574
 8064TIP3    H224157   3.517   6.440   0.459  1.3903  0.2345 -0.5930
 8065TIP3   OH224158   4.447   5.196   5.216 -0.3181  0.3368  0.5652
 8065TIP3    H124159   4.520   5.135   5.207  0.9991  1.6376  1.8562
 8065TIP3    H224160   4.414   5.181   5.304 -0.1965  1.2271  0.7727
 8066TIP3   OH224161   0.939   1.731   0.387  0.3347 -0.5150 -0.2699
 8066TIP3    H124162   0.869   1.796   0.387 -0.9872 -1.8528  1.1489
 8066TIP3    H224163   0.987   1.747   0.468 -0.3220 -1.5654  0.3636
 8067TIP3   OH224164   3.327   1.638   2.430  0.4074  0.2682  0.4430
 8067TIP3    H124165   3.398   1.574   2.427 -0.0517 -0.2469 -2.5877
 8067TIP3    H224166   3.343   1.696   2.355 -1.8612  0.6764  0.1878
 8068TIP3   OH224167   3.020   1.998   5.146 -0.3239 -0.3010  0.0021
 8068TIP3    H124168   3.080   2.040   5.084  0.2772  0.6346  1.1823
 8068TIP3    H224169   3.001   1.913   5.106  0.8808 -0.1567 -0.9542
 8069TIP3   OH224170   6.909   0.345   3.637 -0.2569 -0.1181 -0.0030
 8069TIP3    H124171   6.867   0.417   3.591 -1.7311  0.5826  2.2569
 8069TIP3    H224172   6.991   0.382   3.671 -0.4050  0.1304  0.0871
 8070TIP3   OH224173   3.002   2.290   5.252  0.0399  0.2650  0.5122
 8070TIP3    H124174   3.003   2.302   5.157  0.1140  1.4147  0.6383
 8070TIP3    H224175   3.091   2.315   5.279 -0.0917  0.2893  0.9206
 8071TIP3   OH224176   2.908   6.601   2.327  0.0736  0.4961  0.0002
 8071TIP3    H124177   2.975   6.569   2.267 -0.1302  0.0611  0.0029
 8071TIP3    H224178   2.851   6.526   2.343  0.6043  0.3608  1.3922
 8072TIP3   OH224179   0.815   0.782   5.081 -0.4324  0.1823 -0.4708
 8072TIP3    H124180   0.868   0.792   5.002  0.2462 -1.2084 -0.2246
 8072TIP3    H224181   0.728   0.760   5.048  0.1315 -1.6573 -0.8793
 8073TIP3   OH224182   1.941   0.577   2.626 -0.2307  0.0787 -0.0429
 8073TIP3    H124183   1.989   0.527   2.692 -0.1306  0.0641 -0.1267
 8073TIP3    H224184   1.956   0.530   2.544 -0.6649 -0.1149 -0.0148
 8074TIP3   OH224185   5.071   2.992   1.210 -0.1372 -0.0968 -0.2758
 8074TIP3    H124186   5.029   2.920   1.162 -1.0394  1.1173 -1.3742
 8074TIP3    H224187   5.161   2.963   1.224 -0.7618 -1.8834  0.2523
 8075TIP3   OH224188   2.429   0.454   3.060 -0.5373 -0.1020 -0.1933
 8075TIP3    H124189   2.517   0.485   3.081 -0.7310 -0.1977  0.8301
 8075TIP3    H224190   2.442   0.365   3.028 -0.2037  0.1443 -0.7626
 8076TIP3   OH224191   2.517   5.642   2.088 -0.3181 -0.7236  0.3144
 8076TIP3    H124192   2.514   5.628   1.994  1.1428 -0.2793  0.1814
 8076TIP3    H224193   2.426   5.658   2.113 -0.4215  2.3575 -1.5353
 8077TIP3   OH224194   5.970   4.982   2.752 -0.1136  0.5012 -0.1714
 8077TIP3    H124195   5.997   4.961   2.841 -3.6683 -2.4202  0.4264
 8077TIP3    H224196   6.037   4.940   2.697  0.3335 -0.5841  1.1315
 8078TIP3   OH224197   6.716   0.275   2.652  0.3005  0.6658 -0.6423
 8078TIP3    H124198   6.779   0.228   2.708  0.0820  0.2852 -0.7116
 8078TIP3    H224199   6.635   0.276   2.702  0.2652  0.8390 -0.7045
 8079TIP3   OH224200   4.380   3.841   3.966 -0.3857  0.3610 -0.6897
 8079TIP3    H124201   4.391   3.932   3.993  0.8501  0.0146  0.0495
 8079TIP3    H224202   4.411   3.789   4.040  0.3379 -0.6504 -1.6599
 8080TIP3   OH224203   6.573   5.101   5.012 -0.1567 -0.0853  0.0914
 8080TIP3    H124204   6.513   5.062   5.076  0.8742  2.0974  2.6052
 8080TIP3    H224205   6.516   5.143   4.948 -1.2388 -2.8639 -0.9220
 8081TIP3   OH224206   3.397   4.656   5.334  0.0922 -0.3037  0.0004
 8081TIP3    H124207   3.456   4.727   5.360  0.1569 -0.2202 -0.3683
 8081TIP3    H224208   3.364   4.620   5.417 -0.1045  0.2979  0.1893
 8082TIP3   OH224209   3.600   4.817   3.876  0.6096  0.1108  0.2511
 8082TIP3    H124210   3.685   4.829   3.918  0.3677 -0.4781  0.9311
 8082TIP3    H224211   3.588   4.722   3.872 -0.3848  0.1929  0.9467
 8083TIP3   OH224212   2.151   0.855   5.710  0.3465 -0.2344  0.5043
 8083TIP3    H124213   2.237   0.890   5.686  0.0313  1.8719  2.1206
 8083TIP3    H224214   2.168   0.800   5.786  0.4353 -1.0637 -0.1053
 8084TIP3   OH224215   0.265   2.178   2.900 -0.5905 -0.0368 -0.6746
 8084TIP3    H124216   0.233   2.190   2.989 -1.1136 -0.3812 -0.8113
 8084TIP3    H224217   0.192   2.206   2.845 -1.5947 -3.0279 -1.0168
 8085TIP3   OH224218   5.914   3.319   5.483 -0.2632  0.2853  0.4242
 8085TIP3    H124219   5.946   3.284   5.400 -0.0624 -0.6067  0.8739
 8085TIP3    H224220   5.974   3.391   5.503 -0.6035  0.8199 -0.4381
 8086TIP3   OH224221   4.780   4.364   1.650 -0.2559 -0.7647  0.7356
 8086TIP3    H124222   4.793   4.454   1.621 -0.1717 -0.4756  1.6416
 8086TIP3    H224223   4.757   4.317   1.570  1.4652 -0.3166 -0.0757
 8087TIP3   OH224224   1.120   5.542   4.668 -0.0766 -0.1167 -0.2937
 8087TIP3    H124225   1.116   5.546   4.572 -2.2560  1.5442 -0.2016
 8087TIP3    H224226   1.193   5.600   4.691 -0.0261  0.0739 -0.9132
 8088TIP3   OH224227   3.893   5.449   2.984 -0.4085  0.8399  0.2545
 8088TIP3    H124228   3.909   5.517   3.051 -2.4032  0.8698  0.7503
 8088TIP3    H224229   3.976   5.444   2.936 -0.0093  3.2677  0.5268
 8089TIP3   OH224230   1.841   4.880   5.465  0.0187  0.3676 -0.7386
 8089TIP3    H124231   1.844   4.958   5.409  0.8678  1.6395  0.9747
 8089TIP3    H224232   1.748   4.857   5.469 -0.3208  1.6083 -0.8978
 8090TIP3   OH224233   4.830   0.825   0.360 -0.4754  0.2786  0.6248
 8090TIP3    H124234   4.856   0.836   0.268 -0.2641  1.8687  0.8549
 8090TIP3    H224235   4.909   0.794   0.404 -0.3776  0.2167  0.4079
 8091TIP3   OH224236   4.869   5.188   5.109  0.7055  0.4098  0.1175
 8091TIP3    H124237   4.817   5.107   5.110 -0.7731  1.3094 -0.3397
 8091TIP3    H224238   4.900   5.195   5.019  0.8128  0.3777  0.1513
 8092TIP3   OH224239   3.526   4.955   3.251 -1.0007  0.2005 -0.1462
 8092TIP3    H124240   3.618   4.947   3.225 -0.8233  0.8729  0.2426
 8092TIP3    H224241   3.500   4.867   3.277 -0.6280 -0.1016 -0.7694
 8093TIP3   OH224242   3.654   0.396   3.031  0.9688  0.1099  0.4049
 8093TIP3    H124243   3.623   0.308   3.007 -1.0585  1.0142 -0.5010
 8093TIP3    H224244   3.575   0.446   3.046  2.1064  1.4492  2.3691
 8094TIP3   OH224245   3.304   2.058   0.846  0.8295  0.2945  0.0699
 8094TIP3    H124246   3.212   2.043   0.867  0.2530  0.3835 -2.1305
 8094TIP3    H224247   3.307   2.148   0.813  1.5554  0.0384 -0.5922
 8095TIP3   OH224248   3.181   4.277   4.777 -0.0800  0.1068 -0.8128
 8095TIP3    H124249   3.095   4.256   4.813  0.9080 -0.2339  1.5377
 8095TIP3    H224250   3.172   4.367   4.746 -0.7508  0.8555  1.3699
 8096TIP3   OH224251   4.618   0.706   4.182  0.1986  0.0867  0.1910
 8096TIP3    H124252   4.524   0.707   4.161  0.2580 -0.2962 -0.1198
 8096TIP3    H224253   4.660   0.682   4.099  0.7700  2.5327 -0.2929
 8097TIP3   OH224254   2.913   2.415   5.689  0.3684  0.1729 -0.3114
 8097TIP3    H124255   3.003   2.395   5.715  0.7900  1.7975 -0.3531
 8097TIP3    H224256   2.894   2.355   5.617  1.2575 -0.4916 -0.0086
 8098TIP3   OH224257   6.630   3.488   3.243 -0.1157  0.3604  0.3254
 8098TIP3    H124258   6.646   3.472   3.150 -1.7018  0.8764 -0.0788
 8098TIP3    H224259   6.672   3.571   3.261 -0.3053  0.5499 -0.0875
 8099TIP3   OH224260   5.189   4.893   5.337 -0.3522 -0.6900  0.5883
 8099TIP3    H124261   5.168   4.942   5.417  0.0380 -2.9873  2.2015
 8099TIP3    H224262   5.108   4.850   5.313 -0.6975  0.6779 -0.8290
 8100TIP3   OH224263   0.793   2.837   2.201 -0.0772 -0.1380  0.1099
 8100TIP3    H124264   0.846   2.911   2.230 -0.1642 -0.0652  0.0829
 8100TIP3    H224265   0.727   2.826   2.270 -0.2579  0.0077 -0.0391
 8101TIP3   OH224266   2.277   1.409   3.856 -0.1691 -0.4810  0.1285
 8101TIP3    H124267   2.270   1.341   3.922 -1.0826  1.0252  1.6616
 8101TIP3    H224268   2.343   1.469   3.892 -1.8612  1.2110  0.5255
 8102TIP3   OH224269   4.155   6.209   1.006  0.5513 -0.3317  0.2546
 8102TIP3    H124270   4.098   6.143   0.965 -1.0156  0.3442  1.2191
 8102TIP3    H224271   4.220   6.158   1.053 -1.0047 -1.2794  1.5092
 8103TIP3   OH224272   6.625   6.300   2.542  0.2860 -0.3625  0.8769
 8103TIP3    H124273   6.716   6.293   2.514  0.2263 -0.0420  0.6020
 8103TIP3    H224274   6.579   6.233   2.491  0.1697  0.2486  0.1755
 8104TIP3   OH224275   5.164   5.913   1.029 -0.1599 -0.1281 -0.1136
 8104TIP3    H124276   5.249   5.889   1.068  0.1402  2.8916  1.3643
 8104TIP3    H224277   5.184   5.930   0.937  1.1927  1.8677  0.4950
 8105TIP3   OH224278   5.714   4.591   2.384 -0.6235  0.6555  0.3821
 8105TIP3    H124279   5.777   4.566   2.316  1.1705  1.6548  1.6048
 8105TIP3    H224280   5.767   4.627   2.454 -2.4074 -0.5278  2.4569
 8106TIP3   OH224281   6.726   0.801   4.810 -0.1022  0.5518 -0.2080
 8106TIP3    H124282   6.759   0.846   4.732  1.3393  0.2310  0.1921
 8106TIP3    H224283   6.692   0.718   4.777  1.7991 -0.2114 -0.3703
 8107TIP3   OH224284   1.484   5.315   4.980  0.4264 -0.7594 -0.1651
 8107TIP3    H124285   1.533   5.263   5.043  0.9759  0.9147  0.8615
 8107TIP3    H224286   1.400   5.332   5.022  0.4474 -0.4004 -0.2624
 8108TIP3   OH224287   5.614   1.637   1.650  0.2798 -0.4648 -0.1822
 8108TIP3    H124288   5.675   1.593   1.592  0.0669 -0.7863 -0.1639
 8108TIP3    H224289   5.654   1.632   1.737 -0.1507 -1.3958 -0.0283
 8109TIP3   OH224290   4.833   5.611   1.677  0.4226  0.1447 -0.0759
 8109TIP3    H124291   4.843   5.524   1.713 -0.1825 -0.3533 -1.0574
 8109TIP3    H224292   4.918   5.630   1.636 -0.0909 -0.9283 -1.7774
 8110TIP3   OH224293   4.060   2.851   4.932 -0.0098 -0.6251 -0.1360
 8110TIP3    H124294   4.035   2.867   5.023  0.5304  1.3246 -0.2668
 8110TIP3    H224295   4.124   2.920   4.913  0.2440 -1.2830 -1.8603
 8111TIP3   OH224296   3.176   5.795   1.143  0.3764  0.2679  0.3721
 8111TIP3    H124297   3.269   5.799   1.164  0.6811 -2.2961 -0.1986
 8111TIP3    H224298   3.164   5.861   1.074  1.3500  1.8628  1.6629
 8112TIP3   OH224299   2.511   6.245   1.279  0.1171  0.4548  0.5225
 8112TIP3    H124300   2.420   6.228   1.303 -0.0345  0.8362  0.2358
 8112TIP3    H224301   2.561   6.224   1.358 -0.0587 -1.1557  0.2211
 8113TIP3   OH224302   2.965   1.612   5.460 -0.5352 -0.7856  0.3064
 8113TIP3    H124303   2.994   1.532   5.504  0.8671 -0.8477 -0.6719
 8113TIP3    H224304   3.040   1.638   5.406 -1.0873  1.0064  0.3535
 8114TIP3   OH224305   4.668   1.790   0.767  0.2851  0.2095 -0.2633
 8114TIP3    H124306   4.698   1.757   0.683  1.3323 -1.4655  0.7025
 8114TIP3    H224307   4.743   1.837   0.802  0.3193 -0.2329  0.2777
 8115TIP3   OH224308   0.647   2.568   5.307 -0.2126  0.0473 -0.0367
 8115TIP3    H124309   0.737   2.559   5.277 -0.3788  1.3472 -0.9690
 8115TIP3    H224310   0.655   2.596   5.398  0.4041  2.3541 -0.7258
 8116TIP3   OH224311   2.318   0.991   3.933  0.3544  0.6223  0.4849
 8116TIP3    H124312   2.385   1.056   3.908  2.1022 -0.6829  1.5108
 8116TIP3    H224313   2.287   1.021   4.018 -0.4722  1.2690 -0.0242
 8117TIP3   OH224314   0.030   0.127   0.873 -0.0984 -0.3238 -0.6115
 8117TIP3    H124315   0.098   0.091   0.930 -0.9252 -1.8874 -0.5492
 8117TIP3    H224316  -0.052   0.097   0.913 -0.7392 -0.1459 -1.7670
 8118TIP3   OH224317   3.000   4.786   2.704 -0.0076  0.5605  0.1743
 8118TIP3    H124318   2.926   4.829   2.661 -0.2868 -1.3361 -1.3876
 8118TIP3    H224319   3.073   4.800   2.644 -0.4762 -2.4065 -1.3102
 8119TIP3   OH224320   6.584   3.786   1.247  0.4302 -0.4052  1.0023
 8119TIP3    H124321   6.552   3.846   1.179  0.3451 -1.9519 -0.3959
 8119TIP3    H224322   6.673   3.766   1.221  0.6660 -0.4124  1.8056
 8120TIP3   OH224323   4.783   1.585   5.311 -0.4903 -1.1393 -0.4520
 8120TIP3    H124324   4.723   1.524   5.355  0.1937 -1.6426 -0.2063
 8120TIP3    H224325   4.818   1.639   5.381 -1.7375  0.1354 -0.7661
 8121TIP3   OH224326   0.267   4.911   1.731  0.1168 -0.9856 -0.5085
 8121TIP3    H124327   0.190   4.895   1.676 -0.2060  1.4077 -0.8515
 8121TIP3    H224328   0.232   4.949   1.812  0.8605 -1.0195 -0.1616
 8122TIP3   OH224329   5.819   2.029   3.644 -0.3516  0.0527 -0.4690
 8122TIP3    H124330   5.790   2.098   3.703 -1.7453  0.3080 -1.4012
 8122TIP3    H224331   5.844   1.957   3.702 -0.4138  0.7528  0.4578
 8123TIP3   OH224332   5.371   2.176   4.626 -0.6330  0.1172  0.5672
 8123TIP3    H124333   5.337   2.243   4.687 -0.5854 -0.5240  1.3155
 8123TIP3    H224334   5.412   2.111   4.683  1.6511  0.7268 -0.2884
 8124TIP3   OH224335   6.004   4.467   1.539 -0.5349 -0.9699  0.1986
 8124TIP3    H124336   5.941   4.520   1.491  0.7423  0.1090 -0.3456
 8124TIP3    H224337   5.973   4.377   1.528 -1.8876 -0.4806 -0.1529
 8125TIP3   OH224338   0.532   0.582   3.868 -0.6422  0.7909 -0.4672
 8125TIP3    H124339   0.473   0.547   3.801 -0.6210 -0.3804  0.1053
 8125TIP3    H224340   0.523   0.522   3.942  1.4909  0.4054 -0.4588
 8126TIP3   OH224341   2.529   6.547   1.402  0.0407 -0.4674 -0.3397
 8126TIP3    H124342   2.446   6.591   1.387  0.5455 -0.2050 -2.9571
 8126TIP3    H224343   2.512   6.455   1.385  0.1702 -0.4730 -0.4488
 8127TIP3   OH224344   4.663   6.049   1.239 -0.1097  0.6639 -0.2495
 8127TIP3    H124345   4.758   6.043   1.247  0.2114  0.5150 -3.0484
 8127TIP3    H224346   4.630   5.967   1.277  0.9504  0.2801 -0.1320
 8128TIP3   OH224347   4.202   0.481   1.621  0.2496 -0.5374 -0.3268
 8128TIP3    H124348   4.119   0.437   1.608  0.1205  0.2608 -2.7361
 8128TIP3    H224349   4.268   0.413   1.605  0.0530 -0.7469 -0.2497
 8129TIP3   OH224350   3.058   3.732   0.523  0.3349  0.0034 -0.0983
 8129TIP3    H124351   3.122   3.664   0.503  1.5006  1.1899 -0.5592
 8129TIP3    H224352   3.057   3.788   0.446  1.7284  2.2442  1.3791
 8130TIP3   OH224353   6.646   2.616   1.031  0.1444 -0.4987 -0.1694
 8130TIP3    H124354   6.578   2.616   1.098  1.3325 -1.1002  1.0906
 8130TIP3    H224355   6.634   2.534   0.984  0.4172 -0.9318  0.5065
 8131TIP3   OH224356   1.162   6.093   0.835 -0.7392 -0.1087 -0.3618
 8131TIP3    H124357   1.138   6.128   0.749 -1.5514 -0.3222 -0.2343
 8131TIP3    H224358   1.111   6.145   0.897  0.7254  0.8397  0.1054
 8132TIP3   OH224359   0.383   5.840   1.438 -0.0620 -0.1951 -0.2549
 8132TIP3    H124360   0.438   5.786   1.494 -1.1996  0.4535  1.5739
 8132TIP3    H224361   0.296   5.837   1.479 -1.6718 -1.7605 -3.3690
 8133TIP3   OH224362   7.198   0.105   3.732 -0.2282  0.5578 -0.0769
 8133TIP3    H124363   7.182   0.114   3.826 -0.0676 -0.0427  0.0105
 8133TIP3    H224364   7.150   0.026   3.707  2.8038 -1.5457  0.2580
 8134TIP3   OH224365   1.854   0.633   0.267  0.1834 -0.2241  0.4398
 8134TIP3    H124366   1.882   0.607   0.355 -0.5437 -2.1294  0.1565
 8134TIP3    H224367   1.905   0.577   0.208 -1.7484 -1.4404 -0.1918
 8135TIP3   OH224368   6.628   2.273   1.581  0.6268  0.4189  0.4355
 8135TIP3    H124369   6.682   2.336   1.533 -0.7720 -0.3589 -2.3989
 8135TIP3    H224370   6.538   2.302   1.565  0.0430 -1.0959  0.8186
 8136TIP3   OH224371   1.803   4.215   4.373  0.1198  0.0626  0.2559
 8136TIP3    H124372   1.707   4.215   4.381 -0.1001  1.4186 -1.6508
 8136TIP3    H224373   1.830   4.300   4.406  0.4996  0.3092 -0.6702
 8137TIP3   OH224374   7.007   4.202   0.366 -0.5403  0.1358 -0.4789
 8137TIP3    H124375   7.079   4.144   0.342  1.0979  0.9900  1.9846
 8137TIP3    H224376   6.935   4.142   0.389  1.1110 -1.0848  2.0177
 8138TIP3   OH224377   3.281   0.782   1.454  0.8070 -0.5111 -0.1023
 8138TIP3    H124378   3.197   0.819   1.429  0.4816 -1.4813 -0.5099
 8138TIP3    H224379   3.276   0.773   1.549  0.1308 -1.2728 -0.1969
 8139TIP3   OH224380   4.012   0.190   2.631 -0.3897  0.0054  0.4112
 8139TIP3    H124381   4.069   0.115   2.645 -0.8375 -0.2296  0.9999
 8139TIP3    H224382   3.926   0.153   2.614 -1.0177  0.3692  2.4646
 8140TIP3   OH224383   4.315   6.729   5.053  0.1615  0.1441  0.4428
 8140TIP3    H124384   4.318   6.688   4.966  0.5235  1.9429 -0.4306
 8140TIP3    H224385   4.228   6.709   5.086 -1.1541  1.9662 -1.6685
 8141TIP3   OH224386   1.492   6.079   3.771 -0.0738  1.0116 -0.0156
 8141TIP3    H124387   1.455   6.138   3.705 -2.0696 -0.8735 -0.7263
 8141TIP3    H224388   1.502   5.995   3.725  2.3840  0.6686  1.0232
 8142TIP3   OH224389   4.082   4.928   5.021  0.0095  0.0815  0.8247
 8142TIP3    H124390   4.168   4.886   5.020 -0.2453 -0.4437 -0.2528
 8142TIP3    H224391   4.051   4.917   5.111 -0.0856 -2.1494  0.5746
 8143TIP3   OH224392   6.126   1.439   4.424 -0.6303  0.2240  0.4847
 8143TIP3    H124393   6.065   1.486   4.480  0.2015  1.2763  0.5229
 8143TIP3    H224394   6.115   1.480   4.338 -1.4563 -0.9723 -0.0106
 8144TIP3   OH224395   0.683   2.702   5.559 -0.3803  0.1463  0.4556
 8144TIP3    H124396   0.737   2.666   5.630 -0.0970 -0.0250  0.1579
 8144TIP3    H224397   0.742   2.763   5.514 -0.0605 -0.8889 -0.5739
 8145TIP3   OH224398   4.779   0.032   3.151 -0.4800  0.2763 -0.0467
 8145TIP3    H124399   4.718   0.069   3.214  0.8791  0.7643  1.0243
 8145TIP3    H224400   4.762  -0.062   3.155 -0.4931  0.3070  0.9855
 8146TIP3   OH224401   1.733   5.244   3.375  0.0804  0.0480  0.6526
 8146TIP3    H124402   1.742   5.339   3.379  0.7041  0.0441 -0.2629
 8146TIP3    H224403   1.640   5.229   3.356 -0.5131  0.3716  3.0577
 8147TIP3   OH224404   6.097   1.874   0.462  0.2425  0.1901 -0.4632
 8147TIP3    H124405   6.029   1.810   0.440 -1.1802  1.5870 -0.3243
 8147TIP3    H224406   6.071   1.954   0.415  0.9423  1.2000  0.7949
 8148TIP3   OH224407   1.078   0.882   5.559  0.4091  0.0950 -0.5305
 8148TIP3    H124408   1.088   0.925   5.643 -0.0546 -1.2366  0.2344
 8148TIP3    H224409   1.059   0.953   5.497 -2.0249  0.8588  0.9675
 8149TIP3   OH224410   0.715   5.815   2.132  0.4241 -0.2793  0.5855
 8149TIP3    H124411   0.767   5.896   2.127  1.1887 -0.8282 -1.0950
 8149TIP3    H224412   0.762   5.753   2.077 -0.4857 -1.7041  1.3557
 8150TIP3   OH224413   6.459   4.406   1.216  0.4443  0.0615  0.2985
 8150TIP3    H124414   6.426   4.430   1.303  1.1474 -0.6692  0.7802
 8150TIP3    H224415   6.482   4.490   1.176 -1.2149  0.5244  0.2403
 8151TIP3   OH224416   4.287   2.264   2.421 -0.2924  0.4466  0.8874
 8151TIP3    H124417   4.368   2.295   2.381  0.2453 -0.9475  0.8391
 8151TIP3    H224418   4.253   2.199   2.359  0.4739 -1.6461  2.5213
 8152TIP3   OH224419   2.087   5.927   4.210 -0.1529  0.1192 -0.1663
 8152TIP3    H124420   2.004   5.921   4.257  0.0356 -0.1387  0.1390
 8152TIP3    H224421   2.116   5.836   4.201 -0.6744  0.0866 -1.6710
 8153TIP3   OH224422   1.041   6.424   5.158 -0.0533 -0.1761 -0.3476
 8153TIP3    H124423   0.984   6.478   5.103  0.9460  0.0640 -1.1805
 8153TIP3    H224424   1.028   6.457   5.247 -0.4423  0.5497 -0.6655
 8154TIP3   OH224425   1.866   3.682   2.999 -0.2635  0.5624 -0.7048
 8154TIP3    H124426   1.952   3.712   3.029 -0.1861 -0.2478 -0.0905
 8154TIP3    H224427   1.813   3.762   2.997 -0.1449  0.7410  1.1929
 8155TIP3   OH224428   5.584   3.950   5.607 -0.2318 -0.3006 -0.0164
 8155TIP3    H124429   5.557   3.915   5.692  0.8245  0.1846  0.5300
 8155TIP3    H224430   5.667   3.995   5.624  0.4296 -0.8993 -1.4473
 8156TIP3   OH224431   6.178   2.536   2.637  0.2723  0.1134 -0.0684
 8156TIP3    H124432   6.244   2.479   2.677  0.7928  0.6807 -0.1141
 8156TIP3    H224433   6.115   2.475   2.597  1.6906 -0.4232 -1.5713
 8157TIP3   OH224434   3.490   2.663   2.972  0.7643 -0.4658  0.1497
 8157TIP3    H124435   3.524   2.702   3.052  0.2522 -0.1560  0.2205
 8157TIP3    H224436   3.404   2.703   2.960  0.8187 -0.5314 -0.5346
 8158TIP3   OH224437   5.769   0.577   0.463  0.2784 -0.3236 -0.1879
 8158TIP3    H124438   5.765   0.637   0.388 -0.2253 -0.4709 -0.2832
 8158TIP3    H224439   5.727   0.497   0.431  1.7171 -1.0575 -0.3571
 8159TIP3   OH224440   1.112   1.010   5.810  0.1127 -0.5170 -0.4006
 8159TIP3    H124441   1.181   0.986   5.872 -0.1564  0.2137  0.1912
 8159TIP3    H224442   1.042   1.044   5.865  0.4677  1.6212 -1.1965
 8160TIP3   OH224443   5.043   1.555   5.161  0.1233 -0.3600 -0.2173
 8160TIP3    H124444   5.022   1.478   5.216  1.8745  0.2763  1.4519
 8160TIP3    H224445   4.958   1.593   5.140 -0.6563 -0.6796  2.0715
 8161TIP3   OH224446   0.872   0.181   1.813  0.1275 -0.3408  0.6249
 8161TIP3    H124447   0.944   0.124   1.840  1.9911  1.9468  0.8151
 8161TIP3    H224448   0.858   0.238   1.888 -0.5520  0.5256 -0.1419
 8162TIP3   OH224449   5.376   0.611   4.627  0.0312 -0.6279  0.0209
 8162TIP3    H124450   5.406   0.701   4.641  1.2244 -0.9657 -0.2276
 8162TIP3    H224451   5.456   0.559   4.627 -0.6971 -1.7876  0.8188
 8163TIP3   OH224452   5.580   6.075   0.130 -0.2413 -0.3266 -0.3454
 8163TIP3    H124453   5.657   6.061   0.186  1.1437 -3.3268 -2.6971
 8163TIP3    H224454   5.611   6.130   0.059 -0.0865 -1.8372 -1.4939
 8164TIP3   OH224455   5.536   6.590   3.758  0.6396 -0.1915  0.1395
 8164TIP3    H124456   5.539   6.521   3.825  1.3292 -0.5830 -0.2829
 8164TIP3    H224457   5.539   6.543   3.675 -2.1895  0.1735 -0.2573
 8165TIP3   OH224458   2.040   2.862   3.648 -0.7467 -0.3044  0.7202
 8165TIP3    H124459   1.980   2.863   3.723 -1.3543 -2.5402  0.3397
 8165TIP3    H224460   2.008   2.931   3.591 -0.1596  1.5817  2.5499
 8166TIP3   OH224461   6.820   1.765   2.560  0.5621  0.1551 -0.5090
 8166TIP3    H124462   6.767   1.693   2.524 -0.5117  0.7704 -0.1808
 8166TIP3    H224463   6.788   1.776   2.649  1.2607  0.5400 -0.3030
 8167TIP3   OH224464   3.232   5.057   2.234  0.6648 -0.0001  0.1016
 8167TIP3    H124465   3.157   5.060   2.175  1.2455  0.6253 -0.6387
 8167TIP3    H224466   3.196   5.073   2.321 -0.5801 -3.4500  0.3481
 8168TIP3   OH224467   1.371   4.675   4.235 -0.5484  0.0220  0.5161
 8168TIP3    H124468   1.350   4.595   4.283 -1.4100 -0.0606  0.0238
 8168TIP3    H224469   1.446   4.712   4.281 -0.6818 -0.6250  1.2665
 8169TIP3   OH224470   2.966   4.444   3.709  0.0962  0.6001  0.2989
 8169TIP3    H124471   2.878   4.483   3.704 -0.0913  0.4341  1.8078
 8169TIP3    H224472   2.950   4.351   3.722  0.5450 -0.0135 -2.8815
 8170TIP3   OH224473   3.667   2.068   2.908 -0.2413  0.1209  0.0280
 8170TIP3    H124474   3.678   2.006   2.835  1.1986  0.2488  0.1169
 8170TIP3    H224475   3.655   2.012   2.985 -2.0156 -0.0152 -0.3065
 8171TIP3   OH224476   6.178   4.915   4.031  0.4536 -0.1463  0.2931
 8171TIP3    H124477   6.239   4.861   4.081  0.7378  0.2395  0.3703
 8171TIP3    H224478   6.099   4.918   4.085  0.2952 -0.8037  0.1051
 8172TIP3   OH224479   2.308   6.493   5.026 -0.0623 -0.0787  0.1992
 8172TIP3    H124480   2.391   6.481   4.980  0.0584  0.6563  0.2107
 8172TIP3    H224481   2.247   6.523   4.959 -0.1511  0.0052  0.3168
 8173TIP3   OH224482   5.022   3.645   3.829 -0.6021 -0.3794 -0.0798
 8173TIP3    H124483   4.967   3.578   3.870 -2.8410  3.3992  3.7814
 8173TIP3    H224484   5.091   3.663   3.894 -0.3930  1.4079 -0.7390
 8174TIP3   OH224485   4.705   2.768   1.213 -0.3303 -0.3783  0.7370
 8174TIP3    H124486   4.681   2.710   1.141  0.9314 -1.5475  1.2176
 8174TIP3    H224487   4.621   2.797   1.249 -0.9794 -0.2568 -0.7906
 8175TIP3   OH224488   5.585   1.298   5.173  0.3835 -0.3824  0.3119
 8175TIP3    H124489   5.599   1.253   5.089 -1.4479 -0.8061  0.2031
 8175TIP3    H224490   5.491   1.315   5.176  0.5452  0.3756  1.9196
 8176TIP3   OH224491   6.523   4.001   4.952 -0.3254 -0.0758  0.3705
 8176TIP3    H124492   6.454   4.052   4.909 -0.5321 -0.5328  0.1612
 8176TIP3    H224493   6.559   3.946   4.883 -2.0412 -2.3365  1.1817
 8177TIP3   OH224494   4.172   5.963   3.449 -0.6945  0.4032  0.2951
 8177TIP3    H124495   4.180   5.871   3.427 -1.7758  0.7876 -1.9959
 8177TIP3    H224496   4.167   5.965   3.545  0.2028 -1.8098  0.4229
 8178TIP3   OH224497   1.206   6.120   3.599  0.1166 -0.2910  0.4766
 8178TIP3    H124498   1.269   6.187   3.574 -0.6317 -0.3833 -1.9371
 8178TIP3    H224499   1.153   6.160   3.668  1.7738  0.3395  1.4356
 8179TIP3   OH224500   3.147   5.182   5.313 -0.6943 -0.2347  0.0710
 8179TIP3    H124501   3.189   5.114   5.259 -1.0768 -0.2316 -0.2367
 8179TIP3    H224502   3.086   5.225   5.253 -0.8158  0.0503  0.4012
 8180TIP3   OH224503   5.892   4.709   3.366 -0.0426 -0.0817  0.6172
 8180TIP3    H124504   5.978   4.733   3.400 -0.2087  0.8889  0.3790
 8180TIP3    H224505   5.830   4.742   3.431 -0.3022  0.6775  0.0031
 8181TIP3   OH224506   6.063   2.021   4.900  0.8203  0.3378  0.0315
 8181TIP3    H124507   6.037   2.062   4.817  2.1955 -1.3619 -1.3198
 8181TIP3    H224508   6.067   2.093   4.962 -0.5229  1.6274 -1.2990
 8182TIP3   OH224509   6.173   2.909   0.632  0.0035 -0.4629  0.0537
 8182TIP3    H124510   6.256   2.938   0.671 -1.2860  0.5660  2.2567
 8182TIP3    H224511   6.125   2.990   0.616 -0.7671 -1.0709 -0.7832
 8183TIP3   OH224512   3.396   0.298   0.775  0.2703  0.4121  0.8312
 8183TIP3    H124513   3.443   0.318   0.856 -0.0522  0.8279  0.9194
 8183TIP3    H224514   3.394   0.381   0.727  1.1597 -0.0140  0.0251
 8184TIP3   OH224515   2.903   3.589   1.236  0.5955  0.3180 -0.0619
 8184TIP3    H124516   2.873   3.604   1.326  1.6691  0.5256  0.2667
 8184TIP3    H224517   2.823   3.564   1.189 -0.3020  1.9099  0.5386
 8185TIP3   OH224518   6.732   6.415   4.780  0.0920 -0.6760  0.4432
 8185TIP3    H124519   6.653   6.463   4.755  2.5029  3.1293 -0.7537
 8185TIP3    H224520   6.741   6.347   4.713  0.2235  1.8564 -2.2832
 8186TIP3   OH224521   4.164   0.974   3.919  0.5820  0.2191  0.1172
 8186TIP3    H124522   4.192   1.027   3.844 -2.2815  0.8938 -0.6100
 8186TIP3    H224523   4.156   0.885   3.884 -0.6089  0.5067 -0.4115
 8187TIP3   OH224524   4.878   4.107   3.505 -0.3897  0.4701  0.1059
 8187TIP3    H124525   4.886   4.101   3.410 -1.4467 -0.3098  0.0459
 8187TIP3    H224526   4.962   4.076   3.538 -0.0138  0.7531 -0.5714
 8188TIP3   OH224527   4.435   5.736   3.929 -0.3537 -0.6195  0.0633
 8188TIP3    H124528   4.395   5.708   3.847 -1.8092  1.2655  0.0445
 8188TIP3    H224529   4.362   5.774   3.979  1.0853  1.5231  0.7009
 8189TIP3   OH224530   1.287   3.991   0.139 -0.4622 -0.5857 -0.0999
 8189TIP3    H124531   1.206   4.005   0.188 -0.1404 -0.0634  0.2975
 8189TIP3    H224532   1.353   4.039   0.189  0.5627 -2.8595  0.9104
 8190TIP3   OH224533   4.866   3.409   3.650 -0.8420 -0.3277  0.1745
 8190TIP3    H124534   4.960   3.415   3.638 -0.8715 -0.5791 -0.1830
 8190TIP3    H224535   4.847   3.315   3.653 -1.0779 -0.2789  0.2774
 8191TIP3   OH224536   3.799   0.817   2.179  0.0372 -0.3319 -0.3608
 8191TIP3    H124537   3.864   0.768   2.230 -1.5342 -0.0238  2.1062
 8191TIP3    H224538   3.716   0.774   2.199 -0.8352  0.8031 -1.4426
 8192TIP3   OH224539   2.335   4.168   2.106  0.0094  0.1401  0.6058
 8192TIP3    H124540   2.259   4.133   2.151  0.7685 -1.6394  0.5685
 8192TIP3    H224541   2.314   4.159   2.013  0.1997 -0.2392  0.5965
 8193TIP3   OH224542   3.410   4.957   4.023  0.0550  0.1306  0.6032
 8193TIP3    H124543   3.474   4.939   3.954 -2.8573  0.3185 -2.4221
 8193TIP3    H224544   3.398   5.052   4.020 -2.1506 -0.1431 -0.7334
 8194TIP3   OH224545   7.195   6.099   3.339  0.6487 -0.6829  0.4496
 8194TIP3    H124546   7.274   6.146   3.312 -0.3798  0.8030 -0.0338
 8194TIP3    H224547   7.135   6.167   3.368 -1.7940 -1.3686 -2.5081
 8195TIP3   OH224548   0.117   1.943   0.032 -0.1302  0.4573 -0.0827
 8195TIP3    H124549   0.104   1.980   0.120 -1.7933 -1.3728  0.5151
 8195TIP3    H224550   0.110   2.019  -0.026 -1.9635  1.3566  1.1816
 8196TIP3   OH224551   5.449   4.798   1.888 -0.3373 -0.5007 -0.7500
 8196TIP3    H124552   5.533   4.783   1.845  0.4678 -2.0129  1.1532
 8196TIP3    H224553   5.408   4.711   1.891 -1.0705 -0.1445  0.0752
 8197TIP3   OH224554   6.529   6.427   2.234  0.7900  0.3570 -0.3895
 8197TIP3    H124555   6.509   6.340   2.269  0.1917 -0.2057 -2.0326
 8197TIP3    H224556   6.614   6.418   2.192  1.1735  0.8298  0.2794
 8198TIP3   OH224557   2.408   1.474   5.613  0.5246 -0.1633 -0.3044
 8198TIP3    H124558   2.492   1.473   5.567  0.8888  1.7032  0.2213
 8198TIP3    H224559   2.347   1.513   5.549  0.5061  0.2773 -0.0215
 8199TIP3   OH224560   2.091   3.783   5.361  1.0062 -0.3251  0.1620
 8199TIP3    H124561   2.085   3.878   5.364  0.6463 -0.2559 -1.5856
 8199TIP3    H224562   2.185   3.764   5.369  1.0375  0.1480  0.9276
 8200TIP3   OH224563   6.845   0.597   3.526 -0.0347 -0.5985 -0.7167
 8200TIP3    H124564   6.825   0.684   3.559 -1.1751 -0.7572 -0.9668
 8200TIP3    H224565   6.939   0.586   3.542  0.4305  1.2232 -1.9738
 8201TIP3   OH224566   4.815   1.191   3.623  0.1502 -0.0777 -0.0667
 8201TIP3    H124567   4.836   1.109   3.669 -1.0382  0.0764  0.7851
 8201TIP3    H224568   4.901   1.227   3.599  0.7832 -0.6339  1.2168
 8202TIP3   OH224569   2.574   5.494   1.291 -0.2873  0.1972 -0.3042
 8202TIP3    H124570   2.581   5.584   1.257  0.5161  0.3907  0.3434
 8202TIP3    H224571   2.662   5.474   1.323 -0.4110 -0.8973 -0.6132
 8203TIP3   OH224572   6.033   3.030   1.305 -0.1811 -0.2951 -0.8659
 8203TIP3    H124573   6.029   2.944   1.263 -2.2442 -1.8326  2.0982
 8203TIP3    H224574   5.981   3.087   1.248 -1.0481 -1.7196 -1.5604
 8204TIP3   OH224575   5.454   4.398   3.277  0.4046  0.4704  0.9243
 8204TIP3    H124576   5.462   4.430   3.187 -3.1978  2.2585  1.0861
 8204TIP3    H224577   5.528   4.437   3.323  1.0014  1.4152 -0.7522
 8205TIP3   OH224578   3.507   0.564   1.908  0.4938  0.2834 -0.3029
 8205TIP3    H124579   3.573   0.582   1.841  0.1326  0.5284 -0.5976
 8205TIP3    H224580   3.473   0.649   1.933  0.0074  0.1356 -0.4444
 8206TIP3   OH224581   0.216   3.194   1.301  0.3100 -0.4783  0.1956
 8206TIP3    H124582   0.162   3.196   1.380  0.4889  1.4727  0.3133
 8206TIP3    H224583   0.304   3.176   1.333  0.3011 -0.1854  0.3886
 8207TIP3   OH224584   6.951   0.704   2.794 -0.2790 -0.2241 -0.1901
 8207TIP3    H124585   6.996   0.709   2.879  0.6660 -1.3412 -0.5881
 8207TIP3    H224586   7.018   0.728   2.730 -0.7429 -0.2165 -0.6790
 8208TIP3   OH224587   3.716   2.429   2.453 -0.4448 -0.6727  0.5311
 8208TIP3    H124588   3.739   2.339   2.476  0.6425 -0.1416  1.7037
 8208TIP3    H224589   3.713   2.430   2.358  1.6363 -1.5020  0.3923
 8209TIP3   OH224590   1.121   1.695   5.321  0.3057 -0.0179 -0.2310
 8209TIP3    H124591   1.109   1.708   5.227  0.8241 -0.2030 -0.3240
 8209TIP3    H224592   1.034   1.712   5.358  0.1343  0.2144 -0.7230
 8210TIP3   OH224593   3.215   2.374   0.623  0.3033 -0.0573  0.0539
 8210TIP3    H124594   3.303   2.357   0.657 -0.3437  1.4694  2.8456
 8210TIP3    H224595   3.158   2.319   0.677 -0.5631 -0.0228 -0.7995
 8211TIP3   OH224596   3.802   4.147   1.264 -0.1602 -0.7451 -0.5693
 8211TIP3    H124597   3.782   4.118   1.175 -0.8997 -0.3067 -0.5509
 8211TIP3    H224598   3.855   4.226   1.252 -0.2701 -0.6791 -0.6191
 8212TIP3   OH224599   4.531   6.245   3.402 -0.4128  0.4558  0.4993
 8212TIP3    H124600   4.567   6.158   3.388 -1.4842 -0.0541  0.8481
 8212TIP3    H224601   4.599   6.291   3.452  0.5031  0.0997 -0.3754
 8213TIP3   OH224602   4.948   6.167   0.027 -0.2095 -0.2822 -0.0842
 8213TIP3    H124603   5.002   6.153   0.104 -0.7764 -2.0343  0.0590
 8213TIP3    H224604   5.009   6.186  -0.043  0.6061 -1.8567  0.1507
 8214TIP3   OH224605   6.245   3.888   2.345  0.8825 -0.2447  0.2551
 8214TIP3    H124606   6.239   3.977   2.380  1.8581  0.5430 -1.4690
 8214TIP3    H224607   6.331   3.857   2.374  0.3760 -0.8095  1.2017
 8215TIP3   OH224608   0.359   5.482   5.299  0.1580 -0.2318 -0.2637
 8215TIP3    H124609   0.343   5.414   5.364  0.6837 -0.3339 -0.2323
 8215TIP3    H224610   0.338   5.441   5.216 -2.8679  0.6252 -0.0399
 8216TIP3   OH224611   1.456   1.064   5.279  0.2993  0.2365  0.3182
 8216TIP3    H124612   1.540   1.083   5.237  0.7495 -1.1409  0.5288
 8216TIP3    H224613   1.397   1.131   5.245  1.1012  0.3056 -1.0430
 8217TIP3   OH224614   0.679   6.407   1.329  0.1932  0.0417  0.2792
 8217TIP3    H124615   0.597   6.405   1.379 -0.2247  1.8779 -0.2595
 8217TIP3    H224616   0.729   6.333   1.363 -1.6650 -1.1204  0.6393
 8218TIP3   OH224617   0.328   0.711   4.388 -0.0961 -0.3003  0.1544
 8218TIP3    H124618   0.349   0.751   4.304  2.2500 -1.1820  0.2313
 8218TIP3    H224619   0.343   0.781   4.452 -4.0333  1.0818 -0.1444
 8219TIP3   OH224620   4.395   6.520   4.239  0.1783 -0.0301  0.2341
 8219TIP3    H124621   4.461   6.472   4.189 -0.5531  1.1042 -1.9198
 8219TIP3    H224622   4.329   6.454   4.260 -0.3225 -0.2605 -1.8207
 8220TIP3   OH224623   6.453   1.228   1.521 -0.0389 -0.0388  0.0013
 8220TIP3    H124624   6.441   1.226   1.616 -0.9520 -0.1667 -0.1028
 8220TIP3    H224625   6.472   1.138   1.497 -0.1679 -0.0714  0.0213
 8221TIP3   OH224626   2.179   5.628   1.001 -0.5099  0.0108 -0.2696
 8221TIP3    H124627   2.222   5.558   1.051 -0.7333 -0.9963 -1.4381
 8221TIP3    H224628   2.096   5.590   0.975 -0.7132  0.7961 -0.7674
 8222TIP3   OH224629   2.208   3.481   2.860 -0.3273 -0.8891  0.3181
 8222TIP3    H124630   2.230   3.467   2.768  0.6093  3.3395 -0.3123
 8222TIP3    H224631   2.127   3.532   2.857 -0.1723 -0.5220  1.8163
 8223TIP3   OH224632   5.517   3.466   3.436  0.0897  0.0710  0.3489
 8223TIP3    H124633   5.490   3.557   3.449 -0.4779 -0.1653  0.8097
 8223TIP3    H224634   5.610   3.466   3.459 -0.2940  0.1865  2.0185
 8224TIP3   OH224635   6.483   3.994   5.315 -0.2752  0.0435  0.5482
 8224TIP3    H124636   6.469   3.902   5.336  0.5659 -0.1491  0.2662
 8224TIP3    H224637   6.567   4.016   5.355 -0.5141  0.7132  0.6940
 8225TIP3   OH224638   6.881   2.955   4.514 -0.1869  0.2140  0.0955
 8225TIP3    H124639   6.894   2.909   4.431  1.3600  1.5670 -0.4602
 8225TIP3    H224640   6.838   3.037   4.489  0.4133  0.6925  0.6086
 8226TIP3   OH224641   0.859   4.052   2.193  0.2766  0.0223 -0.2656
 8226TIP3    H124642   0.902   3.968   2.209 -1.5286 -0.9160 -0.0746
 8226TIP3    H224643   0.794   4.059   2.262 -2.0202 -0.1498 -2.2870
 8227TIP3   OH224644   2.490   1.213   3.803 -0.0649 -0.5804 -0.5407
 8227TIP3    H124645   2.477   1.252   3.717 -0.3098  0.5092 -0.0326
 8227TIP3    H224646   2.517   1.286   3.859 -0.7117 -1.0917  0.4904
 8228TIP3   OH224647   7.026   2.849   0.641  0.1121 -0.1153 -0.4451
 8228TIP3    H124648   6.963   2.920   0.632 -0.1688 -0.2733  0.2716
 8228TIP3    H224649   7.085   2.877   0.710 -1.0067 -1.2993  1.0516
 8229TIP3   OH224650   2.546   2.693   1.635  0.1075  0.2057 -0.2011
 8229TIP3    H124651   2.542   2.646   1.719 -1.4342  1.0445  0.2370
 8229TIP3    H224652   2.454   2.708   1.613  0.3809 -1.5667 -2.9619
 8230TIP3   OH224653   0.758   2.499   4.201 -0.1271 -0.1300  0.3184
 8230TIP3    H124654   0.733   2.459   4.284 -0.1203 -1.0436 -0.1011
 8230TIP3    H224655   0.793   2.426   4.149 -2.0764 -0.0431 -1.2736
 8231TIP3   OH224656   5.446   0.138   2.955 -0.2301 -0.0056  0.0525
 8231TIP3    H124657   5.498   0.156   3.033  0.6107 -0.9897 -0.2601
 8231TIP3    H224658   5.366   0.097   2.989  0.2637 -0.7213  0.3995
 8232TIP3   OH224659   5.110   4.139   0.553 -0.2857 -0.7986  0.0511
 8232TIP3    H124660   5.023   4.168   0.583  0.6259  0.9959  1.1355
 8232TIP3    H224661   5.114   4.046   0.578 -1.3622 -0.5470  1.2553
 8233TIP3   OH224662   2.932   1.110   5.376  0.3355 -0.3088 -0.2641
 8233TIP3    H124663   2.912   1.109   5.470 -1.4941 -2.9385 -0.5907
 8233TIP3    H224664   3.015   1.064   5.368  1.3056  1.2946  0.1475
 8234TIP3   OH224665   3.437   2.443   2.758  0.1247 -0.3393  0.5555
 8234TIP3    H124666   3.503   2.457   2.690  0.4321  1.0476  1.1079
 8234TIP3    H224667   3.447   2.351   2.782  2.2429 -0.0571  0.9824
 8235TIP3   OH224668   2.352   4.405   0.292  0.0740 -0.2414 -0.2925
 8235TIP3    H124669   2.334   4.436   0.204  0.7981  0.1289 -0.3139
 8235TIP3    H224670   2.332   4.311   0.289 -0.4027 -0.1295 -0.7021
 8236TIP3   OH224671   2.192   6.530   4.031 -0.2336 -0.6010 -0.0718
 8236TIP3    H124672   2.217   6.615   3.995  1.3384 -0.7446  0.6039
 8236TIP3    H224673   2.204   6.469   3.959  1.7855 -0.7126  0.3105
 8237TIP3   OH224674   3.903   5.618   1.196 -0.3571  0.2053 -0.4370
 8237TIP3    H124675   3.933   5.555   1.262 -1.3245 -0.1488 -0.3267
 8237TIP3    H224676   3.892   5.566   1.117 -2.0297  0.0311 -0.1191
 8238TIP3   OH224677   4.972   4.892   1.182  0.1290  0.4000  0.0692
 8238TIP3    H124678   4.989   4.898   1.088  1.6605 -1.7134  0.1371
 8238TIP3    H224679   4.914   4.816   1.192 -1.6653  1.7765  0.7295
 8239TIP3   OH224680   2.228   6.211   3.608 -0.2026  0.5333  0.7199
 8239TIP3    H124681   2.164   6.140   3.616 -0.4563  0.6388 -0.2465
 8239TIP3    H224682   2.216   6.244   3.519  2.6326 -0.8426 -0.3069
 8240TIP3   OH224683   6.560   2.970   2.081  0.6971 -0.8853 -0.1010
 8240TIP3    H124684   6.622   3.038   2.107  0.2361 -1.2852  2.2016
 8240TIP3    H224685   6.489   3.018   2.038  0.1793  0.2047  1.8440
 8241TIP3   OH224686   2.674   1.399   2.815  0.2617 -0.4798 -0.3672
 8241TIP3    H124687   2.752   1.437   2.854  0.6390 -1.2721 -0.3151
 8241TIP3    H224688   2.629   1.472   2.774  1.4864 -0.1434 -1.1642
 8242TIP3   OH224689   4.341   0.986   4.544  0.5138 -0.4952 -0.4538
 8242TIP3    H124690   4.384   1.011   4.626 -1.9342 -1.8781  1.4094
 8242TIP3    H224691   4.413   0.967   4.484  2.4867 -0.9874  1.8804
 8243TIP3   OH224692   4.648   0.173   0.140 -0.2772  0.1519  0.4662
 8243TIP3    H124693   4.712   0.176   0.212 -0.5425 -0.1321  0.7178
 8243TIP3    H224694   4.577   0.230   0.170 -0.6301 -0.3809  0.6717
 8244TIP3   OH224695   1.045   0.254   3.053 -0.3906 -0.0416 -0.6742
 8244TIP3    H124696   1.109   0.240   3.123 -0.0952  0.0403 -0.9255
 8244TIP3    H224697   1.093   0.304   2.987 -0.0450 -1.7450 -1.8007
 8245TIP3   OH224698   3.845   0.893   3.009  0.2419 -0.4027  0.9767
 8245TIP3    H124699   3.917   0.940   2.967 -1.9768  1.2176 -1.3377
 8245TIP3    H224700   3.842   0.927   3.098  1.7405  0.1648  0.8336
 8246TIP3   OH224701   3.483   5.192   2.201  0.0140 -0.1493  0.3465
 8246TIP3    H124702   3.422   5.132   2.243  0.7135 -1.6288 -0.6945
 8246TIP3    H224703   3.428   5.246   2.144 -0.2285 -2.5149 -1.8009
 8247TIP3   OH224704   2.374   5.575   2.881 -0.0395 -0.4553 -0.3323
 8247TIP3    H124705   2.302   5.536   2.831 -0.0481 -0.0430 -0.6434
 8247TIP3    H224706   2.340   5.658   2.912  1.1428  1.0255 -2.7276
 8248TIP3   OH224707   0.308   6.388   4.853 -0.0077 -0.6541  0.1608
 8248TIP3    H124708   0.335   6.327   4.785  0.3347 -0.2215 -0.0972
 8248TIP3    H224709   0.236   6.438   4.813 -0.1344 -0.7317  0.2895
 8249TIP3   OH224710   4.977   5.523   2.622  0.4138  0.5557 -0.1103
 8249TIP3    H124711   4.967   5.586   2.551 -1.0360 -0.1591 -0.5825
 8249TIP3    H224712   5.071   5.506   2.627  0.6830  1.7171 -0.8690
 8250TIP3   OH224713   3.124   0.535   2.941  0.0104 -0.0919  0.3456
 8250TIP3    H124714   3.172   0.578   3.012 -0.8230  1.8613 -0.2096
 8250TIP3    H224715   3.173   0.455   2.924  2.1696  1.0254  0.8838
 8251TIP3   OH224716   4.217   1.717   0.846  0.4444  0.0425  0.1591
 8251TIP3    H124717   4.129   1.681   0.840  1.4284 -2.5163  0.0205
 8251TIP3    H224718   4.268   1.667   0.783  2.0914  1.2687  0.4511
 8252TIP3   OH224719   5.399   2.653   4.657  0.2770  0.5183 -0.7444
 8252TIP3    H124720   5.434   2.666   4.569  0.5817 -0.9474 -0.8797
 8252TIP3    H224721   5.469   2.605   4.703 -0.5431 -0.2347 -0.2542
 8253TIP3   OH224722   1.395   3.167   1.788  0.4878 -0.3834 -0.5297
 8253TIP3    H124723   1.307   3.206   1.796 -0.0444 -1.6290 -0.0293
 8253TIP3    H224724   1.421   3.186   1.698 -1.6788 -2.7214 -1.7751
 8254TIP3   OH224725   6.801   3.786   0.266  0.3412 -0.1709  0.0316
 8254TIP3    H124726   6.873   3.825   0.216  1.3536  0.8182  2.1345
 8254TIP3    H224727   6.737   3.857   0.273 -1.0320 -1.0974 -1.9829
 8255TIP3   OH224728   1.336   4.267   1.252 -0.3595  0.3079 -0.1848
 8255TIP3    H124729   1.342   4.345   1.308 -1.3293 -0.6269  1.2952
 8255TIP3    H224730   1.243   4.243   1.256 -0.2071 -0.5081 -1.2241
 8256TIP3   OH224731   6.978   3.316   0.042 -0.1252 -0.3606  0.3419
 8256TIP3    H124732   7.065   3.297   0.007 -0.0683 -0.2389  0.4167
 8256TIP3    H224733   6.935   3.367  -0.026  0.2604  0.5457  0.7618
 8257TIP3   OH224734   1.279   5.326   4.215 -0.1025 -0.1185 -0.2248
 8257TIP3    H124735   1.372   5.348   4.211  0.0828 -0.4980  1.2924
 8257TIP3    H224736   1.247   5.336   4.125  1.3377  0.2855 -0.7053
 8258TIP3   OH224737   3.233   2.190   1.195  0.1736 -0.4077 -0.0626
 8258TIP3    H124738   3.229   2.100   1.162  0.2084 -0.5713  0.3670
 8258TIP3    H224739   3.241   2.180   1.290 -0.5527  0.0565  0.0576
 8259TIP3   OH224740   6.953   2.535   2.836  0.4936 -0.4140 -0.2741
 8259TIP3    H124741   7.011   2.596   2.880  1.7465 -2.2613  0.7871
 8259TIP3    H224742   6.910   2.488   2.907  2.2719 -3.2008 -0.8751
 8260TIP3   OH224743   7.015   3.596   0.629  0.4077 -0.4958 -0.0314
 8260TIP3    H124744   7.006   3.601   0.724  1.9243 -1.3197  0.1960
 8260TIP3    H224745   7.092   3.649   0.610  0.0391 -0.2315 -0.8301
 8261TIP3   OH224746   4.971   3.088   1.904  0.1495  0.0645  0.0847
 8261TIP3    H124747   5.056   3.067   1.942  0.4814  1.1234 -0.0665
 8261TIP3    H224748   4.908   3.068   1.974  0.6231  0.4790  0.6406
 8262TIP3   OH224749   5.400   2.932   4.753 -0.0516 -0.1167  0.8483
 8262TIP3    H124750   5.390   2.838   4.771  0.1418 -0.3746 -0.2863
 8262TIP3    H224751   5.493   2.943   4.732 -0.4973 -0.1419 -1.3696
 8263TIP3   OH224752   4.377   4.343   3.340 -0.8262 -0.0044  0.9260
 8263TIP3    H124753   4.446   4.307   3.395 -0.2405  0.4419  0.4942
 8263TIP3    H224754   4.407   4.431   3.317  0.1774 -1.0245 -2.1762
 8264TIP3   OH224755   3.219   4.650   1.386  0.0236 -0.3481 -0.0050
 8264TIP3    H124756   3.312   4.629   1.394  0.5525  1.6882 -0.4742
 8264TIP3    H224757   3.212   4.700   1.305 -1.7714 -1.8275 -0.8634
 8265TIP3   OH224758   2.405   0.523   0.762  0.3327 -0.3824 -0.4658
 8265TIP3    H124759   2.437   0.568   0.684  0.8257 -0.2064 -0.1692
 8265TIP3    H224760   2.468   0.546   0.831  0.9824 -2.0222 -0.4461
 8266TIP3   OH224761   1.368   1.441   5.673  0.5901 -0.0344  0.1860
 8266TIP3    H124762   1.406   1.507   5.616  0.7876 -0.4427 -0.1592
 8266TIP3    H224763   1.344   1.369   5.614  2.5357 -1.2686  0.8255
 8267TIP3   OH224764   6.315   5.598   4.754  0.5384 -0.3471 -0.0925
 8267TIP3    H124765   6.396   5.550   4.738 -0.3569 -1.8707 -0.2493
 8267TIP3    H224766   6.258   5.574   4.681 -0.2299  0.2947  0.2809
 8268TIP3   OH224767   0.956   1.505   0.241  0.2402  0.2068 -0.1982
 8268TIP3    H124768   0.930   1.586   0.284  0.5860  0.1608  0.1006
 8268TIP3    H224769   1.049   1.497   0.260  0.3468  0.0673 -0.7627
 8269TIP3   OH224770   0.576   0.922   0.324  0.1085 -0.2614 -0.5461
 8269TIP3    H124771   0.570   0.996   0.264  2.0900 -2.1874 -3.4490
 8269TIP3    H224772   0.529   0.851   0.279  0.3740 -1.4289  0.9273
 8270TIP3   OH224773   5.221   6.251   3.397  0.3722  0.6195  0.3688
 8270TIP3    H124774   5.179   6.278   3.479  1.3701  1.0406  0.7534
 8270TIP3    H224775   5.181   6.166   3.377  0.5624  0.2037  1.6372
 8271TIP3   OH224776   6.269   5.177   2.832 -0.2884 -0.4135  0.1255
 8271TIP3    H124777   6.306   5.127   2.905  0.0290  1.8398  1.5969
 8271TIP3    H224778   6.345   5.214   2.788 -0.5432 -0.8153 -0.6646
 8272TIP3   OH224779   0.633   0.444   4.527 -0.5471  0.5245 -0.0107
 8272TIP3    H124780   0.544   0.471   4.545  0.2599  3.3266  0.2268
 8272TIP3    H224781   0.635   0.431   4.432 -0.9373  1.6274 -0.1818
 8273TIP3   OH224782   4.321   0.787   2.806 -0.3508  0.4051  0.0797
 8273TIP3    H124783   4.416   0.788   2.797 -0.4099 -0.5030 -0.7575
 8273TIP3    H224784   4.289   0.848   2.741 -0.3974 -0.3822 -0.6558
 8274TIP3   OH224785   5.957   3.687   3.835 -0.1685  0.4429 -0.0117
 8274TIP3    H124786   5.893   3.713   3.769  2.0793  0.0882 -2.4861
 8274TIP3    H224787   5.947   3.753   3.904 -1.8524  1.5088 -1.1754
 8275TIP3   OH224788   3.616   4.485   2.220  0.2850 -0.2661 -0.5665
 8275TIP3    H124789   3.694   4.510   2.270  0.7292 -0.6601 -1.0501
 8275TIP3    H224790   3.544   4.531   2.263  0.3708 -1.9156  1.5102
 8276TIP3   OH224791   0.571   2.119   2.241 -0.2029 -0.5183  0.1251
 8276TIP3    H124792   0.625   2.088   2.313 -0.1289  1.6310  1.0824
 8276TIP3    H224793   0.618   2.091   2.162  2.6562  1.5849  0.8907
 8277TIP3   OH224794   4.257   1.929   4.017 -0.1182 -0.6034 -0.0834
 8277TIP3    H124795   4.308   1.852   3.993  0.7065 -1.1175  2.9040
 8277TIP3    H224796   4.319   2.002   4.010  0.1645 -0.7751  0.5073
 8278TIP3   OH224797   6.581   4.115   0.195 -0.1657 -0.0642 -0.1210
 8278TIP3    H124798   6.572   4.029   0.237 -0.3118  0.2294  0.4477
 8278TIP3    H224799   6.564   4.097   0.102 -0.6735 -0.5669  0.0624
 8279TIP3   OH224800   0.092   3.238   5.401  0.2932  0.7559 -0.1943
 8279TIP3    H124801   0.113   3.331   5.402 -1.9054  1.3179  0.0261
 8279TIP3    H224802   0.100   3.212   5.309 -0.3512  1.5189 -0.4813
 8280TIP3   OH224803   3.480   2.683   3.638  0.0116  0.1861  0.1674
 8280TIP3    H124804   3.405   2.652   3.588  0.9319 -0.6989 -0.6814
 8280TIP3    H224805   3.500   2.769   3.601 -0.5374  0.4115  0.3741
 8281TIP3   OH224806   1.042   5.583   0.914 -0.2776  0.3857  0.2008
 8281TIP3    H124807   1.034   5.673   0.946  1.0324  0.3559  0.6624
 8281TIP3    H224808   1.058   5.592   0.820 -0.7781  0.6020  0.1333
 8282TIP3   OH224809   6.032   1.837   5.083 -0.3097  0.5549  0.3353
 8282TIP3    H124810   5.981   1.761   5.055 -2.4863  0.9626  2.7379
 8282TIP3    H224811   6.048   1.886   5.003 -0.1597 -1.6617 -1.0628
 8283TIP3   OH224812   1.889   3.239   2.723  0.3200 -0.2478 -0.3703
 8283TIP3    H124813   1.925   3.296   2.791 -0.8286  1.1573 -0.9019
 8283TIP3    H224814   1.899   3.151   2.759 -1.0037  0.4705  2.0373
 8284TIP3   OH224815   6.169   4.968   0.408  0.1696 -0.3427 -0.0934
 8284TIP3    H124816   6.089   5.013   0.380  0.4402 -0.2805 -0.7848
 8284TIP3    H224817   6.140   4.880   0.432 -0.3216  0.0959  1.0155
 8285TIP3   OH224818   6.426   0.356   5.394  0.2246 -0.6976  0.0961
 8285TIP3    H124819   6.477   0.405   5.330 -0.6173 -0.7846 -0.6709
 8285TIP3    H224820   6.451   0.393   5.478  1.8851 -1.0578 -0.2078
 8286TIP3   OH224821   4.811   1.398   4.458  0.5982  0.4368  0.1248
 8286TIP3    H124822   4.762   1.469   4.416  0.1083  2.0681  3.1890
 8286TIP3    H224823   4.879   1.443   4.508  1.6346 -1.4492  0.5118
 8287TIP3   OH224824   3.903   3.909   3.724 -0.2084  0.1095 -0.0560
 8287TIP3    H124825   3.948   3.826   3.709 -0.4941  0.0048 -0.3467
 8287TIP3    H224826   3.814   3.894   3.691 -0.6737  0.0683  1.1660
 8288TIP3   OH224827   0.444   3.743   1.650 -0.1294  0.3941 -0.2519
 8288TIP3    H124828   0.372   3.806   1.657  1.8661  2.8467 -0.6621
 8288TIP3    H224829   0.503   3.780   1.584  1.4055 -1.6623 -0.1321
 8289TIP3   OH224830   6.591   3.207   3.456  0.1465  0.8909  0.0158
 8289TIP3    H124831   6.583   3.270   3.384  0.5833  1.8477  0.7804
 8289TIP3    H224832   6.501   3.186   3.480 -0.0036  0.5761 -0.7834
 8290TIP3   OH224833   3.938   4.378   3.574  0.1563 -0.0514 -0.3152
 8290TIP3    H124834   3.966   4.461   3.613  0.8747 -1.1600  1.7146
 8290TIP3    H224835   3.926   4.320   3.649 -4.5149 -0.6929 -1.2736
 8291TIP3   OH224836   5.024   3.340   0.305  0.2841 -0.0067 -0.1786
 8291TIP3    H124837   5.101   3.299   0.346 -0.3325 -0.4256  0.5974
 8291TIP3    H224838   4.970   3.266   0.279  0.0087  0.2935 -0.4529
 8292TIP3   OH224839   7.159   4.657   2.722  0.1358 -0.6653  0.4392
 8292TIP3    H124840   7.104   4.725   2.760 -1.0587 -1.0695 -0.5193
 8292TIP3    H224841   7.183   4.691   2.636  0.3185 -1.0552  0.3311
 8293TIP3   OH224842   0.419   4.765   5.704  0.1945  0.4026  0.5031
 8293TIP3    H124843   0.324   4.777   5.704  0.0879 -0.2776 -0.9972
 8293TIP3    H224844   0.434   4.685   5.754 -0.1123 -0.0763 -0.1707
 8294TIP3   OH224845   0.512   6.727   5.482  0.9935  0.1560  0.3576
 8294TIP3    H124846   0.442   6.668   5.455  1.4462 -0.0339 -0.4158
 8294TIP3    H224847   0.489   6.751   5.572 -0.6000  0.8837 -0.2054
 8295TIP3   OH224848   1.249   5.595   5.455 -0.4157 -0.1377  0.0967
 8295TIP3    H124849   1.159   5.564   5.444 -0.0047 -1.4298  0.2099
 8295TIP3    H224850   1.284   5.599   5.366 -0.4461 -0.0760  0.0876
 8296TIP3   OH224851   2.494   4.411   3.619 -0.0872  0.0096 -0.1166
 8296TIP3    H124852   2.503   4.327   3.573 -0.5522 -0.0856 -0.0387
 8296TIP3    H224853   2.415   4.401   3.672 -1.4349  1.2623 -1.7716
 8297TIP3   OH224854   4.739   3.669  -0.009 -0.0487  0.4942  0.3012
 8297TIP3    H124855   4.776   3.727   0.057 -0.1014 -0.5800  1.3089
 8297TIP3    H224856   4.786   3.586   0.002 -2.1010 -0.6463  1.0716
 8298TIP3   OH224857   4.890   0.036   0.359  0.5611  0.0994 -0.2911
 8298TIP3    H124858   4.972  -0.009   0.381  0.3676 -0.5669 -0.9106
 8298TIP3    H224859   4.890   0.113   0.416  0.9714 -0.5981  0.6850
 8299TIP3   OH224860   6.484   5.276   1.372 -0.0395  0.4055  0.2116
 8299TIP3    H124861   6.539   5.354   1.379 -0.0076  0.3553  0.5359
 8299TIP3    H224862   6.539   5.211   1.330 -0.5189  0.9860 -1.3896
 8300TIP3   OH224863   4.055   2.621   3.780 -0.0988  0.0586  0.0571
 8300TIP3    H124864   3.998   2.697   3.793  0.1824  0.4346 -0.8022
 8300TIP3    H224865   4.042   2.597   3.688 -0.1391 -0.9042  0.3061
 8301TIP3   OH224866   1.922   0.417   5.688  0.3137  0.4045  0.4289
 8301TIP3    H124867   1.846   0.372   5.726  0.5815 -0.2206  0.2347
 8301TIP3    H224868   1.993   0.400   5.749  0.6737 -0.3529 -0.1823
 8302TIP3   OH224869   6.898   2.077   3.174  0.2997 -0.3407  0.2234
 8302TIP3    H124870   6.947   2.159   3.181 -0.6711  0.2136  0.7723
 8302TIP3    H224871   6.852   2.070   3.258 -2.1965  0.2269 -1.0203
 8303TIP3   OH224872   4.453   3.695   4.177  0.1256 -0.0082  0.3107
 8303TIP3    H124873   4.484   3.605   4.182 -0.7810 -0.3284  0.2519
 8303TIP3    H224874   4.475   3.733   4.262 -1.2454 -0.8665  1.0752
 8304TIP3   OH224875   2.046   1.104   0.652  0.6604  0.2070 -0.3135
 8304TIP3    H124876   2.084   1.073   0.570  1.3190 -1.2712  0.5011
 8304TIP3    H224877   2.007   1.026   0.691 -0.5956  1.0967  0.3002
 8305TIP3   OH224878   4.978   1.456   2.186  0.1286 -0.0989  0.1642
 8305TIP3    H124879   5.043   1.520   2.154  0.7033 -0.6740  0.1555
 8305TIP3    H224880   4.894   1.498   2.171  0.4012 -0.0931 -1.5561
 8306TIP3   OH224881   2.002   0.153   5.609  0.2471  1.1241  0.5691
 8306TIP3    H124882   2.053   0.164   5.529  0.6026  1.7926  0.8792
 8306TIP3    H224883   1.911   0.160   5.579  0.3223  0.1462  0.0516
 8307TIP3   OH224884   3.782   2.484   1.371  0.0191 -0.3618 -0.2764
 8307TIP3    H124885   3.763   2.466   1.463 -0.2202  0.7287 -0.0991
 8307TIP3    H224886   3.774   2.399   1.328  1.2506 -1.1097  0.8854
 8308TIP3   OH224887   0.540   5.370   1.549  0.3420 -0.0238 -0.0020
 8308TIP3    H124888   0.540   5.464   1.566  0.6198  0.0874 -0.5993
 8308TIP3    H224889   0.493   5.332   1.624  1.6963  0.4261  1.1152
 8309TIP3   OH224890   7.015   4.069   4.355  0.4024 -0.2937 -0.0052
 8309TIP3    H124891   6.948   4.016   4.314  0.4427 -0.9175  0.7085
 8309TIP3    H224892   7.096   4.047   4.309  0.2463 -0.1142 -0.3611
 8310TIP3   OH224893   3.244   4.831   2.599  0.2213 -0.2505  0.1375
 8310TIP3    H124894   3.296   4.836   2.519 -1.0991 -1.2357 -0.8079
 8310TIP3    H224895   3.298   4.877   2.665  0.5828  2.1006 -1.6677
 8311TIP3   OH224896   0.055   2.068   4.085  0.2367 -0.1273  0.2559
 8311TIP3    H124897  -0.007   2.019   4.138 -0.8673  2.4580  1.5460
 8311TIP3    H224898   0.007   2.090   4.005  0.3084 -0.1030  0.2188
 8312TIP3   OH224899   6.549   4.301   5.637 -0.0728 -0.0267 -0.2740
 8312TIP3    H124900   6.642   4.313   5.657  0.4890 -1.7082 -1.5962
 8312TIP3    H224901   6.536   4.348   5.555 -0.0393 -0.8915 -0.7865
 8313TIP3   OH224902   1.003   3.978   4.740  0.1864 -0.0392  0.2422
 8313TIP3    H124903   0.993   4.042   4.670  0.5942 -0.7310 -0.4639
 8313TIP3    H224904   1.059   4.022   4.804 -1.0716  1.0083  0.6704
 8314TIP3   OH224905   4.609   4.729   2.769 -0.2068  0.1392  0.2007
 8314TIP3    H124906   4.629   4.822   2.757  0.6289  0.0602  0.8783
 8314TIP3    H224907   4.685   4.694   2.815  0.2921 -1.2424 -1.5339
 8315TIP3   OH224908   4.350   3.515   0.495  0.0288 -0.2489 -0.3960
 8315TIP3    H124909   4.380   3.451   0.561  1.6258  1.6280  0.8202
 8315TIP3    H224910   4.358   3.599   0.539 -2.7722  0.7940 -1.6803
 8316TIP3   OH224911   3.799   6.353   0.720  0.7615  0.3650  0.5112
 8316TIP3    H124912   3.861   6.319   0.656 -0.6623  1.3127 -1.4921
 8316TIP3    H224913   3.721   6.299   0.710  1.1471 -0.7869  2.9644
 8317TIP3   OH224914   6.286   6.132   2.618  0.1170  0.6229 -0.1036
 8317TIP3    H124915   6.354   6.065   2.611 -0.4006  0.1679 -0.8998
 8317TIP3    H224916   6.285   6.156   2.711  1.5264  0.8176 -0.1183
 8318TIP3   OH224917   1.682   2.264   1.538  0.2066 -0.2217 -0.0989
 8318TIP3    H124918   1.699   2.218   1.456  1.7683  0.2733 -0.0797
 8318TIP3    H224919   1.671   2.356   1.513 -0.9006 -0.2919  0.0839
 8319TIP3   OH224920   4.166   1.642   3.556  0.0676  0.3017  0.3603
 8319TIP3    H124921   4.090   1.588   3.533 -0.3711  1.5921 -1.5345
 8319TIP3    H224922   4.158   1.657   3.650 -0.5039 -1.8067  0.6890
 8320TIP3   OH224923   0.543   0.293   1.279 -0.5262  0.2215 -1.1078
 8320TIP3    H124924   0.567   0.202   1.296 -0.2648  0.5894  0.6718
 8320TIP3    H224925   0.626   0.335   1.255 -0.0885  0.5580  0.8210
 8321TIP3   OH224926   1.682   5.732   5.165  0.3581 -0.3850  0.2095
 8321TIP3    H124927   1.643   5.646   5.179  0.3997 -0.2327  1.3435
 8321TIP3    H224928   1.614   5.782   5.120  0.0081 -0.7400  0.3334
 8322TIP3   OH224929   4.873   2.409   2.442 -0.1043  0.3531  0.3807
 8322TIP3    H124930   4.855   2.319   2.469 -0.8435  0.0856 -0.9472
 8322TIP3    H224931   4.900   2.452   2.523  0.9778 -1.2203  0.9110
 8323TIP3   OH224932   0.352   4.469   0.461  0.0091 -0.4648 -0.6228
 8323TIP3    H124933   0.414   4.542   0.467 -1.9748  1.3877 -1.4719
 8323TIP3    H224934   0.368   4.430   0.376  0.0814 -0.0609 -0.7960
 8324TIP3   OH224935   5.685   1.531   3.644 -0.5873 -0.7106 -0.0732
 8324TIP3    H124936   5.720   1.586   3.574  0.5913 -1.3095  0.0207
 8324TIP3    H224937   5.594   1.560   3.654  0.1073  1.5192  0.2853
 8325TIP3   OH224938   2.482   6.438   2.715 -0.7181  0.6396 -0.5089
 8325TIP3    H124939   2.476   6.383   2.637  0.4938  0.2729 -0.3694
 8325TIP3    H224940   2.396   6.480   2.722 -0.8615  0.6323 -1.9966
 8326TIP3   OH224941   5.485   2.743   4.367  0.2698  0.1161  0.2305
 8326TIP3    H124942   5.570   2.748   4.324 -0.0334  0.4950 -0.3290
 8326TIP3    H224943   5.456   2.834   4.375 -1.1628 -0.0975 -1.7779
 8327TIP3   OH224944   0.815   4.836   2.318 -0.1198 -0.3284 -0.0607
 8327TIP3    H124945   0.764   4.834   2.399  0.3327 -2.3243  0.2432
 8327TIP3    H224946   0.906   4.829   2.347  0.0605 -0.8165 -0.7238
 8328TIP3   OH224947   2.436   2.214   2.830 -0.0916  0.4768  0.3215
 8328TIP3    H124948   2.395   2.151   2.889  0.1957 -0.1217 -0.1069
 8328TIP3    H224949   2.530   2.201   2.841 -0.0329  0.1749 -0.4439
 8329TIP3   OH224950   5.603   4.217   3.994 -0.2549 -0.1252  0.3915
 8329TIP3    H124951   5.695   4.241   4.005 -0.0666 -0.6290 -0.0302
 8329TIP3    H224952   5.555   4.279   4.049  0.3333  0.1623  0.5884
 8330TIP3   OH224953   5.529   1.090   0.237 -0.6615  0.5921  0.7303
 8330TIP3    H124954   5.466   1.025   0.207  0.9314 -0.7520  0.1599
 8330TIP3    H224955   5.478   1.147   0.296 -2.5506  0.0239 -0.2683
 8331TIP3   OH224956   5.061   6.731   3.119 -0.5105 -0.0006 -0.1665
 8331TIP3    H124957   5.147   6.719   3.159 -0.2200  1.9582 -0.1315
 8331TIP3    H224958   5.066   6.816   3.075 -2.0174 -0.4463 -1.2733
 8332TIP3   OH224959   2.898   0.132   3.317 -0.0125  0.3705  0.3615
 8332TIP3    H124960   2.832   0.180   3.368 -1.4773 -0.6692 -0.5021
 8332TIP3    H224961   2.899   0.176   3.232 -2.0303 -1.5652 -0.7568
 8333TIP3   OH224962   3.902   0.608   4.844  0.3387 -0.2851 -0.1447
 8333TIP3    H124963   3.858   0.527   4.819  1.0813 -0.6258 -0.3870
 8333TIP3    H224964   3.862   0.632   4.927  0.1037 -0.8943 -0.0739
 8334TIP3   OH224965   0.047   5.064   2.824  0.2414  0.9977  0.0215
 8334TIP3    H124966   0.029   5.024   2.739  2.2833  0.3666 -0.1813
 8334TIP3    H224967   0.060   5.157   2.804 -2.6415  1.5416  0.2167
 8335TIP3   OH224968   4.840   1.513   3.874  0.3751 -0.8567  0.1817
 8335TIP3    H124969   4.872   1.545   3.958  1.0322 -1.1293  0.0415
 8335TIP3    H224970   4.746   1.533   3.875  0.7720  1.3469 -0.0158
 8336TIP3   OH224971   4.461   3.306   1.928 -0.3205  0.6969 -0.0081
 8336TIP3    H124972   4.391   3.370   1.936 -2.0314 -1.1825  0.6778
 8336TIP3    H224973   4.501   3.302   2.015 -0.5981  0.4042  0.1053
 8337TIP3   OH224974   5.193   5.998   4.908  0.2738  0.2858 -0.0977
 8337TIP3    H124975   5.129   6.064   4.881 -1.8553 -1.8607 -0.6763
 8337TIP3    H224976   5.151   5.953   4.982  0.4738 -2.0223 -1.2922
 8338TIP3   OH224977   4.160   5.633   3.058 -0.2768 -0.2202  0.1603
 8338TIP3    H124978   4.241   5.602   3.097  0.4107  0.9674 -0.2583
 8338TIP3    H224979   4.093   5.616   3.124  0.8981  2.1044  2.1269
 8339TIP3   OH224980   1.062   0.328   0.271  0.0582 -0.3299  0.1892
 8339TIP3    H124981   1.031   0.387   0.203  1.1156 -0.3455 -0.3301
 8339TIP3    H224982   1.021   0.359   0.351  0.2165  0.8141 -0.1605
 8340TIP3   OH224983   1.642   2.453   1.122  0.2258 -0.2772  0.0350
 8340TIP3    H124984   1.734   2.428   1.117  0.8152  2.0628 -2.9342
 8340TIP3    H224985   1.630   2.481   1.213  2.6777  0.2182  0.2720
 8341TIP3   OH224986   1.654   2.064   1.305  0.5545  0.2254  0.0719
 8341TIP3    H124987   1.736   2.024   1.278  0.3442 -0.5599  0.5532
 8341TIP3    H224988   1.625   2.114   1.228  0.3649 -1.3012 -0.8817
 8342TIP3   OH224989   5.450   5.793   5.678 -0.2392 -0.1483 -0.0566
 8342TIP3    H124990   5.414   5.748   5.754 -0.8975  0.1919 -0.1655
 8342TIP3    H224991   5.475   5.879   5.711 -0.9206  0.1517 -0.3229
 8343TIP3   OH224992   0.643   3.208   2.370  0.8002  0.3274 -0.4616
 8343TIP3    H124993   0.551   3.185   2.354  0.7506  0.1472  0.0395
 8343TIP3    H224994   0.657   3.288   2.319 -0.3859  1.8477  1.4266
 8344TIP3   OH224995   0.189   0.717   0.767 -0.1653 -0.0931 -0.1394
 8344TIP3    H124996   0.112   0.663   0.787 -1.1115  1.1401 -0.3517
 8344TIP3    H224997   0.186   0.729   0.673 -0.6284  1.2712  0.0316
 8345TIP3   OH224998   0.839   5.967   0.768  0.1135  0.1435 -0.3201
 8345TIP3    H124999   0.794   5.883   0.760 -0.9377  0.6625 -0.0849
 8345TIP3    H225000   0.900   5.969   0.695  1.2890 -1.4844  0.5594
 8346TIP3   OH225001   2.438   0.684   4.201  0.3241 -0.5793  0.2403
 8346TIP3    H125002   2.361   0.705   4.149  0.8835  0.1686 -0.3006
 8346TIP3    H225003   2.487   0.766   4.207  2.1683 -1.4795 -1.2817
 8347TIP3   OH225004   6.107   4.437   5.505 -0.1354 -0.3640 -0.7950
 8347TIP3    H125005   6.184   4.410   5.555 -0.3338  0.4994  0.0123
 8347TIP3    H225006   6.049   4.361   5.506  0.7033 -1.0213 -1.4178
 8348TIP3   OH225007   3.838   3.479   0.017 -0.5445 -0.3097  0.2985
 8348TIP3    H125008   3.785   3.413   0.062  0.9378 -0.5697  1.7623
 8348TIP3    H225009   3.925   3.469   0.055 -0.0893  1.9558 -0.0456
 8349TIP3   OH225010   3.739   1.616   1.827  0.5396 -0.0158  0.1399
 8349TIP3    H125011   3.796   1.673   1.879  0.2958 -0.7735  1.2738
 8349TIP3    H225012   3.789   1.598   1.748  1.0608  0.8911  0.2479
 8350TIP3   OH225013   6.234   0.377   1.290 -0.4249  0.2671  0.1770
 8350TIP3    H125014   6.205   0.310   1.351 -1.3538 -0.0412 -0.5797
 8350TIP3    H225015   6.230   0.459   1.340 -0.4592 -0.0760  0.7430
 8351TIP3   OH225016   3.894   6.665   1.658 -0.0990  0.1646  0.5068
 8351TIP3    H125017   3.936   6.629   1.579 -0.8625  0.8662 -0.2354
 8351TIP3    H225018   3.944   6.627   1.730 -1.1365 -2.8009 -0.1807
 8352TIP3   OH225019   2.449   4.830   0.044  0.7189  0.1452 -0.0081
 8352TIP3    H125020   2.478   4.739   0.047  1.1719  0.3185  1.1084
 8352TIP3    H225021   2.471   4.859  -0.045 -1.4480 -1.4508 -1.1802
 8353TIP3   OH225022   5.319   0.343   5.844  0.3357  0.5037 -0.3490
 8353TIP3    H125023   5.407   0.379   5.851  1.0285 -0.6772 -2.2228
 8353TIP3    H225024   5.313   0.279   5.916  1.0477  0.4823 -0.3065
 8354TIP3   OH225025   1.019   1.069   5.360  0.0749 -0.1700  0.2678
 8354TIP3    H125026   0.959   0.996   5.350 -0.2267 -0.1116  1.4376
 8354TIP3    H225027   1.073   1.068   5.281  0.1867 -1.7488  0.3415
 8355TIP3   OH225028   1.797   1.796   5.296  0.3057  0.5725 -0.2734
 8355TIP3    H125029   1.824   1.716   5.252 -1.0485 -1.2230  1.9155
 8355TIP3    H225030   1.829   1.786   5.386 -2.0778  1.2631  0.7232
 8356TIP3   OH225031   3.352   1.518   1.562 -0.3682  0.5853  0.2552
 8356TIP3    H125032   3.280   1.472   1.603 -0.4800  0.1156 -0.4425
 8356TIP3    H225033   3.382   1.581   1.628 -0.7516  0.0868  0.9118
 8357TIP3   OH225034   1.609   3.496   0.388 -0.4087 -0.1053 -0.4559
 8357TIP3    H125035   1.571   3.573   0.344  0.1353  1.1468  1.1885
 8357TIP3    H225036   1.533   3.440   0.407 -0.9074  0.3732 -0.9586
 8358TIP3   OH225037   3.960   1.920   4.910  0.9061 -0.3474 -0.1134
 8358TIP3    H125038   4.052   1.945   4.914  0.8911 -0.5277  1.8186
 8358TIP3    H225039   3.913   2.003   4.918  0.8379 -0.1363 -2.0109
 8359TIP3   OH225040   5.308   2.919   5.246 -0.1328  0.3771  1.0203
 8359TIP3    H125041   5.259   3.001   5.251 -1.8620 -0.1471 -3.0917
 8359TIP3    H225042   5.331   2.911   5.154  2.7242 -2.3429  1.8040
 8360TIP3   OH225043   3.928   2.436   1.920 -0.2765  0.2295  0.1122
 8360TIP3    H125044   4.017   2.458   1.946  0.1568  0.0978 -1.1611
 8360TIP3    H225045   3.937   2.354   1.871 -1.1574  0.0004  0.3169
 8361TIP3   OH225046   3.136   5.093   2.799 -0.0400  0.4866  0.1073
 8361TIP3    H125047   3.130   5.140   2.882 -0.8336 -1.2449  1.0885
 8361TIP3    H225048   3.158   5.003   2.824  0.9873  0.2000 -1.6608
 8362TIP3   OH225049   2.116   1.775   1.159  0.1586  0.1073  0.4328
 8362TIP3    H125050   2.186   1.798   1.099 -0.5254 -0.6179 -0.6880
 8362TIP3    H225051   2.138   1.687   1.189 -0.4730 -0.2940 -0.2550
 8363TIP3   OH225052   6.862   5.714   3.558  0.4658  0.2281 -0.4512
 8363TIP3    H125053   6.810   5.637   3.581  0.9626  0.3910  1.3852
 8363TIP3    H225054   6.799   5.776   3.522  0.4796 -2.1537 -5.3933
 8364TIP3   OH225055   4.570   6.077   4.921  0.3537  0.3956  0.0369
 8364TIP3    H125056   4.553   6.074   5.015 -0.2022  0.0137 -0.0736
 8364TIP3    H225057   4.483   6.081   4.881  0.5039 -1.2896 -0.5344
 8365TIP3   OH225058   4.132   2.176   4.253 -0.0471  0.2038 -0.0209
 8365TIP3    H125059   4.209   2.215   4.211  0.9258  1.1030  2.4104
 8365TIP3    H225060   4.167   2.114   4.316 -1.3768 -0.1473  0.4090
 8366TIP3   OH225061   4.637   6.083   2.644  0.2046  0.4380 -0.4340
 8366TIP3    H125062   4.722   6.110   2.678  0.4186 -0.8049  0.0744
 8366TIP3    H225063   4.649   5.991   2.621 -0.4454  0.7577 -2.2230
 8367TIP3   OH225064   5.765   0.296   3.245  0.1665  0.2265  0.2111
 8367TIP3    H125065   5.789   0.237   3.173  0.0359 -0.1619  0.4817
 8367TIP3    H225066   5.672   0.278   3.260  0.2040  0.2801  0.5023
 8368TIP3   OH225067   1.144   6.539   3.660 -0.8333 -0.3792 -0.2999
 8368TIP3    H125068   1.082   6.538   3.587 -1.8607  2.2134  0.4234
 8368TIP3    H225069   1.198   6.617   3.645  0.0091 -0.6978  0.8765
 8369TIP3   OH225070   1.048   0.969   3.125  0.5836  0.3564 -0.1964
 8369TIP3    H125071   1.077   0.941   3.038  0.5330  0.1725 -0.1556
 8369TIP3    H225072   1.028   1.062   3.115  1.5454  0.5837 -0.1341
 8370TIP3   OH225073   3.227   6.559   3.758 -0.4508  0.1008 -0.0310
 8370TIP3    H125074   3.206   6.518   3.674  0.0955  1.5932 -0.9340
 8370TIP3    H225075   3.207   6.652   3.746  0.6542  0.5308  1.1247
 8371TIP3   OH225076   5.879   4.250   2.236  0.4944  0.3446 -0.5668
 8371TIP3    H125077   5.913   4.169   2.198 -0.6007 -0.1553 -0.5170
 8371TIP3    H225078   5.819   4.221   2.305 -0.5012  1.1766 -1.0604
 8372TIP3   OH225079   1.684   0.609   5.286  0.3724 -0.3218  0.1899
 8372TIP3    H125080   1.680   0.689   5.339 -0.4102 -0.4133  0.2684
 8372TIP3    H225081   1.593   0.589   5.264  0.6526 -0.4756 -0.9116
 8373TIP3   OH225082   3.759   0.846   1.888  0.0516  0.0616 -0.3110
 8373TIP3    H125083   3.814   0.791   1.833  0.3588 -0.2665  0.3110
 8373TIP3    H225084   3.794   0.834   1.977 -0.0689  1.0141 -0.1162
 8374TIP3   OH225085   5.927   6.497   1.753 -0.6212 -0.4641 -0.2408
 8374TIP3    H125086   5.901   6.493   1.661  0.8834 -0.5173 -0.7034
 8374TIP3    H225087   6.023   6.490   1.750 -0.6619 -2.7199  1.4688
 8375TIP3   OH225088   7.146   3.563   0.886  0.7070  0.1899 -0.2513
 8375TIP3    H125089   7.164   3.653   0.913 -1.4189  0.4262  0.5459
 8375TIP3    H225090   7.061   3.543   0.925  0.6820 -1.8302 -1.2407
 8376TIP3   OH225091   4.461   5.757   3.413 -0.6964  0.1109 -0.3380
 8376TIP3    H125092   4.466   5.711   3.329  0.2615  1.2308 -0.9332
 8376TIP3    H225093   4.493   5.845   3.394  1.2402 -0.0929  1.5355
 8377TIP3   OH225094   1.180   4.167   1.590  0.2996 -0.1058  0.6704
 8377TIP3    H125095   1.155   4.093   1.646 -0.6405  0.4850  1.0684
 8377TIP3    H225096   1.161   4.245   1.643 -1.3303  0.5107 -0.6966
 8378TIP3   OH225097   2.635   4.377   2.708  0.0195 -0.0969  0.1055
 8378TIP3    H125098   2.722   4.357   2.742  0.2265  0.7645  0.1216
 8378TIP3    H225099   2.580   4.388   2.785 -0.5141 -2.2230  0.0886
 8379TIP3   OH225100   6.852   4.250   0.903  0.7245 -0.2508  0.5842
 8379TIP3    H125101   6.876   4.245   0.811 -0.3724 -0.9220  0.3236
 8379TIP3    H225102   6.856   4.343   0.924 -2.0038  0.3324 -0.9979
 8380TIP3   OH225103   6.959   0.193   5.373  0.4298 -0.3012 -0.5948
 8380TIP3    H125104   6.967   0.259   5.442  1.8709 -2.0722  1.0250
 8380TIP3    H225105   6.946   0.244   5.293  0.8415  1.9099  0.6673
 8381TIP3   OH225106   0.389   3.861   1.967 -0.2526  0.2454  0.3398
 8381TIP3    H125107   0.405   3.850   1.874 -2.1044 -0.6746  0.0729
 8381TIP3    H225108   0.347   3.947   1.974 -2.8446 -0.8904 -0.1451
 8382TIP3   OH225109   3.026   3.668   5.627 -0.3145  0.8083 -0.0928
 8382TIP3    H125110   3.074   3.717   5.560  1.1351  0.6442  0.7837
 8382TIP3    H225111   3.041   3.716   5.708  2.7613 -1.9292  1.1967
 8383TIP3   OH225112   6.021   2.358   2.488  0.0392 -0.5227 -0.2963
 8383TIP3    H125113   5.964   2.435   2.476  0.5289 -0.0811  0.1369
 8383TIP3    H225114   5.960   2.286   2.505 -0.4236 -0.2105 -0.5798
 8384TIP3   OH225115   3.855   3.504   1.706  0.1820 -0.9672  0.4643
 8384TIP3    H125116   3.774   3.552   1.724  0.9463  0.3628  0.4655
 8384TIP3    H225117   3.876   3.461   1.788 -1.3953 -2.7374  0.0220
 8385TIP3   OH225118   5.015   6.332   5.052 -0.8805 -0.3085  0.0115
 8385TIP3    H125119   4.945   6.332   5.117 -0.9942 -1.0738 -0.1047
 8385TIP3    H225120   4.972   6.311   4.969 -0.3777 -1.7731  0.1030
 8386TIP3   OH225121   0.431   0.333   4.354 -0.6057 -0.4666  0.1495
 8386TIP3    H125122   0.409   0.322   4.261 -0.3378  1.9742 -0.2836
 8386TIP3    H225123   0.483   0.256   4.375  0.4582 -0.4797 -2.1327
 8387TIP3   OH225124   4.563   3.163   3.798  0.2396  0.2650  0.2870
 8387TIP3    H125125   4.574   3.240   3.854  0.7528  0.0699  0.4607
 8387TIP3    H225126   4.492   3.187   3.739 -0.4003  0.4252  1.1072
 8388TIP3   OH225127   4.428   2.735   1.800 -0.0923  0.4278 -0.1904
 8388TIP3    H125128   4.342   2.743   1.759 -0.5257 -0.1121  0.5914
 8388TIP3    H225129   4.486   2.787   1.744 -1.3093  2.5389  0.3997
 8389TIP3   OH225130   1.671   0.458   2.803 -0.1533  0.2116  0.0058
 8389TIP3    H125131   1.678   0.536   2.747 -0.0499  0.2029  0.0055
 8389TIP3    H225132   1.716   0.389   2.753 -2.4396 -0.5289 -1.1922
 8390TIP3   OH225133   2.507   4.781   5.400 -0.1886  0.0325 -0.6532
 8390TIP3    H125134   2.503   4.876   5.387 -0.4114  0.6229  2.6913
 8390TIP3    H225135   2.588   4.768   5.450 -1.1955 -1.1981  0.7592
 8391TIP3   OH225136   4.918   1.511   1.617 -0.2222 -0.0665  0.3740
 8391TIP3    H125137   4.922   1.595   1.663  0.2102  0.9260 -1.3664
 8391TIP3    H225138   4.845   1.465   1.657  0.4178  0.5271  2.3354
 8392TIP3   OH225139   3.268   3.524   4.292 -0.6439 -0.1258 -0.4343
 8392TIP3    H125140   3.228   3.611   4.300 -1.1839 -0.4287  0.2115
 8392TIP3    H225141   3.224   3.471   4.358  2.7608  0.2165  2.4066
 8393TIP3   OH225142   2.801   3.374   1.658  0.5467 -0.5735  0.4592
 8393TIP3    H125143   2.747   3.415   1.590 -1.1365 -2.5068  0.5386
 8393TIP3    H225144   2.852   3.446   1.694 -2.0801  1.4365  0.4778
 8394TIP3   OH225145   6.445   3.042   5.430 -0.4357  0.4878  0.2905
 8394TIP3    H125146   6.532   3.053   5.469  0.3960 -0.4859 -1.1734
 8394TIP3    H225147   6.428   3.124   5.385  0.1533  0.3657 -0.1743
 8395TIP3   OH225148   5.340   0.761   0.755 -0.1250 -0.2185 -0.4094
 8395TIP3    H125149   5.331   0.674   0.714 -1.4900 -1.1245  1.6599
 8395TIP3    H225150   5.252   0.783   0.786  0.4882  1.2250  0.4250
 8396TIP3   OH225151   6.956   4.788   2.837 -0.1288  0.2949 -0.0892
 8396TIP3    H125152   6.951   4.769   2.930  1.9156  0.2356  0.0641
 8396TIP3    H225153   6.920   4.710   2.795  0.0493 -0.1937  0.6433
 8397TIP3   OH225154   5.199   5.810   5.230 -0.5002  0.1606 -0.0139
 8397TIP3    H125155   5.239   5.777   5.150 -0.1571  2.3257 -0.7975
 8397TIP3    H225156   5.254   5.776   5.301 -0.8661 -1.8535 -0.6502
 8398TIP3   OH225157   1.764   1.505   3.546 -0.0454 -0.0556 -0.3676
 8398TIP3    H125158   1.710   1.572   3.507 -1.1812 -1.0922 -0.6297
 8398TIP3    H225159   1.841   1.499   3.489  0.5946  1.7193  0.2474
 8399TIP3   OH225160   0.217   2.103   1.107 -0.5394 -0.3640 -0.0295
 8399TIP3    H125161   0.283   2.071   1.045  0.4952 -0.9423  1.3337
 8399TIP3    H225162   0.143   2.127   1.051  0.9756  0.8111 -1.6871
 8400TIP3   OH225163   6.733   1.949   0.947  0.2944  0.3349  0.4221
 8400TIP3    H125164   6.800   1.881   0.945 -0.1299 -0.0867 -1.4551
 8400TIP3    H225165   6.782   2.029   0.966  1.4141  0.0623 -1.0272
 8401TIP3   OH225166   2.715   0.353   3.509 -0.3204  0.9658 -0.4339
 8401TIP3    H125167   2.680   0.441   3.519  1.7800  1.9312 -1.0559
 8401TIP3    H225168   2.695   0.309   3.592 -1.0203  2.1427  0.0417
 8402TIP3   OH225169   5.135   5.637   4.593  0.1589  0.5035 -0.2759
 8402TIP3    H125170   5.217   5.591   4.613  0.4513  0.8118 -0.7451
 8402TIP3    H225171   5.067   5.571   4.608  0.5853 -0.1533 -1.1366
 8403TIP3   OH225172   5.523   5.742   4.792  0.3901 -0.1777  0.0490
 8403TIP3    H125173   5.466   5.697   4.731 -1.0776 -0.2925  1.4386
 8403TIP3    H225174   5.507   5.835   4.775  1.0059 -0.1860 -0.6322
 8404TIP3   OH225175   1.123   4.754   3.436 -1.2734 -0.2027  0.2263
 8404TIP3    H125176   1.219   4.757   3.443 -1.2266  0.6275 -0.6394
 8404TIP3    H225177   1.107   4.720   3.348 -1.7437  1.5286 -0.3902
 8405TIP3   OH225178   3.942   2.908   2.440 -0.3362  0.5528  0.2428
 8405TIP3    H125179   3.905   2.854   2.370 -1.7829  0.0236  1.3597
 8405TIP3    H225180   3.926   2.998   2.411 -0.0699  0.3653 -0.5197
 8406TIP3   OH225181   5.077   3.465   5.389  0.0171 -0.1960 -0.2550
 8406TIP3    H125182   5.041   3.436   5.305 -0.2398  0.8955 -0.5378
 8406TIP3    H225183   5.001   3.472   5.446  0.0572  0.0454 -0.2301
 8407TIP3   OH225184   4.615   2.464   1.132 -0.0301 -0.1672  0.2874
 8407TIP3    H125185   4.671   2.387   1.126  1.1135  0.6172  0.4811
 8407TIP3    H225186   4.533   2.438   1.090  0.2672 -1.5307  0.5072
 8408TIP3   OH225187   6.304   2.151   3.735  0.1370 -0.3465 -0.3100
 8408TIP3    H125188   6.285   2.077   3.677 -3.4305 -1.0014  1.4430
 8408TIP3    H225189   6.327   2.110   3.819 -2.0538  0.4157  0.7367
 8409TIP3   OH225190   5.354   4.074   5.213  0.1944 -0.3036 -0.0156
 8409TIP3    H125191   5.352   4.024   5.131 -2.2992 -0.2382 -0.0819
 8409TIP3    H225192   5.379   4.010   5.280  1.2138 -0.5967 -0.6552
 8410TIP3   OH225193   4.085   3.452   1.335 -0.1343 -0.2116  0.3164
 8410TIP3    H125194   4.056   3.367   1.369 -1.2373 -1.4304 -3.2634
 8410TIP3    H225195   4.006   3.494   1.302  0.2796  2.6399  2.4806
 8411TIP3   OH225196   4.490   2.807   1.406 -0.2290  0.2533  0.1545
 8411TIP3    H125197   4.467   2.718   1.433 -0.2073 -0.7315 -2.7481
 8411TIP3    H225198   4.495   2.856   1.488  0.8900 -2.6416  1.9810
 8412TIP3   OH225199   2.873   1.923   5.517  0.1646  0.2088 -0.5660
 8412TIP3    H125200   2.794   1.900   5.567  0.6072  2.5897  1.4263
 8412TIP3    H225201   2.933   1.850   5.534 -0.6468 -0.3019  0.2297
 8413TIP3   OH225202   5.489   0.335   2.724 -0.3576 -0.4727  0.0345
 8413TIP3    H125203   5.559   0.274   2.699  0.5505 -0.5478  2.5266
 8413TIP3    H225204   5.524   0.382   2.799 -2.3787  0.7071  0.3103
 8414TIP3   OH225205   4.990   6.495   3.508 -0.1733  0.5358 -0.0888
 8414TIP3    H125206   4.986   6.415   3.561  0.4604  0.9231  0.5678
 8414TIP3    H225207   4.981   6.464   3.418 -1.5570 -0.1089  0.2445
 8415TIP3   OH225208   4.200   1.269   4.725  0.1641 -0.4855 -0.6882
 8415TIP3    H125209   4.143   1.346   4.720  1.6229  0.7588  0.6837
 8415TIP3    H225210   4.184   1.222   4.644 -0.6168  1.4156 -1.6965
 8416TIP3   OH225211   3.181   5.314   0.869  0.4136 -0.3281  0.1608
 8416TIP3    H125212   3.105   5.371   0.878 -0.1334 -1.1879  1.1743
 8416TIP3    H225213   3.145   5.225   0.872  1.2322 -0.7545 -1.4916
 8417TIP3   OH225214   0.981   3.168   5.809 -0.5286  0.3535 -0.0302
 8417TIP3    H125215   1.004   3.089   5.760 -1.2200  0.2352 -0.1758
 8417TIP3    H225216   0.913   3.210   5.756  0.0860  1.2385 -0.1376
 8418TIP3   OH225217   2.270   4.977   3.795  0.3738 -0.3735 -0.4284
 8418TIP3    H125218   2.355   4.933   3.800  1.3545  1.4929  0.1789
 8418TIP3    H225219   2.233   4.966   3.882 -0.5105 -2.0437 -0.9690
 8419TIP3   OH225220   0.732   0.341   4.780  0.2391 -0.3521 -0.2476
 8419TIP3    H125221   0.825   0.361   4.775  0.3174 -0.7321 -0.3792
 8419TIP3    H225222   0.695   0.377   4.700  0.3184 -0.4421 -0.3238
 8420TIP3   OH225223   6.018   0.015   1.020  0.0738 -0.2923 -0.1683
 8420TIP3    H125224   6.058  -0.034   1.092 -0.4519 -0.1275  0.2325
 8420TIP3    H225225   6.089   0.070   0.986  0.6432 -1.2270 -0.5423
 8421TIP3   OH225226   4.571   1.140   5.450 -0.2550 -0.2863 -0.3213
 8421TIP3    H125227   4.528   1.146   5.535  0.4153 -1.7224  0.1474
 8421TIP3    H225228   4.500   1.120   5.389 -0.6501  0.1470 -0.0139
 8422TIP3   OH225229   0.562   3.741   2.558  0.1877 -0.8187 -0.7069
 8422TIP3    H125230   0.511   3.698   2.626  0.1922 -1.0287 -0.8364
 8422TIP3    H225231   0.510   3.731   2.479 -0.7614  1.1117 -0.3883
 8423TIP3   OH225232   5.903   2.355   5.384  0.2713 -0.0701 -0.1434
 8423TIP3    H125233   5.834   2.421   5.392 -0.2251 -0.5067 -0.7967
 8423TIP3    H225234   5.860   2.278   5.348  1.1493 -0.2563 -0.8556
 8424TIP3   OH225235   3.174   1.306   0.527  0.2780  0.2992  0.3089
 8424TIP3    H125236   3.205   1.389   0.489  3.6299 -0.0560  1.9261
 8424TIP3    H225237   3.178   1.320   0.622  0.0161 -1.4377  0.6012
 8425TIP3   OH225238   4.228   4.366   5.003 -0.0095  0.2117  0.3177
 8425TIP3    H125239   4.156   4.337   4.946  0.6440 -0.5146 -0.1647
 8425TIP3    H225240   4.197   4.449   5.040 -0.4458  0.7343 -1.1395
 8426TIP3   OH225241   3.878   3.015   2.039 -0.2140 -0.3054 -0.0537
 8426TIP3    H125242   3.819   3.030   1.964  1.1651 -0.5997 -1.2411
 8426TIP3    H225243   3.964   3.004   1.999  0.3325 -1.9633  1.4747
 8427TIP3   OH225244   5.974   5.769   1.526  0.7604 -0.1900 -0.0150
 8427TIP3    H125245   5.945   5.855   1.494  2.0367  0.6611  0.9970
 8427TIP3    H225246   6.070   5.771   1.517  0.8227 -1.4767  0.1288
 8428TIP3   OH225247   3.072   1.850   4.502 -0.1350 -0.1342 -0.4461
 8428TIP3    H125248   3.013   1.780   4.474 -0.5628  0.2358 -0.4875
 8428TIP3    H225249   3.016   1.911   4.550  0.2612  0.1065 -0.2799
 8429TIP3   OH225250   3.740   1.663   1.327 -0.0614 -0.4596 -0.4114
 8429TIP3    H125251   3.739   1.568   1.313  0.2918 -0.1776 -2.6480
 8429TIP3    H225252   3.663   1.694   1.280 -0.5105  0.3327  0.8119
 8430TIP3   OH225253   3.464   5.922   1.723 -0.2377  0.6013  0.5061
 8430TIP3    H125254   3.457   5.924   1.818  0.6142  0.5469  0.5747
 8430TIP3    H225255   3.558   5.911   1.705 -0.5232 -0.8256 -0.3106
 8431TIP3   OH225256   2.190   5.849   2.939 -0.0797 -0.2415  0.0802
 8431TIP3    H125257   2.170   5.782   3.005 -0.4239 -0.8827 -0.6539
 8431TIP3    H225258   2.143   5.927   2.969 -1.5376 -0.9751 -0.2119
 8432TIP3   OH225259   6.531   5.197   0.737 -0.1909  0.4249 -0.1115
 8432TIP3    H125260   6.436   5.194   0.722 -0.2565  1.0373  0.1659
 8432TIP3    H225261   6.549   5.287   0.764  0.4004  0.1852  0.3310
 8433TIP3   OH225262   3.016   4.946   3.509 -0.1900  0.2095  0.0693
 8433TIP3    H125263   3.032   4.900   3.591 -0.8999  0.4782  0.3765
 8433TIP3    H225264   3.096   4.937   3.459 -0.0920 -0.7931  0.3953
 8434TIP3   OH225265   5.067   2.387   2.237  0.1948 -0.3373  0.1283
 8434TIP3    H125266   5.150   2.384   2.285  1.7877  1.2785 -2.2717
 8434TIP3    H225267   5.000   2.400   2.304  2.5022  4.7529  1.9382
 8435TIP3   OH225268   2.973   1.452   4.769 -0.0875 -0.1764  0.0051
 8435TIP3    H125269   2.982   1.394   4.693 -0.9755 -2.0784  1.2707
 8435TIP3    H225270   2.882   1.443   4.796  0.1563  0.6140  1.1869
 8436TIP3   OH225271   0.636   6.117   1.360 -0.6598  0.1392  0.4718
 8436TIP3    H125272   0.644   6.034   1.407  0.0192 -0.2835 -0.3542
 8436TIP3    H225273   0.563   6.104   1.299  0.4015 -0.4163 -0.7282
 8437TIP3   OH225274   1.370   2.444   5.815  0.5324  0.3491  0.4658
 8437TIP3    H125275   1.299   2.480   5.762 -0.3309 -2.5239 -0.5262
 8437TIP3    H225276   1.352   2.475   5.904 -0.9633  1.1336 -0.0770
 8438TIP3   OH225277   2.882   4.781   2.967 -0.7025  0.1266 -0.2487
 8438TIP3    H125278   2.918   4.816   3.048 -0.4164 -0.0870 -0.2800
 8438TIP3    H225279   2.958   4.771   2.909 -0.8833  0.1398 -0.4896
 8439TIP3   OH225280   6.882   2.587   3.630  0.1805  0.2353  0.2941
 8439TIP3    H125281   6.839   2.661   3.587  0.9866 -0.1438 -1.2335
 8439TIP3    H225282   6.933   2.627   3.701 -1.5903  0.8186  1.3171
 8440TIP3   OH225283   6.582   4.594   4.527  0.2881  0.4810 -0.5983
 8440TIP3    H125284   6.570   4.514   4.579 -0.9688 -0.0080 -1.5752
 8440TIP3    H225285   6.676   4.604   4.520  0.5084  0.3094  1.3553
 8441TIP3   OH225286   7.033   1.394   3.839  0.4422  0.1471  0.3224
 8441TIP3    H125287   7.113   1.362   3.882 -0.2945 -1.4372  0.5851
 8441TIP3    H225288   7.062   1.421   3.752  1.1905 -0.9147  0.2210
 8442TIP3   OH225289   4.094   3.017   4.165 -0.0648 -0.2055  0.4074
 8442TIP3    H125290   4.009   2.996   4.202  0.4119 -1.3445  0.9191
 8442TIP3    H225291   4.153   3.021   4.240  0.7715 -1.8078 -0.1149
 8443TIP3   OH225292   1.353   3.694   3.209 -0.5256  0.3078  0.6838
 8443TIP3    H125293   1.413   3.639   3.157 -0.1128  1.2599  0.1178
 8443TIP3    H225294   1.269   3.650   3.203 -0.6591  0.7394 -1.4245
 8444TIP3   OH225295   3.488   4.246   2.761  0.3074  0.3889 -0.0893
 8444TIP3    H125296   3.493   4.318   2.698 -2.8628  0.6548 -0.1988
 8444TIP3    H225297   3.528   4.172   2.717  2.7612  1.7489 -0.3575
 8445TIP3   OH225298   2.393   4.709   4.084 -0.3749 -0.2067  0.8555
 8445TIP3    H125299   2.428   4.696   3.996 -0.2272  0.1242  0.8662
 8445TIP3    H225300   2.391   4.621   4.122 -0.3575 -0.3394  0.5546
 8446TIP3   OH225301   3.191   6.285   5.790 -0.0192 -0.0060 -0.3100
 8446TIP3    H125302   3.206   6.358   5.851 -0.0582 -1.1637  1.1595
 8446TIP3    H225303   3.143   6.324   5.717  0.8837  1.6416 -0.0760
 8447TIP3   OH225304   2.950   2.285   1.545  0.1686 -0.0353  0.5334
 8447TIP3    H125305   2.978   2.312   1.458 -1.2522  0.1937  0.1277
 8447TIP3    H225306   2.934   2.367   1.592 -1.4520 -0.1203  0.1924
 8448TIP3   OH225307   1.001   0.995   4.540 -0.3134  0.7323 -0.1422
 8448TIP3    H125308   1.059   0.999   4.616 -0.1252 -0.6528 -0.1977
 8448TIP3    H225309   0.916   1.022   4.574 -0.5217 -1.0543  0.8834
 8449TIP3   OH225310   4.205   0.654   0.954  0.1616 -0.5236 -0.0138
 8449TIP3    H125311   4.292   0.686   0.978 -0.6339  2.2705 -0.4933
 8449TIP3    H225312   4.150   0.674   1.029 -0.2954 -1.2434 -0.1479
 8450TIP3   OH225313   6.501   5.951   5.316 -0.1426 -0.1451  0.5510
 8450TIP3    H125314   6.529   5.878   5.259  0.8302 -0.3319  1.2440
 8450TIP3    H225315   6.560   6.023   5.293 -2.0999  0.9920 -1.2574
 8451TIP3   OH225316   4.032   4.657   2.725 -0.5522  0.2808  0.4287
 8451TIP3    H125317   3.937   4.650   2.715 -0.5982 -0.1443  1.0944
 8451TIP3    H225318   4.047   4.747   2.752 -0.6170  0.8096 -1.2017
 8452TIP3   OH225319   5.218   4.891   5.627 -0.2939  0.0533  0.3068
 8452TIP3    H125320   5.298   4.933   5.595 -0.0796  0.0904  0.8782
 8452TIP3    H225321   5.246   4.804   5.655 -0.5413 -0.0972  0.0928
 8453TIP3   OH225322   0.818   6.752   5.500  0.2289  0.4189 -0.1263
 8453TIP3    H125323   0.723   6.740   5.494  0.1246  1.7033 -1.8364
 8453TIP3    H225324   0.830   6.827   5.558  0.2076  0.2083  0.1516
 8454TIP3   OH225325   2.109   0.509   5.020  0.7112  0.1130 -0.4190
 8454TIP3    H125326   2.098   0.439   4.955 -0.1052  0.7774 -1.0007
 8454TIP3    H225327   2.203   0.509   5.038  0.9516 -0.0951 -1.5885
 8455TIP3   OH225328   3.272   1.634   4.411 -0.3970  0.1301 -0.1241
 8455TIP3    H125329   3.272   1.697   4.339  0.7866  2.3987  1.6963
 8455TIP3    H225330   3.235   1.682   4.485  0.2899 -1.4239  1.2965
 8456TIP3   OH225331   2.536   5.745   4.533  0.2495  0.0695 -0.1813
 8456TIP3    H125332   2.442   5.728   4.530  0.2259  0.2523 -0.6036
 8456TIP3    H225333   2.544   5.836   4.506  0.4548  0.4259  1.0295
 8457TIP3   OH225334   6.694   1.655   4.890  0.2115  0.0086  0.8540
 8457TIP3    H125335   6.631   1.727   4.890 -2.1298 -1.8939  0.2024
 8457TIP3    H225336   6.712   1.639   4.797 -0.4698 -1.1173  0.8868
 8458TIP3   OH225337   0.029   3.599   3.762  0.1111  0.5344 -0.3780
 8458TIP3    H125338   0.061   3.581   3.850 -3.1006  2.5284  1.3894
 8458TIP3    H225339   0.027   3.695   3.756  1.0138  0.4814 -2.9990
 8459TIP3   OH225340   0.851   1.623   2.689  0.2006  0.0695  0.4029
 8459TIP3    H125341   0.784   1.684   2.718 -1.1905 -1.1446 -0.1011
 8459TIP3    H225342   0.811   1.536   2.701  2.7888 -0.9290  2.9021
 8460TIP3   OH225343   2.599   0.055   4.496  0.2249 -0.1589  0.2712
 8460TIP3    H125344   2.684   0.095   4.514 -0.4573  1.1478  0.6745
 8460TIP3    H225345   2.538   0.128   4.491 -1.2473 -1.1640  2.0197
 8461TIP3   OH225346   3.762   4.038   1.031  0.1210  0.9078  0.1024
 8461TIP3    H125347   3.813   4.049   0.951 -1.4535 -0.3956 -1.1508
 8461TIP3    H225348   3.789   3.953   1.065 -0.2960  0.7774  0.1152
 8462TIP3   OH225349   0.981   0.907   1.276  0.4154  0.1823 -0.2694
 8462TIP3    H125350   1.000   0.827   1.225 -2.4639 -0.6142 -0.2553
 8462TIP3    H225351   0.933   0.875   1.353  1.2042  1.7617  0.9290
 8463TIP3   OH225352   5.750   1.532   2.990 -0.1112  0.3608  0.1780
 8463TIP3    H125353   5.691   1.461   3.016 -0.3889  0.6729  0.4171
 8463TIP3    H225354   5.821   1.489   2.942 -0.4034 -0.0481  0.1098
 8464TIP3   OH225355   1.910   1.056   3.446  0.3884  0.1300  0.2079
 8464TIP3    H125356   1.932   1.018   3.361  1.0833  0.9187  0.0266
 8464TIP3    H225357   1.962   1.136   3.452 -0.7390  0.8626  0.7516
 8465TIP3   OH225358   3.728   4.045   2.112 -0.1164  0.2448 -0.2693
 8465TIP3    H125359   3.651   3.995   2.087 -1.0886  0.5781  1.8558
 8465TIP3    H225360   3.802   3.993   2.081 -1.1542 -0.5597 -1.4779
 8466TIP3   OH225361   7.092   3.998   4.002 -0.0512  0.6428 -0.6279
 8466TIP3    H125362   7.060   4.086   3.984 -1.6611  0.0964 -0.5406
 8466TIP3    H225363   7.113   3.999   4.096  1.7675  1.4597 -1.0007
 8467TIP3   OH225364   0.040   3.982   2.873  0.3027  0.3634 -0.1456
 8467TIP3    H125365   0.032   4.076   2.892 -0.6272  0.1789  0.4028
 8467TIP3    H225366   0.020   3.939   2.956 -4.2066 -0.4841 -1.4544
 8468TIP3   OH225367   3.659   4.518   1.134  0.6075  0.6245 -0.0518
 8468TIP3    H125368   3.688   4.430   1.112  0.4644  0.2685  1.1365
 8468TIP3    H225369   3.565   4.509   1.153  0.6952  0.9260  0.5623
 8469TIP3   OH225370   5.837   0.615   4.264  0.9586  0.6197 -0.3958
 8469TIP3    H125371   5.901   0.550   4.236 -0.4955 -0.0699 -2.3143
 8469TIP3    H225372   5.773   0.565   4.315  1.5703  1.2006  1.0070
 8470TIP3   OH225373   3.527   4.401   2.526 -0.0205 -0.1736  0.1167
 8470TIP3    H125374   3.596   4.349   2.485 -1.1805 -1.8834  0.2084
 8470TIP3    H225375   3.487   4.449   2.454 -0.4311 -1.2293 -0.3793
 8471TIP3   OH225376   0.107   0.724   4.658 -0.6137 -0.3519  0.3393
 8471TIP3    H125377   0.142   0.783   4.725  0.9471  0.8319 -1.3944
 8471TIP3    H225378   0.132   0.637   4.687 -0.0233  0.1286  1.3368
 8472TIP3   OH225379   2.298   2.786   2.473  0.2593 -0.4717  0.7330
 8472TIP3    H125380   2.312   2.824   2.560 -1.5176  2.1535 -0.0028
 8472TIP3    H225381   2.345   2.845   2.414 -1.5125 -0.1165 -0.3657
 8473TIP3   OH225382   6.780   2.470   5.288 -0.3674 -0.8682  0.4177
 8473TIP3    H125383   6.711   2.534   5.273  1.1365  0.6687 -0.3081
 8473TIP3    H225384   6.823   2.499   5.368  0.9344 -0.3136 -0.4263
 8474TIP3   OH225385   2.202   4.567   0.599 -0.1540  0.2938  0.1025
 8474TIP3    H125386   2.148   4.623   0.543  0.6591  1.2760  0.2590
 8474TIP3    H225387   2.261   4.522   0.538 -0.3627  0.1185  0.0304
 8475TIP3   OH225388   4.102   0.910   3.586  0.0842 -0.1042  0.7529
 8475TIP3    H125389   4.095   0.924   3.491  2.9204 -1.0996  0.2988
 8475TIP3    H225390   4.172   0.970   3.614 -0.2596 -0.3057  2.1050
 8476TIP3   OH225391   1.907   6.721   5.522 -0.0689 -0.5301  0.0455
 8476TIP3    H125392   1.876   6.636   5.553  0.3516 -0.9352 -0.6495
 8476TIP3    H225393   1.843   6.747   5.455  0.6390 -1.0086 -0.8323
 8477TIP3   OH225394   0.075   1.930   2.488 -0.7680  0.7673 -0.1698
 8477TIP3    H125395  -0.018   1.950   2.477 -0.3210  2.7287 -0.7497
 8477TIP3    H225396   0.117   2.016   2.493  0.7655 -0.0243  2.5173
 8478TIP3   OH225397   4.370   6.077   1.099 -0.0487 -0.3232  0.1544
 8478TIP3    H125398   4.419   5.997   1.114 -1.4186 -0.9239  1.8109
 8478TIP3    H225399   4.393   6.104   1.010  0.9348 -2.1835 -0.1892
 8479TIP3   OH225400   5.783   1.618   1.885  0.1597 -0.1939  0.0510
 8479TIP3    H125401   5.765   1.647   1.974  2.8701 -0.1575  0.6795
 8479TIP3    H225402   5.828   1.693   1.844  1.1581 -1.0821 -0.5160
 8480TIP3   OH225403   2.908   2.231   0.350  0.0411  0.0075  0.5025
 8480TIP3    H125404   2.917   2.320   0.314  1.5114  0.2142  1.2905
 8480TIP3    H225405   2.998   2.201   0.361 -0.4317 -2.1675 -1.0497
 8481TIP3   OH225406   2.006   5.451   4.631  0.5699 -0.1114 -0.2575
 8481TIP3    H125407   1.936   5.513   4.653 -0.3230 -0.6451 -1.5208
 8481TIP3    H225408   1.961   5.373   4.599  1.7270  0.2564 -3.0685
 8482TIP3   OH225409   6.121   6.609   1.576  0.4046 -0.1112 -0.1410
 8482TIP3    H125410   6.160   6.574   1.657  0.5366  3.9161  1.7718
 8482TIP3    H225411   6.191   6.662   1.537 -0.9761  1.5427 -0.4752
 8483TIP3   OH225412   6.481   0.591   2.744  0.4394 -0.5339  0.8642
 8483TIP3    H125413   6.471   0.577   2.650 -0.9897 -0.2684  0.9496
 8483TIP3    H225414   6.542   0.664   2.751  0.5396 -0.5396  0.1514
 8484TIP3   OH225415   5.788   1.170   1.001 -0.2451 -0.2490 -0.1660
 8484TIP3    H125416   5.720   1.168   0.933  0.3694 -1.1930 -0.7760
 8484TIP3    H225417   5.803   1.078   1.021 -0.6351  0.0235  1.4924
 8485TIP3   OH225418   0.280   3.475   1.187 -0.9366  1.0377  0.8048
 8485TIP3    H125419   0.289   3.382   1.210 -1.9402  0.6855 -0.1842
 8485TIP3    H225420   0.186   3.488   1.175 -0.6789  1.8178 -0.5262
 8486TIP3   OH225421   5.552   4.095   4.397  0.4106  0.2435  0.0664
 8486TIP3    H125422   5.562   4.019   4.455 -0.9794 -0.3127 -0.3818
 8486TIP3    H225423   5.545   4.169   4.457  1.0729 -0.0624  0.5369
 8487TIP3   OH225424   3.158   3.523   3.548  0.1360 -0.3344  0.9993
 8487TIP3    H125425   3.132   3.448   3.601 -0.7350  0.0193  1.0950
 8487TIP3    H225426   3.203   3.485   3.472  1.2669 -0.8463  1.9121
 8488TIP3   OH225427   2.586   2.087   4.604  0.4744  0.4445 -0.0753
 8488TIP3    H125428   2.523   2.159   4.598  0.2181  0.3302  1.0381
 8488TIP3    H225429   2.538   2.010   4.573 -0.4210  0.0899  2.0141
 8489TIP3   OH225430   1.824   3.656   0.470 -0.1955  0.0988  0.4687
 8489TIP3    H125431   1.785   3.741   0.488 -0.1799  0.7492 -2.1926
 8489TIP3    H225432   1.750   3.597   0.457 -0.2057 -0.2161  1.8135
 8490TIP3   OH225433   6.910   4.999   0.272 -0.0088  0.6168  0.0440
 8490TIP3    H125434   6.928   4.979   0.364 -0.4937  0.1845  0.0470
 8490TIP3    H225435   6.969   4.943   0.222  0.0517  0.6426  0.0873
 8491TIP3   OH225436   5.156   5.065   5.078  0.9246  0.9049 -0.3666
 8491TIP3    H125437   5.249   5.051   5.092  0.6027 -0.3565  0.6815
 8491TIP3    H225438   5.120   5.083   5.165 -0.1252 -0.7258 -0.4205
 8492TIP3   OH225439   0.444   4.120   4.760  0.1585  0.0712  0.3680
 8492TIP3    H125440   0.450   4.059   4.833 -0.5266 -0.0118  0.3675
 8492TIP3    H225441   0.401   4.070   4.691  0.1999  0.3516  0.1353
 8493TIP3   OH225442   5.039   2.970   1.556  0.5603 -0.2632  0.2851
 8493TIP3    H125443   5.103   3.036   1.531  1.9262 -1.9120 -0.8175
 8493TIP3    H225444   5.065   2.944   1.645 -0.0960  0.7650  0.7975
 8494TIP3   OH225445   2.164   2.305   2.361  0.3398  0.1045 -0.6325
 8494TIP3    H125446   2.185   2.261   2.278 -0.2891 -0.6967 -0.3833
 8494TIP3    H225447   2.232   2.371   2.371  0.4754  0.1549 -1.7486
 8495TIP3   OH225448   1.573   1.483   3.048  0.1651 -0.0121 -0.3967
 8495TIP3    H125449   1.498   1.428   3.030  1.5353 -1.3032 -2.5624
 8495TIP3    H225450   1.564   1.557   2.987  1.3438 -0.9406 -1.7701
 8496TIP3   OH225451   2.670   1.640   4.346  0.0948  0.7230  0.6222
 8496TIP3    H125452   2.670   1.574   4.276  0.0257  0.0657  1.2336
 8496TIP3    H225453   2.614   1.709   4.313  0.7431  0.8223 -0.3467
 8497TIP3   OH225454   5.244   0.458   2.616  0.4121  0.7270  0.4010
 8497TIP3    H125455   5.171   0.408   2.652  0.2133  1.0401  0.4342
 8497TIP3    H225456   5.320   0.430   2.667  0.3382  0.3219  0.2944
 8498TIP3   OH225457   3.328   4.577   2.090 -0.2893  0.3814 -0.1768
 8498TIP3    H125458   3.383   4.565   2.012  1.2631  1.8476  0.6277
 8498TIP3    H225459   3.274   4.498   2.094  1.3995 -0.8988 -1.3102
 8499TIP3   OH225460   4.011   3.509   3.183 -0.0436  0.1298 -0.1542
 8499TIP3    H125461   3.943   3.552   3.235 -0.8630 -0.1201 -0.9870
 8499TIP3    H225462   4.088   3.507   3.240 -0.2329  1.9217  0.2269
 8500TIP3   OH225463   6.409   1.580   2.716  0.2162  0.3284  0.4283
 8500TIP3    H125464   6.316   1.573   2.737  0.3000 -0.2859  0.6020
 8500TIP3    H225465   6.452   1.521   2.777  1.0037  2.5525  2.1538
 8501TIP3   OH225466   4.346   4.876   1.050  0.3012 -0.6447  0.2957
 8501TIP3    H125467   4.410   4.818   1.010 -0.6293 -1.3856 -0.1729
 8501TIP3    H225468   4.358   4.960   1.005  0.7523 -0.8550  0.0197
 8502TIP3   OH225469   3.343   3.689   5.614  0.0523  0.4524 -0.1757
 8502TIP3    H125470   3.410   3.655   5.555 -0.0325  0.9118 -0.5478
 8502TIP3    H225471   3.285   3.614   5.629 -0.8289  0.7031 -1.9696
 8503TIP3   OH225472   2.975   1.244   4.570 -0.2177  0.5505 -0.1925
 8503TIP3    H125473   2.917   1.228   4.495  0.0077 -0.8226 -0.1172
 8503TIP3    H225474   3.052   1.286   4.532 -0.8544  1.5105 -0.4404
 8504TIP3   OH225475   2.076   0.050   4.125 -0.4842  0.9067 -0.0729
 8504TIP3    H125476   2.055   0.137   4.090  0.6964  0.9904 -0.6023
 8504TIP3    H225477   2.101  -0.002   4.049  1.8091  0.9950  0.5470
 8505TIP3   OH225478   6.556   0.928   1.970 -0.0905  0.1024  0.2435
 8505TIP3    H125479   6.514   0.973   1.896 -0.7633 -0.9522 -0.0375
 8505TIP3    H225480   6.645   0.962   1.970 -0.1479  0.3201 -0.9038
 8506TIP3   OH225481   2.239   1.415   5.358  0.7788 -0.4490 -0.1532
 8506TIP3    H125482   2.264   1.395   5.268  1.8669 -2.3223  0.5039
 8506TIP3    H225483   2.203   1.333   5.392 -0.1671  0.3873  0.9552
 8507TIP3   OH225484   3.206   1.364   5.351 -0.1522  0.0514  0.3084
 8507TIP3    H125485   3.297   1.366   5.321 -0.8097  0.0956 -1.8503
 8507TIP3    H225486   3.211   1.384   5.444  1.9457  1.4416 -0.0249
 8508TIP3   OH225487   1.192   3.584   1.745 -0.4495 -0.2869 -0.0728
 8508TIP3    H125488   1.194   3.666   1.697 -1.1755 -0.0961  0.2017
 8508TIP3    H225489   1.187   3.610   1.837 -1.0627 -0.6269 -0.0020
 8509TIP3   OH225490   1.412   2.032   0.410  0.1399  0.1333  0.5746
 8509TIP3    H125491   1.434   1.964   0.473 -1.0596  0.9876  1.9605
 8509TIP3    H225492   1.350   2.089   0.455  0.2784  1.5564 -0.9058
 8510TIP3   OH225493   7.199   3.701   5.698  0.2005 -0.0982 -0.6290
 8510TIP3    H125494   7.198   3.733   5.608  0.5062 -0.9122 -0.9341
 8510TIP3    H225495   7.210   3.779   5.752  3.9927  0.1494 -1.4522
 8511TIP3   OH225496   0.338   1.964   2.245 -0.5956 -0.4084  0.3896
 8511TIP3    H125497   0.341   1.878   2.202  0.1238 -1.3526  2.1932
 8511TIP3    H225498   0.415   2.010   2.210  0.1206 -1.2469  0.8051
 8512TIP3   OH225499   4.716   2.595   2.312 -0.3595 -0.5066  0.4508
 8512TIP3    H125500   4.736   2.678   2.356 -0.9800 -0.5901  0.8955
 8512TIP3    H225501   4.775   2.532   2.353  2.0740  0.1785 -1.7312
 8513TIP3   OH225502   2.997   0.676   5.377 -0.3109 -0.0538  0.1780
 8513TIP3    H125503   3.055   0.670   5.300  2.3780  1.8090  1.9038
 8513TIP3    H225504   2.930   0.739   5.352  2.7871  3.7522  0.4384
 8514TIP3   OH225505   4.836   5.188   1.227 -0.0232  0.2050 -0.2648
 8514TIP3    H125506   4.812   5.235   1.307  0.7703  0.8977 -0.4205
 8514TIP3    H225507   4.854   5.099   1.256  2.2465  0.9025  0.7126
 8515TIP3   OH225508   5.615   1.348   3.127  0.0733 -0.3512 -0.7116
 8515TIP3    H125509   5.667   1.342   3.207 -3.3559  1.6380  1.9392
 8515TIP3    H225510   5.611   1.259   3.094  0.4296 -1.5536  2.2081
 8516TIP3   OH225511   4.025   4.344   1.752 -0.6663  0.7636 -0.4520
 8516TIP3    H125512   4.048   4.406   1.683  0.2637 -0.7521 -1.5835
 8516TIP3    H225513   4.033   4.394   1.833 -2.3347  2.7515 -1.4209
 8517TIP3   OH225514   2.737   0.345   1.038 -0.1940  0.4310  0.2191
 8517TIP3    H125515   2.668   0.321   0.976  0.3444 -1.1424  0.1942
 8517TIP3    H225516   2.784   0.417   0.995 -1.1582  0.8214 -0.2157
 8518TIP3   OH225517   0.629   3.870   0.503  0.5617  0.1992 -0.3728
 8518TIP3    H125518   0.683   3.813   0.558  0.9678  0.3804 -0.5796
 8518TIP3    H225519   0.612   3.819   0.424 -0.5907 -0.3236  0.1905
 8519TIP3   OH225520   0.062   5.620   1.862 -0.2447 -0.2365 -0.5532
 8519TIP3    H125521  -0.015   5.581   1.819 -1.6573 -0.5561  2.0642
 8519TIP3    H225522   0.033   5.707   1.888  1.0427  0.4761 -1.3907
 8520TIP3   OH225523   2.443   3.072   2.903  0.2043 -0.1643  0.2954
 8520TIP3    H125524   2.428   3.142   2.967  2.3067 -0.3140  1.0401
 8520TIP3    H225525   2.398   3.102   2.824 -2.2118  0.1658  1.7034
 8521TIP3   OH225526   4.550   1.056   2.885  0.1849  0.8448 -0.0203
 8521TIP3    H125527   4.474   1.058   2.943  0.9461  0.1214  1.0428
 8521TIP3    H225528   4.516   1.025   2.801 -0.3577 -1.8702  1.0837
 8522TIP3   OH225529   0.978   3.422   0.557 -0.3297 -0.1484  0.0538
 8522TIP3    H125530   0.951   3.469   0.478  2.0120 -0.6028 -1.0961
 8522TIP3    H225531   0.979   3.330   0.532 -1.3978 -0.5042  1.2176
 8523TIP3   OH225532   7.178   6.167   2.837 -0.1545  0.6441  0.1058
 8523TIP3    H125533   7.131   6.087   2.864  0.3521  0.2133 -0.2564
 8523TIP3    H225534   7.258   6.134   2.796  0.2380  1.3600  0.2924
 8524TIP3   OH225535   1.888   2.546   0.725  0.0763 -0.3776  0.4433
 8524TIP3    H125536   1.952   2.476   0.712 -1.8738 -2.5612  1.7009
 8524TIP3    H225537   1.892   2.564   0.819 -0.8960 -0.3028  0.4758
 8525TIP3   OH225538  -0.009   1.920   2.851  0.1191 -0.1908 -0.7412
 8525TIP3    H125539   0.055   1.908   2.781  0.1242  0.5573 -0.8816
 8525TIP3    H225540  -0.037   2.011   2.841 -0.3231 -0.2581 -0.1406
 8526TIP3   OH225541   4.549   2.487   2.738  0.7307 -0.5365  0.0105
 8526TIP3    H125542   4.531   2.476   2.831 -0.8704 -0.4157 -0.2590
 8526TIP3    H225543   4.553   2.398   2.703  0.2307 -0.5630  0.0119
 8527TIP3   OH225544   4.003   5.554   5.409  0.2259  0.1091 -1.0364
 8527TIP3    H125545   4.073   5.495   5.380 -0.2802  0.0242 -2.1428
 8527TIP3    H225546   3.996   5.538   5.503  2.6614  1.1731 -0.6023
 8528TIP3   OH225547   0.982   6.231   3.450 -0.6118 -0.2076 -0.0095
 8528TIP3    H125548   1.059   6.181   3.476 -0.4916 -0.8737 -1.5263
 8528TIP3    H225549   0.921   6.165   3.417 -1.8451  0.3128  1.1817
 8529TIP3   OH225550   2.501   0.670   0.550 -0.1158  0.0018  0.4622
 8529TIP3    H125551   2.542   0.671   0.463  1.4538 -2.0082  1.0891
 8529TIP3    H225552   2.446   0.748   0.552  0.7374  0.7447 -1.8895
 8530TIP3   OH225553   0.040   0.248   1.493 -0.0425  0.0234  0.4833
 8530TIP3    H125554   0.066   0.202   1.573 -1.4217  1.1127  1.6066
 8530TIP3    H225555   0.123   0.269   1.450  0.7762  0.1546  2.0559
 8531TIP3   OH225556   1.708   0.903   0.192  0.0603 -0.5341  0.0843
 8531TIP3    H125557   1.684   0.820   0.151 -0.9881 -0.1181 -0.1748
 8531TIP3    H225558   1.770   0.944   0.132 -0.7197 -0.3712 -0.6204
 8532TIP3   OH225559   3.380   6.194   0.996 -0.2958 -0.3294 -0.0250
 8532TIP3    H125560   3.380   6.185   0.901 -2.6197  1.7121 -0.3138
 8532TIP3    H225561   3.305   6.251   1.015  1.2118  0.8941  2.8856
 8533TIP3   OH225562   2.767   4.657   2.151 -0.1910  0.2986  0.4752
 8533TIP3    H125563   2.809   4.724   2.097  0.0247 -0.3664 -0.2032
 8533TIP3    H225564   2.680   4.646   2.113  0.4886 -1.2726 -0.7728
 8534TIP3   OH225565   5.230   2.482   0.783 -0.3176  0.3711  0.3635
 8534TIP3    H125566   5.277   2.495   0.866 -0.4804 -1.6333  0.8205
 8534TIP3    H225567   5.271   2.405   0.743 -0.6295  0.9630 -1.1584
 8535TIP3   OH225568   0.228   3.844   2.678  0.5670 -0.1243 -0.2182
 8535TIP3    H125569   0.164   3.838   2.749  0.7628 -1.5550 -0.1331
 8535TIP3    H225570   0.176   3.847   2.599  0.3715  0.0338 -0.0835
 8536TIP3   OH225571   0.294   2.793   4.695  0.3775 -0.2418  0.0358
 8536TIP3    H125572   0.201   2.791   4.718  0.4419  1.1726  0.5393
 8536TIP3    H225573   0.306   2.717   4.638 -1.0472 -0.5417  0.0821
 8537TIP3   OH225574   2.648   3.299   3.724 -0.4838  0.4522  0.7681
 8537TIP3    H125575   2.586   3.279   3.794  0.0540  0.2075  1.1808
 8537TIP3    H225576   2.673   3.390   3.739 -1.1211  0.7164  0.2964
 8538TIP3   OH225577   6.652   5.706   4.592  0.3723 -0.2843  0.0369
 8538TIP3    H125578   6.614   5.627   4.553  0.4893  0.3247 -1.3645
 8538TIP3    H225579   6.578   5.750   4.634 -0.4549  0.6360 -2.2369
 8539TIP3   OH225580   2.474   6.360   4.418  0.6166  0.1938  0.3273
 8539TIP3    H125581   2.449   6.452   4.423 -2.8538 -0.5421 -0.5897
 8539TIP3    H225582   2.422   6.325   4.345  3.4954 -2.0686 -0.8466
 8540TIP3   OH225583   4.707   3.398   5.768  0.5048 -0.2152  0.6984
 8540TIP3    H125584   4.710   3.387   5.863  0.6932 -0.7494  0.6323
 8540TIP3    H225585   4.727   3.312   5.733  1.0084  0.1088  0.1657
 8541TIP3   OH225586   4.663   1.863   3.886 -0.5794  0.8350  0.3685
 8541TIP3    H125587   4.668   1.790   3.948 -1.9216  1.6940  1.5749
 8541TIP3    H225588   4.637   1.823   3.803 -0.5027 -0.1517  0.8029
 8542TIP3   OH225589   6.568   5.986   2.670  0.2001  0.0180  0.2555
 8542TIP3    H125590   6.641   6.042   2.698  1.6103 -1.3637 -0.4993
 8542TIP3    H225591   6.508   5.988   2.744  1.2668  0.7779  1.1464
 8543TIP3   OH225592   5.659   0.785   3.520 -0.2610 -0.8496 -0.3663
 8543TIP3    H125593   5.686   0.747   3.603  1.8698  0.2449 -0.5017
 8543TIP3    H225594   5.656   0.710   3.460  2.2156 -1.1050 -0.2459
 8544TIP3   OH225595   4.673   1.640   4.311  0.2979 -0.4942 -0.4658
 8544TIP3    H125596   4.676   1.680   4.398 -0.0246 -0.7701 -0.3250
 8544TIP3    H225597   4.583   1.655   4.281  0.5495  0.0385 -0.9603
 8545TIP3   OH225598   4.835   5.725   4.037 -0.2999  0.0995 -0.2374
 8545TIP3    H125599   4.773   5.729   3.964 -0.3782 -1.0488 -0.2644
 8545TIP3    H225600   4.813   5.800   4.092  0.3481  1.5146 -1.8278
 8546TIP3   OH225601   1.393   6.318   3.613 -0.3432 -0.1381  0.0482
 8546TIP3    H125602   1.354   6.371   3.543  0.6214 -0.6248 -0.8946
 8546TIP3    H225603   1.419   6.381   3.680  0.9129  0.6384 -1.1125
 8547TIP3   OH225604   3.402   2.660   4.219  0.4848  0.8454  0.0636
 8547TIP3    H125605   3.435   2.678   4.131  0.7881 -0.2475 -0.0555
 8547TIP3    H225606   3.327   2.601   4.205  1.9894 -1.3028  0.6358
 8548TIP3   OH225607   0.257   2.955   4.917 -0.5283  0.0517  0.3111
 8548TIP3    H125608   0.239   2.893   4.987 -2.2132 -0.6282 -0.6703
 8548TIP3    H225609   0.293   2.902   4.846  0.7220  0.6660  0.4396
 8549TIP3   OH225610   0.704   0.206   5.062  0.3826 -0.2788 -0.5993
 8549TIP3    H125611   0.799   0.214   5.069  0.2678  0.0167  1.1188
 8549TIP3    H225612   0.690   0.131   5.004  1.6807 -1.1743  0.2059
 8550TIP3   OH225613   5.902   1.639  -0.023  0.4205  0.7050  0.2174
 8550TIP3    H125614   5.808   1.651  -0.041  0.2205 -1.4024 -0.4975
 8550TIP3    H225615   5.905   1.609   0.068  0.2829 -0.1774 -0.0586
 8551TIP3   OH225616   4.610   5.255   1.590 -0.2923 -0.1060 -0.6866
 8551TIP3    H125617   4.576   5.181   1.541  0.2210  0.1313 -1.4160
 8551TIP3    H225618   4.677   5.293   1.534  0.2134  0.2637  0.1359
 8552TIP3   OH225619   3.493   4.997   5.715  0.0337 -0.2131  0.5516
 8552TIP3    H125620   3.563   5.060   5.730 -0.4217  0.1274  1.3364
 8552TIP3    H225621   3.499   4.936   5.789  0.1866 -0.8263  0.0412
 8553TIP3   OH225622   1.187   4.709   3.739  0.6729 -0.3727 -0.8482
 8553TIP3    H125623   1.213   4.694   3.830 -0.1954 -0.6436 -0.6304
 8553TIP3    H225624   1.263   4.752   3.699  1.3132 -0.8417 -0.1717
 8554TIP3   OH225625   5.845   5.854   4.398 -0.5405 -0.4504 -0.1829
 8554TIP3    H125626   5.838   5.791   4.470 -0.7407 -0.4239 -0.1805
 8554TIP3    H225627   5.812   5.936   4.434 -1.3277 -0.6108 -0.5227
 8555TIP3   OH225628   3.957   1.629   0.277  0.1210 -0.5225  0.3293
 8555TIP3    H125629   3.915   1.549   0.245  0.4868 -0.2296 -0.9556
 8555TIP3    H225630   4.049   1.605   0.287 -0.1417 -0.8943  2.2123
 8556TIP3   OH225631   7.018   6.447   1.569 -0.3833  0.1722 -0.1042
 8556TIP3    H125632   7.026   6.387   1.643 -1.2641  1.6128  1.2370
 8556TIP3    H225633   7.108   6.456   1.536 -0.2040 -1.6234 -0.1681
 8557TIP3   OH225634   1.186   5.873   4.937  0.0674  0.7802  0.0767
 8557TIP3    H125635   1.225   5.843   4.855 -0.2063  1.0575 -0.1585
 8557TIP3    H225636   1.141   5.954   4.913  0.0777  0.9181  0.5251
 8558TIP3   OH225637   3.271   2.278   2.462  0.3717 -0.6585  0.0512
 8558TIP3    H125638   3.184   2.305   2.492  0.8191 -0.3555  1.1393
 8558TIP3    H225639   3.286   2.330   2.383  0.1519  0.3723  0.6635
 8559TIP3   OH225640   3.065   6.138   4.370  0.2451  0.0692 -1.0127
 8559TIP3    H125641   3.121   6.165   4.298  2.8233  0.3329  0.9723
 8559TIP3    H225642   3.119   6.079   4.423 -1.9598 -1.1011  0.1065
 8560TIP3   OH225643   6.309   4.346   2.273 -0.2222 -0.0690  0.3457
 8560TIP3    H125644   6.296   4.439   2.255  0.4737 -0.1748 -0.8553
 8560TIP3    H225645   6.390   4.342   2.324 -0.7355  0.0454  1.1712
 8561TIP3   OH225646   3.953   1.565   5.222  0.2391 -0.2078 -0.0797
 8561TIP3    H125647   4.009   1.593   5.294  0.6731 -0.1838 -0.4193
 8561TIP3    H225648   3.980   1.475   5.203 -1.1415 -0.8745  0.9942
 8562TIP3   OH225649   3.998   3.250   3.553 -0.2105  0.0255 -0.9192
 8562TIP3    H125650   4.091   3.259   3.536  0.0857 -1.5803 -0.3731
 8562TIP3    H225651   3.982   3.302   3.631  0.0845  0.8174 -1.3783
 8563TIP3   OH225652   0.848   5.781   4.761 -0.0740  0.3040  0.8261
 8563TIP3    H125653   0.779   5.716   4.759  0.4261 -0.2259  0.7233
 8563TIP3    H225654   0.856   5.805   4.854 -0.3993  0.3769  0.8357
 8564TIP3   OH225655   4.956   0.140   1.395 -0.5462 -0.3443 -0.2337
 8564TIP3    H125656   5.014   0.150   1.320 -0.3105  2.1893  0.1728
 8564TIP3    H225657   4.870   0.164   1.362 -0.3045  1.6213  0.3904
 8565TIP3   OH225658   0.923   1.902   2.792  0.5505  0.1771  0.1904
 8565TIP3    H125659   0.831   1.891   2.768  0.4826  0.7455  0.1810
 8565TIP3    H225660   0.971   1.864   2.718  0.3302  0.7977 -0.2802
 8566TIP3   OH225661   5.276   6.392   3.646 -0.3971 -0.1480  0.1874
 8566TIP3    H125662   5.269   6.397   3.741 -1.9925  2.6931  0.0222
 8566TIP3    H225663   5.364   6.423   3.626 -0.1535 -0.5020  0.7004
 8567TIP3   OH225664   4.979   2.687   5.814  0.1741 -0.1690 -0.2656
 8567TIP3    H125665   5.062   2.730   5.796 -0.4342  0.3880 -1.8748
 8567TIP3    H225666   4.935   2.681   5.729 -3.5150  3.8563  0.9775
 8568TIP3   OH225667   3.446   0.029   5.729 -0.1798  0.3290 -0.2048
 8568TIP3    H125668   3.411   0.089   5.663 -0.0996  0.2966 -0.2769
 8568TIP3    H225669   3.541   0.032   5.717 -0.0052  1.7426  1.1094
 8569TIP3   OH225670   0.456   0.657   0.891 -0.1084 -0.2340  0.4930
 8569TIP3    H125671   0.378   0.690   0.847  0.9689 -0.0292 -1.4010
 8569TIP3    H225672   0.485   0.728   0.948 -0.0512  0.5953 -0.5338
 8570TIP3   OH225673   6.443   4.964   1.023  0.0912 -0.5247  0.2901
 8570TIP3    H125674   6.528   4.992   0.990 -0.2448 -0.0603 -0.2051
 8570TIP3    H225675   6.437   5.003   1.110  0.9549 -1.6985  0.9008
 8571TIP3   OH225676   0.846   6.166   4.701 -0.8526 -0.0125  0.0634
 8571TIP3    H125677   0.807   6.104   4.639 -0.9867  1.0121 -0.9132
 8571TIP3    H225678   0.775   6.226   4.723 -0.3961  0.5990 -0.0794
 8572TIP3   OH225679   5.857   1.151   2.509  0.2659  0.2788 -0.2530
 8572TIP3    H125680   5.771   1.150   2.551  1.5888  0.9908  2.7429
 8572TIP3    H225681   5.918   1.172   2.579  3.0278 -0.9945 -2.0695
 8573TIP3   OH225682   2.356   6.437   0.938 -0.3871  0.5736 -0.3487
 8573TIP3    H125683   2.392   6.500   0.876 -0.1099  0.3573 -0.4103
 8573TIP3    H225684   2.429   6.378   0.958 -0.6135  0.3364 -0.2088
 8574TIP3   OH225685   1.991   0.494   5.392 -0.4920 -0.2163 -0.1691
 8574TIP3    H125686   1.938   0.435   5.446 -2.2668  0.5738 -0.9490
 8574TIP3    H225687   2.036   0.551   5.455 -0.9717 -0.5854  0.5187
 8575TIP3   OH225688   2.086   2.289   1.616  1.1325 -0.3172  0.2622
 8575TIP3    H125689   2.130   2.206   1.596  0.1804 -1.3507  2.2271
 8575TIP3    H225690   2.107   2.306   1.708 -0.7269  0.3152  0.6008
 8576TIP3   OH225691   3.743   3.645   5.123 -0.0400  0.4113 -0.3290
 8576TIP3    H125692   3.706   3.731   5.102 -1.9871  0.4645  2.7634
 8576TIP3    H225693   3.809   3.663   5.189 -0.5271 -0.4329  0.4029
 8577TIP3   OH225694   1.279   2.062   5.388 -0.2734  0.4524  0.2049
 8577TIP3    H125695   1.350   2.000   5.408  0.5554  0.9666 -1.0144
 8577TIP3    H225696   1.309   2.144   5.426 -0.6223  0.4728  0.4345
 8578TIP3   OH225697   4.473   5.473   1.995 -0.1484  0.3510 -0.3546
 8578TIP3    H125698   4.404   5.477   2.062  1.0906 -0.2519  0.9990
 8578TIP3    H225699   4.433   5.424   1.923 -0.9215 -0.6004  0.6899
 8579TIP3   OH225700   5.377   1.867   2.607 -0.3540  0.1569  0.8355
 8579TIP3    H125701   5.286   1.890   2.626 -0.4297 -1.0036  2.0646
 8579TIP3    H225702   5.407   1.934   2.546 -2.3997 -0.1276 -0.5655
 8580TIP3   OH225703   0.473   2.098   0.637 -0.1767  0.0523  0.3422
 8580TIP3    H125704   0.568   2.088   0.629  0.0873  0.6673  2.2834
 8580TIP3    H225705   0.439   2.067   0.553  1.6780 -0.8883 -0.1161
 8581TIP3   OH225706   1.543   6.652   3.407  0.0709  0.1428  0.1550
 8581TIP3    H125707   1.632   6.620   3.419 -0.4524 -1.0544  1.0911
 8581TIP3    H225708   1.554   6.741   3.373  1.6231  0.2608  0.8666
 8582TIP3   OH225709   1.110   6.665   1.201  0.0290  0.2235  0.3341
 8582TIP3    H125710   1.070   6.745   1.168 -1.5864 -0.5605  0.3030
 8582TIP3    H225711   1.099   6.670   1.296 -1.0470 -0.4224  0.2634
 8583TIP3   OH225712   3.051   1.586   2.094  0.1231 -0.5106  0.0768
 8583TIP3    H125713   2.975   1.643   2.083 -1.6235 -2.6649  0.3608
 8583TIP3    H225714   3.123   1.646   2.112 -1.9528  1.5400  2.2492
 8584TIP3   OH225715   7.025   3.168   3.437  0.2531 -0.6303  0.5493
 8584TIP3    H125716   6.960   3.133   3.498 -0.2366 -0.5993  0.0489
 8584TIP3    H225717   7.084   3.095   3.421 -2.0993 -2.1179 -2.3705
 8585TIP3   OH225718   3.526   0.485   2.184 -0.0324  0.5576 -0.1576
 8585TIP3    H125719   3.531   0.496   2.089 -0.9094 -0.1990 -0.3110
 8585TIP3    H225720   3.530   0.574   2.218  0.1271  0.8525 -0.9162
 8586TIP3   OH225721   4.584   1.425   5.412 -0.4695 -0.1793  0.0590
 8586TIP3    H125722   4.533   1.432   5.493  1.6997 -1.1501  1.6159
 8586TIP3    H225723   4.599   1.331   5.401 -1.2945 -0.1373 -1.9257
 8587TIP3   OH225724   6.553   1.038   3.707  0.8066  0.5116  0.4695
 8587TIP3    H125725   6.641   1.072   3.688  0.9402  0.3995  0.8831
 8587TIP3    H225726   6.495   1.113   3.695  0.8372  0.3591 -0.7489
 8588TIP3   OH225727   6.111   5.551   0.335 -0.8919  0.2778  0.2427
 8588TIP3    H125728   6.171   5.610   0.289 -1.2528  0.1144 -0.4489
 8588TIP3    H225729   6.057   5.514   0.266  0.1055 -1.7753  0.4862
 8589TIP3   OH225730   3.697   1.908   1.803  0.1456 -0.0869  0.1778
 8589TIP3    H125731   3.741   1.870   1.879  2.9048  1.1807 -0.6683
 8589TIP3    H225732   3.712   1.844   1.733 -1.2688 -0.6335  0.3352
 8590TIP3   OH225733   0.772   0.851   0.492 -0.0340  0.2554  0.3623
 8590TIP3    H125734   0.742   0.854   0.583 -1.2488  1.1486 -0.0342
 8590TIP3    H225735   0.693   0.865   0.441  0.4379 -1.2897 -0.8948
 8591TIP3   OH225736   2.431   3.143   3.443  0.0967  0.1403 -0.4249
 8591TIP3    H125737   2.364   3.078   3.426  0.0355  0.3575 -1.0418
 8591TIP3    H225738   2.486   3.143   3.364  1.1855 -0.4657  0.3051
 8592TIP3   OH225739   3.111   6.535   5.318 -0.1527  0.2278 -0.4059
 8592TIP3    H125740   3.032   6.569   5.360 -0.3187 -0.7282  0.0916
 8592TIP3    H225741   3.097   6.550   5.224 -1.2130 -0.4550 -0.3759
 8593TIP3   OH225742   6.471   0.841   3.530 -0.2552  0.1335 -0.2673
 8593TIP3    H125743   6.385   0.881   3.516  0.1369  1.2992  0.5452
 8593TIP3    H225744   6.516   0.900   3.590  1.2114 -0.3448 -0.8562
 8594TIP3   OH225745   0.203   3.227   3.661 -0.1560 -0.1130  0.0101
 8594TIP3    H125746   0.137   3.294   3.643  0.1750  0.5048  1.0394
 8594TIP3    H225747   0.239   3.206   3.575 -2.2449 -1.0828 -0.7011
 8595TIP3   OH225748   1.975   0.224   1.500  0.4492 -0.3512 -0.4139
 8595TIP3    H125749   2.063   0.204   1.532  0.9985 -0.3067 -1.8149
 8595TIP3    H225750   1.990   0.262   1.413 -0.8916  0.7342 -0.1958
 8596TIP3   OH225751   4.081   1.312   1.481  0.1532  0.1194 -0.0406
 8596TIP3    H125752   4.026   1.305   1.404  0.0341 -2.0352  0.1825
 8596TIP3    H225753   4.059   1.235   1.534  0.9985  0.9674  1.6355
 8597TIP3   OH225754   4.544   6.416   4.032 -0.1073  0.1176  0.1367
 8597TIP3    H125755   4.625   6.441   3.989  0.1608  1.6596  1.4569
 8597TIP3    H225756   4.477   6.423   3.963  0.6419  0.3329 -0.5811
 8598TIP3   OH225757   0.109   3.776   1.224 -0.1306  0.1808 -0.4916
 8598TIP3    H125758   0.107   3.805   1.132  0.1871  2.0408  0.0460
 8598TIP3    H225759   0.126   3.856   1.274  2.1246 -1.1389  1.0359
 8599TIP3   OH225760   5.267   2.471   5.230 -0.1514  0.0584  0.1465
 8599TIP3    H125761   5.319   2.528   5.288 -1.4842  0.9409  0.5189
 8599TIP3    H225762   5.191   2.524   5.206 -0.7051 -1.0691 -0.7024
 8600TIP3   OH225763   6.682   4.776   1.171  0.0500  0.3926  0.5991
 8600TIP3    H125764   6.720   4.696   1.207 -0.2384  1.0794  2.5192
 8600TIP3    H225765   6.731   4.791   1.090  0.7534 -1.1952  0.6874
 8601TIP3   OH225766   5.527   4.173   1.263  0.3684 -0.1410 -0.2858
 8601TIP3    H125767   5.456   4.233   1.286  0.7313  0.2920 -0.2753
 8601TIP3    H225768   5.599   4.198   1.321  0.9641  0.2998 -1.2050
 8602TIP3   OH225769   6.580   1.393   0.882 -0.1980 -0.0370  0.1889
 8602TIP3    H125770   6.550   1.452   0.951  1.4371  1.5027 -0.3434
 8602TIP3    H225771   6.653   1.346   0.920  0.8615  0.9884 -0.5133
 8603TIP3   OH225772   3.617   2.773   3.246 -0.0787  0.2831 -0.1352
 8603TIP3    H125773   3.620   2.858   3.203  2.4443  0.5715  0.4161
 8603TIP3    H225774   3.541   2.777   3.304 -1.3877  1.2278 -1.8362
 8604TIP3   OH225775   3.082   4.225   3.200  0.3221 -0.0724 -0.3554
 8604TIP3    H125776   3.115   4.240   3.289 -0.6396 -1.5602  0.2842
 8604TIP3    H225777   3.009   4.287   3.191  1.0732  0.8175 -0.5247
 8605TIP3   OH225778   4.206   0.155   0.738  0.4635  0.4030  0.2417
 8605TIP3    H125779   4.208   0.248   0.761 -0.9130 -0.0602  2.5120
 8605TIP3    H225780   4.245   0.152   0.651 -1.9610  3.4814 -1.1775
 8606TIP3   OH225781   6.618   4.613   2.344  0.4518 -0.3255  0.7115
 8606TIP3    H125782   6.703   4.587   2.378  0.8996  0.1377 -0.0320
 8606TIP3    H225783   6.604   4.557   2.268 -0.0507 -0.6076  1.0037
 8607TIP3   OH225784   0.765   0.453   1.222 -0.6758  0.3776  0.1888
 8607TIP3    H125785   0.798   0.364   1.213 -0.3456  0.3968  1.0654
 8607TIP3    H225786   0.834   0.499   1.271 -1.2032  0.8921  0.4640
 8608TIP3   OH225787   3.260   0.938   2.924  0.3974 -0.3070 -0.2553
 8608TIP3    H125788   3.285   1.022   2.885  0.3980  0.1533  0.7012
 8608TIP3    H225789   3.201   0.898   2.860  0.9788  0.0829 -1.0510
 8609TIP3   OH225790   4.955   4.856   2.843 -0.3739 -0.4940  0.2554
 8609TIP3    H125791   5.050   4.857   2.844 -0.3661 -0.2120 -0.3331
 8609TIP3    H225792   4.930   4.941   2.806 -0.8391 -0.7537 -0.0455
 8610TIP3   OH225793   6.736   6.630   1.235 -0.1185  0.5491 -0.1274
 8610TIP3    H125794   6.738   6.534   1.229 -0.1077  0.4715  0.9565
 8610TIP3    H225795   6.828   6.655   1.243 -0.1133  0.6613 -0.5343
 8611TIP3   OH225796   1.292   3.264   2.557 -0.1777  0.1075  0.1805
 8611TIP3    H125797   1.361   3.199   2.543  0.4610  0.5095  1.3049
 8611TIP3    H225798   1.330   3.346   2.526 -0.8804  0.0189 -0.9781
 8612TIP3   OH225799   6.130   1.971   2.626 -0.1496 -0.4137  0.6873
 8612TIP3    H125800   6.213   1.930   2.603 -1.0894 -1.8450 -0.3753
 8612TIP3    H225801   6.112   1.943   2.715  0.1461 -0.7406  0.6454
 8613TIP3   OH225802   0.757   5.732   3.427 -0.0494 -0.2420  0.6467
 8613TIP3    H125803   0.703   5.756   3.502 -0.1102  0.1431  0.4820
 8613TIP3    H225804   0.721   5.649   3.397  0.9819 -1.2313  2.0285
 8614TIP3   OH225805   0.095   6.516   0.197  0.3641 -0.6557  0.4810
 8614TIP3    H125806   0.078   6.424   0.217  0.2128 -1.2154 -1.9605
 8614TIP3    H225807   0.182   6.533   0.234  0.6591 -1.9557  0.4235
 8615TIP3   OH225808   3.543   6.608   0.196 -0.0175  0.1322 -0.7881
 8615TIP3    H125809   3.605   6.624   0.125  0.2912  0.5704 -0.4256
 8615TIP3    H225810   3.494   6.531   0.168  0.2925  0.1318 -1.3462
 8616TIP3   OH225811   2.737   4.237   1.549  0.3210 -0.3660  0.1709
 8616TIP3    H125812   2.762   4.308   1.609 -0.9226  0.9336 -0.7735
 8616TIP3    H225813   2.654   4.205   1.583 -0.2036  0.1260 -0.6129
 8617TIP3   OH225814   6.264   3.062   0.359  0.0526 -0.1065 -0.3224
 8617TIP3    H125815   6.279   3.152   0.330  0.1236 -0.1989 -0.5682
 8617TIP3    H225816   6.208   3.072   0.437  0.7944  0.2012  0.1849
 8618TIP3   OH225817   3.742   3.611   2.997 -0.0339 -0.4317  0.0951
 8618TIP3    H125818   3.659   3.632   3.041 -0.5972  0.1377 -1.1875
 8618TIP3    H225819   3.808   3.615   3.067 -0.9532  0.0033  0.9661
 8619TIP3   OH225820   1.171   2.718   1.362 -0.4826  0.0524  0.0441
 8619TIP3    H125821   1.139   2.807   1.344  0.1353  0.1312 -0.7322
 8619TIP3    H225822   1.187   2.681   1.276 -0.3191 -0.6631  0.3794
 8620TIP3   OH225823   4.182   4.309   1.409  0.3133  0.6284 -0.2021
 8620TIP3    H125824   4.115   4.357   1.360 -0.3843  1.5275  1.5241
 8620TIP3    H225825   4.133   4.241   1.455  0.6286  1.0796  0.8135
 8621TIP3   OH225826   5.270   5.229   2.812 -0.6387  0.1006 -0.2742
 8621TIP3    H125827   5.256   5.134   2.821 -1.1154  0.2765  1.1509
 8621TIP3    H225828   5.360   5.242   2.843 -0.7297  0.1565 -0.0263
 8622TIP3   OH225829   0.184   0.416   3.106 -0.0732  1.4602  0.8735
 8622TIP3    H125830   0.112   0.467   3.142 -1.2558  0.2954  0.2260
 8622TIP3    H225831   0.247   0.482   3.077 -1.5611  2.5631  0.0197
 8623TIP3   OH225832   3.460   6.754   4.593  0.2039 -0.3316 -0.3499
 8623TIP3    H125833   3.444   6.710   4.676 -0.6700  0.1590 -0.2545
 8623TIP3    H225834   3.424   6.694   4.527 -1.3720  0.4015 -0.1906
 8624TIP3   OH225835   5.091   4.509   5.833  0.3282 -0.3159 -0.6968
 8624TIP3    H125836   5.111   4.420   5.802 -0.7209 -0.9116  0.2764
 8624TIP3    H225837   5.111   4.506   5.926  0.9202  0.6893 -0.7808
 8625TIP3   OH225838   1.832   1.011   4.549 -0.3326  0.1264 -0.1700
 8625TIP3    H125839   1.808   0.923   4.580 -1.5332  0.5143  0.0201
 8625TIP3    H225840   1.753   1.063   4.559 -0.1649  0.7848 -2.0106
 8626TIP3   OH225841   6.861   3.360   0.502  0.2969 -0.6286  0.2589
 8626TIP3    H125842   6.916   3.402   0.568 -0.3989 -1.7583  1.5993
 8626TIP3    H225843   6.778   3.409   0.504  0.3731 -0.4841 -0.0007
 8627TIP3   OH225844   5.118   1.713   4.727  0.2162  0.5205 -1.3834
 8627TIP3    H125845   5.040   1.759   4.758  0.4323 -0.2227  0.3840
 8627TIP3    H225846   5.086   1.625   4.705  0.7294 -0.2601  0.7282
 8628TIP3   OH225847   0.455   3.658   4.846  0.1294  0.0349  0.7642
 8628TIP3    H125848   0.543   3.666   4.883  0.5318  3.7489 -0.5414
 8628TIP3    H225849   0.404   3.725   4.892 -0.6278  1.3138 -1.7409
 8629TIP3   OH225850   1.658   6.712   3.011  0.3720 -0.2629 -0.3082
 8629TIP3    H125851   1.684   6.803   3.029  0.2040 -0.5569  1.7370
 8629TIP3    H225852   1.716   6.684   2.941  1.6342  0.8976  0.2176
 8630TIP3   OH225853   1.317   4.485   3.588  0.5259 -0.1890 -0.5391
 8630TIP3    H125854   1.380   4.413   3.586 -0.0290 -1.0518  3.8777
 8630TIP3    H225855   1.371   4.562   3.608  0.8416  0.3661 -3.1720
 8631TIP3   OH225856   4.011   0.702   5.309  0.0934  0.0168 -0.2056
 8631TIP3    H125857   4.081   0.747   5.262 -0.7645  2.3066  0.5265
 8631TIP3    H225858   3.995   0.757   5.386 -1.7151 -1.0470  0.2574
 8632TIP3   OH225859   2.113   0.789   5.445  0.1570  0.1473  0.2489
 8632TIP3    H125860   2.206   0.812   5.444 -0.6032  3.8877 -0.7600
 8632TIP3    H225861   2.086   0.797   5.536  0.5447  0.3960  0.3409
 8633TIP3   OH225862   0.796   6.687   1.399  0.3714  0.6777 -0.1028
 8633TIP3    H125863   0.771   6.601   1.364  0.8248  0.7692 -0.6653
 8633TIP3    H225864   0.851   6.666   1.475  0.3201  0.4749 -0.1206
 8634TIP3   OH225865   2.963   4.789   4.213  0.3313  0.1540  0.6014
 8634TIP3    H125866   2.926   4.824   4.132  1.1688 -2.3007 -0.9427
 8634TIP3    H225867   3.057   4.803   4.205  0.6711 -2.0632  0.0433
 8635TIP3   OH225868   3.464   0.417   3.937  0.2830 -0.2689 -0.3375
 8635TIP3    H125869   3.454   0.376   4.023 -1.2430  2.6813  1.0257
 8635TIP3    H225870   3.553   0.394   3.910  1.2480 -0.3493  2.5899
 8636TIP3   OH225871   2.185   2.258   2.694  0.1991  0.4259  0.0898
 8636TIP3    H125872   2.187   2.246   2.599 -0.5071  1.6898 -0.1161
 8636TIP3    H225873   2.270   2.227   2.724  0.3533 -0.1797 -0.9312
 8637TIP3   OH225874   5.098   2.702   2.406 -0.4624  0.0250 -0.0535
 8637TIP3    H125875   5.119   2.757   2.331 -0.6315 -1.6151 -1.3479
 8637TIP3    H225876   5.010   2.730   2.432 -1.8013 -1.4968 -2.5507
 8638TIP3   OH225877   5.680   4.674   3.919  0.3573  0.1250 -0.2012
 8638TIP3    H125878   5.746   4.605   3.918 -0.0345 -0.2628 -1.7457
 8638TIP3    H225879   5.615   4.646   3.855 -1.3890  0.4399  1.3608
 8639TIP3   OH225880   4.023   0.807   5.591 -0.9914  0.5508 -0.2577
 8639TIP3    H125881   4.010   0.900   5.610  0.3150  0.4757  1.1863
 8639TIP3    H225882   3.948   0.764   5.631 -0.5829  0.8283  0.8497
 8640TIP3   OH225883   2.134   6.459   1.085 -0.3207  0.0035 -0.3479
 8640TIP3    H125884   2.216   6.473   1.037 -0.9294  1.1631 -1.0952
 8640TIP3    H225885   2.066   6.492   1.027 -1.3869 -1.3798  0.0613
 8641TIP3   OH225886   3.298   0.488   3.447  0.2012  0.1867 -0.0379
 8641TIP3    H125887   3.263   0.576   3.440 -2.0521 -0.5078  1.4291
 8641TIP3    H225888   3.363   0.494   3.518  0.8454  0.8568 -0.6687
 8642TIP3   OH225889   4.412   2.275   4.571  0.4778  0.2493  0.5051
 8642TIP3    H125890   4.435   2.258   4.479 -0.5989 -0.5216  0.3420
 8642TIP3    H225891   4.342   2.341   4.566 -0.0139 -0.2424  0.7119
 8643TIP3   OH225892   1.698   5.822   0.524  0.2084 -0.0268 -0.1564
 8643TIP3    H125893   1.741   5.885   0.467  0.4839  0.9089  1.0547
 8643TIP3    H225894   1.758   5.811   0.598 -1.4665  1.1420  1.4632
 8644TIP3   OH225895   0.542   0.613   0.488 -0.2136 -0.3526  0.6664
 8644TIP3    H125896   0.609   0.546   0.472  1.2632  1.1260  0.3585
 8644TIP3    H225897   0.468   0.565   0.525  0.0858 -2.4263 -1.2193
 8645TIP3   OH225898   6.496   2.853   3.079 -0.3480  0.2301  0.3389
 8645TIP3    H125899   6.478   2.899   3.162 -1.4304  0.3344  0.0604
 8645TIP3    H225900   6.416   2.803   3.061  0.8049 -1.8306  0.6396
 8646TIP3   OH225901   0.848   6.668   0.546 -0.2534  0.2198 -0.2390
 8646TIP3    H125902   0.767   6.702   0.584 -0.9180 -1.4968 -0.0108
 8646TIP3    H225903   0.909   6.741   0.551 -1.0578  0.8430  1.8412
 8647TIP3   OH225904   4.981   2.649   5.510 -1.0492  0.2148  0.2931
 8647TIP3    H125905   5.058   2.702   5.532 -1.0328  0.0089  0.7472
 8647TIP3    H225906   5.016   2.579   5.454 -0.8575 -0.0262  0.7075
 8648TIP3   OH225907   4.893   5.389   1.863  0.2105  0.2224 -0.1538
 8648TIP3    H125908   4.828   5.331   1.902  0.1451  1.3092  1.4225
 8648TIP3    H225909   4.964   5.330   1.837 -1.3961 -1.0002 -2.0537
 8649TIP3   OH225910   2.329   4.693   3.595  0.3866 -0.1811  0.0370
 8649TIP3    H125911   2.263   4.684   3.663 -0.4018 -0.8071 -0.7895
 8649TIP3    H225912   2.404   4.734   3.639 -0.3983  0.1629  1.0755
 8650TIP3   OH225913   1.277   4.772   2.666  0.0666  0.3974 -0.0141
 8650TIP3    H125914   1.271   4.687   2.710  0.7766  0.8888  1.0777
 8650TIP3    H225915   1.216   4.765   2.593  2.0484 -2.0310 -1.6271
 8651TIP3   OH225916   2.912   1.413   0.835 -0.1925 -0.3409 -0.3548
 8651TIP3    H125917   2.895   1.408   0.741 -1.3043 -2.0935 -0.0968
 8651TIP3    H225918   2.933   1.324   0.861 -0.2583  0.0438  1.1342
 8652TIP3   OH225919   2.623   5.844   2.910  0.3485 -0.3701 -0.8836
 8652TIP3    H125920   2.652   5.935   2.903 -1.8350  0.2824 -2.9879
 8652TIP3    H225921   2.704   5.793   2.912  1.6275  1.5655 -0.6006
 8653TIP3   OH225922   7.051   4.146   2.187 -0.0587 -0.5440  0.0809
 8653TIP3    H125923   7.109   4.219   2.210  1.1826 -0.8267 -1.8498
 8653TIP3    H225924   7.016   4.170   2.101 -1.4740 -1.1998  0.4478
 8654TIP3   OH225925   3.133   0.310   3.617  0.2775 -0.3233 -0.3247
 8654TIP3    H125926   3.224   0.283   3.615  0.3171 -0.1358 -1.0575
 8654TIP3    H225927   3.133   0.401   3.589 -0.2797 -0.7444 -1.7800
 8655TIP3   OH225928   0.325   3.915   5.344 -0.2158 -0.1463  0.4683
 8655TIP3    H125929   0.248   3.863   5.367 -1.1087 -0.5111 -2.8675
 8655TIP3    H225930   0.398   3.855   5.349 -0.9657 -1.3095 -1.4083
 8656TIP3   OH225931   1.278   5.385   2.606  0.0853  0.1536 -0.2176
 8656TIP3    H125932   1.297   5.376   2.512  0.6007 -0.5514 -0.0540
 8656TIP3    H225933   1.184   5.402   2.610  0.3141  1.8331 -0.9450
 8657TIP3   OH225934   4.384   4.648   3.024 -0.0416  0.6481  0.1791
 8657TIP3    H125935   4.294   4.663   2.998  0.7724  2.4338 -1.8603
 8657TIP3    H225936   4.405   4.561   2.989 -0.5612  0.8011 -0.5313
 8658TIP3   OH225937   3.057   1.516   5.711 -0.0678  0.6309 -0.0136
 8658TIP3    H125938   3.009   1.599   5.703  0.2604  0.7571 -0.7105
 8658TIP3    H225939   3.116   1.530   5.785 -0.0009  1.0329 -0.1406
 8659TIP3   OH225940   2.315   2.442   5.507  0.3529 -0.3755 -0.0446
 8659TIP3    H125941   2.265   2.361   5.499  1.2185 -1.1101  1.5972
 8659TIP3    H225942   2.381   2.424   5.573  1.8006  1.0779 -0.9943
 8660TIP3   OH225943   4.294   5.048   2.621  0.2797 -0.4008 -0.1414
 8660TIP3    H125944   4.296   4.984   2.693  1.4766  1.0744  1.1988
 8660TIP3    H225945   4.217   5.023   2.569 -0.5584 -1.5759  1.5794
 8661TIP3   OH225946   0.343   0.816   4.095 -0.5543  0.4169 -0.1979
 8661TIP3    H125947   0.423   0.820   4.043 -1.0138 -0.8852 -1.0483
 8661TIP3    H225948   0.298   0.737   4.065 -0.7147 -0.5632  2.3682
 8662TIP3   OH225949   3.245   6.758   0.127  0.2639 -1.1868 -0.0146
 8662TIP3    H125950   3.235   6.674   0.172 -3.1502  0.5801  3.1257
 8662TIP3    H225951   3.161   6.772   0.083  0.5101  0.8030  0.0307
 8663TIP3   OH225952   2.831   4.259   1.913  0.7004  0.4362 -0.0857
 8663TIP3    H125953   2.776   4.293   1.984  0.7449  0.7662 -0.2085
 8663TIP3    H225954   2.795   4.172   1.894  1.1141  0.0604  0.8050
 8664TIP3   OH225955   6.107   0.243   2.843  0.2304 -0.3315  0.0875
 8664TIP3    H125956   6.159   0.283   2.773  1.1083 -0.2379  0.7760
 8664TIP3    H225957   6.103   0.310   2.911  1.3497 -1.2486  1.0738
 8665TIP3   OH225958   1.780   3.282   1.349 -0.0387 -0.4381 -0.3423
 8665TIP3    H125959   1.722   3.279   1.425 -0.1755  3.0420 -0.1422
 8665TIP3    H225960   1.732   3.234   1.280 -1.6188 -0.4710  0.7254
 8666TIP3   OH225961   1.370   5.392   2.354  0.1482  0.2868  0.0005
 8666TIP3    H125962   1.458   5.401   2.317 -0.2459 -0.7000 -1.2806
 8666TIP3    H225963   1.311   5.400   2.279 -0.7086 -1.5224  0.3982
 8667TIP3   OH225964   0.231   4.350   2.152 -1.0563 -0.1918  0.2128
 8667TIP3    H125965   0.245   4.368   2.246  1.6318  1.5516 -0.3927
 8667TIP3    H225966   0.320   4.338   2.117 -1.6766  2.2737 -2.6211
 8668TIP3   OH225967   4.663   5.714   2.620  0.0034  0.2822  0.3730
 8668TIP3    H125968   4.735   5.684   2.564 -0.4732  0.7469 -0.4882
 8668TIP3    H225969   4.584   5.691   2.572 -0.4161  0.5564  0.9279
 8669TIP3   OH225970   3.013   1.892   0.628  0.1913  0.2667  0.1638
 8669TIP3    H125971   3.004   1.886   0.532  2.3247  0.3124 -0.0727
 8669TIP3    H225972   2.985   1.806   0.659  2.7903 -1.0364 -0.8393
 8670TIP3   OH225973   6.777   3.778   4.385  0.0079  0.1553 -0.1945
 8670TIP3    H125974   6.801   3.696   4.428  1.8154  0.4196 -0.6074
 8670TIP3    H225975   6.712   3.754   4.319 -1.3628 -0.5372  1.3314
 8671TIP3   OH225976   7.034   3.711   2.786 -0.7048 -0.1771 -0.1116
 8671TIP3    H125977   7.105   3.668   2.834 -1.0249  0.6503  1.1362
 8671TIP3    H225978   7.013   3.650   2.715  1.9492  0.0030 -1.1596
 8672TIP3   OH225979   1.944   4.481   0.297 -0.8901 -0.1567 -0.4185
 8672TIP3    H125980   2.017   4.529   0.338 -1.1771  1.6971 -1.9292
 8672TIP3    H225981   1.905   4.545   0.238 -1.7358 -2.1134 -2.0589
 8673TIP3   OH225982   2.145   3.010   4.015 -0.5368 -0.2554 -0.2533
 8673TIP3    H125983   2.058   2.980   3.990  0.8744 -1.8925 -3.8360
 8673TIP3    H225984   2.180   2.939   4.069 -0.5759 -0.7258 -0.8379
 8674TIP3   OH225985   3.331   0.253   2.193  0.2808  0.3779 -0.6983
 8674TIP3    H125986   3.366   0.196   2.124 -1.6625  0.0515 -1.5027
 8674TIP3    H225987   3.368   0.339   2.175  2.6766 -0.4014  0.0792
 8675TIP3   OH225988   2.848   1.069   1.532 -0.2264  0.3257 -0.0116
 8675TIP3    H125989   2.805   1.002   1.587 -0.2855 -0.1703 -0.6475
 8675TIP3    H225990   2.909   1.112   1.591  0.1061 -0.5663  0.3243
 8676TIP3   OH225991   0.004   2.740   1.274 -0.0056  0.7588  0.0114
 8676TIP3    H125992  -0.004   2.645   1.279  0.1143  0.7326 -0.2914
 8676TIP3    H225993   0.002   2.769   1.365  2.4334  0.2551  0.3059
 8677TIP3   OH225994   1.780   3.665   1.188 -0.0824 -0.1530  0.0573
 8677TIP3    H125995   1.723   3.608   1.134 -1.1893  0.0361  0.9840
 8677TIP3    H225996   1.766   3.753   1.153  0.6708 -0.2695 -0.5648
 8678TIP3   OH225997   1.593   5.805   3.166 -0.5390 -0.5115 -0.7197
 8678TIP3    H125998   1.557   5.724   3.129  1.3502 -1.1552 -1.2968
 8678TIP3    H225999   1.683   5.781   3.192 -0.2852  1.1427  0.0533
 8679TIP3   OH226000   4.705   5.539   0.236  0.0542 -0.2265 -0.0518
 8679TIP3    H126001   4.660   5.624   0.235 -0.1746 -0.2885  1.6140
 8679TIP3    H226002   4.709   5.515   0.329  2.4633 -0.8033 -0.2339
 8680TIP3   OH226003   5.040   4.819   4.636 -0.2198 -0.0518  0.1364
 8680TIP3    H126004   5.129   4.795   4.661 -0.6933 -0.9972  1.0339
 8680TIP3    H226005   4.994   4.829   4.720 -0.9035  0.6227 -0.3085
 8681TIP3   OH226006   5.283   1.297   2.080 -0.1411 -0.0818  0.3026
 8681TIP3    H126007   5.324   1.240   2.145  4.1707  1.8914 -0.3583
 8681TIP3    H226008   5.284   1.384   2.120 -2.3025  0.3786 -0.4768
 8682TIP3   OH226009   5.273   6.393   0.524  0.7861  0.4149  0.3987
 8682TIP3    H126010   5.363   6.368   0.542  0.7746  1.1121  1.5239
 8682TIP3    H226011   5.237   6.320   0.472  2.1324  0.3847 -0.5315
 8683TIP3   OH226012   4.209   6.030   2.698  0.0144 -0.2181 -0.3537
 8683TIP3    H126013   4.152   5.976   2.753  0.4974 -0.9532 -0.5579
 8683TIP3    H226014   4.162   6.113   2.690 -1.1344 -0.8707 -0.6968
 8684TIP3   OH226015   6.093   1.159   4.700  0.0128  0.4358 -0.0053
 8684TIP3    H126016   6.109   1.071   4.732 -0.3239 -0.0750 -1.1659
 8684TIP3    H226017   6.071   1.147   4.607 -1.8562  1.5644  0.2476
 8685TIP3   OH226018   1.960   0.093   4.687  1.0283  0.2906  0.0098
 8685TIP3    H126019   1.912   0.011   4.701  0.7594  0.7772  2.3970
 8685TIP3    H226020   2.047   0.065   4.660  0.7687 -0.7630  0.1976
 8686TIP3   OH226021   2.380   2.667   3.033 -0.4485  0.5287 -0.3041
 8686TIP3    H126022   2.460   2.720   3.037 -1.0256  1.3984  0.1397
 8686TIP3    H226023   2.314   2.722   3.075 -1.0728 -0.5517  0.1468
 8687TIP3   OH226024   5.981   6.702   3.030 -0.3285  0.0940 -0.1021
 8687TIP3    H126025   5.897   6.743   3.051 -0.1601  0.0045  0.7889
 8687TIP3    H226026   5.973   6.675   2.938 -2.3197 -2.4070  0.6955
 8688TIP3   OH226027   3.740   0.306   1.058  0.1299  0.3877  0.3974
 8688TIP3    H126028   3.741   0.264   0.972 -1.2345 -0.8075  0.9089
 8688TIP3    H226029   3.816   0.271   1.103 -0.1980 -0.4696  0.3082
 8689TIP3   OH226030   0.581   1.460   4.822 -0.3002 -0.1235  0.0574
 8689TIP3    H126031   0.566   1.404   4.746 -0.9492 -0.9422  0.7674
 8689TIP3    H226032   0.572   1.549   4.788  1.0680 -0.3974 -1.1613
 8690TIP3   OH226033   3.735   5.470   3.404 -0.2172 -0.3487 -0.1905
 8690TIP3    H126034   3.673   5.485   3.333  0.0131 -0.5456 -0.4345
 8690TIP3    H226035   3.684   5.424   3.471 -0.2321 -0.8841 -0.5631
 8691TIP3   OH226036   2.082   1.833   5.777  0.5062  0.1053 -0.0163
 8691TIP3    H126037   1.993   1.842   5.809  0.7145  1.8097  0.1648
 8691TIP3    H226038   2.124   1.773   5.838 -0.6793 -1.2772 -0.5124
 8692TIP3   OH226039   5.426   0.881   1.992  0.5033 -0.0424 -0.0989
 8692TIP3    H126040   5.464   0.927   1.917 -0.3529  0.1600 -0.4178
 8692TIP3    H226041   5.468   0.795   1.991 -0.1638 -0.3849 -1.3734
 8693TIP3   OH226042   3.421   6.637   4.834 -0.5970 -0.5050 -0.5833
 8693TIP3    H126043   3.471   6.557   4.845  1.7374  0.9243 -0.1432
 8693TIP3    H226044   3.432   6.684   4.917 -0.8786  0.8136 -1.2628
 8694TIP3   OH226045   1.782   2.817   1.900  0.3955 -0.7495  0.0576
 8694TIP3    H126046   1.843   2.888   1.881  0.4003 -1.1180 -1.4753
 8694TIP3    H226047   1.716   2.823   1.831 -1.4368 -0.2731  1.7667
 8695TIP3   OH226048   6.216   6.294   4.926  0.1241  0.3632 -0.1457
 8695TIP3    H126049   6.157   6.345   4.869  0.4893  1.0735  0.1010
 8695TIP3    H226050   6.175   6.298   5.012 -0.7828 -1.2719 -0.4443
 8696TIP3   OH226051   5.301   4.465   1.194  0.3308  0.4049  0.2595
 8696TIP3    H126052   5.394   4.471   1.170  0.2481  0.8078  0.0385
 8696TIP3    H226053   5.269   4.388   1.147  0.2441  1.0031 -0.6759
 8697TIP3   OH226054   3.277   4.686   4.829  0.4585 -0.2855 -0.4153
 8697TIP3    H126055   3.349   4.641   4.874 -0.1712 -0.9727 -0.0655
 8697TIP3    H226056   3.318   4.760   4.785  1.1689  0.1443  0.9201
 8698TIP3   OH226057   1.882   3.609   4.309  0.1242 -0.6583  0.3453
 8698TIP3    H126058   1.832   3.622   4.229 -1.4611 -2.1194  1.0299
 8698TIP3    H226059   1.900   3.697   4.341 -2.8598 -0.0142  0.5156
 8699TIP3   OH226060   1.338   3.037   2.956 -0.0681 -0.6042 -0.3036
 8699TIP3    H126061   1.262   3.016   3.010  1.1755 -0.3594  1.6523
 8699TIP3    H226062   1.339   3.132   2.952  0.2907 -0.5991 -0.0887
 8700TIP3   OH226063   2.602   2.391   4.201  0.2306  0.5016 -0.0202
 8700TIP3    H126064   2.586   2.458   4.135 -0.4157  2.5332  2.0500
 8700TIP3    H226065   2.686   2.415   4.239 -0.7423  1.1892  1.8271
 8701TIP3   OH226066   2.577   3.220   4.239  0.1966 -0.3409 -0.0687
 8701TIP3    H126067   2.491   3.236   4.277 -0.1574 -0.9093 -0.6032
 8701TIP3    H226068   2.571   3.253   4.150  0.7723  0.2774  0.1091
 8702TIP3   OH226069   1.607   4.077   4.707 -0.3608 -0.1547  0.0482
 8702TIP3    H126070   1.537   4.027   4.666 -0.8269 -0.9091  1.6655
 8702TIP3    H226071   1.585   4.077   4.801  0.8786  1.0901  0.3830
 8703TIP3   OH226072   1.569   5.720   4.381 -0.1746  0.3084  0.1987
 8703TIP3    H126073   1.516   5.649   4.419 -1.9666  1.7945  0.6168
 8703TIP3    H226074   1.505   5.779   4.341  1.4145  0.5137 -2.2794
 8704TIP3   OH226075   5.223   0.063   2.368  0.3499 -0.4495 -0.6132
 8704TIP3    H126076   5.299   0.010   2.390  0.8912  0.6604  0.2834
 8704TIP3    H226077   5.153   0.029   2.424  0.9300  0.3528  0.6303
 8705TIP3   OH226078   7.048   5.334   4.800 -0.0344 -0.3058 -0.2075
 8705TIP3    H126079   7.055   5.406   4.737 -0.3861 -1.4816 -1.6413
 8705TIP3    H226080   6.962   5.346   4.840 -0.7943 -0.8086 -1.6125
 8706TIP3   OH226081   7.101   6.082   0.417  0.0431 -0.0981  0.5100
 8706TIP3    H126082   7.120   6.051   0.328  0.1595 -2.3858  1.2547
 8706TIP3    H226083   7.047   6.160   0.404  3.2141  2.0014 -1.5969
 8707TIP3   OH226084   3.332   3.608   4.677 -0.2355 -0.1274  0.0157
 8707TIP3    H126085   3.268   3.639   4.741  0.8063  0.9265  0.5772
 8707TIP3    H226086   3.380   3.686   4.650  0.9826 -0.9220 -0.2016
 8708TIP3   OH226087   5.234   3.504   3.567  0.2296  0.0279  0.3587
 8708TIP3    H126088   5.325   3.501   3.540 -0.0820 -0.7099 -0.6613
 8708TIP3    H226089   5.233   3.459   3.652  1.1220  1.8861  1.4095
 8709TIP3   OH226090   4.557   3.073   2.719 -0.0663 -0.1266  0.0609
 8709TIP3    H126091   4.504   3.072   2.639  0.0774 -1.2396 -0.0427
 8709TIP3    H226092   4.569   3.165   2.739 -1.4543  0.1556 -0.3147
 8710TIP3   OH226093   1.592   1.126   2.753  0.7877 -0.0198  1.3342
 8710TIP3    H126094   1.570   1.217   2.732  1.6003  0.1677  1.2590
 8710TIP3    H226095   1.517   1.094   2.803 -0.1854  0.2222  0.0780
 8711TIP3   OH226096   3.234   3.074   2.471 -0.0063  0.1084 -0.0621
 8711TIP3    H126097   3.311   3.131   2.461 -0.9812  1.6190  0.7182
 8711TIP3    H226098   3.269   2.992   2.506  1.4124  0.2690 -1.0213
 8712TIP3   OH226099   4.276   1.764   4.447 -0.8981  0.2233  0.4677
 8712TIP3    H126100   4.311   1.833   4.504  0.8133 -0.4573  0.3238
 8712TIP3    H226101   4.279   1.685   4.501  0.6042 -0.3976 -0.4774
 8713TIP3   OH226102   1.581   2.202   1.082 -0.0432 -0.0482 -0.2267
 8713TIP3    H126103   1.599   2.182   0.990  0.5132 -1.2247  0.1249
 8713TIP3    H226104   1.603   2.295   1.091  0.6066 -0.1080 -1.1036
 8714TIP3   OH226105   5.403   0.644   3.604 -0.1053 -0.2796 -0.1187
 8714TIP3    H126106   5.344   0.719   3.608  1.3834  0.9309 -0.1894
 8714TIP3    H226107   5.391   0.608   3.516 -0.7674 -0.0934 -0.1111
 8715TIP3   OH226108   4.743   6.687   4.150  0.0732 -0.2638 -0.3056
 8715TIP3    H126109   4.705   6.614   4.101  2.7889 -0.9520 -1.5888
 8715TIP3    H226110   4.746   6.759   4.088  0.4808 -0.0900 -0.0874
 8716TIP3   OH226111   4.256   3.757   4.604  0.1418 -0.0982 -0.3450
 8716TIP3    H126112   4.231   3.666   4.620 -0.7230  0.2355  0.3169
 8716TIP3    H226113   4.224   3.776   4.516 -2.7332  0.5127  0.6970
 8717TIP3   OH226114   3.319   5.414   3.099  0.3000  0.5693  0.0886
 8717TIP3    H126115   3.325   5.491   3.042  0.0751  0.3540 -0.2262
 8717TIP3    H226116   3.265   5.352   3.050  1.6126 -0.3343 -0.2768
 8718TIP3   OH226117   1.692   2.931   3.622  0.2872 -0.0921 -0.5163
 8718TIP3    H126118   1.612   2.982   3.633 -0.0965 -1.0762  1.9699
 8718TIP3    H226119   1.761   2.996   3.610 -0.7034  0.8088 -1.5715
 8719TIP3   OH226120   6.319   4.740   5.162  0.1171  0.1247  0.4783
 8719TIP3    H126121   6.318   4.787   5.079  2.7772  0.0992  0.3405
 8719TIP3    H226122   6.321   4.648   5.137  1.8839  0.1320  0.4853
 8720TIP3   OH226123   3.750   1.085   2.111  0.2700 -0.4680  0.3515
 8720TIP3    H126124   3.662   1.105   2.141  0.0356 -0.0938 -0.5493
 8720TIP3    H226125   3.765   0.994   2.138  0.5734  0.2027  2.7129
 8721TIP3   OH226126   5.725   5.622   2.952 -0.1155  0.4579 -0.4192
 8721TIP3    H126127   5.664   5.590   2.886 -0.5365 -0.8286  0.5383
 8721TIP3    H226128   5.682   5.698   2.991 -0.1681  0.8042 -1.1522
 8722TIP3   OH226129   1.336   2.163   3.562  0.1323  0.1153  0.0942
 8722TIP3    H126130   1.375   2.132   3.644 -1.0526 -0.1815  0.5597
 8722TIP3    H226131   1.267   2.100   3.543 -1.5961  1.7969  0.4670
 8723TIP3   OH226132   0.349   5.798   2.964 -0.1670  0.2679  0.0494
 8723TIP3    H126133   0.295   5.847   3.026 -0.2249 -0.4384  0.5573
 8723TIP3    H226134   0.433   5.788   3.007 -0.1006  0.0644 -0.1235
 8724TIP3   OH226135   2.576   4.956   4.014  0.2251  0.1196  0.4856
 8724TIP3    H126136   2.583   5.048   4.037  0.4819  0.5075 -1.0767
 8724TIP3    H226137   2.545   4.914   4.095 -1.0549  1.7239  0.8954
 8725TIP3   OH226138   5.410   4.113   2.606  0.2783  0.5141 -0.7847
 8725TIP3    H126139   5.450   4.044   2.554  0.2027  0.2803 -0.5373
 8725TIP3    H226140   5.318   4.113   2.580  0.0225 -0.2843  0.0634
 8726TIP3   OH226141   4.175   4.293   3.920 -0.7170  0.6741 -0.0844
 8726TIP3    H126142   4.249   4.348   3.893  0.7087 -0.3403  1.5621
 8726TIP3    H226143   4.116   4.353   3.965 -0.6434  1.3821 -0.8935
 8727TIP3   OH226144   4.496   2.360   3.625  0.0484  0.4616 -0.5740
 8727TIP3    H126145   4.566   2.370   3.690 -0.0872 -0.5289 -0.2721
 8727TIP3    H226146   4.473   2.450   3.601  1.3056  0.8113 -0.5463
 8728TIP3   OH226147   0.547   3.812   5.720  0.2139 -0.2306  0.3749
 8728TIP3    H126148   0.569   3.726   5.685  1.1050  1.0662 -2.5192
 8728TIP3    H226149   0.453   3.821   5.708  0.1266 -0.7445  0.6420
 8729TIP3   OH226150   2.097   2.647   2.244  0.3605  0.5846 -0.0715
 8729TIP3    H126151   2.098   2.735   2.281  0.5500  0.0856  1.1489
 8729TIP3    H226152   2.168   2.601   2.290  0.0682 -0.2885 -0.4791
 8730TIP3   OH226153   4.451   5.831   4.262  0.1040  0.8334  0.3532
 8730TIP3    H126154   4.514   5.851   4.332  2.1520  0.9432 -1.4213
 8730TIP3    H226155   4.455   5.907   4.204 -0.3504  0.0664 -0.7155
 8731TIP3   OH226156   3.037   3.932   1.963  0.5894 -0.0440 -0.4367
 8731TIP3    H126157   3.121   3.952   1.923  0.9272 -2.5139 -1.1081
 8731TIP3    H226158   2.972   3.963   1.900  0.9580  1.6436 -0.0250
 8732TIP3   OH226159   6.856   5.845   1.245  0.2902 -0.3756  0.6784
 8732TIP3    H126160   6.805   5.912   1.198 -0.1355 -1.5730 -0.6444
 8732TIP3    H226161   6.934   5.833   1.191  0.6791 -0.4820  1.2651
 8733TIP3   OH226162   5.426   2.036   2.948  0.3706  0.4638 -0.2964
 8733TIP3    H126163   5.339   2.037   2.908  0.2820  0.6038 -0.0974
 8733TIP3    H226164   5.463   1.952   2.920 -0.2870 -0.1380  0.5937
 8734TIP3   OH226165   0.183   3.526   1.484  0.6249 -0.3471 -0.9211
 8734TIP3    H126166   0.112   3.504   1.544  1.7390 -2.3587 -0.2610
 8734TIP3    H226167   0.139   3.558   1.405 -0.9296  0.2241  0.1215
 8735TIP3   OH226168   5.053   6.638   1.602 -0.5571  0.1420 -0.3852
 8735TIP3    H126169   4.973   6.586   1.592  0.7390 -2.3053  0.9880
 8735TIP3    H226170   5.083   6.652   1.512 -1.7149 -0.2543 -0.8536
 8736TIP3   OH226171   2.319   1.940   2.207  0.1178 -0.5945  0.3502
 8736TIP3    H126172   2.336   1.871   2.143  0.5711 -1.8402  1.7536
 8736TIP3    H226173   2.226   1.959   2.197 -0.0413 -1.4834  0.0057
 8737TIP3   OH226174   6.089   3.395   1.487  0.1439 -0.4810  0.2889
 8737TIP3    H126175   6.067   3.472   1.541 -0.2627 -0.1037 -0.4045
 8737TIP3    H226176   6.017   3.388   1.425  0.2938 -1.2996  0.2000
 8738TIP3   OH226177   6.477   3.222   4.794  0.6727  0.1486  0.3835
 8738TIP3    H126178   6.385   3.202   4.809  0.3817  1.5446  0.5730
 8738TIP3    H226179   6.495   3.298   4.850  1.9171 -0.0567  0.2933
 8739TIP3   OH226180   2.575   4.072   3.845 -0.3357  0.1848 -0.2724
 8739TIP3    H126181   2.652   4.054   3.791  0.0400 -1.2383  0.6721
 8739TIP3    H226182   2.512   4.005   3.818 -0.6954  0.4255 -0.0248
 8740TIP3   OH226183   1.487   0.249   2.417  0.2156  0.4134  0.5538
 8740TIP3    H126184   1.582   0.241   2.409  0.2466  1.3360 -0.2284
 8740TIP3    H226185   1.472   0.263   2.510  0.6845 -1.4167  0.9557
 8741TIP3   OH226186   5.547   6.523   2.682 -0.0649  0.1309 -0.0534
 8741TIP3    H126187   5.592   6.570   2.612 -0.0870  1.8672  1.0402
 8741TIP3    H226188   5.595   6.440   2.689  0.0527 -0.0069 -1.9629
 8742TIP3   OH226189   3.485   3.027   0.554  0.2048  0.1159  0.7919
 8742TIP3    H126190   3.415   3.091   0.540 -0.8665 -1.0337  0.7314
 8742TIP3    H226191   3.476   3.001   0.645  0.8322  0.2766  0.9009
 8743TIP3   OH226192   3.693   1.502   1.071 -0.3038  0.2391  0.2209
 8743TIP3    H126193   3.726   1.541   0.990  0.4338  0.8604  0.8027
 8743TIP3    H226194   3.602   1.531   1.076  0.1844  1.8579  0.5739
 8744TIP3   OH226195   6.346   6.084   1.608  0.1762  0.1476 -0.4459
 8744TIP3    H126196   6.344   6.165   1.660  0.3466  1.1633 -1.9487
 8744TIP3    H226197   6.368   6.016   1.671 -0.4718  1.1836  0.9664
 8745TIP3   OH226198   2.534   4.990   5.204 -0.0709 -0.5773  0.1745
 8745TIP3    H126199   2.458   4.970   5.149  0.5687  0.4606 -1.1459
 8745TIP3    H226200   2.594   4.918   5.189  0.8065  0.5146 -1.8805
 8746TIP3   OH226201   0.473   0.379   2.238  0.1149  0.0102  0.6012
 8746TIP3    H126202   0.490   0.404   2.147  0.8250 -1.4833  0.2847
 8746TIP3    H226203   0.395   0.324   2.233  0.3351 -0.3291  0.8453
 8747TIP3   OH226204   2.211   2.288   0.908  0.3127  0.5864  0.6578
 8747TIP3    H126205   2.303   2.266   0.921  0.6353  0.8634 -0.9962
 8747TIP3    H226206   2.165   2.237   0.975  1.4459 -1.6744 -0.1802
 8748TIP3   OH226207   2.647   0.920   4.860  0.0246 -0.0403  0.7184
 8748TIP3    H126208   2.715   0.853   4.865  1.8988  1.6741 -0.5192
 8748TIP3    H226209   2.619   0.932   4.951  0.6411 -1.4628  1.1346
 8749TIP3   OH226210   1.312   0.442   3.653  0.1984 -0.3351 -0.4641
 8749TIP3    H126211   1.302   0.347   3.665 -0.0040 -0.2631 -0.0549
 8749TIP3    H226212   1.407   0.456   3.655  0.2164 -0.4824 -0.1389
 8750TIP3   OH226213   3.844   4.305   0.680 -0.2937  0.7086  0.4217
 8750TIP3    H126214   3.904   4.371   0.646  1.4002 -1.6900 -1.6154
 8750TIP3    H226215   3.787   4.283   0.606  0.8284 -1.7820  0.1941
 8751TIP3   OH226216   3.643   2.208   4.127  0.3481  0.3272  0.2135
 8751TIP3    H126217   3.559   2.165   4.114  0.0898  0.2874  1.7820
 8751TIP3    H226218   3.702   2.137   4.154  0.2433  0.7059  1.5236
 8752TIP3   OH226219   4.759   1.639   2.789 -0.3795  0.4491  0.8053
 8752TIP3    H126220   4.786   1.549   2.771 -0.3633  0.8687 -1.7454
 8752TIP3    H226221   4.685   1.631   2.849  0.6132 -1.1440  1.8839
 8753TIP3   OH226222   3.960   6.077   0.032  0.6579  0.4744  0.2065
 8753TIP3    H126223   3.980   6.053  -0.059  0.5197  0.4685  0.1771
 8753TIP3    H226224   3.963   5.994   0.079 -1.8518  0.0320 -0.2585
 8754TIP3   OH226225   0.268   3.159   0.995  0.3896 -0.2778 -0.1994
 8754TIP3    H126226   0.288   3.109   1.074 -0.4017  0.7218  0.6615
 8754TIP3    H226227   0.190   3.209   1.017 -0.5053 -0.8097 -2.0076
 8755TIP3   OH226228   2.962   4.163   5.151  0.3904  0.0479 -0.8851
 8755TIP3    H126229   2.922   4.176   5.237  2.2418 -0.5171  0.1045
 8755TIP3    H226230   2.993   4.250   5.125 -0.1353  0.2117 -0.9790
 8756TIP3   OH226231   4.915   1.776   2.369 -0.0507  0.2677  0.3901
 8756TIP3    H126232   4.866   1.695   2.364 -1.0478  0.8549  0.4407
 8756TIP3    H226233   4.927   1.791   2.463  0.1829  0.1550  0.3794
 8757TIP3   OH226234   6.322   6.129   0.541  0.2504 -0.1639  0.4500
 8757TIP3    H126235   6.329   6.081   0.623  0.5435 -0.5711  0.1959
 8757TIP3    H226236   6.236   6.172   0.545  0.1008 -0.4889  0.8038
 8758TIP3   OH226237   5.083   4.352   3.166 -0.0519 -0.2606 -0.0624
 8758TIP3    H126238   5.012   4.312   3.116 -0.9613  0.8012  0.3439
 8758TIP3    H226239   5.160   4.339   3.111 -0.5934 -1.1786 -0.6476
 8759TIP3   OH226240   2.098   3.722   3.108  0.0368 -1.0559  0.0782
 8759TIP3    H126241   2.183   3.710   3.065 -0.1643  1.5150 -1.2066
 8759TIP3    H226242   2.120   3.731   3.201  1.3364  0.4056 -0.3220
 8760TIP3   OH226243   6.982   6.724   1.523  0.9223  0.2999  0.2510
 8760TIP3    H126244   6.999   6.631   1.542  1.4316  0.0532 -1.3095
 8760TIP3    H226245   6.932   6.755   1.599  0.0340 -1.4538  0.4241
 8761TIP3   OH226246   1.583   6.376   0.684 -0.1092 -0.3071 -0.1287
 8761TIP3    H126247   1.651   6.338   0.629  0.6175 -0.6322  0.9536
 8761TIP3    H226248   1.547   6.301   0.733 -1.1514 -0.1210 -0.5815
 8762TIP3   OH226249   0.877   4.819   4.279  0.1760 -0.5505 -0.1615
 8762TIP3    H126250   0.937   4.829   4.352 -2.1820  2.2228  1.6445
 8762TIP3    H226251   0.811   4.757   4.310 -1.5807  1.6384  0.8122
 8763TIP3   OH226252   3.177   5.535   2.194 -0.0981  0.1438  0.4595
 8763TIP3    H126253   3.103   5.539   2.255 -0.3785 -0.8151  0.1974
 8763TIP3    H226254   3.254   5.533   2.250 -0.1966  1.9506  0.7313
 8764TIP3   OH226255   5.726   3.418   3.998  0.1224 -0.0116  0.4337
 8764TIP3    H126256   5.744   3.512   4.007  0.4354 -0.1235  0.9893
 8764TIP3    H226257   5.722   3.385   4.088 -0.9963 -0.3470  0.2754
 8765TIP3   OH226258   5.037   6.025   3.319  0.1868  0.6910  0.1330
 8765TIP3    H126259   5.071   6.053   3.234 -0.9150 -1.5858 -1.1467
 8765TIP3    H226260   5.071   5.937   3.331 -1.5265  0.0907  0.9216
 8766TIP3   OH226261   2.049   1.458   1.736  0.9778 -0.2476  0.6273
 8766TIP3    H126262   2.070   1.503   1.654  0.2920  2.4345  1.7933
 8766TIP3    H226263   2.128   1.466   1.789  1.3108 -1.6883  0.3877
 8767TIP3   OH226264   2.980   3.326   3.701  0.3791 -0.7603  0.1986
 8767TIP3    H126265   3.012   3.272   3.773  0.2703  0.4569  1.2024
 8767TIP3    H226266   2.936   3.400   3.744  3.1278  1.7860 -0.9732
 8768TIP3   OH226267   6.294   4.201   2.032  0.0830 -0.0034  0.2153
 8768TIP3    H126268   6.323   4.251   2.109  0.2601  1.1047 -0.5465
 8768TIP3    H226269   6.240   4.263   1.983  2.6353  0.4468 -2.2520
 8769TIP3   OH226270   3.672   2.377   1.929 -0.2827 -0.1564  0.6440
 8769TIP3    H126271   3.624   2.425   1.996 -1.0351 -0.8862  0.6333
 8769TIP3    H226272   3.764   2.388   1.953 -0.5717 -1.3473  2.4617
 8770TIP3   OH226273   1.496   4.215   2.487  0.3369  0.1124  0.4061
 8770TIP3    H126274   1.496   4.177   2.575  0.9386  1.7178  1.1628
 8770TIP3    H226275   1.413   4.262   2.482  1.6170  2.7803  1.5085
 8771TIP3   OH226276   2.892   5.153   2.690  0.4329 -0.0483 -0.2352
 8771TIP3    H126277   2.982   5.134   2.716  1.0134 -0.2957 -2.2726
 8771TIP3    H226278   2.849   5.067   2.687  0.0729  0.0781  0.8291
 8772TIP3   OH226279   6.781   0.732   0.991  0.1522  0.3892  0.4443
 8772TIP3    H126280   6.807   0.648   0.952  1.2456  0.4108  1.0868
 8772TIP3    H226281   6.696   0.751   0.952  0.4895 -0.3660 -0.7179
 8773TIP3   OH226282   3.090   1.938   0.984 -0.1637  0.0931 -0.6926
 8773TIP3    H126283   3.030   2.012   0.994 -0.6854 -0.3654 -0.3238
 8773TIP3    H226284   3.032   1.862   0.973  0.2853 -0.5968  1.2523
 8774TIP3   OH226285   6.200   4.552   1.741 -0.7027  0.7139  0.4581
 8774TIP3    H126286   6.199   4.640   1.702  0.1053  0.4435 -0.1930
 8774TIP3    H226287   6.117   4.513   1.713  0.2958  0.1472 -1.9377
 8775TIP3   OH226288   3.025   1.127   3.418 -0.2959 -0.1388  0.1676
 8775TIP3    H126289   2.969   1.106   3.344  0.2525 -0.5404 -0.1398
 8775TIP3    H226290   3.114   1.119   3.384 -0.0500  0.5601  0.6307
 8776TIP3   OH226291   0.171   4.225   4.123  0.2008 -0.1317  0.1420
 8776TIP3    H126292   0.191   4.309   4.164  0.6351  0.5328 -1.3683
 8776TIP3    H226293   0.112   4.247   4.052 -0.2435 -1.2113  0.1564
 8777TIP3   OH226294   1.672   1.398   4.383  0.3169  0.2039  0.3189
 8777TIP3    H126295   1.581   1.368   4.389  0.3481  0.2971  1.3567
 8777TIP3    H226296   1.688   1.406   4.289 -0.7304  0.1348  0.1220
 8778TIP3   OH226297   4.531   6.099   4.155 -0.0029  0.3418 -0.1583
 8778TIP3    H126298   4.465   6.124   4.091 -2.2076  1.4626  2.3515
 8778TIP3    H226299   4.571   6.181   4.183  1.7628 -0.2310 -0.8649
 8779TIP3   OH226300   0.330   5.582   0.676  0.2388  0.5949 -0.5076
 8779TIP3    H126301   0.311   5.543   0.591  0.7084 -0.2170 -0.2541
 8779TIP3    H226302   0.296   5.671   0.670 -1.1107  0.0787 -1.0124
 8780TIP3   OH226303   3.012   0.947   0.164  0.0444  0.2140  0.6635
 8780TIP3    H126304   3.013   0.915   0.074  2.3957  1.7786  0.0455
 8780TIP3    H226305   2.928   0.993   0.172 -0.3305 -0.2093 -0.6319
 8781TIP3   OH226306   4.242   4.724   0.489  0.0767  0.9231 -0.3466
 8781TIP3    H126307   4.212   4.746   0.401  1.4846  0.5453 -0.9537
 8781TIP3    H226308   4.190   4.647   0.514 -0.4723  1.1571 -0.7551
 8782TIP3   OH226309   1.271   0.174   3.590 -0.8197 -0.0176  0.0498
 8782TIP3    H126310   1.326   0.096   3.602 -2.9354 -1.3522  1.7858
 8782TIP3    H226311   1.182   0.141   3.587 -1.6451  2.0141 -3.4025
 8783TIP3   OH226312   4.784   5.249   5.865 -0.0415 -0.5913 -0.3793
 8783TIP3    H126313   4.848   5.181   5.841  0.5846 -0.1688  0.0521
 8783TIP3    H226314   4.701   5.218   5.828  0.0968 -1.9028  0.3535
 8784TIP3   OH226315   6.719   1.003   0.283 -0.3177  0.5273  0.0660
 8784TIP3    H126316   6.806   0.963   0.286 -0.3465  0.4142 -0.5575
 8784TIP3    H226317   6.733   1.093   0.314  0.2945  0.9831 -1.4438
 8785TIP3   OH226318   0.172   6.011   2.782 -0.2876 -0.1559  0.0122
 8785TIP3    H126319   0.266   5.998   2.794 -0.1359  1.5705  1.0056
 8785TIP3    H226320   0.131   5.953   2.846  0.2667  1.9276  2.3811
 8786TIP3   OH226321   6.267   6.146   3.579  0.5566 -0.5100 -0.5042
 8786TIP3    H126322   6.324   6.181   3.647 -1.0609  0.6642  0.3273
 8786TIP3    H226323   6.213   6.081   3.625  0.6293 -0.9849 -1.0786
 8787TIP3   OH226324   0.646   4.875   3.853 -0.6706  0.6628  0.6836
 8787TIP3    H126325   0.558   4.855   3.820  0.4289 -2.7993 -0.6151
 8787TIP3    H226326   0.657   4.818   3.929  0.7176  0.3692  0.2897
 8788TIP3   OH226327   5.348   3.468   3.152 -0.1483 -1.2695 -0.1036
 8788TIP3    H126328   5.415   3.494   3.216  0.5093  1.0648 -1.6005
 8788TIP3    H226329   5.268   3.508   3.184  0.5197  1.4578 -1.4817
 8789TIP3   OH226330   6.006   3.814   2.978  0.6795 -0.3798  0.2438
 8789TIP3    H126331   6.032   3.886   3.035  0.1831 -0.6306  0.8011
 8789TIP3    H226332   5.925   3.844   2.937  1.5155  0.1802 -1.0714
 8790TIP3   OH226333   1.029   5.792   3.486  0.1507 -0.4512  0.2437
 8790TIP3    H126334   0.937   5.785   3.459  0.6708 -1.9539 -1.2528
 8790TIP3    H226335   1.029   5.864   3.549 -1.9657 -0.0611 -0.1157
 8791TIP3   OH226336   4.938   5.300   2.909 -0.4589 -0.1375 -0.3151
 8791TIP3    H126337   4.941   5.313   2.815  0.0386  0.9426 -0.1593
 8791TIP3    H226338   4.986   5.219   2.924  0.0855  0.0671 -0.9234
 8792TIP3   OH226339   3.885   2.646   5.421 -0.8123  0.1356 -0.9424
 8792TIP3    H126340   3.884   2.595   5.502 -0.3059  2.0425  0.3228
 8792TIP3    H226341   3.911   2.583   5.354  0.4691 -1.1180  0.6541
 8793TIP3   OH226342   6.559   6.291   0.947 -0.4998  0.4475 -0.3878
 8793TIP3    H126343   6.516   6.279   0.863 -0.1945 -0.0989 -0.4687
 8793TIP3    H226344   6.602   6.376   0.940  1.1100 -0.4185 -1.4900
 8794TIP3   OH226345   3.734   1.313   1.483  0.3427 -0.1519  0.2794
 8794TIP3    H126346   3.725   1.294   1.389 -1.7326 -1.7242  0.7438
 8794TIP3    H226347   3.668   1.259   1.525  1.4138  0.3232  2.7136
 8795TIP3   OH226348   1.196   1.605   4.830 -0.4105  0.5064  0.1206
 8795TIP3    H126349   1.201   1.512   4.811 -0.9734  0.2155  1.2902
 8795TIP3    H226350   1.133   1.612   4.902  2.7363  1.2600  3.0784
 8796TIP3   OH226351   2.679   6.064   1.846 -0.2555 -0.2610  0.0131
 8796TIP3    H126352   2.584   6.062   1.833 -0.6956  1.7127  2.1521
 8796TIP3    H226353   2.715   6.073   1.758 -2.2070  1.3936 -0.7128
 8797TIP3   OH226354   4.870   5.691   2.425 -0.2658 -0.0422 -0.0982
 8797TIP3    H126355   4.846   5.612   2.377  0.7718 -0.8133  0.5801
 8797TIP3    H226356   4.844   5.763   2.369  1.2146 -0.8988 -1.9891
 8798TIP3   OH226357   2.311   5.836   2.675  0.3619  0.3047 -0.1935
 8798TIP3    H126358   2.218   5.814   2.675  0.5203 -0.4337  0.5638
 8798TIP3    H226359   2.328   5.869   2.763  0.8279  0.3821 -0.3067
 8799TIP3   OH226360   3.552   4.026   0.679  0.3060 -0.4561  0.2795
 8799TIP3    H126361   3.498   3.999   0.605  1.4284 -1.1067 -0.3366
 8799TIP3    H226362   3.541   4.121   0.683  0.4180 -0.3827 -0.8839
 8800TIP3   OH226363   2.460   4.320   3.888  0.0339 -0.4516  0.1463
 8800TIP3    H126364   2.366   4.304   3.883  0.0950 -0.9419  0.4889
 8800TIP3    H226365   2.499   4.240   3.852  0.3088  0.2686 -1.2273
 8801TIP3   OH226366   1.255   4.668   4.520 -0.0575  0.7275 -0.5394
 8801TIP3    H126367   1.166   4.692   4.548 -0.2642  0.3804 -0.8920
 8801TIP3    H226368   1.278   4.594   4.575 -0.9755 -0.8099 -2.1166
 8802TIP3   OH226369   6.033   5.886   4.016 -0.9341 -0.4894  0.3746
 8802TIP3    H126370   5.981   5.837   4.080 -0.2979 -1.0912  0.4390
 8802TIP3    H226371   6.088   5.944   4.069  0.6028 -1.9677  0.4874
 8803TIP3   OH226372   5.702   2.015   0.089 -0.1510 -0.6794  0.4535
 8803TIP3    H126373   5.713   1.933   0.041 -0.8227 -1.7813  2.0790
 8803TIP3    H226374   5.729   1.994   0.178 -1.3399  0.5723  1.1456
 8804TIP3   OH226375   5.643   3.249   2.361 -0.1931 -0.9169  0.5842
 8804TIP3    H126376   5.551   3.226   2.359  0.3841 -3.5182 -0.6181
 8804TIP3    H226377   5.679   3.213   2.280  2.0368 -0.6879  1.3794
 8805TIP3   OH226378   1.507   1.407   2.683 -0.5790  0.1330 -0.4576
 8805TIP3    H126379   1.514   1.488   2.734 -0.4656  0.6592 -1.2886
 8805TIP3    H226380   1.413   1.388   2.681 -0.4907 -0.5503  0.9310
 8806TIP3   OH226381   1.947   4.224   5.844 -0.2876 -0.2328 -0.0017
 8806TIP3    H126382   2.015   4.289   5.834  0.9474 -1.5047 -0.1657
 8806TIP3    H226383   1.868   4.266   5.808  0.6237  0.8898 -0.7686
 8807TIP3   OH226384   4.489   0.658   0.814 -0.1339 -0.0969  0.0200
 8807TIP3    H126385   4.566   0.659   0.756 -0.1191  0.9762  0.0305
 8807TIP3    H226386   4.521   0.699   0.895 -0.9469  1.2239 -0.3034
 8808TIP3   OH226387   4.013   6.288   0.572  0.6829 -0.2792 -0.3259
 8808TIP3    H126388   4.096   6.296   0.524  1.4004 -2.2232  0.4996
 8808TIP3    H226389   4.038   6.271   0.662 -0.6599  1.1713  0.3757
 8809TIP3   OH226390   3.734   1.119   0.724  0.3544  0.0414  0.7593
 8809TIP3    H126391   3.797   1.050   0.745 -0.2082 -0.6458  0.2562
 8809TIP3    H226392   3.688   1.086   0.646 -0.3197  0.7187  0.8605
 8810TIP3   OH226393   0.573   5.821   2.635  0.4425  0.5416  0.3167
 8810TIP3    H126394   0.569   5.915   2.653 -0.2290  0.5268  0.2545
 8810TIP3    H226395   0.632   5.814   2.560 -0.6473  1.0530 -0.6121
 8811TIP3   OH226396   2.104   5.662   4.062 -0.0513 -1.0118  0.0709
 8811TIP3    H126397   2.149   5.645   3.980 -0.8959  0.0753 -0.6535
 8811TIP3    H226398   2.148   5.606   4.126  3.7491  1.4513 -0.0638
 8812TIP3   OH226399   0.841   2.495   2.019 -0.2697 -0.0953 -0.1114
 8812TIP3    H126400   0.864   2.511   2.111  0.5586 -1.1739 -0.1087
 8812TIP3    H226401   0.791   2.572   1.993  2.0203  1.6625  0.3731
 8813TIP3   OH226402   6.098   3.454   0.762 -0.5044  0.2581 -0.3903
 8813TIP3    H126403   6.068   3.544   0.775 -0.4032  0.1957  0.3321
 8813TIP3    H226404   6.043   3.420   0.691 -0.5474  0.8816 -0.6614
 8814TIP3   OH226405   0.133   6.760   2.394  0.3303 -0.0463  0.0680
 8814TIP3    H126406   0.220   6.777   2.359 -0.1524 -2.5969 -2.7998
 8814TIP3    H226407   0.085   6.842   2.379  1.5072  0.5216 -0.7619
 8815TIP3   OH226408   7.093   0.672   3.020 -0.1697  0.1149 -0.3046
 8815TIP3    H126409   7.141   0.630   2.949 -0.7000  0.3551 -0.8177
 8815TIP3    H226410   7.150   0.664   3.096 -0.5309 -2.0910 -0.2118
 8816TIP3   OH226411   4.575   6.560   1.996 -0.5466 -0.3251  0.2410
 8816TIP3    H126412   4.661   6.593   1.970 -0.4634 -0.7619 -0.0626
 8816TIP3    H226413   4.515   6.591   1.929 -0.5160 -0.5467  0.1093
 8817TIP3   OH226414   7.166   0.102   5.080 -0.0456  0.3801 -0.0866
 8817TIP3    H126415   7.071   0.106   5.086 -0.0786 -1.0169  0.6751
 8817TIP3    H226416   7.184   0.057   4.998 -0.0938 -0.8504  0.5621
 8818TIP3   OH226417   0.784   2.688   0.615  0.2617 -0.5822 -0.5359
 8818TIP3    H126418   0.837   2.645   0.549  1.6763 -1.0694  0.8656
 8818TIP3    H226419   0.786   2.629   0.690  0.7503  1.0497  0.8003
 8819TIP3   OH226420   4.210   6.215   0.063 -0.9667 -0.1563  0.1427
 8819TIP3    H126421   4.174   6.271   0.131 -0.2471 -0.3486  0.6889
 8819TIP3    H226422   4.150   6.140   0.060 -1.6062  0.3602 -0.1964
 8820TIP3   OH226423   5.803   0.194   0.220 -0.2977 -0.1824 -0.3399
 8820TIP3    H126424   5.895   0.188   0.192 -0.9239 -0.1562 -2.6767
 8820TIP3    H226425   5.768   0.106   0.206 -0.6837 -0.1493  0.3875
 8821TIP3   OH226426   3.257   2.838   2.960 -0.8245  0.5349 -0.3111
 8821TIP3    H126427   3.170   2.828   2.923 -0.2102  0.7306 -1.8632
 8821TIP3    H226428   3.295   2.912   2.913  0.2668  0.3053  0.1826
 8822TIP3   OH226429   1.658   6.269   4.790  0.8267  0.2929  0.1517
 8822TIP3    H126430   1.597   6.213   4.837  0.4193  1.7927  1.4735
 8822TIP3    H226431   1.731   6.211   4.767  0.1986 -0.8810  1.0409
 8823TIP3   OH226432   6.799   0.898   2.361 -0.3598  0.8791  0.2380
 8823TIP3    H126433   6.800   0.911   2.266 -0.7002 -1.0077 -0.0515
 8823TIP3    H226434   6.741   0.967   2.394 -0.8566  1.0733 -0.9937
 8824TIP3   OH226435   0.279   0.459   2.557 -0.4623  0.7825 -0.1403
 8824TIP3    H126436   0.313   0.377   2.593 -0.6753  0.8856  0.3093
 8824TIP3    H226437   0.356   0.513   2.542 -0.3856  0.8482  0.4504
 8825TIP3   OH226438   0.050   2.346   2.339 -0.1770  0.3709 -0.0314
 8825TIP3    H126439   0.008   2.293   2.270 -2.2498  0.9065  0.7246
 8825TIP3    H226440   0.125   2.294   2.367 -1.1644 -1.3824 -0.4908
 8826TIP3   OH226441   1.451   6.001   4.411 -0.8020 -0.5888  0.3207
 8826TIP3    H126442   1.493   6.060   4.348  1.7238 -2.2936  0.2817
 8826TIP3    H226443   1.450   6.050   4.493  1.8630 -0.6444  0.4511
 8827TIP3   OH226444   3.284   3.189   0.703  0.2365  0.1529 -0.1083
 8827TIP3    H126445   3.192   3.165   0.715 -0.0569  2.1169  2.5392
 8827TIP3    H226446   3.283   3.266   0.648  0.3748 -0.2244 -0.6466
 8828TIP3   OH226447   0.161   1.775   4.501  0.1620  0.3803  0.9413
 8828TIP3    H126448   0.071   1.784   4.531 -0.0515  0.9208  0.1821
 8828TIP3    H226449   0.212   1.826   4.565 -0.4075  2.4436 -0.1434
 8829TIP3   OH226450   6.018   2.817   4.844  0.2434  0.1858 -0.6950
 8829TIP3    H126451   6.097   2.866   4.864 -1.0636  1.9383  0.5201
 8829TIP3    H226452   5.947   2.872   4.877 -1.3937 -2.0391 -0.2490
 8830TIP3   OH226453   2.186   5.484   5.664 -0.1128 -0.1370  0.3978
 8830TIP3    H126454   2.112   5.504   5.607 -1.1757  0.6299  1.9648
 8830TIP3    H226455   2.153   5.415   5.723  0.3890  0.2377  1.1349
 8831TIP3   OH226456   3.225   5.242   0.349  0.3437  1.0438  0.1902
 8831TIP3    H126457   3.187   5.238   0.437 -0.9508  0.7556 -0.3541
 8831TIP3    H226458   3.302   5.298   0.359 -0.0122  1.3593  1.4260
 8832TIP3   OH226459   5.024   2.473   0.520  0.4532  0.5803 -0.3287
 8832TIP3    H126460   5.106   2.519   0.503  0.2600  0.3607 -1.9962
 8832TIP3    H226461   4.960   2.513   0.462  0.1912 -1.4499 -1.5692
 8833TIP3   OH226462   4.581   4.569   1.319 -0.2258 -0.0451  0.1750
 8833TIP3    H126463   4.523   4.572   1.395  2.7034 -1.4981  2.7063
 8833TIP3    H226464   4.559   4.487   1.275  0.4778 -1.1248  1.7283
 8834TIP3   OH226465   3.486   1.517   3.478 -0.2192 -0.2851 -0.0336
 8834TIP3    H126466   3.570   1.476   3.458  0.1378 -0.0255  0.8873
 8834TIP3    H226467   3.464   1.487   3.566 -0.9439 -0.1059 -0.1417
 8835TIP3   OH226468   1.248   2.461   4.210 -0.1472 -0.5125 -0.3068
 8835TIP3    H126469   1.328   2.511   4.231 -1.4983  1.2004  1.1022
 8835TIP3    H226470   1.261   2.376   4.252 -0.2007  0.7544  2.4846
 8836TIP3   OH226471   4.497   2.595   4.028  0.3197  0.4245  0.1687
 8836TIP3    H126472   4.419   2.589   3.972  0.2844 -0.6748  0.3089
 8836TIP3    H226473   4.565   2.550   3.979  0.3234 -0.4403  0.9266
 8837TIP3   OH226474   3.087   6.814   4.334  0.5005 -0.0599  0.2383
 8837TIP3    H126475   3.093   6.829   4.240 -1.0564  0.2180  0.1549
 8837TIP3    H226476   3.105   6.720   4.345  1.0360 -0.0239 -0.2836
 8838TIP3   OH226477   5.852   0.575   2.983  0.0893  0.6461 -0.2073
 8838TIP3    H126478   5.876   0.667   2.993  1.7775  0.3140 -0.8691
 8838TIP3    H226479   5.849   0.561   2.889 -1.3844  0.2805 -0.1380
 8839TIP3   OH226480   0.051   5.886   2.998  0.0377 -0.3716 -0.0342
 8839TIP3    H126481  -0.043   5.883   3.015  0.4467  0.2799  3.0804
 8839TIP3    H226482   0.091   5.867   3.083  2.7274  0.1357 -1.0775
 8840TIP3   OH226483   5.154   2.869   0.705  0.7851  0.1837  0.1965
 8840TIP3    H126484   5.241   2.893   0.737  0.3593  3.4869 -0.7642
 8840TIP3    H226485   5.093   2.917   0.762 -0.4458 -1.8351  0.6701
 8841TIP3   OH226486   7.159   2.692   3.650  0.3640  0.3676  0.0318
 8841TIP3    H126487   7.200   2.666   3.567  0.0182  2.2917 -0.8015
 8841TIP3    H226488   7.232   2.709   3.709  0.6395 -0.2312 -0.1364
 8842TIP3   OH226489   6.867   6.696   2.576  0.1544 -0.3611  0.2211
 8842TIP3    H126490   6.870   6.738   2.491 -0.8020  1.1024  0.8665
 8842TIP3    H226491   6.786   6.645   2.575 -0.0694 -0.0175  0.3760
 8843TIP3   OH226492   1.022   0.540   1.300  0.4896  0.0298 -0.7057
 8843TIP3    H126493   1.060   0.607   1.356 -1.9311 -0.2477  1.4546
 8843TIP3    H226494   1.062   0.458   1.330 -0.5595 -0.0778  0.4763
 8844TIP3   OH226495   0.023   3.224   0.608  0.2136 -0.1096 -0.3617
 8844TIP3    H126496   0.076   3.297   0.640 -0.0086 -0.1114  0.0122
 8844TIP3    H226497  -0.010   3.182   0.687  1.7265 -1.6650 -0.4881
 8845TIP3   OH226498   0.286   3.217   0.032 -0.0981 -0.1731  0.5422
 8845TIP3    H126499   0.299   3.289   0.093 -0.8777 -0.5661  1.1929
 8845TIP3    H226500   0.242   3.150   0.083 -0.5316 -0.6184 -0.3869
 8846TIP3   OH226501   1.022   3.521   4.871  0.6598 -0.6647 -0.8563
 8846TIP3    H126502   0.953   3.564   4.821  1.1306  0.5106 -0.5192
 8846TIP3    H226503   0.998   3.428   4.870 -2.5932 -0.0409  1.7923
 8847TIP3   OH226504   4.176   0.457   5.296 -0.4385  0.4543  0.1489
 8847TIP3    H126505   4.221   0.511   5.230 -0.7544  1.7101  0.9173
 8847TIP3    H226506   4.091   0.439   5.257 -0.6813  1.3176  0.2453
 8848TIP3   OH226507   6.050   0.931   4.860 -0.2366 -0.0308 -0.2345
 8848TIP3    H126508   6.024   0.850   4.903  0.3232 -0.3679 -0.5209
 8848TIP3    H226509   6.111   0.972   4.922 -1.1966  0.6210  0.3107
 8849TIP3   OH226510   7.084   1.843   4.199  0.1900 -0.1045  0.2506
 8849TIP3    H126511   7.013   1.901   4.226  0.1469  0.6327 -1.3541
 8849TIP3    H226512   7.039   1.763   4.171  0.1205 -0.2417  0.7412
 8850TIP3   OH226513   2.891   6.545   5.713  0.0544 -0.1577  0.1438
 8850TIP3    H126514   2.822   6.551   5.779  1.3450  0.0626  1.5268
 8850TIP3    H226515   2.894   6.632   5.673 -0.8572 -0.3451 -0.3479
 8851TIP3   OH226516   0.190   0.360   4.501  0.0036  0.2374 -0.5250
 8851TIP3    H126517   0.155   0.272   4.488 -2.4148  1.0788 -0.1957
 8851TIP3    H226518   0.272   0.360   4.452  0.0688 -2.1687 -0.5552
 8852TIP3   OH226519   1.997   4.850   3.855  0.4690 -0.3907 -0.0755
 8852TIP3    H126520   2.040   4.899   3.925  0.4105 -0.1223 -0.2276
 8852TIP3    H226521   1.914   4.897   3.840 -0.3974 -1.5171  0.9608
 8853TIP3   OH226522   2.935   2.104   2.537  0.3517  0.0356 -0.4120
 8853TIP3    H126523   2.983   2.031   2.577 -1.3750 -1.2855 -0.6675
 8853TIP3    H226524   2.846   2.071   2.525 -1.0359  2.8145  1.2092
 8854TIP3   OH226525   5.199   1.127   3.697 -0.7726  1.1209  0.2574
 8854TIP3    H126526   5.135   1.162   3.635  0.3713  2.1838 -0.3693
 8854TIP3    H226527   5.157   1.136   3.783 -1.5342  1.6249 -0.1550
 8855TIP3   OH226528   3.642   4.594   3.594 -0.0426 -0.1697 -0.0506
 8855TIP3    H126529   3.574   4.660   3.585  0.4989  0.4112  0.0181
 8855TIP3    H226530   3.620   4.547   3.675 -0.1923  0.2132  0.1327
 8856TIP3   OH226531   6.569   3.557   2.325 -0.4131 -0.3977 -0.3433
 8856TIP3    H126532   6.608   3.471   2.310 -1.0339 -0.6892 -0.3409
 8856TIP3    H226533   6.611   3.588   2.405  0.8968 -0.0353 -1.1537
 8857TIP3   OH226534   4.136   1.051   5.342  0.1424 -0.1030 -0.4091
 8857TIP3    H126535   4.196   1.079   5.273  0.2088 -0.0304 -0.3222
 8857TIP3    H226536   4.155   1.110   5.416  0.1836 -0.2850 -0.2741
 8858TIP3   OH226537   5.331   0.183   3.901  0.0484 -0.1907 -0.1156
 8858TIP3    H126538   5.403   0.206   3.960  1.9316 -2.1636 -1.4696
 8858TIP3    H226539   5.328   0.256   3.838  0.1029  0.4386  0.5980
 8859TIP3   OH226540   0.154   1.513   2.793  0.5921  0.4816 -0.6413
 8859TIP3    H126541   0.123   1.576   2.857  0.5633 -0.9705  0.8517
 8859TIP3    H226542   0.247   1.533   2.782 -0.0838  2.8844 -2.7942
 8860TIP3   OH226543   4.162   1.449   4.455 -0.5192 -0.0750 -0.1592
 8860TIP3    H126544   4.082   1.500   4.444 -1.4343 -0.8316  2.2873
 8860TIP3    H226545   4.205   1.488   4.531  0.7447 -0.5449 -0.6077
 8861TIP3   OH226546   4.871   4.588   2.009 -0.1031 -0.2269  0.4085
 8861TIP3    H126547   4.781   4.611   1.985 -1.2505 -2.1848  2.4022
 8861TIP3    H226548   4.879   4.496   1.984  1.0528 -0.3092  1.0325
 8862TIP3   OH226549   5.724   6.253   2.984 -0.0436 -0.0961 -0.1038
 8862TIP3    H126550   5.788   6.298   2.930 -0.5382  2.1018  1.0250
 8862TIP3    H226551   5.776   6.207   3.051  0.5056 -1.9402 -1.7146
 8863TIP3   OH226552   2.162   0.540   4.141 -0.0587 -0.2200 -0.3173
 8863TIP3    H126553   2.135   0.451   4.117  1.8928 -0.4273 -2.0488
 8863TIP3    H226554   2.136   0.594   4.066  2.0111 -0.0324 -0.9719
 8864TIP3   OH226555   5.394   3.905   5.435  0.4337  0.7221  0.3480
 8864TIP3    H126556   5.326   3.871   5.493 -0.4867  1.4046 -0.2936
 8864TIP3    H226557   5.452   3.955   5.492  0.2688  0.3182  0.8740
 8865TIP3   OH226558   4.127   6.251   3.085  0.3414 -0.0343 -0.0036
 8865TIP3    H126559   4.218   6.280   3.087  0.7226 -1.1357  2.6408
 8865TIP3    H226560   4.132   6.156   3.095 -1.0745 -0.4775 -2.6124
 8866TIP3   OH226561   6.059   5.540   0.595 -0.6309 -0.8414 -0.2923
 8866TIP3    H126562   6.062   5.542   0.499  0.4477  1.7918 -0.2869
 8866TIP3    H226563   6.147   5.513   0.621 -0.1404  0.8769 -0.0790
 8867TIP3   OH226564   2.508   6.468   4.854  0.5030  0.6345  0.0700
 8867TIP3    H126565   2.555   6.552   4.856  2.5428 -0.4125 -0.6031
 8867TIP3    H226566   2.552   6.418   4.785  0.0043 -1.3596  1.1226
 8868TIP3   OH226567   5.261   6.409   3.065 -0.0056  0.0663 -0.3642
 8868TIP3    H126568   5.263   6.445   3.153  1.0928 -1.6919  0.3803
 8868TIP3    H226569   5.222   6.323   3.075  0.4148 -0.2795 -1.5440
 8869TIP3   OH226570   1.567   2.396   4.100  0.0955  0.1328 -0.2277
 8869TIP3    H126571   1.589   2.443   4.180  0.3978  0.2330 -0.3707
 8869TIP3    H226572   1.596   2.306   4.116 -0.5239 -0.0223  0.0629
 8870TIP3   OH226573   5.429   3.169   5.682  0.5550  0.0625 -0.0151
 8870TIP3    H126574   5.483   3.238   5.644 -0.0953  0.5221 -0.1285
 8870TIP3    H226575   5.352   3.216   5.716  0.1767 -0.5929  0.0388
 8871TIP3   OH226576   4.001   1.315   2.209 -0.0821 -0.3090 -0.1391
 8871TIP3    H126577   4.063   1.273   2.150  1.9569  0.9224  0.9757
 8871TIP3    H226578   3.999   1.258   2.286  0.4994  0.1676  0.2391
 8872TIP3   OH226579   0.003   3.369   5.055 -0.0066 -0.7138 -0.0399
 8872TIP3    H126580   0.049   3.378   4.972 -0.5905  0.3722 -0.2605
 8872TIP3    H226581  -0.014   3.459   5.083  0.8933 -1.0323  1.6691
 8873TIP3   OH226582   7.177   5.285   5.577 -0.1881  0.0684  0.7335
 8873TIP3    H126583   7.103   5.225   5.583 -2.0671  2.2121  0.4302
 8873TIP3    H226584   7.165   5.331   5.494  2.4522 -0.6582 -0.1226
 8874TIP3   OH226585   0.975   2.521   5.332 -0.3372 -0.6681  0.2180
 8874TIP3    H126586   1.026   2.443   5.311  0.0879 -0.3834  0.1911
 8874TIP3    H226587   1.034   2.594   5.315 -0.2452 -0.3871  1.5816
 8875TIP3   OH226588   3.246   4.564   0.885 -0.5112  0.3985  0.3793
 8875TIP3    H126589   3.174   4.621   0.858 -1.0228 -0.9067 -1.1652
 8875TIP3    H226590   3.320   4.591   0.830  0.1952  1.6677  1.8905
 8876TIP3   OH226591   7.134   3.582   4.703  0.0632 -0.1321  0.0315
 8876TIP3    H126592   7.072   3.654   4.718  0.2932 -0.0675  0.7000
 8876TIP3    H226593   7.106   3.544   4.620  0.1537  0.9481 -0.5222
 8877TIP3   OH226594   0.901   3.734   5.858  1.0081 -0.2057  0.2074
 8877TIP3    H126595   0.886   3.682   5.779  0.3712  1.5073 -0.8650
 8877TIP3    H226596   0.893   3.672   5.930  1.2287 -1.7530 -1.0387
 8878TIP3   OH226597   5.549   3.889   3.518  0.2117  0.6109  0.0194
 8878TIP3    H126598   5.537   3.965   3.461 -0.9118 -0.6689 -1.5151
 8878TIP3    H226599   5.505   3.913   3.600  2.5748  2.8135  0.7893
 8879TIP3   OH226600   1.677   4.450   5.378  0.2746  0.3724 -0.6329
 8879TIP3    H126601   1.688   4.364   5.337  0.3309  1.2066 -2.4677
 8879TIP3    H226602   1.710   4.512   5.313  0.4551  1.7839  0.7470
 8880TIP3   OH226603   3.175   4.149   5.629 -0.5027  0.3015 -0.1936
 8880TIP3    H126604   3.100   4.182   5.679 -0.4283  0.3309 -0.1012
 8880TIP3    H226605   3.136   4.111   5.551 -0.5231  1.6593 -0.8829
 8881TIP3   OH226606   6.116   4.104   3.074 -0.2003  0.8162 -0.0221
 8881TIP3    H126607   6.204   4.070   3.060 -1.0727 -1.2063 -0.8483
 8881TIP3    H226608   6.090   4.072   3.160 -0.0591  1.6394  0.3431
 8882TIP3   OH226609   4.385   0.092   0.261 -0.0848 -0.4488  0.0220
 8882TIP3    H126610   4.441   0.034   0.209  0.4359 -0.3363  0.4447
 8882TIP3    H226611   4.300   0.088   0.218  0.6262  0.6384 -1.6044
 8883TIP3   OH226612   5.678   0.803   4.525  0.0759 -0.3767  0.1494
 8883TIP3    H126613   5.675   0.734   4.458 -1.0989  0.1096 -0.3215
 8883TIP3    H226614   5.771   0.824   4.533  0.2320 -0.2474 -1.5457
 8884TIP3   OH226615   4.825   2.374   4.063 -0.5100  0.2999 -0.8443
 8884TIP3    H126616   4.870   2.440   4.115 -1.6191  0.0869  0.4194
 8884TIP3    H226617   4.858   2.290   4.095  0.5332  0.1910 -2.1147
 8885TIP3   OH226618   6.232   1.478   3.046 -0.2873 -0.2621 -0.3195
 8885TIP3    H126619   6.189   1.563   3.060 -0.9470 -0.4959 -0.8730
 8885TIP3    H226620   6.300   1.475   3.113  0.4836  1.1870 -0.9900
 8886TIP3   OH226621   5.471   2.775   1.740 -0.5030 -0.0537 -0.4504
 8886TIP3    H126622   5.413   2.703   1.766 -0.8732 -0.0449 -1.2431
 8886TIP3    H226623   5.443   2.848   1.796 -2.4729  0.4712 -2.0106
 8887TIP3   OH226624   1.569   1.420   4.983 -0.0334  0.0214  0.0874
 8887TIP3    H126625   1.565   1.504   4.939 -0.9868 -0.8979 -1.6640
 8887TIP3    H226626   1.630   1.368   4.930  0.4597 -0.4554  1.0806
 8888TIP3   OH226627   5.075   3.983   4.396 -0.0944 -0.1751 -0.3747
 8888TIP3    H126628   5.016   3.959   4.324  1.0275 -1.3351 -0.9658
 8888TIP3    H226629   5.095   3.900   4.439  2.5144 -0.1718 -1.3560
 8889TIP3   OH226630   0.806   2.048   5.803 -0.5141  0.2886  0.1882
 8889TIP3    H126631   0.871   1.984   5.833 -1.0052 -0.0378  0.5685
 8889TIP3    H226632   0.755   2.001   5.737  0.4567  0.9490 -1.0880
 8890TIP3   OH226633   4.586   1.303   5.042 -0.5185 -0.1764 -0.5900
 8890TIP3    H126634   4.678   1.324   5.053 -0.5216  1.6167 -3.1228
 8890TIP3    H226635   4.579   1.210   5.065  1.8758 -0.3017 -0.1999
 8891TIP3   OH226636   1.299   4.083   4.155  0.1427  0.4234  0.1760
 8891TIP3    H126637   1.282   4.128   4.238 -1.4411  2.9664 -1.3994
 8891TIP3    H226638   1.212   4.056   4.125  0.6915 -0.4446 -0.7000
 8892TIP3   OH226639   0.609   3.959   0.928 -0.6343  0.6306  0.0490
 8892TIP3    H126640   0.578   4.005   0.850 -0.2759 -0.9010 -1.0437
 8892TIP3    H226641   0.542   3.976   0.994 -0.8550  2.1134 -0.5105
 8893TIP3   OH226642   2.470   2.074   1.648 -0.3123  0.2634  0.6049
 8893TIP3    H126643   2.521   2.129   1.588  0.7083 -0.2496  0.9879
 8893TIP3    H226644   2.494   2.105   1.735 -1.9201  1.1217  0.7840
 8894TIP3   OH226645   0.946   0.643   2.410  0.0043 -0.5902  0.6752
 8894TIP3    H126646   1.030   0.621   2.450  0.2549 -1.7463 -0.4150
 8894TIP3    H226647   0.891   0.670   2.483  0.6240 -2.0906  1.7554
 8895TIP3   OH226648   6.125   2.764   4.609 -0.0587  0.4962 -0.2155
 8895TIP3    H126649   6.061   2.771   4.679 -0.7486  1.4380 -0.9252
 8895TIP3    H226650   6.210   2.768   4.654 -0.4640 -1.0870  0.7549
 8896TIP3   OH226651   2.529   4.303   4.657  0.1146 -0.3728 -0.9213
 8896TIP3    H126652   2.603   4.253   4.691  0.3480  0.5600 -0.0152
 8896TIP3    H226653   2.536   4.295   4.562  0.6033 -1.3880 -0.8152
 8897TIP3   OH226654   5.809   6.541   5.263  0.4810  0.2669  0.6597
 8897TIP3    H126655   5.725   6.571   5.228 -0.7650 -2.8190  0.6760
 8897TIP3    H226656   5.821   6.591   5.344 -0.3587  2.0821 -0.2650
 8898TIP3   OH226657   3.706   1.789   0.340 -0.2072  0.0706  0.2694
 8898TIP3    H126658   3.637   1.741   0.295 -0.7806  1.0830  0.0333
 8898TIP3    H226659   3.787   1.753   0.306 -0.4949 -2.8339  2.2584
 8899TIP3   OH226660   2.608   2.972   1.746  0.4644 -0.3912  0.2626
 8899TIP3    H126661   2.651   2.937   1.825  3.3191 -0.6315 -1.2670
 8899TIP3    H226662   2.614   2.900   1.682 -0.7801  0.1908 -0.5354
 8900TIP3   OH226663   2.311   1.008   0.298  0.6256  0.2346 -0.7634
 8900TIP3    H126664   2.292   1.101   0.291  1.0685  0.3955  0.1091
 8900TIP3    H226665   2.264   0.979   0.376  0.5830 -0.2606 -0.9615
 8901TIP3   OH226666   5.578   5.095   0.803  0.6547 -0.4534  0.3604
 8901TIP3    H126667   5.593   5.189   0.810  0.9860 -0.5006  0.2983
 8901TIP3    H226668   5.486   5.084   0.829  0.5357 -0.0846  0.1155
 8902TIP3   OH226669   4.172   5.828   0.000  0.0690  0.1670 -0.1734
 8902TIP3    H126670   4.227   5.756   0.031 -0.8114  0.3100  1.9416
 8902TIP3    H226671   4.093   5.821   0.053 -1.0697  1.2241 -1.6733
 8903TIP3   OH226672   5.509   3.600   2.811  0.0972  0.1355  0.0018
 8903TIP3    H126673   5.558   3.524   2.782 -1.1377 -1.0913  0.9956
 8903TIP3    H226674   5.530   3.608   2.904 -0.4688  0.4521  0.1104
 8904TIP3   OH226675   1.311   4.514   2.734  0.4418 -0.1630  0.1971
 8904TIP3    H126676   1.288   4.459   2.659  1.8786 -1.6474  0.7853
 8904TIP3    H226677   1.363   4.457   2.791  1.4282  1.6148  1.1739
 8905TIP3   OH226678   6.470   3.927   1.039  0.4232 -0.5712 -0.1835
 8905TIP3    H126679   6.428   4.012   1.030  1.0870 -0.0424  1.2956
 8905TIP3    H226680   6.543   3.930   0.977 -0.5705 -0.7746 -1.4031
 8906TIP3   OH226681   3.574   6.111   5.226  0.5945  0.3854 -0.1928
 8906TIP3    H126682   3.584   6.021   5.196  0.1384 -0.0706  0.9708
 8906TIP3    H226683   3.539   6.158   5.150 -1.5947 -0.9666 -0.0791
 8907TIP3   OH226684   6.908   5.196   5.085  0.1474  0.0741  0.0824
 8907TIP3    H126685   6.840   5.199   5.153  0.0951 -1.1651  0.0919
 8907TIP3    H226686   6.889   5.272   5.030 -1.9658 -0.8442 -0.5788
 8908TIP3   OH226687   6.459   5.030   4.275 -0.3798 -0.1211  0.3465
 8908TIP3    H126688   6.469   5.115   4.318  1.0672 -0.6066  1.0204
 8908TIP3    H226689   6.436   4.970   4.346 -0.0564 -0.5464  0.0916
 8909TIP3   OH226690   1.891   1.003   3.962  0.3208  0.3471 -0.6347
 8909TIP3    H126691   1.914   1.055   3.884 -0.8701  2.0098  0.0619
 8909TIP3    H226692   1.933   1.050   4.034  0.9480 -0.8641 -0.1993
 8910TIP3   OH226693   2.353   4.673   1.351 -0.0332 -0.2209  0.2441
 8910TIP3    H126694   2.348   4.608   1.422 -0.5237  0.4276  0.8136
 8910TIP3    H226695   2.429   4.726   1.373 -0.1955 -0.0090  0.2955
 8911TIP3   OH226696   1.236   2.146   5.857  0.5601 -0.5386 -0.3740
 8911TIP3    H126697   1.185   2.227   5.861  1.0168 -0.2691  0.0917
 8911TIP3    H226698   1.174   2.080   5.824 -0.4721 -0.5147  1.4259
 8912TIP3   OH226699   0.872   2.195   2.066  0.3251 -0.0811 -0.2657
 8912TIP3    H126700   0.814   2.119   2.065  1.4595 -1.0255  1.1595
 8912TIP3    H226701   0.888   2.212   2.159  2.0502  0.3287 -0.5992
 8913TIP3   OH226702   1.692   6.296   2.131 -0.0619 -0.0292 -0.9823
 8913TIP3    H126703   1.738   6.293   2.214  0.5703 -0.3691 -1.3430
 8913TIP3    H226704   1.715   6.381   2.094  1.3820 -0.7383 -1.7784
 8914TIP3   OH226705   2.369   0.825   1.172  0.2727  0.0589 -0.6295
 8914TIP3    H126706   2.307   0.881   1.220 -0.0686  0.3300 -1.3669
 8914TIP3    H226707   2.322   0.743   1.159  0.6713 -0.3193  0.2066
 8915TIP3   OH226708   2.394   3.324   1.306  0.5400  0.3934 -0.0421
 8915TIP3    H126709   2.453   3.269   1.359  0.3466  0.1889 -0.0369
 8915TIP3    H226710   2.423   3.310   1.216  0.1488 -0.1397 -0.0902
 8916TIP3   OH226711   5.425   1.110   3.096  0.2021 -0.0553  0.9951
 8916TIP3    H126712   5.447   1.159   3.175 -0.9276 -0.1084  1.3608
 8916TIP3    H226713   5.345   1.151   3.064  1.2197  0.6937 -0.7686
 8917TIP3   OH226714   5.468   4.369   5.173  0.3473 -0.1985 -0.0674
 8917TIP3    H126715   5.445   4.322   5.254 -1.0266  0.3273 -0.1267
 8917TIP3    H226716   5.543   4.423   5.198 -0.9408  1.0827  1.3275
 8918TIP3   OH226717   6.586   2.315   4.324  0.1046 -0.3678 -0.6227
 8918TIP3    H126718   6.567   2.380   4.392  0.0305 -0.2004 -0.8052
 8918TIP3    H226719   6.555   2.232   4.361 -2.2533  0.0675 -1.4527
 8919TIP3   OH226720   4.425   2.788   2.207  0.2111  0.5911  0.1512
 8919TIP3    H126721   4.412   2.850   2.136  0.5549  0.0516 -0.3987
 8919TIP3    H226722   4.340   2.782   2.250  0.1342  1.3034  0.1055
 8920TIP3   OH226723   1.499   5.672   1.768 -0.4197  0.0350  0.4949
 8920TIP3    H126724   1.535   5.698   1.853 -1.0112  0.6602  0.5696
 8920TIP3    H226725   1.495   5.577   1.771 -0.5642  0.0581  1.2349
 8921TIP3   OH226726   3.258   6.464   1.407 -0.4910  0.5822 -0.3964
 8921TIP3    H126727   3.195   6.535   1.417  0.6826  1.4331  1.6766
 8921TIP3    H226728   3.218   6.390   1.451 -0.1607  1.0647  0.7455
 8922TIP3   OH226729   4.087   4.802   1.919  0.1565  0.3821 -0.2362
 8922TIP3    H126730   4.010   4.847   1.884 -1.2894 -2.4131 -0.9703
 8922TIP3    H226731   4.160   4.839   1.870 -0.9877  1.5666 -1.1336
 8923TIP3   OH226732   0.362   6.365   0.517  0.4594 -0.2264  0.3214
 8923TIP3    H126733   0.422   6.307   0.469  1.1820  1.6486 -1.1286
 8923TIP3    H226734   0.336   6.431   0.454  0.3616  1.5691  2.1444
 8924TIP3   OH226735   1.996   1.814   2.052  0.3227  0.0238  0.7168
 8924TIP3    H126736   1.958   1.902   2.048 -0.8848 -0.5303 -1.3808
 8924TIP3    H226737   2.075   1.820   1.999  0.2608 -0.1445  0.6069
 8925TIP3   OH226738   5.141   6.579   2.682  0.3049 -0.1484 -0.7308
 8925TIP3    H126739   5.211   6.621   2.732 -0.7715  1.4970 -0.5405
 8925TIP3    H226740   5.072   6.561   2.746 -0.1494 -0.1452 -1.2120
 8926TIP3   OH226741   6.443   5.762   5.114  0.0619  0.5522 -0.1974
 8926TIP3    H126742   6.348   5.753   5.120 -0.0529  1.1127 -1.0432
 8926TIP3    H226743   6.457   5.841   5.062  0.9899 -0.0793 -0.9560
 8927TIP3   OH226744   5.008   0.284   2.639 -0.0322 -0.1392 -0.1604
 8927TIP3    H126745   4.937   0.247   2.585  1.5582 -2.0744 -1.0444
 8927TIP3    H226746   4.962   0.337   2.705 -2.2203 -0.3319 -1.4160
 8928TIP3   OH226747   3.960   3.255   1.025  0.2135 -0.4512  0.5307
 8928TIP3    H126748   4.040   3.241   0.974  0.7376  1.5670  0.7151
 8928TIP3    H226749   3.988   3.248   1.116  0.8063  2.6943  0.6919
 8929TIP3   OH226750   3.743   0.301   5.035  0.2919  0.2351  0.2094
 8929TIP3    H126751   3.657   0.261   5.039 -0.6329  2.1635  1.5826
 8929TIP3    H226752   3.758   0.319   4.942 -0.5689 -0.5107 -0.0828
 8930TIP3   OH226753   4.474   3.980   3.291 -0.0610 -0.1872 -0.4515
 8930TIP3    H126754   4.472   3.941   3.378 -0.4550  2.2090  0.7036
 8930TIP3    H226755   4.554   4.033   3.290  0.2144 -0.5986 -1.7617
 8931TIP3   OH226756   5.738   3.491   3.207  0.3248 -0.8052  0.1425
 8931TIP3    H126757   5.734   3.395   3.212  0.7610 -0.8166  0.3380
 8931TIP3    H226758   5.752   3.519   3.297  2.0910 -0.6730 -0.1294
 8932TIP3   OH226759   0.023   0.806   4.403 -0.1743  0.6739 -0.4701
 8932TIP3    H126760   0.072   0.791   4.484 -1.5518  0.8336  0.4388
 8932TIP3    H226761   0.071   0.874   4.358  0.9900  0.1136 -0.1083
 8933TIP3   OH226762   4.470   6.021   0.548  0.5699 -0.1259  0.3715
 8933TIP3    H126763   4.461   5.939   0.596  1.2974  0.1531  1.0020
 8933TIP3    H226764   4.545   6.007   0.490 -0.1873 -0.3954 -0.5754
 8934TIP3   OH226765   3.204   2.342   0.981  0.2497 -0.5106 -0.2529
 8934TIP3    H126766   3.217   2.278   1.052  1.2147 -0.3488 -0.2799
 8934TIP3    H226767   3.225   2.426   1.021 -0.6415 -0.2409 -0.3301
 8935TIP3   OH226768   7.004   3.172   2.091 -0.0513  0.1726  0.5642
 8935TIP3    H126769   7.088   3.212   2.112 -0.4627  0.6342  1.3595
 8935TIP3    H226770   7.008   3.085   2.132  0.7164 -0.5332 -0.8997
 8936TIP3   OH226771   5.997   6.144   3.892 -0.2933 -0.2487  1.0721
 8936TIP3    H126772   5.945   6.107   3.821 -0.1825  0.4332  0.6306
 8936TIP3    H226773   6.074   6.087   3.899  0.3253  0.4146 -0.1971
 8937TIP3   OH226774   0.718   3.435   3.910 -0.1923 -0.3949 -0.0734
 8937TIP3    H126775   0.811   3.426   3.931 -0.5274 -1.5031  1.0262
 8937TIP3    H226776   0.678   3.354   3.942 -1.6245  0.2979 -0.0385
 8938TIP3   OH226777   5.038   0.633   2.167  0.6281  0.9539  0.3994
 8938TIP3    H126778   5.079   0.711   2.128  1.0463  1.4132  1.6990
 8938TIP3    H226779   5.111   0.588   2.209 -0.0320  1.2919  1.9591
 8939TIP3   OH226780   1.015   4.858   2.800  0.7628  0.2402  0.0894
 8939TIP3    H126781   1.022   4.896   2.713 -1.2034  0.1970 -0.1413
 8939TIP3    H226782   0.921   4.847   2.814  1.1062 -2.6051  0.9699
 8940TIP3   OH226783   1.098   5.073   0.872 -0.8936  0.3354  0.0099
 8940TIP3    H126784   1.055   5.145   0.825 -0.9908  1.0117  1.0888
 8940TIP3    H226785   1.130   5.114   0.953  0.1003 -0.5844  0.0971
 8941TIP3   OH226786   1.460   5.813   2.711 -0.1839  0.1625  0.0745
 8941TIP3    H126787   1.403   5.889   2.697  1.0896  0.8373 -1.7974
 8941TIP3    H226788   1.540   5.849   2.748  0.4220 -0.2646 -0.8009
 8942TIP3   OH226789   2.101   3.810   0.913  0.4873 -0.2506 -0.0534
 8942TIP3    H126790   2.141   3.853   0.989  0.5605 -0.7715  0.2093
 8942TIP3    H226791   2.015   3.851   0.905 -0.1391 -1.2102  1.2528
 8943TIP3   OH226792   7.187   1.264   2.268 -0.2229  0.3163  0.0636
 8943TIP3    H126793   7.211   1.338   2.324  0.9138 -0.2686  0.3689
 8943TIP3    H226794   7.134   1.208   2.325 -1.5293  1.1159 -0.3182
 8944TIP3   OH226795   6.197   3.952   4.331 -0.1000  0.3722 -0.0029
 8944TIP3    H126796   6.147   4.008   4.271  0.6839 -0.5467 -1.5972
 8944TIP3    H226797   6.137   3.880   4.351 -0.3743  0.6940  0.3464
 8945TIP3   OH226798   3.340   3.405   0.872 -0.0459 -0.0732 -0.6647
 8945TIP3    H126799   3.408   3.340   0.857 -1.3380 -1.1987 -1.9475
 8945TIP3    H226800   3.304   3.422   0.785 -1.6541  0.1953  0.0225
 8946TIP3   OH226801   4.494   2.865   2.473  0.2840  0.0373  0.2997
 8946TIP3    H126802   4.400   2.860   2.488  0.3224 -0.0572  0.5057
 8946TIP3    H226803   4.511   2.800   2.405 -0.0371  1.1363 -0.8768
 8947TIP3   OH226804   0.642   4.457   5.716 -0.3975  0.0398  0.7450
 8947TIP3    H126805   0.570   4.498   5.669 -0.1393 -0.3472 -0.0049
 8947TIP3    H226806   0.668   4.383   5.661  0.9144  0.4771  0.7437
 8948TIP3   OH226807   4.377   1.107   1.165  0.0992 -0.0034 -0.5031
 8948TIP3    H126808   4.295   1.114   1.115 -0.8306  0.9762  1.0526
 8948TIP3    H226809   4.446   1.105   1.099 -1.2218 -2.5808 -1.9531
 8949TIP3   OH226810   4.307   1.773   3.342  0.0047  0.1167 -0.1097
 8949TIP3    H126811   4.246   1.736   3.405 -2.2992 -0.1197 -2.3207
 8949TIP3    H226812   4.297   1.868   3.352 -1.2141  0.0851 -0.8345
 8950TIP3   OH226813   6.747   2.990   3.389 -0.3467 -0.2066  0.4166
 8950TIP3    H126814   6.689   3.065   3.402  0.7368  1.0419 -1.4895
 8950TIP3    H226815   6.801   2.989   3.468 -0.0128  1.4061  0.2470
 8951TIP3   OH226816   1.867   5.639   2.926 -0.1454 -0.0605  0.4509
 8951TIP3    H126817   1.866   5.659   3.019 -2.0827 -0.2364  0.4908
 8951TIP3    H226818   1.785   5.593   2.909 -1.5032  2.8774 -1.9387
 8952TIP3   OH226819   4.867   0.773   1.339 -0.0035  0.0243  0.6427
 8952TIP3    H126820   4.949   0.735   1.308 -0.1383 -1.3583  1.8178
 8952TIP3    H226821   4.891   0.820   1.419 -0.4458 -1.1671  1.5125
 8953TIP3   OH226822   3.549   2.505   0.448  0.2863  0.0030 -0.5427
 8953TIP3    H126823   3.561   2.433   0.511 -1.2474  1.9801  2.1850
 8953TIP3    H226824   3.463   2.490   0.411  1.1398 -1.0911 -2.1974
 8954TIP3   OH226825   5.626   0.088   2.442 -0.8342 -0.1006 -0.3249
 8954TIP3    H126826   5.612   0.016   2.381 -0.6496 -0.6292  0.2466
 8954TIP3    H226827   5.674   0.049   2.515 -2.5936  0.1092  0.9984
 8955TIP3   OH226828   2.093   2.838   5.595 -0.5858 -0.1854  0.1304
 8955TIP3    H126829   2.040   2.834   5.675  1.2704  1.1100  1.5220
 8955TIP3    H226830   2.052   2.908   5.544 -0.1763  0.9657  1.2911
 8956TIP3   OH226831   0.704   6.667   2.317  0.0239  0.2611  0.2842
 8956TIP3    H126832   0.725   6.760   2.322 -1.2246  0.5506  0.6358
 8956TIP3    H226833   0.644   6.652   2.391 -0.8478 -0.5165 -0.5501
 8957TIP3   OH226834   4.226   4.961   4.179 -0.4068  0.3139 -0.1128
 8957TIP3    H126835   4.196   4.921   4.097  0.3667  0.1834 -0.3353
 8957TIP3    H226836   4.206   4.896   4.247 -0.6291  0.2318 -0.2561
 8958TIP3   OH226837   1.446   3.142   0.809  0.1114 -0.2599  0.0673
 8958TIP3    H126838   1.489   3.156   0.894  1.0388 -2.9144  0.1201
 8958TIP3    H226839   1.352   3.151   0.828  0.3468 -0.0081  1.1767
 8959TIP3   OH226840   0.310   4.998   3.565  0.4379  0.3793 -0.0147
 8959TIP3    H126841   0.291   5.083   3.604  0.3059  0.4366 -0.1989
 8959TIP3    H226842   0.234   4.980   3.509  2.0838  1.8858 -2.9808
 8960TIP3   OH226843   1.426   6.037   3.190  1.2472  0.3987 -0.6391
 8960TIP3    H126844   1.482   5.960   3.184 -0.6397 -1.2390  1.2217
 8960TIP3    H226845   1.426   6.059   3.283 -1.6579 -0.1231 -0.4374
 8961TIP3   OH226846   6.175   6.345   4.591  0.3930 -0.3029  0.0100
 8961TIP3    H126847   6.146   6.436   4.586  1.3104 -0.0045 -0.1947
 8961TIP3    H226848   6.267   6.351   4.616  0.8337 -1.1078 -1.2804
 8962TIP3   OH226849   2.752   6.164   2.380 -0.8742 -0.4084  0.2320
 8962TIP3    H126850   2.734   6.095   2.443 -0.9560  0.7139  1.4858
 8962TIP3    H226851   2.840   6.146   2.348 -0.2817 -0.2385  1.7088
 8963TIP3   OH226852   1.121   2.683   3.364  0.4672 -0.2075 -0.0406
 8963TIP3    H126853   1.212   2.656   3.377  0.5592  0.3683  0.5887
 8963TIP3    H226854   1.110   2.684   3.269  1.0147 -0.5994 -0.1194
 8964TIP3   OH226855   3.919   3.933   1.949  0.1296  0.2704  0.5884
 8964TIP3    H126856   3.884   4.008   1.901 -1.6931 -1.1692 -0.4552
 8964TIP3    H226857   3.950   3.873   1.880 -0.9572 -1.0983  1.2614
 8965TIP3   OH226858   0.520   2.686   0.491 -0.0258 -0.2568  0.5759
 8965TIP3    H126859   0.478   2.618   0.544  0.1783 -0.8443  0.0025
 8965TIP3    H226860   0.611   2.687   0.520  0.1628 -0.8032  0.0348
 8966TIP3   OH226861   6.299   5.504   3.700  0.1838  0.1429  0.3324
 8966TIP3    H126862   6.207   5.492   3.674 -0.1044  1.3475  0.7440
 8966TIP3    H226863   6.329   5.415   3.720 -0.9421 -0.2625  0.3304
 8967TIP3   OH226864   1.970   2.625   0.985 -0.0338  0.0598 -0.0136
 8967TIP3    H126865   2.058   2.643   0.950  0.2383 -2.9519 -1.1684
 8967TIP3    H226866   1.985   2.594   1.074  0.0181  0.1575  0.0116
 8968TIP3   OH226867   6.096   1.378   4.860 -0.4103  0.7887 -0.3399
 8968TIP3    H126868   6.120   1.364   4.768 -0.5635 -2.5314  0.0040
 8968TIP3    H226869   6.026   1.314   4.876  0.4137  0.4556  2.3823
 8969TIP3   OH226870   0.219   5.069   3.889 -0.4043 -0.3059  0.0696
 8969TIP3    H126871   0.126   5.090   3.901 -0.3800 -1.3209  2.9306
 8969TIP3    H226872   0.259   5.152   3.863 -1.9062  0.5174  0.2577
 8970TIP3   OH226873   1.247   3.591   3.587  0.5512  0.0502 -0.3552
 8970TIP3    H126874   1.277   3.505   3.617 -0.6662 -0.8890 -1.6855
 8970TIP3    H226875   1.155   3.577   3.562 -0.1686  2.1219  0.8871
 8971TIP3   OH226876   1.170   5.379   1.236  0.2006 -0.1901  0.1093
 8971TIP3    H126877   1.211   5.419   1.313  0.8219  0.5014 -0.5737
 8971TIP3    H226878   1.217   5.415   1.161  0.1314 -1.4695 -0.5801
 8972TIP3   OH226879   5.947   5.946   0.536 -0.0503  0.6834  0.3491
 8972TIP3    H126880   5.888   5.954   0.461  0.0314  0.2156  0.2311
 8972TIP3    H226881   6.001   6.024   0.533 -2.0229  2.1996  1.6667
 8973TIP3   OH226882   6.935   2.210   4.405 -0.6402 -0.2683  0.3247
 8973TIP3    H126883   6.951   2.294   4.363  0.7422 -0.8931 -0.4637
 8973TIP3    H226884   6.923   2.148   4.333  0.9201 -1.1986  0.8106
 8974TIP3   OH226885   5.223   6.528   3.310  0.3674  0.0340  0.7497
 8974TIP3    H126886   5.150   6.541   3.370  1.3028  1.8531  1.5695
 8974TIP3    H226887   5.292   6.490   3.365  0.8413  0.6222  0.5757
 8975TIP3   OH226888   6.128   3.381   5.273 -0.2967  0.7104 -0.0528
 8975TIP3    H126889   6.132   3.407   5.181  1.5610  2.1697  0.3716
 8975TIP3    H226890   6.146   3.462   5.321 -0.8804 -0.0933  1.6057
 8976TIP3   OH226891   7.113   4.516   5.475  0.4890 -0.2313  0.0845
 8976TIP3    H126892   7.112   4.426   5.508 -1.2175  0.1522  1.2226
 8976TIP3    H226893   7.193   4.554   5.510 -0.4256 -0.3579  2.4716
 8977TIP3   OH226894   2.330   4.856   5.734 -0.4331 -0.0594  0.1699
 8977TIP3    H126895   2.254   4.910   5.713 -0.1287  0.7266  1.0176
 8977TIP3    H226896   2.392   4.874   5.663 -1.2833 -1.2636 -0.9212
 8978TIP3   OH226897   3.971   2.101   2.244 -0.6283  0.1650  0.3867
 8978TIP3    H126898   3.926   2.115   2.161 -1.4542  0.7674  0.9159
 8978TIP3    H226899   4.064   2.112   2.224 -0.6322 -1.6769 -0.8467
 8979TIP3   OH226900   0.939   5.733   1.996 -0.2642  0.4037  0.2854
 8979TIP3    H126901   0.999   5.698   1.930  0.1389  1.5520  0.0149
 8979TIP3    H226902   0.987   5.727   2.078 -0.2977  0.1105  0.2871
 8980TIP3   OH226903   0.412   5.948   4.900 -0.0294 -0.0505 -0.3029
 8980TIP3    H126904   0.338   5.988   4.944 -0.1465 -2.3588  1.8259
 8980TIP3    H226905   0.382   5.859   4.878  1.4261 -0.3324 -1.3024
 8981TIP3   OH226906   3.977   5.585   2.412 -0.4259 -0.3076  0.1317
 8981TIP3    H126907   4.033   5.514   2.445 -2.2272 -0.4330  3.2418
 8981TIP3    H226908   3.924   5.544   2.344 -0.1433 -1.4643  0.5897
 8982TIP3   OH226909   3.592   1.987   2.484 -0.1541  0.2050  0.7294
 8982TIP3    H126910   3.496   1.993   2.491 -0.0555  0.9328  1.6616
 8982TIP3    H226911   3.620   1.955   2.570  0.4073 -0.4236  0.3126
 8983TIP3   OH226912   6.090   2.357   4.127 -0.3123 -0.0790  0.5220
 8983TIP3    H126913   6.030   2.398   4.065  1.0527 -0.0510 -0.8166
 8983TIP3    H226914   6.055   2.268   4.138 -1.4455  0.3994  0.9529
 8984TIP3   OH226915   2.833   3.417   5.866 -0.3319  0.2668 -0.0464
 8984TIP3    H126916   2.765   3.350   5.874 -0.3026  0.2077 -0.2974
 8984TIP3    H226917   2.821   3.454   5.779  0.0926  0.1057 -0.1765
 8985TIP3   OH226918   3.630   2.740   1.011  0.1381 -0.1674  0.4624
 8985TIP3    H126919   3.616   2.810   1.075  1.1510  0.2804  0.2224
 8985TIP3    H226920   3.714   2.702   1.035 -0.2877 -1.1462  0.4289
 8986TIP3   OH226921   2.782   0.782   5.136 -0.0561 -0.6646  0.2655
 8986TIP3    H126922   2.796   0.773   5.042  1.0784 -0.0298  0.3614
 8986TIP3    H226923   2.751   0.696   5.164 -1.4616 -0.5637 -0.8555
 8987TIP3   OH226924   4.190   2.535   1.880 -0.0772  0.0508  0.8602
 8987TIP3    H126925   4.266   2.479   1.872 -1.1312 -1.3675  0.3807
 8987TIP3    H226926   4.190   2.589   1.801  0.4328  0.0684  0.8738
 8988TIP3   OH226927   3.234   1.428   0.825 -0.3534  0.7535  1.0470
 8988TIP3    H126928   3.258   1.457   0.913  1.0846 -0.9416  1.2535
 8988TIP3    H226929   3.218   1.334   0.834 -1.0231  0.7055 -0.3498
 8989TIP3   OH226930   6.463   5.764   3.392  0.4285 -0.1568 -0.4508
 8989TIP3    H126931   6.518   5.798   3.463 -0.7269 -0.0318  0.4286
 8989TIP3    H226932   6.524   5.725   3.330  1.6117  1.2852 -0.2472
 8990TIP3   OH226933   6.828   0.202   0.949  0.0088 -0.1626  0.3824
 8990TIP3    H126934   6.837   0.107   0.957 -0.9474 -0.1905  1.2237
 8990TIP3    H226935   6.839   0.219   0.855  0.4933 -1.0669  0.2692
 8991TIP3   OH226936   2.929   0.477   1.398  0.7830  0.0671 -0.7560
 8991TIP3    H126937   2.859   0.452   1.338 -0.0733  1.6467 -0.4843
 8991TIP3    H226938   2.883   0.512   1.474  1.7864  3.0379 -1.3812
 8992TIP3   OH226939   6.788   0.775   3.742 -0.2246 -0.1332  0.2414
 8992TIP3    H126940   6.760   0.865   3.727 -0.2290 -0.3384 -1.1733
 8992TIP3    H226941   6.873   0.783   3.785 -0.2450  0.5508  0.1638
 8993TIP3   OH226942   3.292   4.987   4.461  0.7619 -0.0071 -0.0076
 8993TIP3    H126943   3.342   5.064   4.433 -1.4220  1.5494  0.1046
 8993TIP3    H226944   3.251   4.955   4.381  1.6571 -1.0887 -0.0508
 8994TIP3   OH226945   2.474   2.245   1.008 -0.1840 -0.4338  0.1840
 8994TIP3    H126946   2.499   2.323   0.959  1.3273 -1.2736 -0.4444
 8994TIP3    H226947   2.450   2.277   1.094 -0.8518  0.8489 -0.4526
 8995TIP3   OH226948   4.211   5.707   1.849 -0.0997 -0.0216 -0.6008
 8995TIP3    H126949   4.277   5.729   1.915 -1.0359  0.6648  0.1270
 8995TIP3    H226950   4.236   5.759   1.773  1.8316 -1.8924 -1.3545
 8996TIP3   OH226951   6.856   2.967   2.523 -0.4660 -0.2509 -0.1588
 8996TIP3    H126952   6.894   3.054   2.508 -0.7769  0.0308  0.6309
 8996TIP3    H226953   6.891   2.913   2.452  1.1062  0.0832  0.3362
 8997TIP3   OH226954   6.571   4.591   1.561  0.2524 -0.0898 -0.1345
 8997TIP3    H126955   6.572   4.664   1.623 -1.0193  0.2780 -0.5204
 8997TIP3    H226956   6.628   4.525   1.601 -1.5905 -0.4323  2.1516
 8998TIP3   OH226957   0.490   2.296   2.517 -0.2089 -0.3464 -0.1073
 8998TIP3    H126958   0.484   2.391   2.507  0.4129 -0.2179  0.6969
 8998TIP3    H226959   0.579   2.280   2.547  0.9533 -1.4947 -3.6113
 8999TIP3   OH226960   2.471   6.286   5.168  0.4128 -0.2445 -0.0043
 8999TIP3    H126961   2.487   6.338   5.089  1.7348  0.0021  0.3994
 8999TIP3    H226962   2.526   6.327   5.235  1.7639 -2.2946  0.2530
 9000TIP3   OH226963   5.220   6.092   4.352 -0.1162 -0.7319 -0.2511
 9000TIP3    H126964   5.299   6.109   4.404 -0.8882 -0.7135  0.9326
 9000TIP3    H226965   5.206   6.173   4.303  1.5449 -1.3056 -1.7932
 9001TIP3   OH226966   5.516   5.469   3.881  0.1104  0.1202 -0.1838
 9001TIP3    H126967   5.437   5.449   3.832 -3.0344 -0.4364  4.4956
 9001TIP3    H226968   5.509   5.562   3.903  0.2674 -0.1127  0.9414
 9002TIP3   OH226969   2.816   2.698   3.728  0.2141 -0.3144  0.3098
 9002TIP3    H126970   2.833   2.611   3.763 -1.4519 -1.2196 -0.9737
 9002TIP3    H226971   2.733   2.689   3.682 -1.5194  2.6387  2.4953
 9003TIP3   OH226972   4.620   6.445   4.984  0.1849  0.1116 -0.4731
 9003TIP3    H126973   4.537   6.456   4.938  0.0942  1.3539 -0.0672
 9003TIP3    H226974   4.687   6.453   4.916  0.0968  2.9208 -0.3552
 9004TIP3   OH226975   1.140   0.923   4.938  0.9104 -0.5226 -0.2088
 9004TIP3    H126976   1.152   0.930   5.033  0.3097 -2.9885  0.1170
 9004TIP3    H226977   1.047   0.942   4.924  1.5803  3.1797 -0.8337
 9005TIP3   OH226978   3.154   4.620   3.861 -0.4140 -0.2027  0.5313
 9005TIP3    H126979   3.124   4.547   3.808 -1.0265  0.8044 -0.5697
 9005TIP3    H226980   3.238   4.591   3.897 -1.5987 -2.2123  1.8205
 9006TIP3   OH226981   0.204   0.972   4.272 -0.4911 -0.5784  0.5461
 9006TIP3    H126982   0.266   1.035   4.308 -2.0693 -0.2432  2.9320
 9006TIP3    H226983   0.257   0.915   4.216  1.7608  0.2853  1.6722
 9007TIP3   OH226984   2.433   0.256   2.839  0.2871  0.0942  0.5043
 9007TIP3    H126985   2.463   0.298   2.758  2.4891 -2.9021 -0.4232
 9007TIP3    H226986   2.344   0.226   2.819  1.5044 -2.4008 -1.6956
 9008TIP3   OH226987   2.770   1.278   3.568 -0.2257  0.4966  0.6299
 9008TIP3    H126988   2.715   1.340   3.615 -0.1021  1.2179 -0.1443
 9008TIP3    H226989   2.734   1.276   3.479  0.0345 -0.2277  0.5317
 9009TIP3   OH226990   5.253   5.492   1.888 -0.3554  0.4054 -0.1026
 9009TIP3    H126991   5.284   5.481   1.978  0.3451  0.0091 -0.3908
 9009TIP3    H226992   5.306   5.432   1.836 -1.2388  0.1118 -0.6898
 9010TIP3   OH226993   1.140   0.399   4.210 -0.1021 -0.3453 -0.4125
 9010TIP3    H126994   1.204   0.363   4.148 -1.3753 -0.9987 -1.3819
 9010TIP3    H226995   1.090   0.462   4.158 -2.3145 -2.1372 -0.5792
 9011TIP3   OH226996   6.449   6.199   4.828 -0.5923 -0.0057  0.4109
 9011TIP3    H126997   6.372   6.222   4.878 -1.9725 -0.9690 -1.1628
 9011TIP3    H226998   6.435   6.239   4.742  0.0060 -1.2631 -0.3124
 9012TIP3   OH226999   3.426   5.650   4.947  0.3679  0.2581 -0.5306
 9012TIP3    H127000   3.360   5.718   4.962  0.5661  0.6872 -1.5368
 9012TIP3    H227001   3.435   5.606   5.032 -1.5679 -0.1410 -0.4883
 9013TIP3   OH227002   5.099   1.712   5.431 -0.3803 -0.3766  0.5596
 9013TIP3    H127003   5.181   1.760   5.445 -0.2766 -0.0381 -1.0434
 9013TIP3    H227004   5.114   1.627   5.472  0.0092  0.3570  2.0546
 9014TIP3   OH227005   4.382   0.837   2.139  0.5517 -0.3695 -0.6075
 9014TIP3    H127006   4.375   0.906   2.204 -1.7377  0.4490 -1.6299
 9014TIP3    H227007   4.313   0.775   2.162  1.5565 -1.5491 -0.6396
 9015TIP3   OH227008   3.908   0.032   4.066 -0.0900  0.2212 -0.1713
 9015TIP3    H127009   3.998   0.023   4.099 -0.4319 -0.8693  0.5401
 9015TIP3    H227010   3.907   0.117   4.023  1.3049  0.2304 -0.2541
 9016TIP3   OH227011   6.471   0.572   5.207  0.1055 -0.3580  0.1960
 9016TIP3    H127012   6.460   0.665   5.227  0.9930 -0.2879  0.3912
 9016TIP3    H227013   6.382   0.537   5.204 -0.1968  0.2782  1.2197
 9017TIP3   OH227014   3.153   6.175   3.477  0.0392  0.0968  0.0287
 9017TIP3    H127015   3.067   6.189   3.518  0.1208  1.1571 -0.1548
 9017TIP3    H227016   3.206   6.134   3.545 -1.1225 -2.3230 -0.3954
 9018TIP3   OH227017   2.088   1.307   1.141  0.4620 -0.1163  0.1147
 9018TIP3    H127018   2.083   1.220   1.102  1.0801  0.8967 -2.4767
 9018TIP3    H227019   2.018   1.357   1.097  2.1583  1.4919 -0.9398
 9019TIP3   OH227020   0.775   3.992   3.549  0.0227  0.0901 -0.3590
 9019TIP3    H127021   0.844   3.960   3.606 -0.4530  1.2067  0.9101
 9019TIP3    H227022   0.820   4.046   3.484  0.5418 -0.9695 -0.9055
 9020TIP3   OH227023   2.927   0.027   0.456 -0.2204  0.3349 -0.3746
 9020TIP3    H127024   2.848   0.079   0.468 -1.8061 -2.1426  0.8819
 9020TIP3    H227025   2.955   0.005   0.545 -0.2685 -1.7638 -0.8227
 9021TIP3   OH227026   0.552   4.178   3.061 -0.3256  0.0051 -0.2014
 9021TIP3    H127027   0.506   4.110   3.109 -0.0441  0.2777  0.4640
 9021TIP3    H227028   0.644   4.165   3.083 -0.1750  0.0384 -0.7925
 9022TIP3   OH227029   0.734   2.756   1.873 -0.3531  0.3262 -0.6606
 9022TIP3    H127030   0.679   2.761   1.951  1.3077 -0.3351  0.6020
 9022TIP3    H227031   0.770   2.845   1.863 -0.7881  0.4848 -0.8671
 9023TIP3   OH227032   3.218   4.367   2.803  0.1481 -0.0442  0.0183
 9023TIP3    H127033   3.283   4.318   2.752 -0.0446 -0.5250  0.2366
 9023TIP3    H227034   3.266   4.400   2.879  0.0788 -0.6179  0.3135
 9024TIP3   OH227035   1.159   6.603   5.384 -0.6244  0.3097 -0.1445
 9024TIP3    H127036   1.076   6.562   5.408 -0.1487 -0.2414  0.6039
 9024TIP3    H227037   1.193   6.638   5.466  0.9246 -1.3973  0.0037
 9025TIP3   OH227038   5.760   1.267   3.619  0.3511  0.3843 -0.1676
 9025TIP3    H127039   5.695   1.325   3.659  0.0570  1.1538 -1.7061
 9025TIP3    H227040   5.774   1.199   3.685 -3.0496 -0.6345 -0.2842
 9026TIP3   OH227041  -0.004   2.453   1.387  0.1959  0.0631  0.3698
 9026TIP3    H127042  -0.069   2.383   1.385 -0.3843  0.5469  1.3513
 9026TIP3    H227043   0.075   2.414   1.349 -0.1011 -1.1326  0.9401
 9027TIP3   OH227044   6.993   1.556   4.102 -0.1400 -0.1010  0.6488
 9027TIP3    H127045   6.899   1.540   4.105 -0.0329 -0.9645 -0.0463
 9027TIP3    H227046   7.014   1.557   4.008  0.6680 -0.7556  0.8132
 9028TIP3   OH227047   1.838   3.851   1.402  0.0424 -0.1730  0.1862
 9028TIP3    H127048   1.802   3.786   1.341  2.2321  0.1767 -1.6079
 9028TIP3    H227049   1.842   3.806   1.486 -2.2100 -0.9898 -0.0718
 9029TIP3   OH227050   2.266   0.332   1.609 -0.5570  0.0567  0.2167
 9029TIP3    H127051   2.307   0.316   1.524 -0.8992 -0.9959  0.2376
 9029TIP3    H227052   2.223   0.417   1.599 -0.5000 -0.0072 -0.6304
 9030TIP3   OH227053   6.971   6.266   0.717 -0.4252 -0.0733  0.2651
 9030TIP3    H127054   7.034   6.269   0.645 -1.1310 -1.1954 -0.4355
 9030TIP3    H227055   7.015   6.310   0.789  0.6138  0.3794 -0.6141
 9031TIP3   OH227056   0.336   1.114   4.031 -0.1713  0.0978 -0.3302
 9031TIP3    H127057   0.371   1.132   4.118 -1.5798  1.4467 -0.0072
 9031TIP3    H227058   0.339   1.019   4.023  1.0787  0.0175  0.7035
 9032TIP3   OH227059   0.851   1.847   4.340 -0.2592  0.2049  0.2737
 9032TIP3    H127060   0.924   1.805   4.293  0.1637  0.2726  0.8599
 9032TIP3    H227061   0.810   1.775   4.389  0.6710  0.5048  1.5428
 9033TIP3   OH227062   4.789   5.720   5.051  0.0222 -0.2534  0.1480
 9033TIP3    H127063   4.707   5.748   5.091 -0.2198 -1.8013  0.8068
 9033TIP3    H227064   4.766   5.642   5.002  0.7847  0.2880 -1.1145
 9034TIP3   OH227065   2.898   0.277   0.030  0.8547  0.0342 -0.3220
 9034TIP3    H127066   2.965   0.212   0.051 -0.6973 -1.0091  1.8376
 9034TIP3    H227067   2.892   0.332   0.108 -1.1564 -0.2611 -0.2089
 9035TIP3   OH227068   0.811   1.232   0.871 -0.3398  0.4870 -0.0850
 9035TIP3    H127069   0.773   1.315   0.841 -0.9318  0.0058 -0.6767
 9035TIP3    H227070   0.905   1.243   0.855 -0.2187  1.6043  1.2085
 9036TIP3   OH227071   6.611   1.215   2.107 -0.5459  0.0062 -0.1762
 9036TIP3    H127072   6.531   1.171   2.078 -0.2566 -1.7452  1.4787
 9036TIP3    H227073   6.582   1.276   2.174 -0.7664  1.2643 -1.3886
 9037TIP3   OH227074   1.612   3.649   2.799 -0.3474 -0.2604  0.7137
 9037TIP3    H127075   1.518   3.633   2.803  0.1000 -3.0129  2.5953
 9037TIP3    H227076   1.644   3.634   2.888  1.8610  0.8732  0.1983
 9038TIP3   OH227077   2.022   2.803   1.541  0.0037 -0.2689 -0.0195
 9038TIP3    H127078   2.031   2.709   1.556  1.3697 -0.0812  0.4322
 9038TIP3    H227079   1.941   2.811   1.491 -1.6954 -1.4465  2.3107
 9039TIP3   OH227080   6.907   2.377   3.456  0.2783 -0.1067  0.4163
 9039TIP3    H127081   6.876   2.447   3.512  0.7689 -0.3861  1.0528
 9039TIP3    H227082   6.991   2.350   3.495  1.7185  1.1342 -1.6554
 9040TIP3   OH227083   6.376   1.209   0.817 -0.3414  0.1952 -0.7340
 9040TIP3    H127084   6.296   1.257   0.837 -0.4676 -0.5405  0.6492
 9040TIP3    H227085   6.446   1.274   0.827 -0.6825  0.6552 -1.2330
 9041TIP3   OH227086   1.505   1.578   1.599 -0.1672 -0.1269 -0.1060
 9041TIP3    H127087   1.457   1.632   1.662 -1.2770  1.8617 -2.5208
 9041TIP3    H227088   1.593   1.616   1.599  0.0462 -0.5893  0.7089
 9042TIP3   OH227089   0.682   6.165   0.519 -0.5759 -0.4600 -0.4876
 9042TIP3    H127090   0.702   6.248   0.564  2.7530 -1.4200  0.1158
 9042TIP3    H227091   0.664   6.191   0.429  0.5691  0.9520 -0.3618
 9043TIP3   OH227092   3.617   5.477   1.640 -0.6845 -0.0108  0.5288
 9043TIP3    H127093   3.669   5.522   1.706 -0.0436  0.1888 -0.0980
 9043TIP3    H227094   3.667   5.398   1.619 -0.2745  0.5175 -0.5652
 9044TIP3   OH227095   1.917   1.580   0.324 -0.6935 -0.1576 -0.6976
 9044TIP3    H127096   1.841   1.624   0.286  1.5809  2.5145 -2.5276
 9044TIP3    H227097   1.941   1.513   0.260  1.4028  2.4363 -2.8841
 9045TIP3   OH227098   6.196   5.371   1.730 -0.0540  0.2903 -0.4143
 9045TIP3    H127099   6.116   5.415   1.702 -0.6532 -0.3162  0.2827
 9045TIP3    H227100   6.165   5.293   1.776  0.9418  0.0354 -0.1501
 9046TIP3   OH227101   5.882   6.616   0.849  0.2235 -0.5262  0.0323
 9046TIP3    H127102   5.809   6.641   0.792  1.6676 -0.3088 -1.8381
 9046TIP3    H227103   5.877   6.521   0.855 -1.1980 -0.4015  1.3816
 9047TIP3   OH227104   3.718   5.125   1.883 -0.2569  0.4214  0.0582
 9047TIP3    H127105   3.708   5.220   1.892  0.1332  0.4558  0.1619
 9047TIP3    H227106   3.703   5.091   1.971 -0.1184  0.4147  0.0800
 9048TIP3   OH227107   1.513   0.763   2.883  0.2884  0.0330  0.2410
 9048TIP3    H127108   1.422   0.768   2.855 -0.1001  0.0661  1.4587
 9048TIP3    H227109   1.563   0.764   2.801 -0.8244 -0.8859 -0.4933
 9049TIP3   OH227110   2.941   4.728   1.213  0.4096  0.1249 -0.1688
 9049TIP3    H127111   2.872   4.770   1.162  0.3276  0.9945  0.6339
 9049TIP3    H227112   2.894   4.667   1.271  0.4919 -0.7620 -1.0072
 9050TIP3   OH227113   7.027   1.306   3.264 -0.6783 -0.4941  1.0567
 9050TIP3    H127114   7.032   1.388   3.215  0.9811 -0.9341  0.3961
 9050TIP3    H227115   7.118   1.288   3.288 -1.0597 -1.9840  1.4513
 9051TIP3   OH227116   3.974   0.914   0.726 -0.4864 -0.5522  0.1817
 9051TIP3    H127117   4.044   0.865   0.683  0.3468 -0.1835  1.0833
 9051TIP3    H227118   3.944   0.857   0.796  1.1117  0.4900  1.8300
 9052TIP3   OH227119   1.139   3.451   4.475 -0.0942  0.3053  0.0273
 9052TIP3    H127120   1.173   3.394   4.407 -1.0066 -0.1258 -0.0827
 9052TIP3    H227121   1.048   3.423   4.486 -0.1140  0.7333  1.0330
 9053TIP3   OH227122   0.792   3.125   1.039 -1.0573 -0.0623 -0.3467
 9053TIP3    H127123   0.736   3.052   1.012 -0.1839  0.1019 -2.8960
 9053TIP3    H227124   0.785   3.188   0.968 -1.0777  1.9821  1.3749
 9054TIP3   OH227125   3.117   6.360   1.629  0.4104  0.7031 -0.9517
 9054TIP3    H127126   3.179   6.349   1.701 -0.2892  2.0837 -0.1110
 9054TIP3    H227127   3.093   6.270   1.604  0.1705  0.2000  0.9589
 9055TIP3   OH227128   1.880   4.453   4.497  0.0208 -0.1133  0.4260
 9055TIP3    H127129   1.972   4.478   4.497 -0.3484  1.3579 -0.1703
 9055TIP3    H227130   1.835   4.528   4.535 -0.9189 -0.8840  0.8576
 9056TIP3   OH227131   1.658   6.088   1.154 -0.0853 -0.2387 -0.0926
 9056TIP3    H127132   1.754   6.083   1.159 -0.2049 -2.7221  2.3539
 9056TIP3    H227133   1.633   6.018   1.093 -0.3834  2.7931 -3.8321
 9057TIP3   OH227134   3.534   6.373   4.827 -0.1993 -0.1165  0.1920
 9057TIP3    H127135   3.557   6.280   4.829  1.7173  0.3098 -0.5052
 9057TIP3    H227136   3.503   6.388   4.737  2.2952  0.4940 -0.6327
 9058TIP3   OH227137   5.227   2.671   1.271 -0.3519 -0.3693  0.0502
 9058TIP3    H127138   5.281   2.739   1.311  1.2678 -1.5799  0.0412
 9058TIP3    H227139   5.260   2.664   1.181  0.0297 -1.6172  0.2576
 9059TIP3   OH227140   2.754   4.334   3.987 -0.7101  0.2940  0.0307
 9059TIP3    H127141   2.806   4.404   3.949  1.0751 -0.4316  1.0413
 9059TIP3    H227142   2.665   4.350   3.954  0.0332  1.8200 -1.3812
 9060TIP3   OH227143   1.294   5.524   3.828  0.0514 -0.2945  0.0319
 9060TIP3    H127144   1.280   5.573   3.748 -0.1855  0.8610  0.7668
 9060TIP3    H227145   1.271   5.584   3.899  1.8683 -0.6982  1.0468
 9061TIP3   OH227146   2.174   3.908   4.287 -0.3749  0.0682  0.0499
 9061TIP3    H127147   2.260   3.947   4.270 -0.9282  0.8342 -1.1712
 9061TIP3    H227148   2.180   3.819   4.251 -0.5279  0.6245 -1.4611
 9062TIP3   OH227149   3.677   5.469   2.267 -0.3235  0.2826 -0.1960
 9062TIP3    H127150   3.620   5.426   2.204 -1.0129 -0.8778  1.1815
 9062TIP3    H227151   3.736   5.400   2.297 -0.6897  0.5580  1.1982
 9063TIP3   OH227152   6.762   0.959   0.599  0.2415 -0.3487 -0.2854
 9063TIP3    H127153   6.676   0.972   0.640 -0.1822  0.4338 -1.3643
 9063TIP3    H227154   6.795   1.048   0.584  1.5514 -0.6348  0.6910
 9064TIP3   OH227155   4.335   0.105   4.006 -0.1684  0.2801  0.0215
 9064TIP3    H127156   4.324   0.013   3.981 -2.6031  1.1891 -2.7332
 9064TIP3    H227157   4.312   0.107   4.099  0.5579 -1.9378  0.3234
 9065TIP3   OH227158   6.418   4.062   5.838  0.3965 -0.0918 -0.4567
 9065TIP3    H127159   6.480   4.037   5.770  0.3294  1.9681 -1.3489
 9065TIP3    H227160   6.473   4.099   5.907  0.3038 -0.2872 -0.2758
 9066TIP3   OH227161   2.539   4.524   0.779  0.3678 -0.0155 -0.3158
 9066TIP3    H127162   2.483   4.594   0.746  0.8792  0.4237 -0.2660
 9066TIP3    H227163   2.504   4.444   0.739 -1.7763 -0.1043  1.4942
 9067TIP3   OH227164   5.290   3.452   5.712  0.2160 -0.4040  0.1694
 9067TIP3    H127165   5.198   3.469   5.732  0.9481  1.5009  2.2441
 9067TIP3    H227166   5.292   3.440   5.617 -1.9514  1.1336 -0.1394
 9068TIP3   OH227167   4.088   1.809   0.557 -0.4215 -0.3252 -0.3187
 9068TIP3    H127168   4.157   1.744   0.572 -1.4598 -1.0960  1.4537
 9068TIP3    H227169   4.131   1.893   0.575  0.2312 -0.7425  0.1729
 9069TIP3   OH227170   2.581   4.808   1.420  0.0880 -0.1336  0.1430
 9069TIP3    H127171   2.661   4.770   1.457  1.2177  1.2655 -0.7764
 9069TIP3    H227172   2.554   4.874   1.484 -0.0020 -0.2013  0.1751
 9070TIP3   OH227173   2.229   3.474   5.270 -0.3950  0.2011  0.2681
 9070TIP3    H127174   2.309   3.526   5.277 -0.0010 -0.4849  1.0202
 9070TIP3    H227175   2.205   3.481   5.177  2.4270 -2.2741 -0.8408
 9071TIP3   OH227176   5.620   4.492   1.192  0.3361  0.4473  0.5826
 9071TIP3    H127177   5.632   4.453   1.106 -2.1804  1.0711 -0.1031
 9071TIP3    H227178   5.649   4.582   1.182 -0.4979  0.6793  0.2175
 9072TIP3   OH227179   2.453   1.504   0.860 -0.3519 -0.5730 -0.2771
 9072TIP3    H127180   2.496   1.430   0.817 -0.4906 -0.9562  0.2355
 9072TIP3    H227181   2.487   1.504   0.949 -0.1892  0.1195 -0.3344
 9073TIP3   OH227182   5.337   0.665   1.043 -0.0922  0.5572  0.8422
 9073TIP3    H127183   5.360   0.705   0.959  1.4256 -0.6939  0.6181
 9073TIP3    H227184   5.411   0.608   1.064 -1.2735 -0.5898  2.1201
 9074TIP3   OH227185   1.383   1.468   4.489  1.0486 -0.3698  0.7092
 9074TIP3    H127186   1.387   1.412   4.566  1.7057 -1.0861  0.1741
 9074TIP3    H227187   1.450   1.535   4.503  1.9735 -1.1812  0.2567
 9075TIP3   OH227188   2.794   5.876   0.685  0.0244  0.0992 -0.1135
 9075TIP3    H127189   2.832   5.954   0.645 -0.0324  0.3123  0.2426
 9075TIP3    H227190   2.756   5.827   0.612 -0.0255  0.4545 -0.3268
 9076TIP3   OH227191   2.395   4.976   4.943 -0.8587 -0.4763 -0.1890
 9076TIP3    H127192   2.302   4.954   4.932 -0.7527 -0.1574 -1.9845
 9076TIP3    H227193   2.433   4.963   4.856  0.7055 -0.2219  0.4342
 9077TIP3   OH227194   7.160   1.829   5.853 -0.4906  0.1633  0.0812
 9077TIP3    H127195   7.110   1.864   5.779 -1.5081  0.2184  0.7801
 9077TIP3    H227196   7.250   1.855   5.836 -0.8080  0.6940 -0.8300
 9078TIP3   OH227197   4.442   0.737   4.780 -0.2920  0.1458 -0.4363
 9078TIP3    H127198   4.535   0.715   4.780 -0.2143  0.4051  0.7027
 9078TIP3    H227199   4.440   0.830   4.757 -0.2494  0.1861 -0.2812
 9079TIP3   OH227200   5.076   1.329   0.578 -0.1290  0.1328  0.0072
 9079TIP3    H127201   5.004   1.389   0.597 -0.5392  0.0804 -1.3348
 9079TIP3    H227202   5.097   1.290   0.663  0.2457  2.2516  0.9596
 9080TIP3   OH227203   6.403   0.178   5.838 -0.4974  0.2211 -0.1663
 9080TIP3    H127204   6.319   0.213   5.808 -0.2140  0.8778 -0.2058
 9080TIP3    H227205   6.467   0.207   5.772  0.6695  4.2363  2.3297
 9081TIP3   OH227206   0.923   0.331   2.545  0.3129 -0.4994  0.0679
 9081TIP3    H127207   0.963   0.298   2.465  1.7325 -0.6733  0.8064
 9081TIP3    H227208   0.904   0.252   2.596  1.1887 -0.3330  0.6823
 9082TIP3   OH227209   5.011   6.541   3.981 -0.1416  1.0291  0.2668
 9082TIP3    H127210   5.079   6.473   3.984 -0.2695  0.9304  2.0810
 9082TIP3    H227211   5.041   6.602   3.914  1.4257  0.6442  0.5735
 9083TIP3   OH227212   3.274   5.239   4.643 -0.3465  0.0725  0.1352
 9083TIP3    H127213   3.285   5.247   4.548  1.7090  1.8862  0.4210
 9083TIP3    H227214   3.237   5.152   4.656 -1.0227 -0.0948 -2.3319
 9084TIP3   OH227215   2.350   1.847   4.979  0.0126 -0.8641  0.4229
 9084TIP3    H127216   2.396   1.777   4.931  0.7189 -0.0015 -0.1960
 9084TIP3    H227217   2.414   1.918   4.985 -0.6912 -0.2633  1.0426
 9085TIP3   OH227218   4.977   1.661   4.427  0.4266  0.6235  0.1232
 9085TIP3    H127219   4.914   1.658   4.500 -0.9080  0.0444 -1.0120
 9085TIP3    H227220   5.036   1.587   4.444 -1.5735 -1.3085 -0.7983
 9086TIP3   OH227221   0.383   4.484   4.490 -0.1802  0.6920 -0.2068
 9086TIP3    H127222   0.438   4.406   4.502 -0.8212  0.1698 -0.5689
 9086TIP3    H227223   0.320   4.480   4.563 -1.9582 -0.6599 -1.7167
 9087TIP3   OH227224   6.303   1.549   4.990 -0.1532 -0.0842 -0.4122
 9087TIP3    H127225   6.221   1.533   4.945 -1.0034  4.0455 -0.7921
 9087TIP3    H227226   6.371   1.529   4.925 -1.1570  1.1682 -1.9301
 9088TIP3   OH227227   1.442   1.593   5.917 -0.2817  0.1073 -0.0588
 9088TIP3    H127228   1.472   1.520   5.862  0.9018  0.5495 -0.0377
 9088TIP3    H227229   1.433   1.666   5.856 -0.5007  0.1943  0.0795
 9089TIP3   OH227230   2.158   6.145   4.822  0.5800  0.0359 -0.1319
 9089TIP3    H127231   2.156   6.211   4.891 -1.2550 -1.8495  1.7633
 9089TIP3    H227232   2.251   6.134   4.802  0.9859  2.7290 -0.1864
 9090TIP3   OH227233   1.051   3.150   4.673  0.2500  0.3398  0.0160
 9090TIP3    H127234   0.995   3.191   4.608  1.1835  2.7192  0.5981
 9090TIP3    H227235   1.140   3.173   4.647  0.8502 -1.3423  0.4226
 9091TIP3   OH227236   2.847   3.844   2.341  0.2513 -0.7806  0.2342
 9091TIP3    H127237   2.922   3.884   2.296  0.3477 -0.5594  0.5819
 9091TIP3    H227238   2.784   3.827   2.272 -0.4791  1.5167  0.2430
 9092TIP3   OH227239   3.698   1.414   2.179 -0.0823 -0.1469 -0.2840
 9092TIP3    H127240   3.670   1.481   2.242 -1.8278 -1.3677  0.2982
 9092TIP3    H227241   3.778   1.377   2.218 -1.1093 -0.8505  1.2299
 9093TIP3   OH227242   3.697   3.090   1.832  0.0650 -0.1078  0.2656
 9093TIP3    H127243   3.721   3.042   1.752  1.4552  0.8682  0.0621
 9093TIP3    H227244   3.615   3.049   1.860  0.8649 -2.2075 -0.2039
 9094TIP3   OH227245   2.046   1.372   5.705  0.2029  0.0257 -0.1468
 9094TIP3    H127246   1.995   1.411   5.635 -1.9975  0.2225  1.4730
 9094TIP3    H227247   2.103   1.443   5.737 -1.7845  1.1936  0.9639
 9095TIP3   OH227248   2.702   5.327   1.889 -0.1865  0.2010  0.2612
 9095TIP3    H127249   2.702   5.318   1.985 -0.1442 -1.4352  0.1340
 9095TIP3    H227250   2.791   5.356   1.868  0.7602 -2.2700  0.5394
 9096TIP3   OH227251   1.388   4.992   0.147  0.2454 -0.2474 -0.5065
 9096TIP3    H127252   1.467   4.941   0.166  0.8632  0.7308 -0.4335
 9096TIP3    H227253   1.413   5.083   0.163 -1.0559  0.0352  0.0620
 9097TIP3   OH227254   4.072   6.022   4.077  0.3371  0.1993  0.3094
 9097TIP3    H127255   4.025   6.019   4.160  0.6828  2.3915  0.6486
 9097TIP3    H227256   4.019   6.080   4.022 -0.0957 -1.5118 -1.1969
 9098TIP3   OH227257   1.999   5.442   0.863  0.1696 -0.5596 -0.3715
 9098TIP3    H127258   2.010   5.502   0.789  1.0236  0.0708  0.2500
 9098TIP3    H227259   2.029   5.357   0.829  1.6285 -0.0450 -0.4471
 9099TIP3   OH227260   2.764   4.717   1.773 -0.0821  0.6608  0.1194
 9099TIP3    H127261   2.677   4.757   1.776  0.2445  1.3881  0.0377
 9099TIP3    H227262   2.807   4.758   1.699  0.4926  0.6451  0.4386
 9100TIP3   OH227263   4.039   4.948   0.620 -0.2376 -0.3482 -0.2544
 9100TIP3    H127264   4.054   5.020   0.682 -0.7900 -0.7054  0.3185
 9100TIP3    H227265   4.126   4.923   0.591  0.0583 -0.3532  0.5971
 9101TIP3   OH227266   1.664   2.911   4.865  0.9090  0.1316 -0.0813
 9101TIP3    H127267   1.692   2.837   4.811  2.3000  0.8683 -0.4130
 9101TIP3    H227268   1.664   2.876   4.954  4.2164  0.3462  0.1337
 9102TIP3   OH227269   3.284   4.738   0.225  0.1641  0.0594  0.5412
 9102TIP3    H127270   3.296   4.644   0.238  0.3542  0.0261  0.1257
 9102TIP3    H227271   3.372   4.771   0.203  0.3773  0.5548  2.0018
 9103TIP3   OH227272   6.002   2.166   2.900 -0.0634 -0.6742 -0.5441
 9103TIP3    H127273   5.961   2.220   2.969  1.0700 -0.3757 -0.0773
 9103TIP3    H227274   6.092   2.155   2.929 -0.1089 -2.3380 -0.9486
 9104TIP3   OH227275   1.176   2.884   4.474 -0.0506 -0.0934  0.4621
 9104TIP3    H127276   1.212   2.955   4.527  0.0652  0.8229 -0.7896
 9104TIP3    H227277   1.207   2.804   4.516 -0.4732  0.5744  2.1116
 9105TIP3   OH227278   5.971   3.437   3.704  0.2348  0.4734 -0.2806
 9105TIP3    H127279   5.971   3.532   3.713  0.5141  0.8482 -3.2172
 9105TIP3    H227280   5.879   3.412   3.708  0.1259  0.9126  0.0134
 9106TIP3   OH227281   5.392   1.856   1.062 -0.2564 -0.2550 -0.2369
 9106TIP3    H127282   5.329   1.791   1.032 -0.1512 -1.0075  1.0781
 9106TIP3    H227283   5.477   1.814   1.053 -0.2292 -0.5616  1.1449
 9107TIP3   OH227284   6.075   0.958   5.226  0.2984 -0.0438 -0.1164
 9107TIP3    H127285   6.030   0.892   5.172  1.6277 -1.0196 -0.0816
 9107TIP3    H227286   6.037   1.041   5.198  1.1431 -0.4622 -2.8499
 9108TIP3   OH227287   2.334   5.188   4.229  0.1412 -0.2519 -0.0839
 9108TIP3    H127288   2.305   5.261   4.283 -0.7675 -0.5708 -0.1148
 9108TIP3    H227289   2.304   5.110   4.276  1.9298 -0.6735  0.4440
 9109TIP3   OH227290   4.685   6.560   0.744  0.1746 -0.0169  0.6293
 9109TIP3    H127291   4.749   6.499   0.705 -0.3903  0.6405 -1.4359
 9109TIP3    H227292   4.674   6.628   0.678  1.3851  2.8613  3.1562
 9110TIP3   OH227293   1.862   2.884   0.810 -0.2753 -0.3261 -0.2006
 9110TIP3    H127294   1.932   2.880   0.745  0.6996  0.5069  0.7617
 9110TIP3    H227295   1.828   2.973   0.802 -0.9439 -0.5877 -0.3489
 9111TIP3   OH227296   1.989   0.572   4.724 -0.0513 -0.1591 -0.1071
 9111TIP3    H127297   2.048   0.616   4.786 -0.5957  0.5906 -0.0999
 9111TIP3    H227298   2.001   0.479   4.741 -1.2126  0.0326  2.1389
 9112TIP3   OH227299   5.944   1.056   0.218 -0.0251 -0.3669  0.0805
 9112TIP3    H127300   5.896   1.010   0.149 -0.3697  1.8244 -1.2664
 9112TIP3    H227301   5.880   1.068   0.288  0.1571 -2.1000  0.5954
 9113TIP3   OH227302   6.878   3.905   2.241 -0.3466  0.0158  0.1572
 9113TIP3    H127303   6.901   3.854   2.319  0.5545 -0.1998 -0.2312
 9113TIP3    H227304   6.938   3.980   2.244 -1.8694  1.2792  0.9042
 9114TIP3   OH227305   0.890   3.106   2.482  0.4772 -0.1213 -0.0763
 9114TIP3    H127306   0.803   3.126   2.449  0.4845 -0.4189 -0.2845
 9114TIP3    H227307   0.886   3.013   2.506  0.8993 -0.2949 -0.6410
 9115TIP3   OH227308   3.952   1.599   3.959  0.6643  0.3396  0.0621
 9115TIP3    H127309   3.906   1.570   3.880  0.3557  0.2646  0.2674
 9115TIP3    H227310   3.882   1.616   4.023  0.8983  0.5887  0.2572
 9116TIP3   OH227311   3.817   6.357   1.173  0.2639  0.0040 -0.0596
 9116TIP3    H127312   3.738   6.377   1.224 -0.2885 -0.3856 -0.7463
 9116TIP3    H227313   3.887   6.351   1.238 -0.6540 -1.7977  0.8197
 9117TIP3   OH227314   3.805   4.168   0.190 -0.3376 -0.1616  0.1266
 9117TIP3    H127315   3.835   4.086   0.228  1.1199  0.2548 -0.0380
 9117TIP3    H227316   3.773   4.145   0.103 -1.0572 -0.7130  0.5306
 9118TIP3   OH227317   5.494   4.496   0.170  0.5486  0.1484 -0.3751
 9118TIP3    H127318   5.561   4.504   0.237  2.0119  0.2111 -1.7845
 9118TIP3    H227319   5.412   4.487   0.218  1.5235  0.4182  1.3913
 9119TIP3   OH227320   1.429   0.021   0.333 -0.1022 -0.4718 -0.0818
 9119TIP3    H127321   1.462   0.111   0.330 -0.0441 -0.3873  1.6901
 9119TIP3    H227322   1.489  -0.029   0.278  0.7828  0.3293  0.1360
 9120TIP3   OH227323   4.163   6.431   0.237  0.2890  0.4185 -0.2153
 9120TIP3    H127324   4.190   6.380   0.313  1.4363 -0.5617 -1.2491
 9120TIP3    H227325   4.192   6.520   0.256  0.3273  0.2370  0.5997
 9121TIP3   OH227326   2.027   5.081   4.553  0.6058  0.1122 -0.0471
 9121TIP3    H127327   1.975   5.030   4.615  0.0877  1.4975  0.6932
 9121TIP3    H227328   1.980   5.164   4.544  1.5389  0.5591 -1.0580
 9122TIP3   OH227329   4.433   6.822   0.169 -0.0480  0.3637  0.0813
 9122TIP3    H127330   4.523   6.799   0.195 -0.4827 -0.4287  0.9837
 9122TIP3    H227331   4.394   6.738   0.145 -0.3376  0.8060 -1.0054
 9123TIP3   OH227332   3.502   2.445   0.091 -0.4653 -0.0799 -0.0413
 9123TIP3    H127333   3.543   2.364   0.122 -1.3380 -0.5441 -0.0785
 9123TIP3    H227334   3.576   2.505   0.076  0.3104 -1.3178 -1.3930
 9124TIP3   OH227335   2.518   1.447   1.400  1.1236  0.3870 -0.0108
 9124TIP3    H127336   2.510   1.358   1.434 -0.4032  0.2029 -0.7711
 9124TIP3    H227337   2.563   1.438   1.316  1.4361  0.3986  0.1544
 9125TIP3   OH227338   3.299   3.424   0.552  0.0571 -0.3065 -0.2080
 9125TIP3    H127339   3.237   3.464   0.491 -1.5867 -1.0496  0.9010
 9125TIP3    H227340   3.352   3.497   0.583 -0.4961  0.4197 -0.9119
 9126TIP3   OH227341   1.774   2.089   0.858  0.3346 -0.5439  0.1040
 9126TIP3    H127342   1.840   2.052   0.800 -0.5903  0.2402 -1.5014
 9126TIP3    H227343   1.725   2.151   0.804  0.3931  1.3839  2.1253
 9127TIP3   OH227344   2.764   2.528   0.441 -0.0328  0.1373  0.4775
 9127TIP3    H127345   2.839   2.541   0.383  0.8823  1.0980  1.8197
 9127TIP3    H227346   2.691   2.567   0.394  0.6047  0.5465 -0.2017
 9128TIP3   OH227347   6.817   1.467   5.485  0.3072 -0.1363  0.2508
 9128TIP3    H127348   6.855   1.460   5.398 -0.9906 -0.4403 -0.3198
 9128TIP3    H227349   6.890   1.492   5.541  1.6244 -1.9072 -0.5667
 9129TIP3   OH227350   7.197   3.376   2.959  0.0277 -0.4605  0.8707
 9129TIP3    H127351   7.173   3.353   2.870  0.2082 -1.1764  0.9996
 9129TIP3    H227352   7.120   3.354   3.011  0.0105 -0.2743  0.9244
 9130TIP3   OH227353   3.955   1.564   0.567  0.6225  0.0916  0.2322
 9130TIP3    H127354   3.978   1.624   0.496 -1.0913 -1.1918 -1.5253
 9130TIP3    H227355   3.958   1.477   0.527 -1.3003 -0.6060  1.4423
 9131TIP3   OH227356   4.875   5.087   1.933  0.1238  0.1597  0.7288
 9131TIP3    H127357   4.809   5.136   1.981 -0.8439  1.9946 -2.2226
 9131TIP3    H227358   4.955   5.098   1.985 -0.9747  1.4535  2.2405
 9132TIP3   OH227359   0.672   2.240   5.104 -0.9163  0.3259  0.3172
 9132TIP3    H127360   0.702   2.242   5.195  3.2789 -0.1359 -0.8127
 9132TIP3    H227361   0.687   2.329   5.072 -2.2811  0.4638  0.0129
 9133TIP3   OH227362   7.126   1.789   1.312  1.2564 -0.0019  0.1485
 9133TIP3    H127363   7.147   1.708   1.359 -0.1383 -0.9422 -0.7542
 9133TIP3    H227364   7.193   1.796   1.245  0.3681 -1.4627 -0.9484
 9134TIP3   OH227365   1.250   5.666   3.606 -0.2001  0.4998 -0.3569
 9134TIP3    H127366   1.167   5.714   3.602 -0.2171  0.4492 -3.4585
 9134TIP3    H227367   1.308   5.714   3.548  2.1294  0.6755  1.9574
 9135TIP3   OH227368   3.873   6.266   1.919  0.2524 -0.1043 -0.4475
 9135TIP3    H127369   3.812   6.246   1.990 -1.4499 -2.5794 -2.4465
 9135TIP3    H227370   3.953   6.220   1.942 -0.2775 -0.8668 -0.0945
 9136TIP3   OH227371   2.361   1.575   4.333 -0.0785  1.0111 -0.3324
 9136TIP3    H127372   2.409   1.654   4.307  1.2124  0.1754 -0.6288
 9136TIP3    H227373   2.364   1.519   4.255  1.2995 -0.3461  0.6153
 9137TIP3   OH227374   6.583   0.518   4.950  0.7313 -0.0308 -0.6823
 9137TIP3    H127375   6.557   0.609   4.964  0.2169 -0.2226 -0.3472
 9137TIP3    H227376   6.679   0.521   4.946  0.6928  0.6059 -1.2932
 9138TIP3   OH227377   1.091   0.299   4.480  0.1750  0.0479  0.1431
 9138TIP3    H127378   1.001   0.269   4.465 -0.1645  0.1763  1.7620
 9138TIP3    H227379   1.121   0.329   4.394 -1.0077 -0.8301 -0.6037
 9139TIP3   OH227380   1.373   0.232   5.295  0.0823  0.1695  0.1782
 9139TIP3    H127381   1.370   0.147   5.340  0.2855 -0.5299 -1.0908
 9139TIP3    H227382   1.465   0.245   5.275  0.2686  1.4407  1.6924
 9140TIP3   OH227383   4.575   2.868   0.071  0.4657  0.4036 -0.0042
 9140TIP3    H127384   4.497   2.832   0.114 -0.1065  1.1739 -0.3593
 9140TIP3    H227385   4.587   2.814  -0.007  1.0075 -0.4720  0.6765
 9141TIP3   OH227386   1.075   3.194   2.684  0.3571 -0.5814 -0.2305
 9141TIP3    H127387   1.006   3.196   2.617 -2.5067  0.9126  2.5160
 9141TIP3    H227388   1.149   3.238   2.643 -1.4125  0.6875 -2.2757
 9142TIP3   OH227389   4.828   2.898   4.197  0.1896  0.6258 -0.7847
 9142TIP3    H127390   4.806   2.989   4.176  1.8616  1.4995  0.8769
 9142TIP3    H227391   4.758   2.846   4.158 -0.9959  2.6467 -1.4962
 9143TIP3   OH227392   6.102   3.328   1.026 -0.0354 -0.0183  0.1477
 9143TIP3    H127393   6.178   3.269   1.027  1.0883  1.3483  1.7559
 9143TIP3    H227394   6.114   3.380   0.947  1.1602  0.6954  0.7672
 9144TIP3   OH227395   3.937   5.810   3.814 -0.5886 -0.1154  0.0232
 9144TIP3    H127396   3.957   5.737   3.756  2.4377  0.2786  0.4238
 9144TIP3    H227397   3.893   5.770   3.889 -0.1749 -1.3503 -0.3775
 9145TIP3   OH227398   6.588   4.567   3.651  0.0856  0.2068 -0.2620
 9145TIP3    H127399   6.628   4.654   3.644  0.4552 -0.0604 -1.8038
 9145TIP3    H227400   6.660   4.510   3.678  0.0929  0.1970 -0.3021
 9146TIP3   OH227401   3.549   2.951   2.369  0.1005 -0.1020  0.2823
 9146TIP3    H127402   3.557   2.996   2.453  1.4888  0.7510 -0.2670
 9146TIP3    H227403   3.479   2.888   2.382 -1.8290  2.0693  1.1604
 9147TIP3   OH227404   2.277   1.570   5.852  0.0114  0.0246 -0.3705
 9147TIP3    H127405   2.355   1.613   5.887  0.9042 -0.3821 -1.7489
 9147TIP3    H227406   2.297   1.558   5.759 -1.2662 -1.0426 -0.5334
 9148TIP3   OH227407   3.676   1.465   0.205  0.4433  0.1654  0.3337
 9148TIP3    H127408   3.620   1.499   0.134  1.1610  2.5243  0.8090
 9148TIP3    H227409   3.631   1.387   0.235 -0.0184 -0.8261 -2.5558
 9149TIP3   OH227410   3.837   2.607   1.111  0.1105 -0.0682 -0.1712
 9149TIP3    H127411   3.826   2.524   1.065  1.5407 -0.2145 -0.2922
 9149TIP3    H227412   3.855   2.582   1.202 -0.0094  0.1425 -0.0880
 9150TIP3   OH227413   6.041   1.054   3.332 -0.0258 -0.4831  0.7230
 9150TIP3    H127414   6.106   1.025   3.395 -0.1791 -1.1696  0.5733
 9150TIP3    H227415   6.000   0.973   3.300 -0.4407 -0.1063  0.2737
 9151TIP3   OH227416   3.423   2.007   5.307 -0.5259 -0.2863  0.6649
 9151TIP3    H127417   3.465   1.948   5.369 -2.1899 -3.1288 -0.7339
 9151TIP3    H227418   3.488   2.021   5.239 -0.0751 -0.4009  1.0684
 9152TIP3   OH227419   2.727   4.809   3.527 -0.3827  0.0882  0.4831
 9152TIP3    H127420   2.709   4.872   3.597  1.2055  0.2370  0.7938
 9152TIP3    H227421   2.808   4.840   3.487 -0.2744 -1.0325 -0.2110
 9153TIP3   OH227422   5.375   6.200   0.797 -0.4846  0.0934  0.1756
 9153TIP3    H127423   5.335   6.115   0.782 -1.3573  0.3978  0.7200
 9153TIP3    H227424   5.427   6.216   0.718 -0.5471 -0.8028 -0.0607
 9154TIP3   OH227425   2.676   2.030   2.587  0.1388 -0.2700  0.1093
 9154TIP3    H127426   2.613   1.958   2.589  0.9119 -0.9823 -0.3886
 9154TIP3    H227427   2.693   2.050   2.679 -1.4349  0.5122  0.2687
 9155TIP3   OH227428   2.706   3.407   1.104 -0.4410  0.5529 -0.2681
 9155TIP3    H127429   2.618   3.377   1.082 -0.3621  1.3539 -1.8296
 9155TIP3    H227430   2.761   3.378   1.031  0.6088  0.0495  0.6855
 9156TIP3   OH227431   6.861   1.664   3.780  0.3535 -0.0135 -0.0311
 9156TIP3    H127432   6.941   1.690   3.736  1.0042  2.2491  2.2415
 9156TIP3    H227433   6.845   1.575   3.750  3.6007 -0.4855 -0.7486
 9157TIP3   OH227434   0.660   0.894   4.354  0.6184 -0.0365  0.0252
 9157TIP3    H127435   0.691   0.931   4.437  2.2266 -0.2783 -0.4237
 9157TIP3    H227436   0.641   0.970   4.299  0.6597  0.1237  0.2312
 9158TIP3   OH227437   5.823   6.573   2.457  0.3653 -0.1664 -0.5179
 9158TIP3    H127438   5.915   6.550   2.446  0.5126  0.3809 -0.4737
 9158TIP3    H227439   5.784   6.561   2.370  0.3975 -0.7332 -0.4578
 9159TIP3   OH227440   4.422   2.342   0.213 -0.2893  0.6379  0.0344
 9159TIP3    H127441   4.513   2.364   0.232  0.7396 -2.1241 -1.0918
 9159TIP3    H227442   4.398   2.397   0.139  1.0366  0.2766 -0.6879
 9160TIP3   OH227443   5.468   6.686   1.701 -0.1698  0.3762  0.0495
 9160TIP3    H127444   5.393   6.742   1.680  0.0105  0.5982 -0.0112
 9160TIP3    H227445   5.544   6.743   1.689 -0.0024  0.2032  0.2799
 9161TIP3   OH227446   1.281   4.932   4.444 -0.1928 -0.2827 -0.8412
 9161TIP3    H127447   1.332   4.934   4.362 -0.0338 -1.3337 -0.7937
 9161TIP3    H227448   1.273   4.838   4.463 -0.5808 -0.0544  0.1331
 9162TIP3   OH227449   0.234   0.378   5.476  0.0225  0.3197  0.4435
 9162TIP3    H127450   0.204   0.423   5.555  2.0749  1.8077  0.4708
 9162TIP3    H227451   0.330   0.387   5.478  0.1482  0.4726 -2.2368
 9163TIP3   OH227452   4.791   1.574   5.021 -0.2775 -0.2230 -0.4319
 9163TIP3    H127453   4.770   1.599   5.110  0.9879  0.5858 -0.3376
 9163TIP3    H227454   4.706   1.573   4.975 -0.5574  4.3469 -0.4768
 9164TIP3   OH227455   3.790   3.133   3.700  0.0215  0.2917 -0.0013
 9164TIP3    H127456   3.861   3.080   3.735  0.2648  1.1010  0.7376
 9164TIP3    H227457   3.830   3.183   3.629  0.2358  0.8521  0.5058
 9165TIP3   OH227458   0.736   1.915   1.326  0.3896  0.8664 -0.3605
 9165TIP3    H127459   0.660   1.865   1.357 -0.0059  1.0929 -0.9392
 9165TIP3    H227460   0.811   1.861   1.350  0.0661  0.7644  0.4642
 9166TIP3   OH227461   6.331   3.161   2.465 -0.0678 -0.3207 -0.4441
 9166TIP3    H127462   6.286   3.156   2.549  0.9263 -1.7365  0.0438
 9166TIP3    H227463   6.413   3.208   2.484  0.5265 -1.3393 -0.4276
 9167TIP3   OH227464   2.158   5.821   4.976  0.1564  0.4651 -0.5504
 9167TIP3    H127465   2.157   5.732   4.941  0.2327  0.7487 -1.3114
 9167TIP3    H227466   2.244   5.855   4.950 -0.4696  1.2726 -1.6543
 9168TIP3   OH227467   3.991   6.064   5.499 -0.0606 -0.3535  0.3468
 9168TIP3    H127468   4.045   6.078   5.577 -0.5530 -0.2303  0.6733
 9168TIP3    H227469   4.034   5.993   5.452  0.1300 -0.5644  0.8365
 9169TIP3   OH227470   5.440   3.058   1.061  0.4475  0.2851 -0.1861
 9169TIP3    H127471   5.447   3.041   1.155 -0.4480 -1.3456 -0.3872
 9169TIP3    H227472   5.370   3.124   1.054  0.7762  0.6981  0.3002
 9170TIP3   OH227473   5.256   2.996   4.980 -0.1359 -0.3497 -0.2068
 9170TIP3    H127474   5.315   2.975   4.907 -0.5948  0.0050 -0.6943
 9170TIP3    H227475   5.246   3.092   4.975 -0.7716 -0.4083 -0.1574
 9171TIP3   OH227476   0.422   4.299   5.559  0.2652 -0.4843  0.9342
 9171TIP3    H127477   0.352   4.259   5.507 -1.6626  0.2746  2.7889
 9171TIP3    H227478   0.485   4.228   5.573 -1.2199 -1.8534  1.0102
 9172TIP3   OH227479   1.274   4.744   0.390 -0.5813 -0.0607 -0.2819
 9172TIP3    H127480   1.207   4.717   0.327 -0.9680 -2.6906  1.1140
 9172TIP3    H227481   1.346   4.681   0.377  0.0090  0.3750  0.7797
 9173TIP3   OH227482   1.504   0.849   4.303 -0.1143 -0.0234 -0.5499
 9173TIP3    H127483   1.433   0.869   4.364  0.3161 -2.2086  0.7839
 9173TIP3    H227484   1.573   0.912   4.326 -0.7864  0.6544 -0.3366
 9174TIP3   OH227485   2.451   3.831   4.110 -0.1880 -0.0568  0.1166
 9174TIP3    H127486   2.459   3.823   4.015 -1.0793 -0.8252  0.0981
 9174TIP3    H227487   2.518   3.772   4.145  0.8940  1.0576 -0.0168
 9175TIP3   OH227488   6.456   2.659   0.724  0.4119 -0.0085 -0.4992
 9175TIP3    H127489   6.426   2.593   0.661  1.5500  0.1875 -1.2682
 9175TIP3    H227490   6.542   2.686   0.692  1.5172 -0.6646  1.6874
 9176TIP3   OH227491   1.083   2.501   5.027 -0.0247 -0.0303 -0.4008
 9176TIP3    H127492   1.170   2.488   4.988  1.0397  1.7862  1.1692
 9176TIP3    H227493   1.077   2.430   5.092  0.9615  0.6745  0.5002
 9177TIP3   OH227494   4.141   0.387   2.832  0.4485 -0.1025 -0.6165
 9177TIP3    H127495   4.116   0.347   2.749  1.0444  0.4187 -1.0568
 9177TIP3    H227496   4.187   0.467   2.807 -1.0500  1.0926  0.2318
 9178TIP3   OH227497   5.585   6.073   0.480 -0.1072 -0.1411 -0.2972
 9178TIP3    H127498   5.653   6.090   0.415  1.2270  0.3631  1.1777
 9178TIP3    H227499   5.622   6.004   0.535 -1.3760 -0.8344 -0.2937
 9179TIP3   OH227500   2.216   6.575   1.330 -0.2608  0.0275  0.0230
 9179TIP3    H127501   2.222   6.520   1.253 -0.3115 -0.7690  0.5714
 9179TIP3    H227502   2.149   6.533   1.385 -0.1211  0.4929  0.5664
 9180TIP3   OH227503   3.590   6.288   2.322  0.3096 -0.2920  0.3432
 9180TIP3    H127504   3.562   6.316   2.409  0.1483 -0.8140  0.4623
 9180TIP3    H227505   3.526   6.221   2.296  0.8448 -0.7588  0.1940
 9181TIP3   OH227506   2.807   0.662   3.550 -0.0935  0.4267 -0.0450
 9181TIP3    H127507   2.820   0.744   3.504  1.0266  0.1565 -0.2233
 9181TIP3    H227508   2.864   0.667   3.626 -1.2314  0.4810  0.8393
 9182TIP3   OH227509   1.883   2.124   5.300 -0.0475 -0.0046 -0.2777
 9182TIP3    H127510   1.864   2.033   5.281 -0.1157 -0.1187  0.3228
 9182TIP3    H227511   1.957   2.146   5.243 -0.4027 -0.2590 -0.8462
 9183TIP3   OH227512   6.672   1.224   4.430  0.3271  0.1238 -0.4950
 9183TIP3    H127513   6.579   1.200   4.434 -0.0258  1.4892  0.1662
 9183TIP3    H227514   6.684   1.285   4.503  2.3155 -1.8040  0.8836
 9184TIP3   OH227515   4.276   1.900   4.794  0.3520  0.0731 -0.9817
 9184TIP3    H127516   4.256   1.964   4.726  1.0210  0.9479 -0.3798
 9184TIP3    H227517   4.370   1.909   4.809  0.9013 -2.4753 -2.2928
 9185TIP3   OH227518   4.350   2.245   4.113  0.0045 -0.4984  0.1341
 9185TIP3    H127519   4.406   2.208   4.044  1.8120 -0.3191  1.4207
 9185TIP3    H227520   4.333   2.334   4.084  1.1774 -0.2558  0.1155
 9186TIP3   OH227521   4.041   3.591   1.009 -0.3422  0.0824  0.3837
 9186TIP3    H127522   4.114   3.633   1.055  2.0119 -2.1769 -0.9735
 9186TIP3    H227523   4.026   3.509   1.057 -1.3166  0.0542  0.0495
 9187TIP3   OH227524   3.308   5.786   3.786  0.4570  0.0842  0.0311
 9187TIP3    H127525   3.356   5.734   3.721 -1.0870 -1.1057 -0.2043
 9187TIP3    H227526   3.236   5.729   3.814 -0.6486  1.7043  0.6000
 9188TIP3   OH227527   6.815   6.382   3.420 -0.4428 -0.2007 -0.0335
 9188TIP3    H127528   6.757   6.421   3.485 -0.4625  1.4629 -0.9758
 9188TIP3    H227529   6.759   6.368   3.344  0.1728  0.6098 -0.6597
 9189TIP3   OH227530   3.006   1.909   0.359 -0.3862 -0.7496 -0.1686
 9189TIP3    H127531   3.074   1.953   0.308  0.6570  0.4185  2.0703
 9189TIP3    H227532   2.925   1.925   0.310 -0.2348  4.3388  0.6656
 9190TIP3   OH227533   2.099   5.926   4.616 -0.4918 -0.3073  0.4554
 9190TIP3    H127534   2.126   5.992   4.680  0.5588 -0.8706  0.5987
 9190TIP3    H227535   2.004   5.921   4.626 -0.5735  1.0808  0.5383
 9191TIP3   OH227536   2.089   1.833   0.183  0.6782  0.2342  0.2419
 9191TIP3    H127537   2.098   1.787   0.100  0.7864 -1.2796  1.0538
 9191TIP3    H227538   2.035   1.775   0.237  0.7580  1.0960  1.2990
 9192TIP3   OH227539   2.451   6.483   4.140  0.1121  0.0664 -0.1829
 9192TIP3    H127540   2.384   6.417   4.153 -0.0194  0.3195  0.4910
 9192TIP3    H227541   2.414   6.543   4.075  0.2365 -0.5212 -0.7976
 9193TIP3   OH227542   3.580   1.713   4.358 -0.1898  1.2520 -0.0795
 9193TIP3    H127543   3.529   1.636   4.381 -0.0597  1.1988  0.0299
 9193TIP3    H227544   3.623   1.691   4.276  1.5198  0.4129  0.9896
 9194TIP3   OH227545   2.469   5.486   1.566  0.3300  0.0740  0.0650
 9194TIP3    H127546   2.500   5.503   1.477  0.0318  1.3422  0.1798
 9194TIP3    H227547   2.518   5.547   1.621  0.6981 -0.8738  0.8146
 9195TIP3   OH227548   0.558   6.074   2.654  0.3737 -0.2927  0.2621
 9195TIP3    H127549   0.513   6.111   2.730 -0.8140  1.6682 -1.2777
 9195TIP3    H227550   0.604   6.149   2.615 -1.0269 -0.6316 -2.2491
 9196TIP3   OH227551   1.466   3.452   5.791  0.0990 -0.3137  0.2025
 9196TIP3    H127552   1.545   3.449   5.845  0.6974  3.1215 -0.2697
 9196TIP3    H227553   1.496   3.477   5.704 -1.4773  1.9497  0.2026
 9197TIP3   OH227554   5.638   0.802   1.364 -0.0392  0.3718  0.4845
 9197TIP3    H127555   5.710   0.847   1.408  1.8215 -1.5655 -0.3701
 9197TIP3    H227556   5.593   0.871   1.316  1.4831  1.6296  0.7625
 9198TIP3   OH227557   1.072   3.321   2.351  0.2287  0.2385  0.1111
 9198TIP3    H127558   1.018   3.245   2.372 -0.7123  0.2548 -2.0208
 9198TIP3    H227559   1.162   3.288   2.352  0.0050 -0.4010  1.1190
 9199TIP3   OH227560   0.497   1.290   3.605 -0.3926  0.1043 -0.1414
 9199TIP3    H127561   0.412   1.319   3.574 -0.8740 -1.0863  0.0163
 9199TIP3    H227562   0.508   1.203   3.568 -1.3177 -1.7309  3.4756
 9200TIP3   OH227563   2.999   5.408   3.791 -0.3541 -0.0022 -0.3087
 9200TIP3    H127564   2.968   5.342   3.729 -0.1748 -0.7546  0.3759
 9200TIP3    H227565   3.089   5.381   3.811 -0.3821  0.2732  0.2058
 9201TIP3   OH227566   0.771   6.345   2.942 -0.5756 -0.0083  0.0925
 9201TIP3    H127567   0.851   6.323   2.894  0.8350  0.7900  1.9287
 9201TIP3    H227568   0.738   6.261   2.973 -0.5110 -0.3553 -0.7571
 9202TIP3   OH227569   1.826   3.281   3.191  0.0280  0.1720  0.3155
 9202TIP3    H127570   1.744   3.258   3.147 -0.4802  1.2987  0.6376
 9202TIP3    H227571   1.859   3.197   3.224  0.5358 -0.7412 -2.2908
 9203TIP3   OH227572   3.543   3.173   3.414 -0.3314 -0.1315  0.3741
 9203TIP3    H127573   3.507   3.212   3.334  1.0906 -0.3904 -0.4253
 9203TIP3    H227574   3.637   3.183   3.405 -0.1747  1.0302  2.6740
 9204TIP3   OH227575   1.608   6.228   3.400 -0.2615  0.0116 -0.0252
 9204TIP3    H127576   1.571   6.299   3.347 -1.0254  0.0606  0.5563
 9204TIP3    H227577   1.556   6.229   3.481  0.2778 -0.6638  0.3383
 9205TIP3   OH227578   3.459   5.386   0.412 -0.3072  0.4366  0.1801
 9205TIP3    H127579   3.496   5.474   0.416  0.9282 -0.0753  0.3397
 9205TIP3    H227580   3.528   5.329   0.445 -0.1094 -0.8827 -2.2922
 9206TIP3   OH227581   4.610   0.963   0.709 -0.6835  0.7567 -0.3683
 9206TIP3    H127582   4.656   1.024   0.652 -0.7184  0.5046 -0.6685
 9206TIP3    H227583   4.517   0.981   0.693 -0.7204 -0.2432 -1.4250
 9207TIP3   OH227584   3.641   4.798   4.838  0.2747 -0.2967 -0.5173
 9207TIP3    H127585   3.641   4.733   4.908 -0.6021  0.4389  0.1907
 9207TIP3    H227586   3.732   4.826   4.830  0.5137 -0.9871 -0.2437
 9208TIP3   OH227587   3.896   5.440   0.995 -0.1576 -0.1512 -0.0392
 9208TIP3    H127588   3.863   5.403   0.913  1.2924 -0.6365 -0.4402
 9208TIP3    H227589   3.987   5.412   0.998 -0.9024 -2.8371  3.2685
 9209TIP3   OH227590   3.032   6.538   2.910 -0.0225  0.1109  0.1485
 9209TIP3    H127591   2.977   6.553   2.833  1.3483  0.9516 -0.6971
 9209TIP3    H227592   3.110   6.591   2.895  0.6507 -0.3675  1.7349
 9210TIP3   OH227593   5.734   3.812   2.864  0.4116 -0.3285 -0.3870
 9210TIP3    H127594   5.674   3.870   2.911  1.5142  1.6970 -1.3065
 9210TIP3    H227595   5.678   3.752   2.816 -0.7923 -0.1172  0.7124
 9211TIP3   OH227596   2.378   4.939   2.548 -0.1298 -0.1069  0.5289
 9211TIP3    H127597   2.292   4.965   2.516 -0.5471 -1.8995  0.1094
 9211TIP3    H227598   2.436   4.952   2.473 -0.2626 -0.0645  0.4341
 9212TIP3   OH227599   3.445   0.296   1.917  0.4343 -0.5171 -0.2878
 9212TIP3    H127600   3.476   0.386   1.910 -1.3404  0.1557 -0.0792
 9212TIP3    H227601   3.507   0.254   1.976 -0.7413  1.6086  2.7248
 9213TIP3   OH227602   3.389   6.703   2.582  0.0084  0.1590 -0.0324
 9213TIP3    H127603   3.331   6.628   2.597 -0.7339  0.7293 -0.0123
 9213TIP3    H227604   3.463   6.687   2.640 -0.7132  0.0422  0.8847
 9214TIP3   OH227605   4.972   4.377   2.649 -0.1670 -0.1712  0.5298
 9214TIP3    H127606   4.966   4.438   2.576 -0.8497 -0.1191  0.6280
 9214TIP3    H227607   5.040   4.415   2.706  1.9841 -1.3445 -1.1119
 9215TIP3   OH227608   1.991   1.914   3.882 -0.0254  0.3949 -0.0951
 9215TIP3    H127609   1.896   1.920   3.893  0.0964  0.3575  1.0445
 9215TIP3    H227610   2.005   1.942   3.791 -1.1391  0.2028 -0.3514
 9216TIP3   OH227611   0.115   0.316   4.950  0.1578  0.1329  0.1965
 9216TIP3    H127612   0.153   0.382   5.008  0.5152  2.2177 -2.2487
 9216TIP3    H227613   0.039   0.283   4.999  0.2130  2.0454  1.7105
 9217TIP3   OH227614   2.657   1.015   2.158 -0.1415  0.5080 -0.0802
 9217TIP3    H127615   2.574   0.994   2.115 -0.0044  1.2423 -0.7344
 9217TIP3    H227616   2.713   0.940   2.141 -1.0206 -0.5428  1.3818
 9218TIP3   OH227617   1.594   5.768   5.878 -0.1770  0.2083  0.2076
 9218TIP3    H127618   1.593   5.852   5.922  0.5016 -0.5168  1.6593
 9218TIP3    H227619   1.669   5.773   5.819 -0.1026  0.5941  0.3309
 9219TIP3   OH227620   6.355   2.688   1.782  0.4081 -0.3585  1.0508
 9219TIP3    H127621   6.385   2.778   1.790  1.2409 -0.6180  0.9425
 9219TIP3    H227622   6.299   2.674   1.858  0.2423  0.2602  1.0462
 9220TIP3   OH227623   2.216   2.402   3.848 -0.3805  0.1747 -0.7948
 9220TIP3    H127624   2.183   2.483   3.809 -0.8626  0.0072 -0.7333
 9220TIP3    H227625   2.288   2.376   3.790 -2.0020 -0.8682 -2.4854
 9221TIP3   OH227626   1.342   6.401   0.940  0.3244 -0.1261  0.2619
 9221TIP3    H127627   1.411   6.434   0.998  0.7987 -0.0261 -0.3418
 9221TIP3    H227628   1.388   6.340   0.881 -0.3448 -1.0605  0.6858
 9222TIP3   OH227629   6.157   1.311   5.417  0.2496 -0.0446  0.0980
 9222TIP3    H127630   6.067   1.281   5.406 -0.7599  1.1734  3.7333
 9222TIP3    H227631   6.210   1.232   5.408 -1.3568 -1.1283 -0.2440
 9223TIP3   OH227632   3.999   3.167   1.288  0.6196  0.6418 -0.0496
 9223TIP3    H127633   4.068   3.133   1.231 -0.9608 -2.1185 -0.4531
 9223TIP3    H227634   4.023   3.137   1.375  1.3031  2.0620  0.2904
 9224TIP3   OH227635   3.214   4.257   0.763  0.0115 -0.3191  0.0335
 9224TIP3    H127636   3.156   4.252   0.839  0.1881  1.0847  0.2945
 9224TIP3    H227637   3.206   4.172   0.720 -2.0261 -0.2381  0.1950
 9225TIP3   OH227638   0.986   2.771   4.977  0.5371  0.0847 -0.7969
 9225TIP3    H127639   1.036   2.690   4.966  1.1306  0.6683 -2.8719
 9225TIP3    H227640   1.014   2.827   4.904  0.7428  2.5017  0.9896
 9226TIP3   OH227641   5.886   5.215   2.659  0.8909  0.1999 -0.0368
 9226TIP3    H127642   5.893   5.129   2.700  1.9578 -0.0756 -0.7691
 9226TIP3    H227643   5.882   5.276   2.733  0.7701 -0.4248  0.4828
 9227TIP3   OH227644   1.985   2.450   2.812 -0.2350  0.0911 -0.2564
 9227TIP3    H127645   2.020   2.500   2.886 -0.0873  2.1438 -1.6546
 9227TIP3    H227646   2.059   2.401   2.778  0.2485  0.9218 -0.4273
 9228TIP3   OH227647   3.672   0.089   3.281  0.9789 -0.2976 -0.0715
 9228TIP3    H127648   3.695   0.166   3.228 -2.2927  0.6051 -0.4003
 9228TIP3    H227649   3.577   0.088   3.281  0.8948 -3.6118  1.1091
 9229TIP3   OH227650   5.724   2.280   4.815  0.1798 -0.4837  0.2851
 9229TIP3    H127651   5.800   2.224   4.800  1.2786  0.5424  1.7120
 9229TIP3    H227652   5.717   2.287   4.910 -0.7528  0.7013  0.1673
 9230TIP3   OH227653   1.476   1.873   5.730  0.0821  0.7022 -0.1327
 9230TIP3    H127654   1.462   1.873   5.825 -0.2744 -2.0493 -0.0762
 9230TIP3    H227655   1.471   1.965   5.704  0.1755  1.5282  2.4974
 9231TIP3   OH227656   5.561   1.200   1.689 -0.2331  0.4446  0.4835
 9231TIP3    H127657   5.515   1.269   1.641 -0.5129  1.4467  2.1067
 9231TIP3    H227658   5.534   1.212   1.780  1.7252 -0.1636  1.1983
 9232TIP3   OH227659   6.072   6.584   1.186 -0.2925 -0.7157 -0.1316
 9232TIP3    H127660   6.000   6.521   1.183  0.0858 -1.1615  0.0767
 9232TIP3    H227661   6.065   6.632   1.104  0.3516 -2.0719 -1.0120
 9233TIP3   OH227662   1.590   5.799   4.665  0.1506 -0.3096  0.5184
 9233TIP3    H127663   1.583   5.819   4.571  1.1715 -0.1598  0.4560
 9233TIP3    H227664   1.661   5.735   4.670 -1.3201 -1.9861  0.9853
 9234TIP3   OH227665   2.666   3.194   3.258  0.0364 -0.1228 -0.5096
 9234TIP3    H127666   2.632   3.105   3.270 -0.9224  0.3457  0.3450
 9234TIP3    H227667   2.752   3.192   3.300  0.3153 -0.8191 -1.0824
 9235TIP3   OH227668   1.148   2.119   0.436 -0.0816  0.2403 -0.3082
 9235TIP3    H127669   1.159   2.026   0.416 -1.2352  0.0245 -0.0305
 9235TIP3    H227670   1.056   2.137   0.416  0.0222  1.2242  0.0372
 9236TIP3   OH227671   1.485   2.199   4.810 -0.7796 -0.2032 -0.7610
 9236TIP3    H127672   1.445   2.274   4.854  1.6352  1.6830 -1.5752
 9236TIP3    H227673   1.530   2.151   4.879  0.3599  0.9694 -0.6532
 9237TIP3   OH227674   7.108   3.112   5.868  0.2497  0.5408 -0.5931
 9237TIP3    H127675   7.109   3.144   5.778  1.4250 -0.0521 -0.8152
 9237TIP3    H227676   7.164   3.173   5.916  0.3537  0.3427 -0.4600
 9238TIP3   OH227677   5.380   3.603   1.612  0.5269 -0.0295  0.4041
 9238TIP3    H127678   5.399   3.693   1.641 -1.0296  1.2091 -2.0480
 9238TIP3    H227679   5.315   3.571   1.675 -1.0944  1.7237 -0.2749
 9239TIP3   OH227680   4.265   6.578   2.338  0.3838  0.3708  0.3361
 9239TIP3    H127681   4.261   6.668   2.371 -0.3456  1.0597 -1.5199
 9239TIP3    H227682   4.223   6.582   2.252 -0.8130 -2.0120  0.7365
 9240TIP3   OH227683   4.580   4.246   2.939  0.2843 -0.3466  0.4259
 9240TIP3    H127684   4.525   4.177   2.976  1.0411 -0.5005  1.2989
 9240TIP3    H227685   4.645   4.200   2.886 -0.5232 -0.1539 -0.7624
 9241TIP3   OH227686   1.787   4.233   1.571 -0.1789  0.4403  0.3114
 9241TIP3    H127687   1.726   4.306   1.569  0.0284  0.6133  0.3206
 9241TIP3    H227688   1.734   4.157   1.546 -0.6784  0.3777  1.5180
 9242TIP3   OH227689   0.594   5.804   5.091  0.4000  0.3293  0.0720
 9242TIP3    H127690   0.678   5.850   5.083 -1.0392  3.7459  2.4783
 9242TIP3    H227691   0.533   5.855   5.038 -0.6256 -0.7702  0.1527
 9243TIP3   OH227692   0.286   3.238   2.818  0.0180 -0.0163  0.0362
 9243TIP3    H127693   0.319   3.154   2.850  0.4430 -0.1273 -0.6617
 9243TIP3    H227694   0.262   3.286   2.897  0.1467 -0.6410  0.4639
 9244TIP3   OH227695   5.716   5.716   5.684 -0.3722 -0.0666 -0.0359
 9244TIP3    H127696   5.746   5.796   5.727 -1.8219  0.2642  0.4178
 9244TIP3    H227697   5.679   5.745   5.601 -0.5577 -0.3109 -0.0396
 9245TIP3   OH227698   4.614   3.253   3.511 -0.0838 -0.0751  0.0063
 9245TIP3    H127699   4.524   3.234   3.535 -0.2663  0.7055 -0.0228
 9245TIP3    H227700   4.640   3.180   3.454 -0.1092 -1.2074  1.4104
 9246TIP3   OH227701   3.145   4.915   3.906 -0.0447  0.5369 -0.4057
 9246TIP3    H127702   3.110   4.826   3.895 -1.3518  1.0217 -0.3401
 9246TIP3    H227703   3.234   4.901   3.939 -0.5496 -0.7454  0.5456
 9247TIP3   OH227704   4.927   3.714   3.505 -0.2926 -0.5672 -0.4142
 9247TIP3    H127705   4.985   3.757   3.567  0.1794  1.5886 -2.2321
 9247TIP3    H227706   4.863   3.667   3.560  1.4997 -0.7693  1.6307
 9248TIP3   OH227707   6.156   6.754   2.577  0.1368  0.1857 -1.2434
 9248TIP3    H127708   6.159   6.797   2.491  2.3632  0.7197 -0.9556
 9248TIP3    H227709   6.210   6.677   2.567 -0.7039 -0.5028 -0.6639
 9249TIP3   OH227710   5.566   5.994   2.818 -0.1974  0.3034 -0.2328
 9249TIP3    H127711   5.652   5.963   2.846  0.3184  0.6035 -1.3939
 9249TIP3    H227712   5.575   6.089   2.814 -0.2536  0.2763 -1.3243
 9250TIP3   OH227713   3.920   0.951   0.451 -0.3174  0.2432 -0.2863
 9250TIP3    H127714   3.872   0.884   0.402  0.8211 -0.7356 -0.1152
 9250TIP3    H227715   3.897   0.936   0.542 -1.4175  1.2363 -0.3657
 9251TIP3   OH227716   2.177   6.656   0.676 -0.2377 -0.0622 -0.3417
 9251TIP3    H127717   2.187   6.739   0.629 -0.2226 -0.5749 -1.2730
 9251TIP3    H227718   2.266   6.631   0.699 -0.1461 -0.3165 -0.9572
 9252TIP3   OH227719   6.231   3.230   3.739 -0.4878 -0.4493  0.0183
 9252TIP3    H127720   6.230   3.144   3.781 -2.6093 -0.1942  0.5975
 9252TIP3    H227721   6.139   3.253   3.727 -0.0864  2.5627  1.5975
 9253TIP3   OH227722   4.596   4.436   5.175 -0.0830  0.1648 -0.3852
 9253TIP3    H127723   4.576   4.455   5.267 -1.6595  0.9511 -0.8566
 9253TIP3    H227724   4.640   4.352   5.177 -1.6484 -0.6760  0.9713
 9254TIP3   OH227725   2.296   4.375   2.389 -0.4343  0.0476  0.3386
 9254TIP3    H127726   2.298   4.342   2.479 -1.9352  0.6902  0.6318
 9254TIP3    H227727   2.244   4.310   2.341  0.1414 -0.1549 -0.0286
 9255TIP3   OH227728   1.761   4.653   1.430  0.1730 -0.8035 -0.4453
 9255TIP3    H127729   1.776   4.569   1.386  2.0872 -0.6947 -0.0956
 9255TIP3    H227730   1.775   4.719   1.361  1.3801 -0.7046 -0.1388
 9256TIP3   OH227731   3.300   5.754   4.200  0.4729 -0.5046  0.5445
 9256TIP3    H127732   3.354   5.812   4.147  1.5384 -0.5964  1.5052
 9256TIP3    H227733   3.339   5.668   4.190 -0.4284 -0.8749  0.0322
 9257TIP3   OH227734   2.009   0.041   2.823 -0.8795 -0.6842 -0.6345
 9257TIP3    H127735   1.924  -0.002   2.829 -2.1946  1.8952  0.6240
 9257TIP3    H227736   2.020   0.058   2.729 -2.5545  0.3050 -0.7054
 9258TIP3   OH227737   1.244   3.880   4.424 -0.5981  0.4231 -0.0358
 9258TIP3    H127738   1.184   3.904   4.354 -0.7145  1.6473  0.4554
 9258TIP3    H227739   1.277   3.793   4.400 -2.9722 -0.5382 -0.0498
 9259TIP3   OH227740   0.881   1.404   1.914 -0.5192 -0.1075 -0.1872
 9259TIP3    H127741   0.786   1.422   1.915 -0.5181  0.0142 -1.5062
 9259TIP3    H227742   0.893   1.340   1.985 -1.3332  1.0516  1.0634
 9260TIP3   OH227743   6.585   2.107   5.055  0.5100 -0.0273  0.0807
 9260TIP3    H127744   6.602   2.079   5.145 -2.3164  1.0487  1.0611
 9260TIP3    H227745   6.490   2.117   5.051  0.7727  2.6289 -2.1813
 9261TIP3   OH227746   6.681   2.490   4.102  0.1794  0.1805  0.1141
 9261TIP3    H127747   6.615   2.450   4.158  0.8027  0.9045  1.3966
 9261TIP3    H227748   6.641   2.571   4.071  1.2561  1.9520  2.9261
 9262TIP3   OH227749   6.178   5.027   2.490 -0.0719 -0.3017 -0.9391
 9262TIP3    H127750   6.185   5.056   2.399  1.5005  0.9494 -0.4766
 9262TIP3    H227751   6.157   5.107   2.539  1.1007 -0.5514  0.0097
 9263TIP3   OH227752   3.502   3.675   3.705  0.1461 -0.2219 -0.2872
 9263TIP3    H127753   3.410   3.694   3.721  0.3390  1.0268 -0.5766
 9263TIP3    H227754   3.542   3.675   3.792  0.2000  1.0796 -0.3050
 9264TIP3   OH227755   5.859   5.444   0.904 -0.0521  0.5522  0.1042
 9264TIP3    H127756   5.843   5.514   0.841 -0.7786  0.8931  0.6632
 9264TIP3    H227757   5.927   5.480   0.962 -1.2888  1.2983  1.1403
 9265TIP3   OH227758   0.605   0.836   1.318 -0.0071 -0.4585  0.6238
 9265TIP3    H127759   0.646   0.765   1.367 -1.3605 -1.8350 -0.1760
 9265TIP3    H227760   0.589   0.904   1.384 -0.1975 -1.5539  1.7389
 9266TIP3   OH227761   2.971   0.953   2.001  0.0134 -0.3062 -0.0370
 9266TIP3    H127762   3.023   1.012   2.055  0.9125 -0.0208 -1.1821
 9266TIP3    H227763   2.986   0.983   1.911 -2.0281 -0.3008 -0.4208
 9267TIP3   OH227764   6.759   6.131   2.821 -0.1603  0.2381 -0.0613
 9267TIP3    H127765   6.815   6.208   2.825  2.2638 -1.3872  3.7992
 9267TIP3    H227766   6.817   6.058   2.844 -2.9887 -2.2702 -0.2058
 9268TIP3   OH227767   1.817   0.177   3.736 -0.2904 -0.0292  0.6170
 9268TIP3    H127768   1.760   0.243   3.697 -0.7005  0.0078  1.2722
 9268TIP3    H227769   1.862   0.138   3.661 -0.8955  0.2014  0.1219
 9269TIP3   OH227770   1.110   3.331   2.934  0.1071  0.2677 -0.0716
 9269TIP3    H127771   1.078   3.278   2.861  0.0879 -1.1476  0.9189
 9269TIP3    H227772   1.037   3.389   2.955 -0.3487 -0.1886 -0.3620
 9270TIP3   OH227773   6.901   0.567   5.437 -0.2797  0.1935 -0.0942
 9270TIP3    H127774   6.866   0.656   5.444 -2.4075 -0.6942  1.8760
 9270TIP3    H227775   6.865   0.521   5.513  2.0936 -1.9417 -0.1191
 9271TIP3   OH227776   4.494   1.645   0.008 -0.5584  0.2607  0.0807
 9271TIP3    H127777   4.436   1.717  -0.014 -0.8683 -0.4339 -1.5357
 9271TIP3    H227778   4.446   1.594   0.073 -1.1501  0.4524 -0.2041
 9272TIP3   OH227779   3.425   3.185   1.693  0.8448  0.5235  0.2145
 9272TIP3    H127780   3.504   3.169   1.642  0.2911 -0.7231 -0.2975
 9272TIP3    H227781   3.437   3.272   1.730  1.7499  1.0116 -1.1644
 9273TIP3   OH227782   1.929   0.416   3.533  0.0535  0.4434  0.0291
 9273TIP3    H127783   1.859   0.480   3.522 -1.2699 -0.8096  0.7502
 9273TIP3    H227784   1.918   0.356   3.459 -0.7743 -0.7395  1.0723
 9274TIP3   OH227785   3.540   1.189   4.635  0.1447 -0.0585  0.1421
 9274TIP3    H127786   3.584   1.105   4.649  1.2267  0.4185 -0.3261
 9274TIP3    H227787   3.479   1.196   4.708  0.6449 -0.8663  0.6581
 9275TIP3   OH227788   1.275   5.023   1.897 -0.3474  0.0626 -0.4967
 9275TIP3    H127789   1.227   4.966   1.837 -1.3239  0.5576 -0.2001
 9275TIP3    H227790   1.336   5.071   1.840 -0.4838 -0.2717 -0.9348
 9276TIP3   OH227791   5.071   4.893   1.877 -0.2815  0.3937 -0.3302
 9276TIP3    H127792   5.113   4.807   1.885 -0.1976  0.2064 -2.3081
 9276TIP3    H227793   4.978   4.874   1.886 -0.1936  0.3258  0.6245
 9277TIP3   OH227794   2.681   0.571   3.175  0.1365 -0.2392 -0.3319
 9277TIP3    H127795   2.755   0.592   3.232  0.9540 -1.6430 -0.8129
 9277TIP3    H227796   2.713   0.589   3.087 -0.6008  0.4901 -0.4603
 9278TIP3   OH227797   0.773   3.465   1.475 -0.3425  0.6833 -0.2876
 9278TIP3    H127798   0.768   3.401   1.405  1.7955 -0.3811  0.4518
 9278TIP3    H227799   0.836   3.429   1.537 -1.2987  2.1195  1.6405
 9279TIP3   OH227800   6.522   1.506   3.742 -0.0170 -0.1887 -0.1716
 9279TIP3    H127801   6.532   1.450   3.819 -1.4818  0.6784  0.6873
 9279TIP3    H227802   6.590   1.476   3.682 -0.9846 -3.1826  0.0509
 9280TIP3   OH227803   0.605   0.972   2.165  0.2450 -0.4614  0.4169
 9280TIP3    H127804   0.543   0.935   2.227  1.0678  0.0418  1.5684
 9280TIP3    H227805   0.569   0.950   2.079 -1.7674  0.2058  1.0271
 9281TIP3   OH227806   2.694   1.002   3.849  0.1041 -0.0408  0.0896
 9281TIP3    H127807   2.765   1.017   3.786  0.3353  0.8805  0.5467
 9281TIP3    H227808   2.631   1.071   3.831 -0.2378 -0.2995  0.2935
 9282TIP3   OH227809   4.106   3.636   5.365  0.2466  0.1431  0.5433
 9282TIP3    H127810   4.063   3.555   5.336  0.5269  0.3621 -0.5584
 9282TIP3    H227811   4.149   3.613   5.447  0.5196 -0.9039  0.1261
 9283TIP3   OH227812   5.498   4.302   3.750 -0.1609 -0.5157  0.3214
 9283TIP3    H127813   5.547   4.248   3.812 -0.2511  0.1521  0.9988
 9283TIP3    H227814   5.408   4.269   3.755 -0.3075 -0.0521  1.0571
 9284TIP3   OH227815   0.741   6.786   3.364 -0.0598  0.4455 -0.1456
 9284TIP3    H127816   0.736   6.715   3.300  1.0710 -0.5047  0.7697
 9284TIP3    H227817   0.655   6.829   3.359 -0.8136 -1.0440 -0.6730
 9285TIP3   OH227818   7.108   2.653   2.178 -0.0968 -0.4913  0.7877
 9285TIP3    H127819   7.102   2.575   2.124  0.9367  0.0970 -0.2012
 9285TIP3    H227820   7.201   2.672   2.185 -0.3375  0.9118  0.6352
 9286TIP3   OH227821   6.279   2.801   5.384 -0.1518 -0.4421 -0.0940
 9286TIP3    H127822   6.296   2.893   5.363 -1.4391 -0.0854  0.2979
 9286TIP3    H227823   6.269   2.801   5.480 -0.6972 -0.8800 -0.1482
 9287TIP3   OH227824   2.617   5.430   4.320  0.2676  0.3707 -0.1855
 9287TIP3    H127825   2.624   5.514   4.275 -0.9383  0.3042 -0.5193
 9287TIP3    H227826   2.528   5.428   4.356  0.2372 -0.7988 -0.2635
 9288TIP3   OH227827   0.102   5.791   0.884  0.2219  0.3708  0.8808
 9288TIP3    H127828   0.077   5.714   0.833 -1.3851  0.5508  1.3251
 9288TIP3    H227829   0.135   5.854   0.820 -1.4347  0.4642  0.0564
 9289TIP3   OH227830   4.766   5.575   1.125  0.1650 -0.2559  0.3991
 9289TIP3    H127831   4.842   5.554   1.180  0.5212 -0.0339 -0.0034
 9289TIP3    H227832   4.763   5.505   1.060  0.3838  0.0474  0.0542
 9290TIP3   OH227833   5.749   1.096   3.827 -0.2771  0.0299 -0.3210
 9290TIP3    H127834   5.657   1.073   3.816 -0.3103  0.4531 -1.0486
 9290TIP3    H227835   5.797   1.018   3.801 -0.4268 -0.2434  0.2064
 9291TIP3   OH227836   1.284   0.850   3.225 -0.3688 -0.2746 -0.0078
 9291TIP3    H127837   1.207   0.895   3.189  1.3828  2.3639 -0.7939
 9291TIP3    H227838   1.317   0.910   3.292  1.5177 -0.8841 -0.3381
 9292TIP3   OH227839   1.113   0.428   5.662  0.6008 -0.7796  0.2239
 9292TIP3    H127840   1.112   0.466   5.574 -0.9919 -1.8290 -0.2435
 9292TIP3    H227841   1.169   0.350   5.654  1.0483 -0.4758  0.3371
 9293TIP3   OH227842   6.541   1.554   2.965 -0.5335  0.7223  0.0211
 9293TIP3    H127843   6.488   1.598   3.032 -0.8095  2.1719 -1.1117
 9293TIP3    H227844   6.610   1.617   2.944  0.1797 -0.1463 -0.3345
 9294TIP3   OH227845   2.509   0.541   5.628  0.0761  0.0385  0.0723
 9294TIP3    H127846   2.544   0.629   5.618  0.5898 -0.3394 -1.9201
 9294TIP3    H227847   2.577   0.484   5.592 -1.3654 -0.9255 -1.3042
 9295TIP3   OH227848   1.852   2.906   0.149 -0.2933 -0.3444  0.0477
 9295TIP3    H127849   1.795   2.838   0.115  1.2178 -0.5766 -2.1815
 9295TIP3    H227850   1.827   2.985   0.100 -1.2707  0.5206  1.8206
 9296TIP3   OH227851   4.140   2.493   1.094  0.1124  0.4189  0.3808
 9296TIP3    H127852   4.046   2.502   1.081  0.0056  0.7209  1.2877
 9296TIP3    H227853   4.148   2.426   1.162  0.5489  0.5075  0.4204
 9297TIP3   OH227854   7.158   3.454   1.630 -0.7653 -0.2595 -0.3374
 9297TIP3    H127855   7.169   3.373   1.679 -0.4016  0.8787  1.5329
 9297TIP3    H227856   7.076   3.492   1.663 -0.0932  0.9271  0.0168
 9298TIP3   OH227857   3.024   1.147   1.205  0.3237 -0.3193  0.5219
 9298TIP3    H127858   2.942   1.191   1.182  0.9948  0.5278 -0.3527
 9298TIP3    H227859   3.025   1.145   1.300  0.0257  1.1315  0.5715
 9299TIP3   OH227860   6.575   4.432   3.430 -0.1433  0.1299  0.2564
 9299TIP3    H127861   6.603   4.485   3.504 -0.4402  1.9200 -0.8698
 9299TIP3    H227862   6.650   4.374   3.413 -0.6554 -1.5079  2.9003
 9300TIP3   OH227863   0.602   3.593   3.724 -0.2222 -0.3900 -0.2542
 9300TIP3    H127864   0.648   3.527   3.776 -1.0867 -0.2708  0.6693
 9300TIP3    H227865   0.521   3.551   3.696 -0.0395 -0.2536 -1.0213
 9301TIP3   OH227866   0.899   5.381   0.098 -0.2447  0.5357  0.2781
 9301TIP3    H127867   0.907   5.462   0.048  1.4846 -0.6611 -1.5740
 9301TIP3    H227868   0.823   5.336   0.062 -0.8544  1.0518  0.9041
 9302TIP3   OH227869   4.038   1.641   4.962  0.3691  0.2979  0.0093
 9302TIP3    H127870   4.016   1.610   5.050 -1.1535  2.0807  0.3191
 9302TIP3    H227871   4.018   1.735   4.964 -0.6837  0.1943 -2.5171
 9303TIP3   OH227872   1.277   4.783   0.921 -0.2081 -0.3851 -0.2265
 9303TIP3    H127873   1.328   4.703   0.907 -0.2650 -0.7323  1.3257
 9303TIP3    H227874   1.241   4.804   0.835  1.4932 -0.8454 -1.1126
 9304TIP3   OH227875   1.925   1.739   4.397 -0.0207  0.1959 -0.4180
 9304TIP3    H127876   1.964   1.807   4.342  1.4394 -1.2832 -1.3157
 9304TIP3    H227877   1.924   1.661   4.341  0.0112 -0.9497  1.1249
 9305TIP3   OH227878   0.787   1.618   3.873  0.3301 -0.5519  0.4414
 9305TIP3    H127879   0.692   1.617   3.864  0.2860 -2.0606  0.7935
 9305TIP3    H227880   0.820   1.605   3.784  0.3041  2.1141 -0.0466
 9306TIP3   OH227881   6.884   3.077   0.603 -0.4180  0.0168 -0.5329
 9306TIP3    H127882   6.946   3.141   0.638  0.1115 -1.3316  1.1465
 9306TIP3    H227883   6.800   3.104   0.640 -0.3866  0.3377 -0.6874
 9307TIP3   OH227884   0.964   1.132   0.524  0.2297 -0.0049  0.3665
 9307TIP3    H127885   1.046   1.129   0.474  0.1732 -0.9619  0.3059
 9307TIP3    H227886   0.948   1.225   0.539 -1.1174  0.5961 -3.6247
 9308TIP3   OH227887   1.935   1.147   0.316  0.2384 -0.8340 -0.1364
 9308TIP3    H127888   1.892   1.198   0.385  3.1210  0.6652  0.7194
 9308TIP3    H227889   1.959   1.212   0.250  0.4781 -1.7299 -0.9412
 9309TIP3   OH227890   1.700   1.256   4.797  0.0140  0.1891 -0.5059
 9309TIP3    H127891   1.764   1.185   4.805 -0.1026  0.0936 -0.4219
 9309TIP3    H227892   1.741   1.318   4.737  0.9853  1.0159  0.9477
 9310TIP3   OH227893   4.570   4.325   2.606  0.2282  0.3332  0.1786
 9310TIP3    H127894   4.491   4.271   2.598 -0.0423  0.6719  0.5801
 9310TIP3    H227895   4.633   4.268   2.650 -0.3625  0.6511  1.4741
 9311TIP3   OH227896   7.200   0.646   1.680  0.1478 -0.1338  0.3356
 9311TIP3    H127897   7.225   0.567   1.633 -0.8519 -1.1564  1.4584
 9311TIP3    H227898   7.186   0.617   1.770  0.5750  1.4922  0.9575
 9312TIP3   OH227899   6.504   1.008   0.104  0.0930 -0.4344  0.2241
 9312TIP3    H127900   6.568   0.991   0.173  0.3940 -0.4533 -0.0547
 9312TIP3    H227901   6.506   0.929   0.050  0.5024 -0.0797 -0.3004
 9313TIP3   OH227902   3.709   2.478   4.053  0.0700  0.0257 -0.4820
 9313TIP3    H127903   3.674   2.395   4.084 -0.9688  0.0358 -1.5901
 9313TIP3    H227904   3.780   2.454   3.993  1.9831  0.0058  1.6127
 9314TIP3   OH227905   5.832   0.835   2.683  0.9215  0.1929 -0.1497
 9314TIP3    H127906   5.804   0.746   2.663 -0.8157  0.3962  1.1527
 9314TIP3    H227907   5.899   0.824   2.751  2.2895 -0.1782 -1.5070
 9315TIP3   OH227908   6.568   2.189   3.339  0.3184 -0.0179 -0.4991
 9315TIP3    H127909   6.512   2.264   3.360 -0.4398  0.2297 -3.0608
 9315TIP3    H227910   6.639   2.194   3.403  0.6471  3.2881 -0.9466
 9316TIP3   OH227911   6.380   0.150   2.506  0.3121  0.2199 -0.0801
 9316TIP3    H127912   6.360   0.201   2.585 -0.1306 -1.7933  1.1981
 9316TIP3    H227913   6.295   0.137   2.464  0.1781 -0.7047  0.4404
 9317TIP3   OH227914   6.730   2.420   0.633  0.2880  0.7091 -0.1242
 9317TIP3    H127915   6.639   2.413   0.602  0.7266  1.2126 -1.6077
 9317TIP3    H227916   6.725   2.479   0.708 -0.5108  1.3558 -0.6713
 9318TIP3   OH227917   5.861   6.605   3.577 -0.1219 -0.0451  0.2325
 9318TIP3    H127918   5.872   6.558   3.494  0.7199 -0.7268  0.7065
 9318TIP3    H227919   5.825   6.540   3.637  2.7227 -0.7150  1.3922
 9319TIP3   OH227920   0.054   4.830   4.282 -0.3016  0.0034 -0.8096
 9319TIP3    H127921   0.138   4.848   4.240  1.4880 -1.2610  1.9359
 9319TIP3    H227922   0.075   4.823   4.376 -3.8388  1.6836  0.2630
 9320TIP3   OH227923   1.738   4.269   2.392 -0.3333 -0.0149 -0.1719
 9320TIP3    H127924   1.734   4.264   2.296  2.1842 -1.9706 -0.2934
 9320TIP3    H227925   1.647   4.267   2.420 -1.1615  0.9729 -2.5151
 9321TIP3   OH227926   4.383   3.823   0.886  0.1468 -0.2231 -0.2512
 9321TIP3    H127927   4.363   3.911   0.852  1.8781  0.1816 -0.3178
 9321TIP3    H227928   4.474   3.809   0.862 -0.6089 -2.8824 -2.0103
 9322TIP3   OH227929   3.827   4.312   3.319 -0.3217 -0.4847  0.3575
 9322TIP3    H127930   3.869   4.351   3.396  0.9970  1.8836 -1.3976
 9322TIP3    H227931   3.878   4.347   3.245 -2.8914 -0.8277 -1.6905
 9323TIP3   OH227932   4.656   5.879   0.681 -0.1855  0.3245 -0.2038
 9323TIP3    H127933   4.743   5.882   0.642 -0.1824 -1.6670 -0.4791
 9323TIP3    H227934   4.668   5.907   0.771  0.5181  1.2161 -0.5698
 9324TIP3   OH227935   5.058   1.256   3.520  0.3647  0.6294  0.2298
 9324TIP3    H127936   5.036   1.330   3.463  2.6982  0.6485 -0.7623
 9324TIP3    H227937   5.037   1.179   3.468 -0.9304  0.5785  0.7983
 9325TIP3   OH227938   6.068   2.256   0.086  0.3055 -0.2797  0.2913
 9325TIP3    H127939   6.102   2.287   0.002 -0.0950 -2.1565 -0.6032
 9325TIP3    H227940   5.972   2.261   0.076  0.2490  0.9393  1.2291
 9326TIP3   OH227941   5.870   2.901   5.121  0.0324  0.0305 -0.1262
 9326TIP3    H127942   5.782   2.938   5.117  0.0793  0.1201 -0.3695
 9326TIP3    H227943   5.928   2.977   5.128 -0.0121 -0.0842  2.2949
 9327TIP3   OH227944   4.109   2.931   5.445 -0.5241  0.3526  0.1267
 9327TIP3    H127945   4.185   2.952   5.391 -0.6324 -0.8708 -0.5388
 9327TIP3    H227946   4.103   3.004   5.507  0.5748  0.9747 -0.4615
 9328TIP3   OH227947   2.734   3.050   5.341 -0.7374 -0.6074  0.1072
 9328TIP3    H127948   2.645   3.018   5.328 -2.1887  2.3203  1.7754
 9328TIP3    H227949   2.727   3.112   5.414  2.7206 -0.3506  0.3927
 9329TIP3   OH227950   3.611   0.638   0.530  0.6633  0.4694 -0.7268
 9329TIP3    H127951   3.526   0.618   0.490 -0.7452  0.4331  1.9807
 9329TIP3    H227952   3.650   0.553   0.549  0.4127  0.4381 -0.3239
 9330TIP3   OH227953   4.715   6.340   2.169 -0.3218  0.0309 -0.4211
 9330TIP3    H127954   4.748   6.284   2.239  0.3587 -0.3305 -1.0253
 9330TIP3    H227955   4.637   6.294   2.136 -0.5254  0.1019 -0.0452
 9331TIP3   OH227956   1.653   5.332   4.349 -0.5139 -0.1039  0.4024
 9331TIP3    H127957   1.590   5.329   4.276  0.7494 -2.4443 -0.7212
 9331TIP3    H227958   1.738   5.318   4.308  0.3579 -0.5147  2.2413
 9332TIP3   OH227959   6.561   5.545   0.831  0.0883 -0.3071 -0.2333
 9332TIP3    H127960   6.591   5.609   0.896  2.3341 -0.6543 -0.8554
 9332TIP3    H227961   6.630   5.543   0.765 -0.3946 -2.6308 -0.7480
 9333TIP3   OH227962   1.846   2.645   4.079  0.2933  0.0528 -0.2520
 9333TIP3    H127963   1.934   2.609   4.087  0.1756 -0.3087 -0.5576
 9333TIP3    H227964   1.852   2.733   4.117  0.5835 -0.2830  0.5090
 9334TIP3   OH227965   6.231   0.114   3.449 -0.0032 -0.4196 -0.9417
 9334TIP3    H127966   6.160   0.054   3.424  0.2538 -0.2051 -2.2657
 9334TIP3    H227967   6.310   0.075   3.409  0.2774  0.4338 -1.2395
 9335TIP3   OH227968   5.971   6.177   3.537  0.3162 -0.1472  0.6588
 9335TIP3    H127969   6.054   6.201   3.577  0.0761 -0.4565  1.3554
 9335TIP3    H227970   5.943   6.099   3.584  0.4461 -1.0340 -0.6963
 9336TIP3   OH227971   1.611   4.112   3.624 -0.4233 -0.0571 -0.3181
 9336TIP3    H127972   1.553   4.182   3.652 -0.0073 -0.2907  1.2128
 9336TIP3    H227973   1.568   4.032   3.655 -0.0940 -0.3578 -0.6318
 9337TIP3   OH227974   4.790   6.576   2.267  0.5763  0.2709 -0.1771
 9337TIP3    H127975   4.759   6.492   2.232  0.0668  0.5724 -0.4667
 9337TIP3    H227976   4.712   6.632   2.266  0.2140 -0.0374  2.5670
 9338TIP3   OH227977   4.547   4.844   1.255  0.3533 -0.0256  0.2254
 9338TIP3    H127978   4.477   4.829   1.192  0.4946  0.2308  0.0069
 9338TIP3    H227979   4.581   4.756   1.275  0.2198 -0.1169  0.0490
 9339TIP3   OH227980   1.978   4.743   3.601 -0.1286 -0.1427 -0.0851
 9339TIP3    H127981   1.956   4.764   3.692 -1.7630 -1.7538 -0.0462
 9339TIP3    H227982   1.933   4.660   3.585  1.6703 -0.8437 -1.7961
 9340TIP3   OH227983   2.345   0.086   4.205 -0.5122  0.1427 -0.1146
 9340TIP3    H127984   2.364   0.169   4.249 -1.8009 -0.3668  1.5381
 9340TIP3    H227985   2.252   0.091   4.184 -0.6937 -0.9934  0.3338
 9341TIP3   OH227986   7.037   4.469   4.495 -0.1039 -0.5514 -0.5412
 9341TIP3    H127987   7.128   4.493   4.512  0.2726 -1.7552 -0.7434
 9341TIP3    H227988   6.996   4.549   4.463  0.5937  0.2935  0.6194
 9342TIP3   OH227989   4.326   2.681   0.011 -0.6775  0.5224 -0.1245
 9342TIP3    H127990   4.320   2.714   0.101 -1.1425 -0.3783  0.1905
 9342TIP3    H227991   4.391   2.611   0.017  0.7488  1.7167 -0.9038
 9343TIP3   OH227992   3.620   4.771   0.475  0.1547 -0.1858  0.5297
 9343TIP3    H127993   3.628   4.675   0.471 -1.7352 -0.3892  0.8744
 9343TIP3    H227994   3.595   4.789   0.565  1.0413  0.6950  0.6071
 9344TIP3   OH227995   5.343   5.830   0.244  0.1361  0.8975  0.1798
 9344TIP3    H127996   5.436   5.841   0.266  0.0239  1.8855  0.2214
 9344TIP3    H227997   5.321   5.910   0.196 -1.3416  1.9198  2.3943
 9345TIP3   OH227998   2.337   5.273   2.656  0.3098 -0.0029  0.4813
 9345TIP3    H127999   2.375   5.223   2.728 -1.5814 -2.0813  0.1368
 9345TIP3    H228000   2.391   5.251   2.580  1.4456  1.0876  0.9420
 9346TIP3   OH228001   1.777   5.615   4.166  0.0455  0.3275 -0.1583
 9346TIP3    H128002   1.712   5.616   4.236  0.7244 -1.6998  0.5749
 9346TIP3    H228003   1.852   5.571   4.204  0.3755 -1.0031 -2.2133
 9347TIP3   OH228004   5.396   4.596   4.952  0.2412  0.8515 -0.1412
 9347TIP3    H128005   5.443   4.618   5.033  1.3442 -2.7608  0.3876
 9347TIP3    H228006   5.304   4.593   4.978  0.4671  0.8573  0.7118
 9348TIP3   OH228007   2.194   0.556   3.172 -0.5244 -0.2514  0.7595
 9348TIP3    H128008   2.213   0.507   3.252  0.8031  1.1286  1.3487
 9348TIP3    H228009   2.263   0.530   3.111 -1.2045 -0.8786  0.2472
 9349TIP3   OH228010   3.711   2.021   4.354  0.5730  0.5477  0.7923
 9349TIP3    H128011   3.783   1.998   4.412 -0.0978  0.2485  1.5286
 9349TIP3    H228012   3.666   1.938   4.339  2.8241 -0.2167 -3.2005
 9350TIP3   OH228013   6.317   5.195   0.544 -0.8370 -0.6316 -0.3743
 9350TIP3    H128014   6.310   5.107   0.507 -1.1068 -0.8318  0.1366
 9350TIP3    H228015   6.340   5.251   0.470 -0.5311 -1.1529 -0.6805
 9351TIP3   OH228016   2.099   4.153   2.265  0.1881  0.0427 -0.0641
 9351TIP3    H128017   2.021   4.098   2.252  0.5495 -0.3038 -0.7927
 9351TIP3    H228018   2.106   4.162   2.361 -0.8745  0.2681  0.0034
 9352TIP3   OH228019   3.364   3.637   1.066 -0.4688 -0.3116 -0.1184
 9352TIP3    H128020   3.364   3.599   0.978  0.2885  0.9958 -0.7124
 9352TIP3    H228021   3.400   3.568   1.121 -0.8848 -1.1232 -0.8385
 9353TIP3   OH228022   1.535   3.580   1.124 -0.0177  0.5261  0.3119
 9353TIP3    H128023   1.485   3.645   1.174 -3.6613 -1.6383 -0.2163
 9353TIP3    H228024   1.502   3.586   1.035  0.6423 -1.0577 -0.0788
 9354TIP3   OH228025   1.115   1.390   0.011 -0.0417 -0.1821 -0.6205
 9354TIP3    H128026   1.199   1.345   0.009  0.0654 -0.1238  1.0160
 9354TIP3    H228027   1.110   1.426   0.100 -1.1112  1.1259 -1.1909
 9355TIP3   OH228028   2.210   4.955   4.354  0.0369 -0.2319  0.7665
 9355TIP3    H128029   2.150   5.004   4.411 -0.9251 -0.5505  0.0693
 9355TIP3    H228030   2.188   4.863   4.369 -0.4177 -0.3129 -0.2811
 9356TIP3   OH228031   5.959   4.513   2.910 -0.4732 -0.0655 -0.4575
 9356TIP3    H128032   5.948   4.432   2.859 -0.7734 -0.4371  0.1768
 9356TIP3    H228033   5.898   4.503   2.983  0.0439  0.3942  0.0434
 9357TIP3   OH228034   6.512   1.013   0.685 -0.0637 -0.6591 -0.2141
 9357TIP3    H128035   6.455   1.082   0.718  2.6290  2.2575 -1.1608
 9357TIP3    H228036   6.461   0.972   0.615 -1.7341  0.4475  0.2863
 9358TIP3   OH228037   6.067   3.733   1.868 -0.3153  0.2779 -0.5501
 9358TIP3    H128038   6.131   3.796   1.903 -0.1437  0.6291 -1.4634
 9358TIP3    H228039   6.059   3.667   1.937  1.1978  0.1154 -0.4922
 9359TIP3   OH228040   1.638   3.327   2.704 -0.0911 -0.0745 -0.3169
 9359TIP3    H128041   1.668   3.278   2.627 -2.2393 -0.7354 -0.7904
 9359TIP3    H228042   1.710   3.321   2.766  1.5539  0.1478 -2.1106
 9360TIP3   OH228043   3.666   4.096   3.250 -0.1321  0.0272 -0.2831
 9360TIP3    H128044   3.702   4.182   3.271 -2.1118  0.6634  0.7477
 9360TIP3    H228045   3.739   4.035   3.264  1.0228  1.4104 -0.0425
 9361TIP3   OH228046   4.376   1.691   3.893  0.0490 -0.2496  0.0371
 9361TIP3    H128047   4.386   1.596   3.892 -0.1336 -0.2648 -0.3134
 9361TIP3    H228048   4.446   1.722   3.836 -0.1142 -0.1920 -0.1300
 9362TIP3   OH228049   4.988   0.313   0.210  0.3858  0.1150  0.4949
 9362TIP3    H128050   4.915   0.319   0.271  0.2832 -0.1002  0.3961
 9362TIP3    H228051   5.065   0.338   0.262 -0.0148  2.4053  0.0499
 9363TIP3   OH228052   0.491   2.034   0.052  0.3144 -0.0489  0.1950
 9363TIP3    H128053   0.444   2.115   0.034 -0.8007 -0.2009  2.1490
 9363TIP3    H228054   0.557   2.029  -0.017 -0.4751  1.8008 -0.7727
 9364TIP3   OH228055   5.055   6.554   5.313 -0.4715 -0.1054 -0.1980
 9364TIP3    H128056   5.019   6.466   5.307 -0.7167  0.0099 -0.4181
 9364TIP3    H228057   4.980   6.612   5.300 -0.2222  0.1333 -0.6199
 9365TIP3   OH228058   0.148   2.833   1.065 -0.4084  0.0295  0.5626
 9365TIP3    H128059   0.102   2.791   1.138  0.0863  0.2541  1.0144
 9365TIP3    H228060   0.237   2.847   1.098  0.0950 -0.7376 -0.4268
 9366TIP3   OH228061   4.505   2.141   2.093  0.0288  0.2011  0.1417
 9366TIP3    H128062   4.532   2.050   2.099 -0.2566 -0.0772 -2.0227
 9366TIP3    H228063   4.579   2.185   2.049 -1.0121  0.3922 -1.4854
 9367TIP3   OH228064   3.757   2.850   2.207 -0.3646  0.0324 -0.2032
 9367TIP3    H128065   3.781   2.917   2.143 -0.9597 -1.8269 -2.5644
 9367TIP3    H228066   3.691   2.892   2.262 -0.3280  1.5573 -1.2404
 9368TIP3   OH228067   7.158   2.765   2.513 -0.4234 -0.5272 -0.0390
 9368TIP3    H128068   7.228   2.819   2.549 -0.1029 -0.7636 -0.3039
 9368TIP3    H228069   7.123   2.717   2.589  0.4491 -1.2550 -0.0777
 9369TIP3   OH228070   5.423   0.410   0.128 -0.1136  0.0700 -0.3628
 9369TIP3    H128071   5.504   0.457   0.144  0.2072 -0.1932 -1.1308
 9369TIP3    H228072   5.410   0.417   0.033  2.2045 -4.8174 -1.3678
 9370TIP3   OH228073   2.983   3.614   2.932 -0.0751 -0.3607  0.4947
 9370TIP3    H128074   2.945   3.562   3.003 -0.3396 -1.6486 -0.5557
 9370TIP3    H228075   2.982   3.556   2.856  1.2703  0.5886 -0.2969
 9371TIP3   OH228076   4.647   6.175   5.803 -0.1673  0.1338 -0.5215
 9371TIP3    H128077   4.708   6.107   5.775 -0.8553 -0.6896 -0.0547
 9371TIP3    H228078   4.611   6.143   5.885 -0.0128  1.3800  0.0630
 9372TIP3   OH228079   1.561   5.237   5.535 -0.2137  0.3859  0.4714
 9372TIP3    H128080   1.479   5.274   5.502  0.1020  1.0045  0.3643
 9372TIP3    H228081   1.561   5.147   5.504  0.6201  1.2317 -2.2334
 9373TIP3   OH228082   2.669   2.580   1.880  0.1634 -0.3399  0.2234
 9373TIP3    H128083   2.608   2.550   1.947  1.5480 -2.8341  0.4863
 9373TIP3    H228084   2.693   2.501   1.831  2.2510  0.7168 -0.6224
 9374TIP3   OH228085   5.078   6.318   2.489  0.0368  0.0469  0.3433
 9374TIP3    H128086   5.149   6.354   2.543 -0.5922  0.7150  0.7540
 9374TIP3    H228087   4.998   6.355   2.528 -0.6092 -1.4434  0.4869
 9375TIP3   OH228088   3.179   4.842   0.608  0.1851 -0.7485  0.8517
 9375TIP3    H128089   3.088   4.856   0.631  0.3971 -0.7443  1.7324
 9375TIP3    H228090   3.189   4.881   0.522 -0.0761  1.4444  1.7454
 9376TIP3   OH228091   0.916   6.044   1.338 -0.3301 -0.4950 -0.7110
 9376TIP3    H128092   0.825   6.069   1.318 -0.0522  0.7917 -0.4914
 9376TIP3    H228093   0.967   6.085   1.268  0.1028 -1.1043 -0.7576
 9377TIP3   OH228094   1.312   4.502   0.719 -0.0029  0.4581 -0.4218
 9377TIP3    H128095   1.321   4.515   0.814 -1.3853  0.2664 -0.2497
 9377TIP3    H228096   1.369   4.427   0.700 -1.4092 -0.9475  0.6643
 9378TIP3   OH228097   2.634   3.910   0.859 -0.0891 -0.2925 -0.0812
 9378TIP3    H128098   2.654   3.829   0.906 -3.1955 -1.0958  0.1076
 9378TIP3    H228099   2.574   3.957   0.917  0.0268  1.1592 -1.0842
 9379TIP3   OH228100   4.797   0.122   5.146  0.0329  0.1079 -0.0169
 9379TIP3    H128101   4.891   0.110   5.159  0.4293  0.4323 -2.0943
 9379TIP3    H228102   4.790   0.209   5.106 -1.0721 -0.1742 -0.4592
 9380TIP3   OH228103   1.428   3.000   3.621 -0.4065  0.0116  0.5337
 9380TIP3    H128104   1.429   3.028   3.529  1.5558 -0.6145  0.3221
 9380TIP3    H228105   1.386   2.914   3.619 -0.3844  0.0049  0.2366
 9381TIP3   OH228106   6.199   2.213   1.466 -0.4307  0.0720  0.6787
 9381TIP3    H128107   6.265   2.147   1.490  0.9922  1.3560  0.4738
 9381TIP3    H228108   6.128   2.200   1.529  0.5926 -0.5346  1.7426
 9382TIP3   OH228109   5.107   5.171   5.479 -0.3489  0.5515  0.0404
 9382TIP3    H128110   5.176   5.208   5.424 -0.9492  1.7766  0.0906
 9382TIP3    H228111   5.058   5.246   5.511 -1.2793 -0.2611  0.5932
 9383TIP3   OH228112   1.840   5.684   3.209  0.0777  0.4843  0.2433
 9383TIP3    H128113   1.820   5.591   3.215  0.4559  0.1075 -2.6798
 9383TIP3    H228114   1.920   5.695   3.260  1.5629 -1.4041 -1.5317
 9384TIP3   OH228115   5.201   3.751   4.033 -0.1676 -0.1347 -0.0674
 9384TIP3    H128116   5.273   3.691   4.054 -2.4579 -3.0519  0.0015
 9384TIP3    H228117   5.153   3.760   4.115 -2.0239 -1.4370 -0.9285
 9385TIP3   OH228118   5.937   2.598   2.437  0.5194  0.8311  0.1382
 9385TIP3    H128119   6.022   2.641   2.442  0.3976  0.9064  2.0794
 9385TIP3    H228120   5.876   2.668   2.414  1.0867  0.5351 -2.7011
 9386TIP3   OH228121   4.142   5.333   3.822  0.5195  0.1154  0.0891
 9386TIP3    H128122   4.071   5.324   3.885 -0.6812 -0.3547 -1.2785
 9386TIP3    H228123   4.119   5.273   3.751  2.2437  0.0206 -0.4477
 9387TIP3   OH228124   1.441   0.617   0.965  0.2776 -0.0009 -0.3645
 9387TIP3    H128125   1.376   0.552   0.938 -1.2398  0.7939  1.1736
 9387TIP3    H228126   1.392   0.699   0.969  1.3579  0.6067  0.9125
 9388TIP3   OH228127   5.333   2.584   1.853 -0.0887  0.4392  0.5033
 9388TIP3    H128128   5.264   2.517   1.856  0.3750 -0.0242  1.1449
 9388TIP3    H228129   5.351   2.604   1.945 -0.2980  1.5394  0.3125
 9389TIP3   OH228130   5.450   0.774   0.366  0.0346 -0.6331  0.2253
 9389TIP3    H128131   5.391   0.704   0.396  0.0261 -0.5690  0.3606
 9389TIP3    H228132   5.433   0.846   0.427  1.1886 -1.0512  1.0838
 9390TIP3   OH228133   5.667   3.389   2.765  0.1032  0.2969  0.2438
 9390TIP3    H128134   5.659   3.312   2.708  0.3940  0.7579 -0.4327
 9390TIP3    H228135   5.639   3.358   2.851  1.0036 -0.8069  0.1741
 9391TIP3   OH228136   3.780   1.610   4.577 -1.0797  0.4805  0.5041
 9391TIP3    H128137   3.832   1.620   4.497 -1.2201  2.2120  0.5906
 9391TIP3    H228138   3.696   1.575   4.547 -0.0140 -2.1831  0.3426
 9392TIP3   OH228139   2.495   4.850   1.871  0.1834  0.1037 -0.0348
 9392TIP3    H128140   2.572   4.907   1.879 -0.6830  1.6151 -1.6739
 9392TIP3    H228141   2.456   4.850   1.958  1.2657  0.4472  0.4718
 9393TIP3   OH228142   1.273   5.036   5.100 -0.1060 -0.0042 -0.1016
 9393TIP3    H128143   1.189   5.061   5.138 -0.4764 -1.0364 -0.2314
 9393TIP3    H228144   1.250   4.986   5.021  0.5572 -2.1052  0.9640
 9394TIP3   OH228145   3.765   6.729   0.736 -0.0019  0.1445 -0.4362
 9394TIP3    H128146   3.775   6.821   0.759 -1.1042  0.2986 -0.5240
 9394TIP3    H228147   3.727   6.688   0.814  0.0380 -0.1429 -0.5651
 9395TIP3   OH228148   3.023   2.713   2.901 -0.0342  0.2099 -0.0489
 9395TIP3    H128149   2.986   2.644   2.846  1.6303 -0.6743 -0.1217
 9395TIP3    H228150   2.962   2.720   2.975 -0.8005 -0.5552 -0.5857
 9396TIP3   OH228151   1.162   0.691   4.678  0.2641  0.0415 -0.8747
 9396TIP3    H128152   1.072   0.724   4.684  0.0532 -0.7469  0.7919
 9396TIP3    H228153   1.204   0.721   4.758  1.1982 -0.4303 -1.1804
 9397TIP3   OH228154   6.932   5.566   5.192  0.3255 -0.3917  0.1735
 9397TIP3    H128155   6.891   5.527   5.114  0.3784 -0.8601  0.3734
 9397TIP3    H228156   6.898   5.655   5.195 -1.0573 -0.9084  0.6003
 9398TIP3   OH228157   3.442   5.250   1.333 -0.0460 -0.4712 -0.2121
 9398TIP3    H128158   3.506   5.286   1.394  1.6329 -2.0791 -0.9416
 9398TIP3    H228159   3.375   5.211   1.389 -0.2089  0.8342  0.5607
 9399TIP3   OH228160   2.353   3.452   4.708  0.4721  0.1241 -0.4249
 9399TIP3    H128161   2.304   3.530   4.683  0.1304 -0.1480 -0.6229
 9399TIP3    H228162   2.384   3.415   4.626  0.1893 -0.2321 -0.3758
 9400TIP3   OH228163   3.396   0.215   5.499 -0.1694  0.0939 -0.4136
 9400TIP3    H128164   3.441   0.202   5.415  1.9767  1.6662  0.4145
 9400TIP3    H228165   3.358   0.302   5.492 -0.2491  0.1018  0.1147
 9401TIP3   OH228166   6.765   6.008   1.658 -0.7882 -0.2687  0.3603
 9401TIP3    H128167   6.696   6.054   1.706  0.6202  2.5417 -0.0791
 9401TIP3    H228168   6.728   5.993   1.571 -0.8346  1.5237  0.0164
 9402TIP3   OH228169   2.768   1.072   0.206 -0.2000  0.6468 -0.2982
 9402TIP3    H128170   2.715   1.038   0.277  1.0600 -0.9736 -0.0891
 9402TIP3    H228171   2.805   1.154   0.240  3.4620 -1.8850  2.5358
 9403TIP3   OH228172   0.977   0.502   2.865  0.3593  0.0149  0.1084
 9403TIP3    H128173   1.017   0.568   2.921  0.4740 -0.1569  0.2316
 9403TIP3    H228174   1.051   0.453   2.828  0.2552 -1.5551  1.8413
 9404TIP3   OH228175   0.317   3.241   5.869 -0.0258 -0.4577  0.3262
 9404TIP3    H128176   0.334   3.229   5.776  0.5127 -1.1088  0.5008
 9404TIP3    H228177   0.223   3.258   5.875  0.2308  1.4622 -0.5090
 9405TIP3   OH228178   6.038   6.194   0.482  0.1454  0.1458  0.0615
 9405TIP3    H128179   5.996   6.278   0.502 -0.2141  0.5988 -2.3144
 9405TIP3    H228180   6.090   6.211   0.403 -0.6223 -2.0583 -1.0074
 9406TIP3   OH228181   1.354   3.993   4.657  0.2169 -0.3582 -0.4423
 9406TIP3    H128182   1.312   3.934   4.719 -1.3716  0.7967 -0.3767
 9406TIP3    H228183   1.331   3.958   4.571  0.3633 -0.5577 -0.4012
 9407TIP3   OH228184   0.389   0.505   4.951 -0.1844  0.7129 -0.1497
 9407TIP3    H128185   0.476   0.505   4.991 -1.3206  1.0886  2.5423
 9407TIP3    H228186   0.390   0.432   4.890  1.6775  0.0673  0.5956
 9408TIP3   OH228187   0.831   1.751   3.050 -0.2813  0.4977  0.2801
 9408TIP3    H128188   0.858   1.729   2.961 -1.9813 -2.1317  0.3092
 9408TIP3    H228189   0.914   1.767   3.096  0.8497 -1.0961 -1.0574
 9409TIP3   OH228190   0.236   6.302   2.255 -0.2763 -0.2617  0.3267
 9409TIP3    H128191   0.231   6.395   2.234 -0.9090  0.2095  2.3802
 9409TIP3    H228192   0.290   6.298   2.334 -2.1711 -1.3557  1.6487
 9410TIP3   OH228193   3.353   2.123   2.185  0.0821 -0.3974 -0.2528
 9410TIP3    H128194   3.439   2.082   2.191  0.7266  0.8637 -0.4181
 9410TIP3    H228195   3.317   2.116   2.273  1.1561  0.6662  0.3112
 9411TIP3   OH228196   0.570   5.466   2.536  0.2272  0.1027  0.1244
 9411TIP3    H128197   0.602   5.524   2.606  0.7629  0.1407 -0.1454
 9411TIP3    H228198   0.631   5.480   2.464 -0.1069 -0.2123 -0.2238
 9412TIP3   OH228199   2.482   4.232  -0.009  0.0460  0.5511  0.1200
 9412TIP3    H128200   2.552   4.221   0.055  0.5527 -2.0896 -0.7403
 9412TIP3    H228201   2.405   4.194   0.034  0.0715 -0.0050 -0.3141
 9413TIP3   OH228202   0.559   4.141   3.557 -0.0717 -0.1551 -0.3502
 9413TIP3    H128203   0.622   4.069   3.557 -1.0168 -1.1654  2.8525
 9413TIP3    H228204   0.474   4.099   3.548 -0.5173  0.7748 -0.6121
 9414TIP3   OH228205   2.314   0.138   3.138 -0.3702 -0.0988  0.1436
 9414TIP3    H128206   2.317   0.158   3.232  1.7742 -1.1696  0.3530
 9414TIP3    H228207   2.403   0.114   3.116 -0.7577  0.4869 -2.2881
 9415TIP3   OH228208   1.157   5.201   1.592 -0.0786  0.4637  0.0347
 9415TIP3    H128209   1.101   5.169   1.663 -1.9949 -1.6439 -2.2494
 9415TIP3    H228210   1.228   5.136   1.588 -1.0839 -0.6217 -1.1868
 9416TIP3   OH228211   0.529   1.726   5.274  0.1278 -0.2611  0.3515
 9416TIP3    H128212   0.555   1.817   5.286  0.5922 -0.4372  0.6804
 9416TIP3    H228213   0.565   1.679   5.349 -0.4951 -0.6412  0.4272
 9417TIP3   OH228214   6.321   3.333   2.096  0.0956  0.4895 -0.1563
 9417TIP3    H128215   6.293   3.253   2.051  1.1558  1.0560 -1.9224
 9417TIP3    H228216   6.417   3.328   2.096  0.1849  1.8155 -0.4445
 9418TIP3   OH228217   6.198   1.328   3.362  0.3707 -0.5246 -0.1670
 9418TIP3    H128218   6.105   1.321   3.382  0.0659  0.4223 -1.1873
 9418TIP3    H228219   6.226   1.409   3.405  0.5317 -0.3873 -0.5253
 9419TIP3   OH228220   4.596   1.419   1.353  0.1095 -0.2571  0.4296
 9419TIP3    H128221   4.577   1.512   1.346 -2.0679 -0.7322 -0.7019
 9419TIP3    H228222   4.672   1.406   1.297  0.8967  0.9251  1.1754
 9420TIP3   OH228223   3.130   0.912   2.686 -0.3918 -0.0179 -0.2759
 9420TIP3    H128224   3.195   0.922   2.617 -1.0801 -0.2569 -0.9651
 9420TIP3    H228225   3.115   0.817   2.691  0.8422 -0.1821  1.3327
 9421TIP3   OH228226   0.178   3.815   4.629  0.1879 -0.6153  0.6194
 9421TIP3    H128227   0.190   3.748   4.696 -0.5398  0.4543  1.8614
 9421TIP3    H228228   0.147   3.766   4.552  1.4393 -1.9090  0.8984
 9422TIP3   OH228229   5.561   3.254   4.839 -0.0441 -0.0545  0.2962
 9422TIP3    H128230   5.608   3.325   4.883  0.0582 -0.9010  1.6130
 9422TIP3    H228231   5.475   3.253   4.882 -0.6677  0.3746 -0.9118
 9423TIP3   OH228232   4.802   1.720   1.836  0.2449 -0.1955  0.5375
 9423TIP3    H128233   4.748   1.644   1.856 -1.1323  0.6354  0.1362
 9423TIP3    H228234   4.770   1.751   1.752  2.4989 -0.6292 -0.5478
 9424TIP3   OH228235   5.850   5.390   2.862 -0.0854  0.2839 -0.1786
 9424TIP3    H128236   5.845   5.364   2.955  1.6972 -0.6614 -0.2930
 9424TIP3    H228237   5.818   5.480   2.860  1.0267  0.7793  1.6000
 9425TIP3   OH228238   6.561   3.346   0.048 -0.9431  0.1414  0.4200
 9425TIP3    H128239   6.587   3.420  -0.007 -0.6698  1.2839  1.9981
 9425TIP3    H228240   6.468   3.358   0.062 -0.3692  2.3066  3.4780
 9426TIP3   OH228241   2.923   0.999   3.675  0.2564  0.1249 -0.3769
 9426TIP3    H128242   2.957   0.917   3.713 -1.2203 -0.7743 -0.8935
 9426TIP3    H228243   2.883   0.972   3.593  0.3305  1.5025 -0.8821
 9427TIP3   OH228244   3.918   6.550   3.560 -0.2816 -0.0702  0.2319
 9427TIP3    H128245   3.928   6.466   3.516 -0.8410  0.5656 -1.1948
 9427TIP3    H228246   4.002   6.595   3.546 -0.3513  0.0131  0.0788
 9428TIP3   OH228247   1.556   0.890   1.741  0.0342 -0.2570 -0.0717
 9428TIP3    H128248   1.565   0.899   1.646  0.0178  1.1824  0.0444
 9428TIP3    H228249   1.486   0.952   1.764 -0.4300 -1.0756  0.8030
 9429TIP3   OH228250   3.158   6.473   1.120  0.2602  0.5697 -0.4154
 9429TIP3    H128251   3.177   6.437   1.207 -3.5846 -0.0583  0.3398
 9429TIP3    H228252   3.177   6.566   1.128  0.2389  0.4757  1.0400
 9430TIP3   OH228253   0.165   5.588   4.977  0.1453  0.5582  0.0808
 9430TIP3    H128254   0.255   5.608   4.950 -0.8871  3.3818 -1.7231
 9430TIP3    H228255   0.151   5.498   4.946  1.9271  0.5033 -0.7297
 9431TIP3   OH228256   5.843   6.737   1.949 -0.6776  0.0762  0.0312
 9431TIP3    H128257   5.923   6.731   2.001 -1.7359  0.1198  1.6995
 9431TIP3    H228258   5.840   6.655   1.900  0.3305  0.0414  0.0051
 9432TIP3   OH228259   4.162   5.726   0.476  0.1249  0.0981 -0.0563
 9432TIP3    H128260   4.253   5.702   0.492  0.1148  0.3008  0.3171
 9432TIP3    H228261   4.144   5.796   0.539 -1.9279 -3.5577  3.9798
 9433TIP3   OH228262   3.477   5.786   3.576 -0.0442  0.7430  0.2456
 9433TIP3    H128263   3.510   5.795   3.487  0.0420 -0.5222  0.1326
 9433TIP3    H228264   3.546   5.823   3.631  0.0482  1.2313 -0.1911
 9434TIP3   OH228265   1.814   4.021   3.416  0.6786 -0.3095  0.3530
 9434TIP3    H128266   1.756   4.066   3.477  0.8827 -0.2823  0.5293
 9434TIP3    H228267   1.756   3.971   3.359  0.2346  2.1791 -1.5333
 9435TIP3   OH228268   4.870   5.186   4.824  0.2916  0.2546  0.3228
 9435TIP3    H128269   4.849   5.148   4.738 -2.3913  0.9913  0.5395
 9435TIP3    H228270   4.965   5.196   4.824  0.2927  1.6497 -3.2075
 9436TIP3   OH228271   3.339   5.360   2.033  0.6158 -0.2033 -0.0620
 9436TIP3    H128272   3.272   5.417   2.071  1.4610  1.1314 -0.5058
 9436TIP3    H228273   3.290   5.291   1.990 -0.5341  1.2917 -1.2587
 9437TIP3   OH228274   5.532   5.770   0.865 -0.1851  0.3389 -0.8060
 9437TIP3    H128275   5.539   5.677   0.887  0.1289  0.5507  0.0054
 9437TIP3    H228276   5.467   5.773   0.795 -1.1556 -0.3688  0.0334
 9438TIP3   OH228277   6.213   2.557   0.975  0.0945 -0.4096  0.2875
 9438TIP3    H128278   6.241   2.466   0.981 -0.7701 -0.5950  3.3527
 9438TIP3    H228279   6.267   2.604   1.039  1.6765  1.6536 -2.3618
 9439TIP3   OH228280   5.727   5.686   1.710 -0.0531 -0.5638  0.4004
 9439TIP3    H128281   5.754   5.600   1.742  0.2308 -0.3078  0.8613
 9439TIP3    H228282   5.641   5.701   1.750  0.2638 -0.2813  0.9917
 9440TIP3   OH228283   3.187   4.079   5.305 -0.6106 -0.1623  0.1639
 9440TIP3    H128284   3.257   4.024   5.270 -1.5418 -0.0573 -2.0221
 9440TIP3    H228285   3.137   4.107   5.228 -2.3725  0.7183  1.5386
 9441TIP3   OH228286   2.869   4.637   0.509  0.8794 -0.2984  0.1498
 9441TIP3    H128287   2.911   4.565   0.557  2.1184  1.9721  2.7825
 9441TIP3    H228288   2.806   4.673   0.572 -0.5582  0.2287 -1.5296
 9442TIP3   OH228289   7.190   1.787   3.344  0.4079  0.0725 -0.1736
 9442TIP3    H128290   7.163   1.827   3.261  3.0135  1.6040 -0.3971
 9442TIP3    H228291   7.145   1.838   3.411 -0.5113 -0.1699 -0.6001
 9443TIP3   OH228292   2.301   3.704   0.576 -1.0158 -0.1346 -0.4459
 9443TIP3    H128293   2.300   3.693   0.672 -2.5401  0.4955 -0.3589
 9443TIP3    H228294   2.377   3.759   0.559 -0.3901 -0.7262  0.3418
 9444TIP3   OH228295   6.822   3.579   1.449  0.8354  0.2407 -0.1461
 9444TIP3    H128296   6.886   3.644   1.477  1.0979 -0.5892  1.3054
 9444TIP3    H228297   6.871   3.521   1.390  1.3382 -0.1613  0.6469
 9445TIP3   OH228298   7.046   4.571   1.855 -0.2010  0.7198 -0.1024
 9445TIP3    H128299   7.105   4.584   1.780 -0.1720  1.5562  0.0547
 9445TIP3    H228300   7.105   4.556   1.929 -0.2246  0.1118 -0.2055
 9446TIP3   OH228301   7.062   3.745   1.312  0.0421  0.2017  0.6347
 9446TIP3    H128302   7.153   3.719   1.328  0.3450  1.7169  1.5868
 9446TIP3    H228303   7.066   3.839   1.298 -1.1987  0.0538 -1.1057
 9447TIP3   OH228304   3.823   3.745   2.510 -0.3677 -0.0773  0.5727
 9447TIP3    H128305   3.907   3.766   2.551 -1.0252 -0.3352  2.1309
 9447TIP3    H228306   3.765   3.817   2.535 -0.6476  0.0526 -0.4151
 9448TIP3   OH228307   3.299   0.954   3.200 -0.2675 -0.1202  0.4973
 9448TIP3    H128308   3.338   1.041   3.211  1.3701 -0.8827  1.1858
 9448TIP3    H228309   3.282   0.947   3.106  0.3635  0.6396  0.3100
 9449TIP3   OH228310   3.144   5.968   0.914 -0.3341  0.3273 -0.5248
 9449TIP3    H128311   3.154   5.974   0.819  2.1218  0.0213 -0.3473
 9449TIP3    H228312   3.142   6.059   0.943  0.6790  0.4304 -0.7441
 9450TIP3   OH228313   2.063   2.990   2.287  0.1562 -0.2428  0.1853
 9450TIP3    H128314   2.111   2.973   2.206 -0.6298  0.3318 -0.4144
 9450TIP3    H228315   1.971   2.983   2.261 -0.0964 -0.3363  1.0957
 9451TIP3   OH228316   7.055   5.553   1.715  0.0561  0.4392  0.1607
 9451TIP3    H128317   6.969   5.512   1.722  0.9218 -1.2836  1.5254
 9451TIP3    H228318   7.040   5.645   1.735 -1.3693  0.0259  1.0980
 9452TIP3   OH228319   3.540   1.172   0.910  0.7718 -0.0992  0.1021
 9452TIP3    H128320   3.602   1.144   0.843  0.9044  1.8109 -0.6320
 9452TIP3    H228321   3.577   1.253   0.945 -0.2415 -0.0746  1.1845
 9453TIP3   OH228322   6.974   1.641   5.884 -0.3505  0.2177  0.4414
 9453TIP3    H128323   7.042   1.704   5.860  1.5856 -1.4362  1.2327
 9453TIP3    H228324   6.910   1.647   5.814  0.5392  1.9279 -0.3047
 9454TIP3   OH228325   2.084   6.542   4.873 -0.5750 -0.0009 -0.1049
 9454TIP3    H128326   2.035   6.528   4.792 -0.8011 -1.4921  0.2641
 9454TIP3    H228327   2.024   6.515   4.943 -0.0310  0.3269  0.5030
 9455TIP3   OH228328   3.872   2.810   3.847 -0.2516  0.4681 -0.2126
 9455TIP3    H128329   3.916   2.894   3.862  0.6346 -0.2727  1.6809
 9455TIP3    H228330   3.812   2.801   3.922  1.3212 -1.5795  0.9058
 9456TIP3   OH228331   3.408   1.180   4.366 -0.4392 -0.5836 -0.5831
 9456TIP3    H128332   3.444   1.185   4.455  1.1854  1.3270 -1.2564
 9456TIP3    H228333   3.485   1.173   4.310 -1.4587 -2.1532 -1.8634
 9457TIP3   OH228334   0.963   5.152   3.615  0.3777  0.0502  0.1045
 9457TIP3    H128335   0.952   5.065   3.654  0.1392  0.6959  1.5645
 9457TIP3    H228336   0.881   5.168   3.570  0.0580 -0.1065  0.6215
 9458TIP3   OH228337   1.783   2.895   4.191 -0.0266 -0.0743 -0.8524
 9458TIP3    H128338   1.799   2.960   4.259 -0.7166  0.1374 -0.8813
 9458TIP3    H228339   1.704   2.850   4.219 -0.2691 -0.0389 -1.4658
 9459TIP3   OH228340   5.449   0.654   1.482  0.1156 -0.1034  0.0998
 9459TIP3    H128341   5.528   0.701   1.455 -0.6519  0.7863 -0.7165
 9459TIP3    H228342   5.430   0.595   1.408 -0.0585 -0.2048  0.2249
 9460TIP3   OH228343   5.143   5.133   3.497 -0.1227 -0.4709 -0.6632
 9460TIP3    H128344   5.163   5.127   3.590 -1.1827  1.0414 -0.2878
 9460TIP3    H228345   5.138   5.042   3.467 -3.4216 -1.2136  1.5985
 9461TIP3   OH228346   5.479   2.412   4.992  0.3302 -0.2916  0.5538
 9461TIP3    H128347   5.542   2.475   4.957  2.2511 -1.3267  1.9121
 9461TIP3    H228348   5.461   2.443   5.081  0.1251 -0.8331  0.7078
 9462TIP3   OH228349   1.676   3.749   1.651 -0.1508 -0.3609  0.2675
 9462TIP3    H128350   1.739   3.682   1.624 -0.6936 -0.6504 -0.2953
 9462TIP3    H228351   1.601   3.736   1.593 -0.6334  0.1353  0.7747
 9463TIP3   OH228352   0.193   2.416   1.031  0.3977  0.3517 -0.2433
 9463TIP3    H128353   0.203   2.391   1.123  1.5380  2.3068  0.2260
 9463TIP3    H228354   0.101   2.438   1.021 -0.9430 -4.3233 -0.8941
 9464TIP3   OH228355   1.468   4.482   1.360  0.1169  0.4794 -0.0797
 9464TIP3    H128356   1.524   4.544   1.314 -0.1809 -0.1267 -1.3173
 9464TIP3    H228357   1.523   4.447   1.430 -0.2118  3.3142  1.7539
 9465TIP3   OH228358   1.817   4.683   5.241 -0.3249 -0.1981 -0.5917
 9465TIP3    H128359   1.903   4.648   5.264 -0.5117 -1.4215 -1.5954
 9465TIP3    H228360   1.822   4.776   5.261  1.4448 -0.1295 -1.1995
 9466TIP3   OH228361   1.266   1.775   1.350  0.3196  0.0101  0.3108
 9466TIP3    H128362   1.203   1.848   1.347 -0.5212 -0.5090 -5.2443
 9466TIP3    H228363   1.218   1.703   1.390 -1.5212  0.5796 -0.7516
 9467TIP3   OH228364   0.913   5.188   5.546  0.3846  0.4726 -0.1423
 9467TIP3    H128365   0.871   5.102   5.540 -0.0379  0.5896  0.8391
 9467TIP3    H228366   1.006   5.170   5.535  0.1225  0.1770 -2.1258
 9468TIP3   OH228367   3.787   2.073   3.218  0.3363 -0.3024  0.2762
 9468TIP3    H128368   3.709   2.020   3.201  1.4579 -1.7714 -0.5274
 9468TIP3    H228369   3.766   2.159   3.182 -0.2616 -1.1881 -1.5921
 9469TIP3   OH228370   0.338   1.747   5.071  0.0176 -0.3848  0.3785
 9469TIP3    H128371   0.392   1.739   5.149  1.3323 -0.6116 -0.5321
 9469TIP3    H228372   0.317   1.657   5.046 -0.0257 -0.3319  0.2176
 9470TIP3   OH228373   5.996   5.244   3.100  0.0529 -0.2560  0.3148
 9470TIP3    H128374   6.059   5.304   3.059  0.3506 -1.5703 -1.2723
 9470TIP3    H228375   6.048   5.193   3.162  0.3070 -0.4950 -0.0901
 9471TIP3   OH228376   1.972   3.559   3.894 -0.3803 -0.0462 -0.6391
 9471TIP3    H128377   1.938   3.550   3.805  0.6501  0.8277 -1.1479
 9471TIP3    H228378   2.022   3.479   3.908 -3.2713 -1.7982  0.4734
 9472TIP3   OH228379   7.083   3.119   1.754  0.4611  0.2595  0.3396
 9472TIP3    H128380   7.126   3.093   1.835  1.5890  1.0513  0.0181
 9472TIP3    H228381   7.017   3.183   1.781 -0.1055 -0.4886  0.7662
 9473TIP3   OH228382   0.226   1.305   1.570  0.4535 -0.7090 -0.8266
 9473TIP3    H128383   0.173   1.344   1.639 -0.1438  0.1393 -1.7370
 9473TIP3    H228384   0.254   1.221   1.606 -0.3969 -0.5767  0.1881
 9474TIP3   OH228385   4.000   4.910   5.291 -0.3016 -0.5663 -0.2986
 9474TIP3    H128386   4.007   5.002   5.317  0.2017 -0.7683  0.2940
 9474TIP3    H228387   4.073   4.867   5.335 -1.6956 -1.6244  1.0996
 9475TIP3   OH228388   4.407   3.273   3.158  0.1706 -0.1355 -0.3196
 9475TIP3    H128389   4.480   3.293   3.100  0.6817  1.9824  0.9454
 9475TIP3    H228390   4.341   3.233   3.101  2.6995 -3.3043 -1.2855
 9476TIP3   OH228391   4.897   3.956   0.834 -0.3965  0.1808 -0.2858
 9476TIP3    H128392   4.891   4.046   0.802 -0.1390 -0.2436 -1.6137
 9476TIP3    H228393   4.810   3.920   0.820  0.1537 -0.5347 -2.2978
 9477TIP3   OH228394   6.833   5.175   2.183  0.2915  0.1397  0.9315
 9477TIP3    H128395   6.914   5.130   2.207 -0.2355 -1.1929  0.2938
 9477TIP3    H228396   6.767   5.142   2.243 -0.1745 -0.2175  0.2415
 9478TIP3   OH228397   5.763   0.004   5.379  0.3902  0.0169 -0.5330
 9478TIP3    H128398   5.677   0.031   5.346 -0.1973 -0.6011  0.4174
 9478TIP3    H228399   5.810  -0.029   5.303 -1.1994 -2.0996 -0.6687
 9479TIP3   OH228400   3.697   1.323   3.018  0.1134 -0.4388  0.0764
 9479TIP3    H128401   3.767   1.358   2.963  1.3269  0.2974  1.9729
 9479TIP3    H228402   3.631   1.392   3.020 -0.2136 -0.7075 -0.8805
 9480TIP3   OH228403   3.659   0.938   5.340  0.2388 -0.3877  0.0189
 9480TIP3    H128404   3.720   0.962   5.270 -0.9269 -1.0146 -1.2646
 9480TIP3    H228405   3.672   1.005   5.407  1.6731  0.0104 -0.6211
 9481TIP3   OH228406   0.936   2.733   1.031 -0.0551 -0.1368  0.2594
 9481TIP3    H128407   0.974   2.677   1.099  1.1101  2.2825  1.7870
 9481TIP3    H228408   0.969   2.821   1.053 -2.1430  1.2262 -1.6774
 9482TIP3   OH228409   0.788   2.475   5.032  0.1538  0.1040 -0.1043
 9482TIP3    H128410   0.884   2.473   5.036  0.1892  2.0930  2.1564
 9482TIP3    H228411   0.768   2.555   4.984 -0.4138 -0.6561 -1.1646
 9483TIP3   OH228412   2.902   0.404   5.804 -0.2772  0.2543  0.2718
 9483TIP3    H128413   2.913   0.386   5.897 -0.2210  1.3156  0.4913
 9483TIP3    H228414   2.812   0.380   5.785 -0.0172 -0.8310  0.3823
 9484TIP3   OH228415   6.993   3.758   1.642 -0.1635  0.3786  0.5013
 9484TIP3    H128416   7.067   3.754   1.703 -0.0121  0.4010  0.3181
 9484TIP3    H228417   6.920   3.717   1.691 -0.0124  0.2853  0.6518
 9485TIP3   OH228418   6.568   3.102   1.059 -0.3506  0.3201  0.3495
 9485TIP3    H128419   6.599   3.190   1.039 -1.6818  0.7962  0.2905
 9485TIP3    H228420   6.596   3.087   1.150 -1.1944  1.3150  0.7937
 9486TIP3   OH228421   2.314   0.495   3.809  0.2075  0.5336 -0.2773
 9486TIP3    H128422   2.219   0.491   3.796 -0.0265  0.2745  1.3112
 9486TIP3    H228423   2.327   0.570   3.866  0.5818 -1.2403  2.1231
 9487TIP3   OH228424   5.344   5.436   2.146  0.5520 -0.1151  0.1104
 9487TIP3    H128425   5.329   5.467   2.235  2.0573  1.3368 -0.1117
 9487TIP3    H228426   5.356   5.341   2.156 -1.6919 -0.3670  1.1004
 9488TIP3   OH228427   3.954   1.755   5.616 -0.0879  0.1352  0.0782
 9488TIP3    H128428   3.875   1.777   5.665  0.4179  0.7325  0.6526
 9488TIP3    H228429   3.985   1.674   5.657 -0.3149 -0.0155 -0.0455
 9489TIP3   OH228430   1.717   1.988   3.541  0.3797 -0.7768  0.3455
 9489TIP3    H128431   1.713   2.058   3.475 -0.7408 -1.3568 -0.2344
 9489TIP3    H228432   1.683   2.028   3.620  2.3872  0.1362  0.8203
 9490TIP3   OH228433   1.157   0.329   1.407 -0.2076 -0.0385  0.1269
 9490TIP3    H128434   1.186   0.244   1.374 -0.0786  0.3625 -0.8413
 9490TIP3    H228435   1.125   0.311   1.495 -0.4041 -1.1312 -0.1477
 9491TIP3   OH228436   0.908   4.898   3.730  0.0992 -0.2804  0.4057
 9491TIP3    H128437   0.815   4.888   3.750 -0.1682 -0.2029 -0.7318
 9491TIP3    H228438   0.950   4.912   3.816 -0.9472 -0.1729  0.9138
 9492TIP3   OH228439   5.887   4.686   2.563 -0.2556  0.6259 -0.4551
 9492TIP3    H128440   5.831   4.678   2.641 -3.1229 -0.2391 -2.4311
 9492TIP3    H228441   5.946   4.610   2.568 -0.4312  0.5540  0.8406
 9493TIP3   OH228442   5.529   4.426   2.465 -0.4499 -0.5070  0.5153
 9493TIP3    H128443   5.565   4.354   2.413 -1.0572 -0.5917  0.2043
 9493TIP3    H228444   5.578   4.503   2.435 -0.8641 -0.5363 -0.2646
 9494TIP3   OH228445   7.141   6.754   5.629 -0.1131 -0.1720 -0.0857
 9494TIP3    H128446   7.150   6.837   5.583  0.8108 -1.2252 -1.8952
 9494TIP3    H228447   7.185   6.769   5.713  1.3938  0.7204 -0.9847
 9495TIP3   OH228448   5.897   5.311   1.996  0.2220 -0.3233  0.3136
 9495TIP3    H128449   5.964   5.247   1.973 -2.9614 -3.9442  0.0812
 9495TIP3    H228450   5.881   5.297   2.090  0.7891  1.6723  0.7702
 9496TIP3   OH228451   7.042   3.980   5.430  0.2929 -0.0289 -0.2216
 9496TIP3    H128452   7.119   3.925   5.414 -0.5857 -1.1067 -0.9192
 9496TIP3    H228453   7.021   4.017   5.344  1.2325  1.9537  0.3408
 9497TIP3   OH228454   0.297   1.093   3.771 -0.1532  0.6949 -0.1053
 9497TIP3    H128455   0.310   1.105   3.865 -1.2705  1.6853 -0.0672
 9497TIP3    H228456   0.374   1.042   3.743  2.0720  3.3490  0.7001
 9498TIP3   OH228457   0.734   4.904   2.865 -0.0870 -0.0851 -0.3896
 9498TIP3    H128458   0.753   4.879   2.955  0.8217 -2.3462 -1.1412
 9498TIP3    H228459   0.642   4.930   2.866 -0.5193 -1.5161  0.9319
 9499TIP3   OH228460   2.796   3.503   5.619 -0.4657 -0.5080 -0.1581
 9499TIP3    H128461   2.878   3.552   5.612 -0.3951 -0.3628  1.2542
 9499TIP3    H228462   2.729   3.564   5.589 -0.2903  0.1987  0.8472
 9500TIP3   OH228463   2.295   5.531   2.327  0.2100  0.2159 -0.0497
 9500TIP3    H128464   2.298   5.574   2.242 -0.3348 -1.7133 -1.0989
 9500TIP3    H228465   2.379   5.485   2.334  1.0855  1.8896  1.3661
 9501TIP3   OH228466   6.346   6.038   3.287 -0.2697  0.2263 -0.4269
 9501TIP3    H128467   6.269   6.077   3.245 -0.7027  0.5693  0.6538
 9501TIP3    H228468   6.324   6.037   3.380  1.7495  2.0334  0.1415
 9502TIP3   OH228469   6.255   2.748   2.981  0.3644  0.0172  0.1852
 9502TIP3    H128470   6.194   2.737   2.909 -0.6199 -1.5565  1.1864
 9502TIP3    H228471   6.200   2.775   3.055  1.3697  1.7844  0.3391
 9503TIP3   OH228472   6.472   4.236   0.599 -0.3256 -0.1838  0.2933
 9503TIP3    H128473   6.552   4.288   0.596  0.5919 -1.5607  0.0037
 9503TIP3    H228474   6.425   4.270   0.675  0.9393  0.0799  0.9874
 9504TIP3   OH228475   1.585   4.714   4.415 -0.2556 -0.0125 -0.3752
 9504TIP3    H128476   1.636   4.795   4.419  0.0769 -0.1960 -0.8001
 9504TIP3    H228477   1.554   4.700   4.505  0.8111 -0.1327 -0.0164
 9505TIP3   OH228478   4.837   1.390   1.011 -0.2864 -0.5292  0.0168
 9505TIP3    H128479   4.834   1.385   0.916 -1.9249  0.8027 -0.0436
 9505TIP3    H228480   4.922   1.431   1.031 -0.0011 -0.6799 -0.8620
 9506TIP3   OH228481   5.529   2.041   2.476  0.1500 -0.3868  0.3139
 9506TIP3    H128482   5.528   2.129   2.440 -1.7004 -0.2118  0.7298
 9506TIP3    H228483   5.601   1.997   2.430  0.6020  1.0864 -0.4366
 9507TIP3   OH228484   4.501   3.911   5.418 -0.1908 -0.1558  0.3061
 9507TIP3    H128485   4.455   3.895   5.335  1.6790 -0.8675 -0.6518
 9507TIP3    H228486   4.546   3.829   5.437 -1.2099 -0.2777  2.4949
 9508TIP3   OH228487   4.355   3.938   5.907  0.1712  0.0813 -0.2238
 9508TIP3    H128488   4.308   3.866   5.865 -1.2544  0.1630  1.1658
 9508TIP3    H228489   4.416   3.968   5.840  0.6339 -2.2316 -0.9336
 9509TIP3   OH228490   1.088   6.525   1.641 -0.0995 -0.3103  0.3501
 9509TIP3    H128491   1.093   6.484   1.554  0.3080  0.1418  0.1565
 9509TIP3    H228492   1.161   6.586   1.643 -0.7651  0.4920  0.5983
 9510TIP3   OH228493   4.129   4.372   2.350 -0.0333 -0.0558  0.4795
 9510TIP3    H128494   4.223   4.365   2.333 -0.2528 -0.7274 -0.5554
 9510TIP3    H228495   4.120   4.449   2.405  1.2028 -0.4344  1.2438
 9511TIP3   OH228496   7.136   2.182   3.867 -0.2700  0.4068  0.2743
 9511TIP3    H128497   7.042   2.168   3.871 -0.2005 -0.2545 -0.1446
 9511TIP3    H228498   7.146   2.277   3.863 -0.9645  0.4641 -0.5121
 9512TIP3   OH228499   2.782   0.662   0.398  0.4287 -0.5087 -0.6029
 9512TIP3    H128500   2.873   0.687   0.382  0.6689 -1.8206 -1.4574
 9512TIP3    H228501   2.775   0.657   0.493  1.4021 -0.9460 -0.5420
 9513TIP3   OH228502   0.465   2.305  -0.016 -0.2636 -0.7088  0.0363
 9513TIP3    H128503   0.389   2.360  -0.036  1.2331  1.2194 -0.7295
 9513TIP3    H228504   0.482   2.321   0.076  0.8484  1.1658 -0.4256
 9514TIP3   OH228505   3.741   1.067   2.654 -0.2932 -0.1706  0.5003
 9514TIP3    H128506   3.730   0.973   2.642 -0.3909 -0.0918 -0.0887
 9514TIP3    H228507   3.697   1.086   2.737 -1.4167 -0.4447 -0.0043
 9515TIP3   OH228508   1.424   1.647   2.850 -0.0650 -0.3243  0.0145
 9515TIP3    H128509   1.357   1.642   2.782 -1.4003 -1.1736  1.3298
 9515TIP3    H228510   1.396   1.717   2.908  1.3917  0.8168 -0.5829
 9516TIP3   OH228511   3.979   4.913   1.557 -0.7921 -0.1484  0.3298
 9516TIP3    H128512   3.941   4.911   1.645 -1.0698  0.0201  0.2150
 9516TIP3    H228513   4.071   4.934   1.572 -0.5290 -1.4751  0.6692
 9517TIP3   OH228514   1.990   0.205   1.900  0.6424 -0.1062 -0.5757
 9517TIP3    H128515   2.021   0.129   1.852 -1.3556 -0.2787 -1.7195
 9517TIP3    H228516   1.945   0.258   1.834  1.1525  1.5863  0.3899
 9518TIP3   OH228517   0.645   6.452   5.362 -0.3217 -0.1164  0.1308
 9518TIP3    H128518   0.614   6.478   5.449 -1.0850 -0.8263  0.0905
 9518TIP3    H228519   0.603   6.367   5.346 -1.4676  0.7025 -1.5852
 9519TIP3   OH228520   0.068   4.326   3.853 -0.3014 -0.1344 -0.0753
 9519TIP3    H128521   0.156   4.296   3.830  0.6019  1.6504  0.8595
 9519TIP3    H228522   0.010   4.278   3.794  1.6211  1.8873 -4.0005
 9520TIP3   OH228523   2.675   2.346   3.084 -0.6522  0.4599 -0.5074
 9520TIP3    H128524   2.687   2.260   3.044  1.6211  0.6016 -0.2553
 9520TIP3    H228525   2.710   2.337   3.172 -1.6981  1.2876  0.0121
 9521TIP3   OH228526   1.084   1.730   5.715  0.5139 -0.1078 -0.2440
 9521TIP3    H128527   1.102   1.747   5.807 -0.4653  0.2159 -0.1051
 9521TIP3    H228528   1.083   1.816   5.674  1.5544 -0.2908 -0.6869
 9522TIP3   OH228529   6.098   6.748   0.944 -0.1226  0.2048 -0.0309
 9522TIP3    H128530   6.023   6.718   0.892  0.0919  0.0833 -0.2744
 9522TIP3    H228531   6.133   6.822   0.893  1.7132 -1.5545 -1.5001
 9523TIP3   OH228532   2.027   1.867   4.163 -0.2380  0.1061 -0.9093
 9523TIP3    H128533   2.103   1.810   4.177 -1.8900 -2.2335 -0.9961
 9523TIP3    H228534   2.009   1.861   4.069 -0.4205  0.8194 -0.9241
 9524TIP3   OH228535   6.353   1.987   1.526 -0.3582  0.3203  0.3066
 9524TIP3    H128536   6.318   1.965   1.612 -1.0568 -1.6151 -0.4160
 9524TIP3    H228537   6.435   1.939   1.520 -0.7939 -0.3612 -0.4546
 9525TIP3   OH228538   0.942   4.151   3.421  0.2937  0.3026  0.5931
 9525TIP3    H128539   1.034   4.126   3.434  0.5548 -0.3121 -1.9584
 9525TIP3    H228540   0.945   4.246   3.406  0.4890  0.3138  0.6990
 9526TIP3   OH228541   2.424   4.218   2.591 -0.2625 -0.1731 -0.4158
 9526TIP3    H128542   2.380   4.219   2.676 -1.2059 -3.6201 -0.7146
 9526TIP3    H228543   2.502   4.273   2.603 -1.1350  0.6054  2.2020
 9527TIP3   OH228544   4.167   2.075   5.004 -0.6355 -0.2823 -0.3824
 9527TIP3    H128545   4.247   2.099   4.959 -0.7970 -0.5664 -0.8249
 9527TIP3    H228546   4.196   2.019   5.076 -0.3731  0.2210 -0.0880
 9528TIP3   OH228547   4.547   5.725   5.681  0.1190  0.0800 -0.3280
 9528TIP3    H128548   4.603   5.655   5.715 -0.4371  0.1733  0.8264
 9528TIP3    H228549   4.521   5.695   5.594  1.7669 -0.0707 -0.8005
 9529TIP3   OH228550   2.779   6.733   0.737  0.1382 -0.7557 -0.2448
 9529TIP3    H128551   2.843   6.666   0.759  4.0092  2.3744 -0.8935
 9529TIP3    H228552   2.773   6.731   0.642  0.9410  0.3269 -0.3274
 9530TIP3   OH228553   3.978   3.475   0.432 -0.7303  0.1469 -0.2370
 9530TIP3    H128554   3.882   3.480   0.428 -0.7996 -0.8927 -0.2157
 9530TIP3    H228555   3.999   3.488   0.524 -0.7692  1.3306 -0.3783
 9531TIP3   OH228556   4.099   0.771   1.419  0.3493  0.4418 -0.0527
 9531TIP3    H128557   4.125   0.699   1.478 -0.3596  0.9125  0.8596
 9531TIP3    H228558   4.181   0.800   1.380  0.7602 -0.2805  0.2468
 9532TIP3   OH228559   4.699   0.582   3.026 -0.0420 -0.7400 -0.2507
 9532TIP3    H128560   4.615   0.582   3.072 -0.3286 -0.2993 -0.7678
 9532TIP3    H228561   4.763   0.563   3.094 -0.1556  2.3584  0.9033
 9533TIP3   OH228562   0.415   3.660   3.189  0.3291  0.2110  0.0255
 9533TIP3    H128563   0.418   3.726   3.120  1.2606  0.4964  0.3239
 9533TIP3    H228564   0.502   3.620   3.187  0.0556 -0.4072  0.4255
 9534TIP3   OH228565   4.189   6.146   1.515  0.4057 -0.0114 -0.5812
 9534TIP3    H128566   4.267   6.096   1.540  0.6239 -0.6539 -2.4051
 9534TIP3    H228567   4.119   6.109   1.569  0.7998 -1.4564 -1.0157
 9535TIP3   OH228568   5.356   6.601   2.865 -0.1386 -0.3742 -0.0316
 9535TIP3    H128569   5.428   6.568   2.810 -0.9044 -1.0989 -0.6325
 9535TIP3    H228570   5.319   6.522   2.905 -0.4410  0.0182  0.4633
 9536TIP3   OH228571   4.533   5.293   1.239 -0.1782  0.0981 -0.2262
 9536TIP3    H128572   4.582   5.316   1.160 -1.4856  0.9514 -0.8270
 9536TIP3    H228573   4.486   5.373   1.261 -1.9036 -0.9085 -0.1407
 9537TIP3   OH228574   6.860   0.562   4.916 -0.3413  0.1744  0.3553
 9537TIP3    H128575   6.915   0.571   4.994 -1.0085  2.2640  0.6678
 9537TIP3    H228576   6.922   0.552   4.844  0.5570  2.3909  0.7121
 9538TIP3   OH228577   1.213   4.065   3.449 -0.3055 -0.1309 -0.4714
 9538TIP3    H128578   1.260   3.982   3.457 -1.3094 -0.5952  1.2275
 9538TIP3    H228579   1.282   4.131   3.447  0.4919 -0.9566 -1.1053
 9539TIP3   OH228580   4.042   1.867   1.730 -0.5848  0.5359 -0.1578
 9539TIP3    H128581   3.984   1.857   1.806  0.4664 -0.5765  0.5439
 9539TIP3    H228582   4.107   1.797   1.741  0.6636  1.5006 -1.1171
 9540TIP3   OH228583   5.782   2.586   2.178 -0.1687 -0.4194  0.4930
 9540TIP3    H128584   5.705   2.626   2.137  0.9621 -0.0534 -1.3544
 9540TIP3    H228585   5.841   2.660   2.195  0.6301 -0.9234 -0.0362
 9541TIP3   OH228586   7.153   4.779   2.467  0.4947 -0.3309  0.1976
 9541TIP3    H128587   7.099   4.781   2.388  0.4063 -2.0487  0.1746
 9541TIP3    H228588   7.140   4.865   2.507 -2.1649 -0.6067  0.1144
 9542TIP3   OH228589   1.564   0.391   5.586 -0.3241  0.1612 -0.4310
 9542TIP3    H128590   1.641   0.428   5.630 -1.0829 -0.0470  1.1668
 9542TIP3    H228591   1.508   0.466   5.567 -0.8104  0.1022  0.6732
 9543TIP3   OH228592   0.670   4.485   4.713 -0.0499  0.2863  0.4610
 9543TIP3    H128593   0.618   4.409   4.688  1.5011 -0.6619 -0.0391
 9543TIP3    H228594   0.727   4.453   4.782  1.6024  0.5739 -0.7062
 9544TIP3   OH228595   7.137   5.748   3.591 -0.2725  0.3408  0.5346
 9544TIP3    H128596   7.149   5.655   3.612  1.1829  0.2065 -0.7420
 9544TIP3    H228597   7.046   5.754   3.561 -0.3854 -0.6830  0.6349
 9545TIP3   OH228598   6.064   2.082   4.470 -0.3225  0.1182  0.1090
 9545TIP3    H128599   6.099   2.078   4.381 -1.3113  1.8253 -0.3985
 9545TIP3    H228600   5.971   2.098   4.458 -0.1598  2.5049  1.3914
 9546TIP3   OH228601   4.881   3.687   1.192 -0.3377  0.4097 -0.0121
 9546TIP3    H128602   4.835   3.679   1.275 -0.9623  1.4486 -0.2373
 9546TIP3    H228603   4.921   3.774   1.196  0.0472  0.2640 -0.5907
 9547TIP3   OH228604   5.371   5.593   0.040  0.2642 -0.4675 -0.3360
 9547TIP3    H128605   5.406   5.664   0.093  2.5914 -2.4618  1.0319
 9547TIP3    H228606   5.431   5.588  -0.035  1.6542 -2.4378  0.8239
 9548TIP3   OH228607   0.122   4.302   0.546 -0.1700 -0.2741  0.5829
 9548TIP3    H128608   0.193   4.364   0.528 -1.1535  0.7058 -0.0412
 9548TIP3    H228609   0.154   4.218   0.514 -0.3074  0.6518 -2.2455
 9549TIP3   OH228610   4.246   1.948   1.333 -0.1634  0.2248 -0.5160
 9549TIP3    H128611   4.307   2.018   1.311 -1.7451  1.9391  0.3132
 9549TIP3    H228612   4.206   1.924   1.249  0.1020  0.5562 -0.7408
 9550TIP3   OH228613   2.580   0.280   0.802  0.4746  0.4868 -0.6291
 9550TIP3    H128614   2.500   0.327   0.781  1.0189  0.5896 -2.6939
 9550TIP3    H228615   2.553   0.189   0.813  0.1222  0.4273 -1.8425
 9551TIP3   OH228616   2.690   1.986   3.447  0.0208  0.0117 -0.9286
 9551TIP3    H128617   2.782   2.012   3.454 -0.1874  0.6158 -0.2949
 9551TIP3    H228618   2.690   1.893   3.467  0.3013  0.3563  0.8635
 9552TIP3   OH228619   0.665   0.042   1.340 -0.2774 -0.5429  0.1789
 9552TIP3    H128620   0.656  -0.052   1.320  0.9625 -0.5320 -0.5481
 9552TIP3    H228621   0.719   0.044   1.419  0.5316 -0.4357 -0.3643
 9553TIP3   OH228622   0.090   3.491   2.252  1.0794 -0.4800 -0.2985
 9553TIP3    H128623   0.073   3.398   2.243  2.4005 -0.8138  0.4822
 9553TIP3    H228624   0.175   3.505   2.210  0.7503  0.4401 -0.7024
 9554TIP3   OH228625   5.778   2.130   0.366  0.0748  0.3574  1.1694
 9554TIP3    H128626   5.751   2.222   0.371  0.1602  0.3883  1.0641
 9554TIP3    H228627   5.873   2.133   0.355  0.2639  0.2217  2.6244
 9555TIP3   OH228628   6.256   3.559   1.362  0.0274 -0.0359 -0.7011
 9555TIP3    H128629   6.293   3.620   1.425 -1.8045  2.0381 -1.5165
 9555TIP3    H228630   6.206   3.497   1.415  0.7384  0.0265  0.0581
 9556TIP3   OH228631   3.552   4.968   1.219 -0.2156  0.6599  0.3009
 9556TIP3    H128632   3.521   4.929   1.301 -2.7036  0.0541 -0.8311
 9556TIP3    H228633   3.605   4.899   1.178 -1.4246 -0.1647  0.0718
 9557TIP3   OH228634   4.248   6.766   0.981  0.0405 -0.6962  0.2006
 9557TIP3    H128635   4.211   6.807   1.059  0.7858  1.0368 -0.2937
 9557TIP3    H228636   4.307   6.698   1.014 -1.7930 -1.9600  1.0340
 9558TIP3   OH228637   0.261   3.106   4.154  0.0907  0.2294 -0.2391
 9558TIP3    H128638   0.298   3.115   4.066 -2.5293  0.5246 -1.4290
 9558TIP3    H228639   0.334   3.080   4.209  1.9622  0.6362 -2.3876
 9559TIP3   OH228640   5.669   4.482   3.473  0.4095 -0.0801 -0.1881
 9559TIP3    H128641   5.703   4.570   3.458  0.3411  0.0976  0.6473
 9559TIP3    H228642   5.660   4.476   3.568 -0.0883 -0.8040 -0.2758
 9560TIP3   OH228643   2.371   1.061   5.098  0.1458  0.5010  0.5185
 9560TIP3    H128644   2.325   1.072   5.015  0.0092 -2.7615  0.0104
 9560TIP3    H228645   2.463   1.081   5.078  0.3721 -1.6467 -0.9070
 9561TIP3   OH228646   6.751   4.935   2.011  0.0560  0.1874 -0.3289
 9561TIP3    H128647   6.689   5.007   2.006  1.3166  1.3050 -0.6795
 9561TIP3    H228648   6.776   4.932   2.103 -0.0194  0.2049 -0.3084
 9562TIP3   OH228649   2.905   0.600   0.918  0.1690  0.3891 -0.3406
 9562TIP3    H128650   2.940   0.677   0.964 -1.2209  2.1245 -1.9771
 9562TIP3    H228651   2.980   0.542   0.908  1.4985  1.9144  0.2362
 9563TIP3   OH228652   3.975   0.451   4.533  0.4790 -0.1683 -0.2254
 9563TIP3    H128653   3.893   0.496   4.554  1.1860  0.7559  0.6195
 9563TIP3    H228654   4.035   0.521   4.507  1.5025 -0.6238  0.8120
 9564TIP3   OH228655   5.520   4.859   0.580  0.0868  0.4041 -0.2526
 9564TIP3    H128656   5.535   4.874   0.673 -0.2207 -0.3255 -0.0805
 9564TIP3    H228657   5.580   4.788   0.557  0.4921  0.8920 -0.7193
 9565TIP3   OH228658   5.198   1.512   3.192 -0.0334 -0.1707 -0.1113
 9565TIP3    H128659   5.171   1.598   3.222  0.2504  0.7877 -2.4096
 9565TIP3    H228660   5.269   1.487   3.250 -1.9457 -0.1892  2.4000
 9566TIP3   OH228661   2.285   5.133   4.630 -0.4513 -0.1703  0.3653
 9566TIP3    H128662   2.284   5.185   4.710 -1.6577  0.4232 -0.0210
 9566TIP3    H228663   2.195   5.101   4.621 -0.1246 -0.9393 -0.3023
 9567TIP3   OH228664   3.204   1.111   4.666 -0.2922 -0.3022  0.1478
 9567TIP3    H128665   3.251   1.168   4.727 -0.5395 -0.2017  0.2446
 9567TIP3    H228666   3.115   1.146   4.663 -0.2187 -0.1581 -0.4642
 9568TIP3   OH228667   4.805   2.823   0.206  0.4423  0.6703 -0.1957
 9568TIP3    H128668   4.712   2.818   0.183  0.3124 -0.2489  0.4712
 9568TIP3    H228669   4.849   2.849   0.125 -0.4986  2.1282 -0.2715
 9569TIP3   OH228670   6.232   2.372   3.893 -0.0384  0.8434 -0.4829
 9569TIP3    H128671   6.198   2.334   3.974 -0.8220  0.6666 -0.8897
 9569TIP3    H228672   6.251   2.297   3.838 -0.8161  1.0098 -0.9819
 9570TIP3   OH228673   6.772   2.403   3.829 -0.0926  0.1507  0.1908
 9570TIP3    H128674   6.744   2.466   3.896 -0.0573  0.3557  0.0139
 9570TIP3    H228675   6.817   2.456   3.763 -0.3675 -0.0081 -0.1303
 9571TIP3   OH228676   0.376   3.375   0.897 -0.0025 -0.7986  0.6299
 9571TIP3    H128677   0.438   3.416   0.957 -0.5995  0.1027  0.6455
 9571TIP3    H228678   0.368   3.285   0.929  0.9673 -0.8185  0.8719
 9572TIP3   OH228679   1.289   4.166   1.878  0.3170  0.0102  0.3711
 9572TIP3    H128680   1.264   4.182   1.969 -0.7269  1.4842 -0.1428
 9572TIP3    H228681   1.230   4.097   1.848  0.4731 -0.2767  0.7083
 9573TIP3   OH228682   0.063   4.248   5.245 -0.2174  0.0613 -0.1886
 9573TIP3    H128683   0.069   4.342   5.230 -1.3165  0.2429  0.4128
 9573TIP3    H228684  -0.026   4.225   5.219 -0.0059 -0.7903 -0.2024
 9574TIP3   OH228685   4.677   0.393   5.859  0.9587 -0.0107 -0.0077
 9574TIP3    H128686   4.627   0.312   5.848 -0.4970  0.5126  2.0941
 9574TIP3    H228687   4.733   0.397   5.781 -1.4778 -1.2017 -1.9989
 9575TIP3   OH228688   4.693   0.913   1.768  0.5380 -0.3657  0.3076
 9575TIP3    H128689   4.620   0.931   1.828 -0.2964 -0.0410 -0.7764
 9575TIP3    H228690   4.706   0.996   1.722 -0.2847 -1.1903 -1.4879
 9576TIP3   OH228691   0.575   0.570   1.447 -0.9208  0.5506 -0.4145
 9576TIP3    H128692   0.640   0.528   1.391 -0.8531  1.2997 -0.8987
 9576TIP3    H228693   0.494   0.523   1.429 -0.3250 -1.1901  1.0569
 9577TIP3   OH228694   6.667   0.352   1.117  0.1588  0.3656  0.3437
 9577TIP3    H128695   6.590   0.296   1.105  0.6445 -0.4504  0.8855
 9577TIP3    H228696   6.734   0.312   1.061  0.2644  0.9256  0.0635
 9578TIP3   OH228697   5.509   6.370   1.577 -0.2335 -0.6823 -0.4449
 9578TIP3    H128698   5.499   6.464   1.589  0.6475 -0.2338 -2.8021
 9578TIP3    H228699   5.419   6.337   1.569 -0.5224  0.0327 -0.1575
 9579TIP3   OH228700   4.167   3.876   1.467  0.2441 -0.2392 -0.8785
 9579TIP3    H128701   4.231   3.823   1.513  1.1658 -0.0539 -1.8922
 9579TIP3    H228702   4.216   3.914   1.394 -0.6555  1.1086 -0.8218
 9580TIP3   OH228703   7.176   5.173   3.864 -0.1932  0.1372  0.4609
 9580TIP3    H128704   7.111   5.103   3.870  0.8447 -0.8217  0.7807
 9580TIP3    H228705   7.148   5.238   3.928 -0.5728 -0.4870  0.9357
 9581TIP3   OH228706   6.677   1.430   5.057 -0.5882 -0.2443 -0.0840
 9581TIP3    H128707   6.660   1.499   4.993 -0.9848  0.5270  0.8209
 9581TIP3    H228708   6.772   1.421   5.059 -0.5820 -0.4183 -0.9109
 9582TIP3   OH228709   4.639   6.612   2.883 -0.0292  0.8116 -0.3578
 9582TIP3    H128710   4.573   6.669   2.923 -0.6354  0.8112 -1.3381
 9582TIP3    H228711   4.603   6.524   2.893  0.5042  0.6721  0.3858
 9583TIP3   OH228712   3.078   5.208   3.065  0.0607  1.0064 -0.1083
 9583TIP3    H128713   3.030   5.284   3.096 -0.6390 -0.0913  1.6480
 9583TIP3    H228714   3.012   5.140   3.056  0.8587  0.2485 -0.4118
 9584TIP3   OH228715   3.165   5.663   3.530 -0.0998  0.6420  0.3220
 9584TIP3    H128716   3.072   5.645   3.520 -0.0439 -0.9235  1.9918
 9584TIP3    H228717   3.179   5.746   3.485 -2.0006  0.2155 -1.1799
 9585TIP3   OH228718   5.012   1.083   5.702  0.4281 -0.2656  0.0493
 9585TIP3    H128719   4.931   1.037   5.680  0.9265 -0.7436 -0.8345
 9585TIP3    H228720   5.002   1.169   5.663 -0.3497  0.2994  1.3918
 9586TIP3   OH228721   0.144   6.052   1.205  0.5643  0.2771  0.6478
 9586TIP3    H128722   0.191   6.118   1.256  1.1763 -0.3902  0.9754
 9586TIP3    H228723   0.175   5.968   1.240 -1.1086 -0.1993  1.0946
 9587TIP3   OH228724   0.890   0.216   1.184  0.2614 -0.2554  0.2915
 9587TIP3    H128725   0.885   0.140   1.125 -0.1531 -1.4578  1.8007
 9587TIP3    H228726   0.931   0.182   1.263 -0.5927  0.9287  1.2758
 9588TIP3   OH228727   5.437   1.596   5.360 -0.4749  0.4213 -0.2842
 9588TIP3    H128728   5.430   1.653   5.283 -1.1778  0.1334 -0.4429
 9588TIP3    H228729   5.399   1.648   5.432  0.2866  0.7345 -0.0982
 9589TIP3   OH228730   2.550   2.418   2.044  0.0078  0.0730 -0.2915
 9589TIP3    H128731   2.585   2.410   2.133  0.2570  3.0456  0.0000
 9589TIP3    H228732   2.460   2.385   2.051  0.5074 -1.1678  0.6599
 9590TIP3   OH228733   2.218   6.210   2.661  0.4309  0.1028 -0.0546
 9590TIP3    H128734   2.211   6.286   2.603  0.8928 -0.0667 -0.3371
 9590TIP3    H228735   2.255   6.141   2.607  2.2431  0.3478  0.7825
 9591TIP3   OH228736   3.201   1.978   4.922 -0.6835  0.3777 -0.0868
 9591TIP3    H128737   3.251   2.044   4.875 -0.4907 -0.1419 -0.6255
 9591TIP3    H228738   3.174   1.916   4.854 -0.2533 -0.4793  0.5099
 9592TIP3   OH228739   0.920   2.304   3.444 -0.3437 -0.2235 -0.6480
 9592TIP3    H128740   0.942   2.284   3.353 -0.9590  0.0393 -0.8642
 9592TIP3    H228741   0.902   2.219   3.485 -0.0476 -0.3426 -0.7710
 9593TIP3   OH228742   4.014   1.450   3.361 -0.1127 -0.0472 -0.4266
 9593TIP3    H128743   3.975   1.394   3.293 -0.9906 -0.5104  0.4285
 9593TIP3    H228744   4.092   1.402   3.390 -0.0963 -0.1616 -0.6600
 9594TIP3   OH228745   6.121   4.763   1.414  0.0421  0.6615 -0.3861
 9594TIP3    H128746   6.118   4.857   1.399  0.7474  0.7321 -0.1594
 9594TIP3    H228747   6.036   4.741   1.451 -0.1302  1.2081 -0.4552
 9595TIP3   OH228748   2.943   5.577   1.140 -0.0940 -0.3029 -0.1488
 9595TIP3    H128749   2.928   5.652   1.081 -0.3249 -1.8509 -2.1649
 9595TIP3    H228750   3.034   5.587   1.168 -0.3020  1.0586  0.1470
 9596TIP3   OH228751   1.924   1.766   2.435  0.3533  0.4033 -0.5731
 9596TIP3    H128752   1.860   1.835   2.415 -0.1840  0.3610  0.8957
 9596TIP3    H228753   1.980   1.805   2.502  0.8890 -0.1324 -0.7064
 9597TIP3   OH228754   6.481   5.602   0.314  0.2110 -0.1653  0.0637
 9597TIP3    H128755   6.551   5.661   0.343  1.6561 -1.9087  0.3090
 9597TIP3    H228756   6.424   5.657   0.261  0.4988  1.8528  1.7309
 9598TIP3   OH228757   6.233   3.961   2.665 -0.0961 -0.2189 -0.3106
 9598TIP3    H128758   6.266   4.031   2.609 -1.0817 -0.1456 -0.8059
 9598TIP3    H228759   6.291   3.887   2.647 -0.4450 -0.2200 -1.4940
 9599TIP3   OH228760   5.832   0.818   3.992  0.0725 -0.0001  0.5937
 9599TIP3    H128761   5.827   0.840   3.899 -0.3455  0.6411  0.7712
 9599TIP3    H228762   5.908   0.759   3.998 -1.3326 -2.0327 -0.5377
 9600TIP3   OH228763   1.708   6.490   3.675 -0.1868 -0.3232  0.0421
 9600TIP3    H128764   1.636   6.490   3.738  0.4948 -0.0204  0.8492
 9600TIP3    H228765   1.749   6.404   3.685 -0.2160 -0.3565 -0.1389
 9601TIP3   OH228766   6.601   1.885   1.185 -0.2280  0.2706  0.0601
 9601TIP3    H128767   6.523   1.836   1.159  0.8529 -1.0151 -0.9680
 9601TIP3    H228768   6.652   1.893   1.104  0.5083  1.4654  0.6153
 9602TIP3   OH228769   2.222   1.555   4.756  0.0229  0.6473  0.1748
 9602TIP3    H128770   2.165   1.628   4.730  1.2719  1.3938 -0.5322
 9602TIP3    H228771   2.293   1.596   4.804  1.5881  0.1249 -1.5831
 9603TIP3   OH228772   3.219   4.290   1.039 -0.0367 -0.2307  0.4931
 9603TIP3    H128773   3.249   4.351   0.972 -1.2936 -0.0650  0.0515
 9603TIP3    H228774   3.127   4.312   1.053  0.5002  0.7176  3.3270
 9604TIP3   OH228775   7.047   3.064   4.138 -0.5142  0.5210 -0.3398
 9604TIP3    H128776   6.984   3.003   4.176 -0.7231 -0.1778 -1.7518
 9604TIP3    H228777   6.994   3.137   4.107 -0.3151  1.2214  0.9115
 9605TIP3   OH228778   3.653   0.247   3.805  0.1489  0.2574  0.6472
 9605TIP3    H128779   3.745   0.243   3.832  0.3641  0.1913 -0.0582
 9605TIP3    H228780   3.657   0.251   3.709 -0.5870  0.1433  0.6073
 9606TIP3   OH228781   6.265   1.909   1.794  0.1182  0.3178  0.2984
 9606TIP3    H128782   6.336   1.911   1.858 -0.4920 -1.7262  1.1070
 9606TIP3    H228783   6.231   1.820   1.798 -0.6370  0.4158 -2.1357
 9607TIP3   OH228784   4.664   4.391   4.803 -0.4888  0.1210 -0.2286
 9607TIP3    H128785   4.624   4.336   4.870 -1.7846  0.7314 -0.4748
 9607TIP3    H228786   4.591   4.438   4.763  0.5502  1.9742 -0.0705
 9608TIP3   OH228787   6.545   5.965   4.957 -0.3878 -0.0740 -0.1283
 9608TIP3    H128788   6.509   6.024   4.892 -0.9425  0.7732  0.9187
 9608TIP3    H228789   6.631   6.002   4.978  0.3267 -1.0258 -1.2275
 9609TIP3   OH228790   5.794   6.660   0.133 -0.3656 -0.1050 -0.2936
 9609TIP3    H128791   5.874   6.692   0.092  0.1473 -1.1470 -0.1273
 9609TIP3    H228792   5.805   6.678   0.226  0.2276 -1.3497 -0.1066
 9610TIP3   OH228793   4.183   2.481   4.983 -0.3378  0.3967  0.0809
 9610TIP3    H128794   4.270   2.446   4.968 -0.9331 -1.7393  1.1178
 9610TIP3    H228795   4.158   2.522   4.900  2.3286  2.7922  0.3407
 9611TIP3   OH228796   0.497   2.916   5.361 -0.2818  0.5681  0.0380
 9611TIP3    H128797   0.542   2.875   5.287 -1.5775 -0.2229 -0.3268
 9611TIP3    H228798   0.467   3.000   5.327  1.4401  1.4074  0.4758
 9612TIP3   OH228799   0.067   2.100   3.311 -0.2639 -0.0102  0.0604
 9612TIP3    H128800   0.081   2.159   3.385  1.4829 -0.1191 -0.1381
 9612TIP3    H228801  -0.011   2.050   3.334 -2.5991  3.1409 -0.2685
 9613TIP3   OH228802   1.696   2.113   3.269  0.8155  1.1378  0.7192
 9613TIP3    H128803   1.679   2.053   3.196 -0.2090  2.9937 -0.6697
 9613TIP3    H228804   1.788   2.135   3.261  0.4618  2.2375 -0.8307
 9614TIP3   OH228805   6.371   3.487   3.399 -0.6690 -0.2888  0.4459
 9614TIP3    H128806   6.334   3.463   3.314 -0.8208  2.3616 -0.3241
 9614TIP3    H228807   6.466   3.477   3.388 -0.7423 -0.7826  0.2550
 9615TIP3   OH228808   1.087   3.595   3.255  0.4758  0.6247 -0.4098
 9615TIP3    H128809   1.023   3.583   3.186  0.5450 -1.7837 -0.1631
 9615TIP3    H228810   1.035   3.606   3.335  0.4047  1.8979 -0.6105
 9616TIP3   OH228811   5.506   3.763   0.876  0.4048 -0.1680 -0.0942
 9616TIP3    H128812   5.448   3.726   0.943 -1.6242  2.0499 -0.4903
 9616TIP3    H228813   5.541   3.843   0.916  0.2165  0.4824 -1.1820
 9617TIP3   OH228814   0.352   2.162   5.397  0.3220 -0.1468 -0.5780
 9617TIP3    H128815   0.390   2.176   5.310 -0.6668 -0.5244 -1.0883
 9617TIP3    H228816   0.325   2.249   5.426 -0.8760 -0.2148 -1.3971
 9618TIP3   OH228817   5.889   2.292   1.254 -0.1906  0.0877  0.1374
 9618TIP3    H128818   5.907   2.207   1.295 -0.9992  0.2632  0.8651
 9618TIP3    H228819   5.832   2.271   1.180 -0.3048 -0.0164  0.2548
 9619TIP3   OH228820   6.287   3.663   5.639 -0.0580 -0.1378 -0.1432
 9619TIP3    H128821   6.255   3.707   5.718 -1.6936 -0.5368 -0.5494
 9619TIP3    H228822   6.349   3.598   5.671  0.2146  0.5196  0.7068
 9620TIP3   OH228823   2.168   1.129   5.325 -0.6323 -0.3890 -0.5473
 9620TIP3    H128824   2.089   1.087   5.359 -0.7622 -1.1133 -1.6836
 9620TIP3    H228825   2.186   1.083   5.243 -0.2283  1.1534 -1.3651
 9621TIP3   OH228826   2.593   4.867   2.961  0.0428  0.1394  0.1769
 9621TIP3    H128827   2.526   4.798   2.965 -0.5552  0.7460  2.8391
 9621TIP3    H228828   2.673   4.821   2.938 -1.1300 -0.6604 -2.7791
 9622TIP3   OH228829   4.711   2.494   4.398  0.3964 -0.2149 -0.3258
 9622TIP3    H128830   4.750   2.406   4.392  0.9799  0.0672 -0.8865
 9622TIP3    H228831   4.617   2.479   4.387  0.2146 -1.0006  1.8911
 9623TIP3   OH228832   6.471   2.830   2.313 -0.5965 -0.1245  0.7697
 9623TIP3    H128833   6.518   2.862   2.236  0.8575 -0.9104  1.3015
 9623TIP3    H228834   6.486   2.896   2.380 -2.2861  0.8139  0.2673
 9624TIP3   OH228835   2.138   1.380   4.229 -0.1260  0.7196 -0.2445
 9624TIP3    H128836   2.123   1.453   4.169  0.7169 -0.2578 -1.7353
 9624TIP3    H228837   2.227   1.350   4.208 -0.1191 -0.1765  0.9523
 9625TIP3   OH228838   2.411   4.572   1.622  0.0859  0.6599  0.0914
 9625TIP3    H128839   2.369   4.495   1.584  1.0745  0.8048 -1.3829
 9625TIP3    H228840   2.469   4.538   1.690 -1.1284  0.3285  1.0070
 9626TIP3   OH228841   5.254   0.391   0.326  0.1469 -1.0646 -0.8136
 9626TIP3    H128842   5.320   0.384   0.256  0.1301 -2.4891 -0.7164
 9626TIP3    H228843   5.245   0.302   0.359 -0.6950 -0.6066  0.2422
 9627TIP3   OH228844   0.342   2.508   1.422 -0.0299 -0.1426  0.2471
 9627TIP3    H128845   0.433   2.487   1.445  0.1256 -0.5232 -0.6999
 9627TIP3    H228846   0.307   2.427   1.385 -0.6341  0.1210  0.2242
 9628TIP3   OH228847   1.467   3.010   2.571 -0.3619 -0.1090 -0.1570
 9628TIP3    H128848   1.458   2.958   2.652 -0.5221 -0.6003 -0.4833
 9628TIP3    H228849   1.561   3.015   2.556 -0.3502 -0.5571 -0.2722
 9629TIP3   OH228850   3.905   5.065   4.162 -0.4501  0.3637  0.3454
 9629TIP3    H128851   3.897   5.085   4.255  0.0082 -0.1964  0.5106
 9629TIP3    H228852   3.886   4.971   4.155  1.9703 -0.1931  0.2568
 9630TIP3   OH228853   1.412   3.637   0.585  0.2867 -0.1841  0.2408
 9630TIP3    H128854   1.319   3.657   0.591 -0.0110 -1.2669 -0.4529
 9630TIP3    H228855   1.417   3.542   0.594  1.1695 -0.2919 -1.0840
 9631TIP3   OH228856   3.248   5.890   4.971 -0.4237  0.5597 -0.0763
 9631TIP3    H128857   3.167   5.840   4.970 -0.2669  0.3002  0.0320
 9631TIP3    H228858   3.267   5.904   5.064  0.5678 -0.8812 -0.0374
 9632TIP3   OH228859   6.126   5.945   3.684  0.3053  0.0352 -0.2844
 9632TIP3    H128860   6.073   5.907   3.755 -0.0296 -0.6056 -0.8602
 9632TIP3    H228861   6.185   5.874   3.658 -0.2292 -0.0578 -1.2863
 9633TIP3   OH228862   3.071   3.718   4.017 -1.0916  0.2390  0.1476
 9633TIP3    H128863   3.133   3.662   4.063  0.3609  1.5154 -0.1552
 9633TIP3    H228864   2.989   3.706   4.064 -0.4908 -1.0671  0.9355
 9634TIP3   OH228865   3.774   5.657   1.453  0.2329  0.4551 -0.3842
 9634TIP3    H128866   3.738   5.569   1.463  0.8359  0.3854  1.5301
 9634TIP3    H228867   3.755   5.680   1.362 -0.2695 -1.4933 -0.8266
 9635TIP3   OH228868   0.545   3.090   1.937  0.1544  0.0511  0.0902
 9635TIP3    H128869   0.595   3.054   2.010 -0.1668  0.3910  0.4831
 9635TIP3    H228870   0.515   3.176   1.968  1.1245  0.7743 -0.9319
 9636TIP3   OH228871   3.467   3.611   0.651 -0.5981 -0.5644 -0.2345
 9636TIP3    H128872   3.539   3.585   0.594 -0.7772 -0.7392 -0.3832
 9636TIP3    H228873   3.503   3.681   0.706 -0.0519 -1.2414  0.2882
 9637TIP3   OH228874   5.656   2.611   2.973  0.1460  0.0169  0.3578
 9637TIP3    H128875   5.579   2.659   2.943 -0.9578 -0.9388  1.5327
 9637TIP3    H228876   5.620   2.528   3.007  1.6577 -0.3019  1.2447
 9638TIP3   OH228877   4.320   3.584   1.310 -0.2147 -0.2446  0.6089
 9638TIP3    H128878   4.303   3.641   1.235  2.1560  0.5692  0.6161
 9638TIP3    H228879   4.239   3.532   1.320 -1.0046  0.4159 -1.7696
 9639TIP3   OH228880   6.592   3.362   0.879  0.2215  0.0514 -0.1776
 9639TIP3    H128881   6.623   3.451   0.862  0.2986  0.9133  3.5718
 9639TIP3    H228882   6.497   3.369   0.874  0.1890  0.5923  0.8590
 9640TIP3   OH228883   3.288   6.136   1.289 -0.6211 -0.2766 -0.4197
 9640TIP3    H128884   3.202   6.169   1.315 -0.7158 -0.7302 -0.1409
 9640TIP3    H228885   3.268   6.054   1.243 -0.2370 -1.4284  1.3772
 9641TIP3   OH228886   4.903   5.994   1.343  0.0821  0.3653  0.0250
 9641TIP3    H128887   4.913   5.933   1.271 -0.9472 -0.4118  0.5278
 9641TIP3    H228888   4.993   6.016   1.368  0.4563 -0.4226 -0.6002
 9642TIP3   OH228889   3.126   2.863   5.564 -0.1150  0.2724 -0.2155
 9642TIP3    H128890   3.130   2.798   5.493  0.2096  0.6393 -0.5430
 9642TIP3    H228891   3.131   2.948   5.518  1.6618  0.4990  0.3292
 9643TIP3   OH228892   2.467   1.801   1.675  0.4536  0.2305  0.3279
 9643TIP3    H128893   2.407   1.782   1.602  2.3278 -0.1351 -1.2033
 9643TIP3    H228894   2.482   1.896   1.669 -0.3171  0.4039  1.0137
 9644TIP3   OH228895   3.382   6.130   5.629 -0.3285  0.3354 -0.3007
 9644TIP3    H128896   3.462   6.179   5.651  0.1136  0.3114 -1.7427
 9644TIP3    H228897   3.318   6.159   5.694  0.4271  1.4761 -0.0205
 9645TIP3   OH228898   6.972   4.232   4.590  0.1464  0.3488 -0.1391
 9645TIP3    H128899   7.016   4.315   4.572 -0.3362  0.4393 -0.9547
 9645TIP3    H228900   7.007   4.172   4.524 -2.3219  0.9197 -2.1183
 9646TIP3   OH228901   1.669   4.072   0.124  0.1670 -1.1911 -0.4363
 9646TIP3    H128902   1.671   4.001   0.189 -0.3191  0.3061  1.3304
 9646TIP3    H228903   1.761   4.096   0.112  0.2091  1.0254  2.7973
 9647TIP3   OH228904   2.476   5.499   0.181 -0.0901 -0.4887 -0.1346
 9647TIP3    H128905   2.384   5.506   0.156  0.3021  1.5200 -1.1682
 9647TIP3    H228906   2.484   5.554   0.259  0.4329  0.1728 -0.6486
 9648TIP3   OH228907   4.979   4.236   0.907  0.5180  0.1521  0.1189
 9648TIP3    H128908   5.060   4.187   0.920  0.3129  0.3475  2.6221
 9648TIP3    H228909   4.973   4.248   0.812  2.4634 -1.4284 -0.2706
 9649TIP3   OH228910   1.669   2.052   4.966  0.3811  0.4326 -0.1480
 9649TIP3    H128911   1.731   2.018   5.031 -1.6670 -1.9157  0.7229
 9649TIP3    H228912   1.700   2.018   4.883 -0.1264 -1.4330  0.3888
 9650TIP3   OH228913   4.185   0.500   3.201  0.1850 -0.0548 -0.2565
 9650TIP3    H128914   4.190   0.552   3.121  0.1240 -1.2198 -1.0537
 9650TIP3    H228915   4.099   0.519   3.237  1.2301  2.5896  1.0820
 9651TIP3   OH228916   0.933   2.145   1.215  0.3394 -0.1185 -0.4545
 9651TIP3    H128917   0.921   2.185   1.129  1.0924  2.0029  0.3752
 9651TIP3    H228918   0.856   2.172   1.265  0.3141 -0.6452 -0.2046
 9652TIP3   OH228919   6.519   2.024   4.335 -0.1742 -0.3044  0.1338
 9652TIP3    H128920   6.535   2.001   4.426 -1.7142  0.4603  0.6272
 9652TIP3    H228921   6.541   1.945   4.286 -0.4235 -1.1070  1.2788
 9653TIP3   OH228922   1.904   6.241   5.119 -0.6260  0.4905  0.2189
 9653TIP3    H128923   1.989   6.246   5.164 -1.0685  2.2350  0.9495
 9653TIP3    H228924   1.886   6.147   5.113  0.6016  0.1314  1.5076
 9654TIP3   OH228925   5.678   1.886   0.447  0.9462 -0.9441  0.1891
 9654TIP3    H128926   5.710   1.976   0.458  0.6890 -1.0101  1.6035
 9654TIP3    H228927   5.583   1.895   0.441  1.0453 -0.8057 -3.4603
 9655TIP3   OH228928   4.094   4.925   2.833  0.4904  0.0364 -0.2889
 9655TIP3    H128929   4.077   4.998   2.893  0.5527  0.0080 -0.2376
 9655TIP3    H228930   4.181   4.893   2.857 -0.4139 -1.4711  1.1422
 9656TIP3   OH228931   2.857   0.650   0.030 -0.0697  0.1926  0.5028
 9656TIP3    H128932   2.839   0.649   0.124  1.8055 -0.9183  0.8951
 9656TIP3    H228933   2.952   0.644   0.024 -0.2126 -0.8718 -1.4744
 9657TIP3   OH228934   1.878   0.978   1.711 -0.3117  0.3314 -0.0318
 9657TIP3    H128935   1.810   1.042   1.734  1.3405  2.3674 -0.4830
 9657TIP3    H228936   1.915   0.951   1.795 -2.5139 -1.9119  0.3352
 9658TIP3   OH228937   0.426   3.008   2.904 -0.1126  0.9415 -0.4024
 9658TIP3    H128938   0.367   2.948   2.949  0.3445  0.4971 -0.3820
 9658TIP3    H228939   0.513   2.972   2.920  0.3520  2.6189  1.1582
 9659TIP3   OH228940   6.460   5.579   5.818 -0.7940 -0.2233  0.9177
 9659TIP3    H128941   6.458   5.588   5.913  0.5948 -1.3369  1.0778
 9659TIP3    H228942   6.524   5.643   5.789  0.2358 -1.2091  0.9435
 9660TIP3   OH228943   4.551   3.157   0.857 -0.0870 -0.0019  0.3318
 9660TIP3    H128944   4.615   3.205   0.909  0.4583  0.4110 -0.6794
 9660TIP3    H228945   4.584   3.067   0.856  0.2322  0.1143  0.1964
 9661TIP3   OH228946   6.817   4.574   2.718 -0.1156 -0.2223  0.1079
 9661TIP3    H128947   6.732   4.617   2.709  0.0476  0.0235 -0.2726
 9661TIP3    H228948   6.796   4.481   2.723 -0.5568 -0.0677  2.0733
 9662TIP3   OH228949   3.967   5.052   0.262 -0.1898 -0.0329  0.2343
 9662TIP3    H128950   3.927   5.023   0.180 -0.6058 -0.6697  0.6571
 9662TIP3    H228951   3.893   5.062   0.322  0.2601 -1.1741  1.0134
 9663TIP3   OH228952   6.816   5.799   5.297 -0.0099 -0.0236  0.6350
 9663TIP3    H128953   6.782   5.782   5.385 -2.3546  1.7048  0.1303
 9663TIP3    H228954   6.888   5.861   5.311  0.4234 -0.6673  1.3838
 9664TIP3   OH228955   2.391   5.898   3.468 -0.2202 -0.2995 -0.8099
 9664TIP3    H128956   2.337   5.904   3.389 -0.7715  0.5472 -0.3888
 9664TIP3    H228957   2.426   5.809   3.467 -0.7599 -0.5137 -1.6607
 9665TIP3   OH228958   4.942   5.786   0.122 -0.7626 -0.2485 -0.4370
 9665TIP3    H128959   4.873   5.849   0.145 -0.5582 -0.5674  1.2191
 9665TIP3    H228960   4.998   5.834   0.061  0.4580  1.9808  2.1813
 9666TIP3   OH228961   3.962   6.583   1.285  0.1985 -0.2038 -0.4100
 9666TIP3    H128962   3.981   6.509   1.343  0.2891 -1.2931 -1.7873
 9666TIP3    H228963   3.997   6.557   1.200 -0.9688  0.8510 -1.2534
 9667TIP3   OH228964   3.807   4.286   1.516 -0.4734  0.3631 -0.0920
 9667TIP3    H128965   3.897   4.260   1.535 -0.5925 -0.0491 -0.0665
 9667TIP3    H228966   3.781   4.229   1.444 -1.8374 -1.9966  2.0729
 9668TIP3   OH228967   3.510   4.211   1.095 -0.0791  0.7777  0.1856
 9668TIP3    H128968   3.426   4.213   1.049  0.6524  1.8879 -1.1937
 9668TIP3    H228969   3.556   4.137   1.057 -0.9882 -0.8324  2.0758
 9669TIP3   OH228970   6.714   0.295   3.028 -0.2576 -0.5106  0.7098
 9669TIP3    H128971   6.776   0.250   2.971  0.0315 -0.7944  1.2479
 9669TIP3    H228972   6.640   0.315   2.970 -0.5781 -2.0331  0.5396
 9670TIP3   OH228973   0.341   4.498   5.732  0.2188  0.2878  0.3377
 9670TIP3    H128974   0.374   4.433   5.670  0.6857  0.4104  0.4503
 9670TIP3    H228975   0.271   4.543   5.685 -0.1037 -0.2918  0.2586
 9671TIP3   OH228976   6.895   3.746   2.483 -0.3458  0.3916  0.0065
 9671TIP3    H128977   6.956   3.672   2.485 -2.1457 -1.2806 -2.1507
 9671TIP3    H228978   6.814   3.712   2.520 -0.1899  2.5411  2.7004
 9672TIP3   OH228979   7.077   4.377   2.770  0.3841 -0.3208 -0.2142
 9672TIP3    H128980   7.057   4.339   2.684 -1.3437  1.1579 -0.5310
 9672TIP3    H228981   7.084   4.471   2.753 -1.1607  0.1495  1.4157
 9673TIP3   OH228982   3.759   3.174   3.136 -0.0365  0.5347 -0.1980
 9673TIP3    H128983   3.741   3.229   3.212 -0.8975 -0.6268  0.4692
 9673TIP3    H228984   3.738   3.230   3.061  0.9848  1.7552  0.3713
 9674TIP3   OH228985   0.252   4.198   3.722 -0.4625 -0.0634 -0.3740
 9674TIP3    H128986   0.299   4.125   3.762 -2.5485 -1.3332 -0.0637
 9674TIP3    H228987   0.320   4.253   3.683  1.1580 -2.5237 -1.2434
 9675TIP3   OH228988   1.439   0.774   1.257 -0.6679 -0.2880  0.4212
 9675TIP3    H128989   1.413   0.803   1.169 -0.5556  1.0625  0.8135
 9675TIP3    H228990   1.400   0.687   1.265  0.8023 -1.2270 -1.6377
 9676TIP3   OH228991   1.389   6.636   5.192 -0.5748  0.0999 -0.1824
 9676TIP3    H128992   1.412   6.714   5.241 -1.7708 -0.3866  1.2392
 9676TIP3    H228993   1.295   6.623   5.210 -0.2420 -2.0687  0.2725
 9677TIP3   OH228994   4.856   5.464   2.268  0.1235  0.0513  0.1536
 9677TIP3    H128995   4.887   5.505   2.187  1.6371  0.4461  0.8961
 9677TIP3    H228996   4.925   5.402   2.291  0.2622  0.7308  1.7090
 9678TIP3   OH228997   4.792   3.135   1.604 -0.1008 -0.3927  0.0090
 9678TIP3    H128998   4.781   3.150   1.510 -0.9025  1.6873  0.3942
 9678TIP3    H228999   4.862   3.069   1.609  0.5577  0.0697 -2.0148
 9679TIP3   OH229000   7.175   3.680   1.820 -0.0969 -0.6228 -0.1217
 9679TIP3    H129001   7.208   3.590   1.814  1.2955 -0.1769  0.3130
 9679TIP3    H229002   7.139   3.687   1.908 -0.6537 -0.8956 -0.3279
 9680TIP3   OH229003   2.455   2.128   2.347 -0.3229  0.0510 -0.1196
 9680TIP3    H129004   2.481   2.105   2.436 -1.4943  1.8617  0.7541
 9680TIP3    H229005   2.445   2.044   2.303  1.1210 -0.8635  1.1878
 9681TIP3   OH229006   7.085   5.703   4.618  0.0996  0.2064 -0.0142
 9681TIP3    H129007   7.003   5.665   4.649  0.4757 -0.6643 -0.0519
 9681TIP3    H229008   7.133   5.725   4.698 -0.0995  0.5704  0.0080
 9682TIP3   OH229009   0.489   1.778   4.169 -0.5251  0.0650  0.0999
 9682TIP3    H129010   0.505   1.689   4.137  0.4562  0.2040  0.1565
 9682TIP3    H229011   0.400   1.799   4.140 -0.3918 -0.5522 -0.7979
 9683TIP3   OH229012   2.169   1.303   3.621  0.4450 -0.0613  0.5220
 9683TIP3    H129013   2.247   1.285   3.568  0.8969 -0.6157  1.3389
 9683TIP3    H229014   2.204   1.344   3.701  0.0790 -1.6514  1.5437
 9684TIP3   OH229015   5.861   0.649   5.343  0.1141 -0.2335 -0.0331
 9684TIP3    H129016   5.774   0.651   5.304 -0.8153  0.7929  1.9641
 9684TIP3    H229017   5.918   0.686   5.276 -1.0122 -0.5896 -1.2392
 9685TIP3   OH229018   3.484   3.434   5.647 -1.3513  0.3437  0.4425
 9685TIP3    H129019   3.448   3.346   5.659  0.0454 -0.4179 -0.5867
 9685TIP3    H229020   3.553   3.440   5.712 -0.0660 -0.1702 -0.8038
 9686TIP3   OH229021   6.390   5.322   4.226 -0.2094  0.2360  0.2186
 9686TIP3    H129022   6.356   5.350   4.141  0.1962 -0.1643 -0.0777
 9686TIP3    H229023   6.313   5.314   4.281 -0.5621 -0.3235 -0.3483
 9687TIP3   OH229024   5.351   4.212   2.007 -0.1389 -0.6404  0.0247
 9687TIP3    H129025   5.440   4.178   2.009  0.1281 -0.1283 -1.7067
 9687TIP3    H229026   5.361   4.307   1.996 -0.9057 -0.4133  1.0562
 9688TIP3   OH229027   4.702   5.486   5.325  0.5161 -0.1770  0.1525
 9688TIP3    H129028   4.656   5.471   5.243 -1.4092 -0.9444  1.2986
 9688TIP3    H229029   4.780   5.431   5.319  0.8088  0.3616 -1.4325
 9689TIP3   OH229030   4.537   0.396   1.375  0.3092 -0.5233 -0.1660
 9689TIP3    H129031   4.456   0.431   1.338 -0.4149  0.4719  2.1650
 9689TIP3    H229032   4.586   0.473   1.404  0.5044 -1.2282  1.4995
 9690TIP3   OH229033   0.417   4.310   1.094 -0.2901 -0.2154  0.1741
 9690TIP3    H129034   0.469   4.254   1.152  1.0830 -0.9886 -1.6683
 9690TIP3    H229035   0.333   4.265   1.086  0.0118 -0.8379  0.4458
 9691TIP3   OH229036   2.921   6.654   1.871 -0.2007  0.1770 -0.2406
 9691TIP3    H129037   2.868   6.600   1.812 -0.6357  0.3663 -0.0277
 9691TIP3    H229038   2.963   6.718   1.815  1.4860 -1.2591 -0.7203
 9692TIP3   OH229039   0.937   1.438   1.441  0.4228  0.1621  0.0154
 9692TIP3    H129040   0.989   1.376   1.389  0.0978  0.7269 -1.0025
 9692TIP3    H229041   0.854   1.445   1.394  1.0875  2.7300 -0.9575
 9693TIP3   OH229042   2.314   1.559   2.179 -0.4475 -0.2672  0.0664
 9693TIP3    H129043   2.359   1.593   2.256 -0.3092 -1.4008  0.5066
 9693TIP3    H229044   2.222   1.556   2.204 -0.4707 -0.1487 -0.0025
 9694TIP3   OH229045   2.977   3.874   5.230  0.0608  0.2777 -0.0802
 9694TIP3    H129046   2.930   3.955   5.207  0.1199  0.3830  0.1744
 9694TIP3    H229047   2.974   3.870   5.325 -2.6753 -1.6158 -0.1136
 9695TIP3   OH229048   5.533   1.072   4.134 -0.1959  0.2152 -0.5120
 9695TIP3    H129049   5.585   1.148   4.108 -0.4350  0.2161 -0.9956
 9695TIP3    H229050   5.497   1.096   4.219 -0.1706  0.5958 -0.6063
 9696TIP3   OH229051   6.829   3.291   4.778 -0.2675 -0.0068 -0.3092
 9696TIP3    H129052   6.763   3.264   4.715  0.4125  0.3954 -1.2138
 9696TIP3    H229053   6.802   3.379   4.805 -0.2830  0.0242 -0.4267
 9697TIP3   OH229054   7.060   1.070   0.315 -0.7912 -0.1274  0.1141
 9697TIP3    H129055   7.069   1.112   0.401  1.1925 -0.3486  0.0758
 9697TIP3    H229056   7.029   1.139   0.257  3.1461  1.6882 -0.1285
 9698TIP3   OH229057   0.779   4.538   3.337  0.1817 -0.3469 -0.1753
 9698TIP3    H129058   0.804   4.623   3.374  0.2253 -0.2391 -0.4539
 9698TIP3    H229059   0.860   4.488   3.336  0.4850  0.1475 -1.4703
 9699TIP3   OH229060   2.237   1.520   1.265 -0.0176 -0.3811  0.2239
 9699TIP3    H129061   2.216   1.436   1.226  1.5053 -0.3805 -0.6762
 9699TIP3    H229062   2.332   1.517   1.277  0.4586  2.0961 -2.0556
 9700TIP3   OH229063   1.098   5.680   1.202  0.0460 -0.2897  0.0562
 9700TIP3    H129064   1.040   5.730   1.144 -0.7991  0.0111  1.1305
 9700TIP3    H229065   1.153   5.629   1.142 -0.4008  0.4456 -1.0190
 9701TIP3   OH229066   6.543   2.352   0.934  0.2162 -0.1783 -0.1917
 9701TIP3    H129067   6.467   2.405   0.911  0.4470 -0.0785 -0.7456
 9701TIP3    H229068   6.543   2.281   0.869  0.2595 -0.5073  0.1655
 9702TIP3   OH229069   2.080   5.459   2.485 -0.3659 -0.2452  0.8768
 9702TIP3    H129070   2.103   5.417   2.568  0.4616 -0.6633  0.4449
 9702TIP3    H229071   2.157   5.512   2.464  0.3668 -1.8559 -0.7181
 9703TIP3   OH229072   2.862   1.094   5.647  0.1221 -0.2879 -0.3366
 9703TIP3    H129073   2.786   1.039   5.663  0.9349 -1.0001  1.3291
 9703TIP3    H229074   2.834   1.182   5.672 -0.4637 -0.3409 -0.7752
 9704TIP3   OH229075   3.433   5.581   3.314  0.1179  0.1235 -0.1762
 9704TIP3    H129076   3.398   5.668   3.336 -1.2369 -0.2902 -0.5509
 9704TIP3    H229077   3.397   5.563   3.227  0.3109 -0.8481 -0.0638
 9705TIP3   OH229078   5.223   1.839   1.600 -0.0876  0.1898  0.0556
 9705TIP3    H129079   5.171   1.812   1.524  2.4105 -0.7329 -1.4497
 9705TIP3    H229080   5.253   1.757   1.639 -0.8209  0.6750  1.7204
 9706TIP3   OH229081   3.895   3.123   0.503 -0.2202  0.0731  0.4342
 9706TIP3    H129082   3.835   3.166   0.563  1.0180 -0.6858  2.2996
 9706TIP3    H229083   3.875   3.030   0.510 -1.0518  0.0406 -1.5255
 9707TIP3   OH229084   2.587   5.940   0.489  0.0956 -0.4731 -0.4161
 9707TIP3    H129085   2.581   5.910   0.579 -0.8407  2.4112  0.6141
 9707TIP3    H229086   2.648   5.880   0.446  1.2357 -1.4200  2.3572
 9708TIP3   OH229087   6.879   0.173   1.231 -0.1627  0.6098  0.3649
 9708TIP3    H129088   6.784   0.178   1.220 -0.2366 -0.2611  0.5215
 9708TIP3    H229089   6.915   0.197   1.145 -0.5642 -0.3940 -0.0934
 9709TIP3   OH229090   4.437   0.508   2.798  0.3573  0.3849 -0.0192
 9709TIP3    H129091   4.390   0.590   2.780 -0.2577 -0.1731 -1.0527
 9709TIP3    H229092   4.528   0.535   2.809 -0.0566  1.4012  1.3100
 9710TIP3   OH229093   5.982   5.195   4.533 -0.0992 -0.2134 -0.3789
 9710TIP3    H129094   6.013   5.280   4.504 -1.6265 -0.1071 -1.8679
 9710TIP3    H229095   5.953   5.151   4.453 -0.8185 -1.5070  0.5412
 9711TIP3   OH229096   3.215   4.454   5.564 -0.0605 -0.0675 -0.5911
 9711TIP3    H129097   3.269   4.390   5.610 -0.6349 -0.2514 -0.1578
 9711TIP3    H229098   3.244   4.539   5.596 -0.7926 -0.2144  0.5062
 9712TIP3   OH229099   1.876   6.074   4.759  0.4699  0.3372 -0.7446
 9712TIP3    H129100   1.959   6.100   4.800  0.6986 -2.6009  0.8699
 9712TIP3    H229101   1.847   5.998   4.809 -0.9956 -1.4030 -3.9311
 9713TIP3   OH229102   0.615   5.486   0.199  0.4904  0.1080 -0.3444
 9713TIP3    H129103   0.677   5.546   0.241  1.4295 -1.1793  0.2042
 9713TIP3    H229104   0.533   5.535   0.196  1.3811  1.6668 -0.5843
 9714TIP3   OH229105   0.487   1.368   2.421  0.6264  0.3358  0.3590
 9714TIP3    H129106   0.443   1.344   2.502  1.5866  2.3184  1.5379
 9714TIP3    H229107   0.419   1.413   2.370 -0.0474 -1.1349 -0.1211
 9715TIP3   OH229108   2.234   4.639   1.106 -0.1269 -0.6947 -0.1510
 9715TIP3    H129109   2.213   4.729   1.081  1.4419 -0.6228 -1.3995
 9715TIP3    H229110   2.277   4.647   1.192  0.8369 -0.1298 -0.6731
 9716TIP3   OH229111   3.377   1.537   1.085 -0.1436  0.2485  0.5321
 9716TIP3    H129112   3.393   1.615   1.032 -0.2721  0.8287  1.3274
 9716TIP3    H229113   3.340   1.571   1.167 -0.2795 -0.6535  0.8547
 9717TIP3   OH229114   3.491   0.234   5.233 -0.1070  0.1337  0.4354
 9717TIP3    H129115   3.416   0.178   5.211  0.6171  0.1971 -2.6205
 9717TIP3    H229116   3.566   0.175   5.231  0.5553  0.9318 -1.9994
 9718TIP3   OH229117   0.466   3.581   4.240  0.3430  0.0959 -0.5360
 9718TIP3    H129118   0.491   3.613   4.154 -0.7287  0.9937 -0.5329
 9718TIP3    H229119   0.399   3.515   4.223 -0.4634  0.8626 -0.3635
 9719TIP3   OH229120   6.040   5.920   0.240  0.6763  0.6389  0.3106
 9719TIP3    H129121   6.000   5.833   0.246 -1.1328  1.4310  0.3727
 9719TIP3    H229122   6.098   5.925   0.316 -0.4118  0.0649  1.2065
 9720TIP3   OH229123   6.451   1.958   0.823  0.5195  0.2055  0.2581
 9720TIP3    H129124   6.402   1.883   0.788 -0.1274  0.8006 -0.1203
 9720TIP3    H229125   6.535   1.920   0.850 -0.3718 -0.9860  1.5523
 9721TIP3   OH229126   5.277   1.611   1.265  0.0672 -0.2287  0.0657
 9721TIP3    H129127   5.269   1.684   1.327  1.0348  0.3425 -0.4630
 9721TIP3    H229128   5.372   1.602   1.251 -0.0482 -1.4638 -0.0265
 9722TIP3   OH229129   0.852   2.589   3.376 -0.0547  0.2299  0.3778
 9722TIP3    H129130   0.937   2.627   3.396 -0.0633 -0.1294  1.1196
 9722TIP3    H229131   0.854   2.502   3.416 -0.7020  0.1489  0.2521
 9723TIP3   OH229132   3.536   1.856   4.872 -0.7117 -0.0674 -0.4268
 9723TIP3    H129133   3.565   1.933   4.921 -0.2016 -1.3525  1.3917
 9723TIP3    H229134   3.613   1.826   4.824 -1.5090  1.9331 -3.2448
 9724TIP3   OH229135   5.427   5.417   5.747 -0.5286  0.4191 -0.6114
 9724TIP3    H129136   5.449   5.376   5.831  0.4447 -1.5667 -1.7570
 9724TIP3    H229137   5.333   5.434   5.753 -1.2190 -2.8580 -0.3104
 9725TIP3   OH229138   1.979   1.096   4.201 -0.9342 -0.1097 -0.0348
 9725TIP3    H129139   1.971   1.191   4.198 -0.4035 -0.0763 -0.8378
 9725TIP3    H229140   2.064   1.080   4.241 -0.0627 -0.1771 -1.8265
 9726TIP3   OH229141   4.182   2.853   4.674 -0.2238 -0.5986 -0.1211
 9726TIP3    H129142   4.129   2.828   4.750 -2.5589  2.6348 -0.4806
 9726TIP3    H229143   4.222   2.936   4.700 -0.2177  0.0345 -2.0672
 9727TIP3   OH229144   3.811   3.632   3.324 -0.6347  0.1092  0.9139
 9727TIP3    H129145   3.840   3.723   3.332  0.9550 -0.3735  0.9920
 9727TIP3    H229146   3.723   3.632   3.359  0.2328  1.1710  3.3089
 9728TIP3   OH229147   2.769   3.719   0.526  0.4245 -0.0102  0.0592
 9728TIP3    H129148   2.745   3.665   0.451  1.4279 -0.9820  0.4184
 9728TIP3    H229149   2.865   3.723   0.523  0.4106  0.9854  0.5712
 9729TIP3   OH229150   7.008   3.361   3.223 -0.0657  0.0571  0.1993
 9729TIP3    H129151   6.914   3.374   3.208 -0.4867 -1.6976  1.0898
 9729TIP3    H229152   7.014   3.275   3.264  2.0645 -0.4890 -1.1139
 9730TIP3   OH229153   2.997   0.723   3.776  0.1135  0.5026  0.2708
 9730TIP3    H129154   3.077   0.674   3.795  0.0028 -0.5919 -1.7532
 9730TIP3    H229155   2.955   0.736   3.861  1.0126 -1.4184  1.0666
 9731TIP3   OH229156   2.026   5.140   0.226  0.1894  0.1013 -0.5343
 9731TIP3    H129157   2.090   5.111   0.161  0.3550  0.9375 -0.7436
 9731TIP3    H229158   1.946   5.155   0.176 -0.0734 -0.5819 -0.3292
 9732TIP3   OH229159   2.487   6.031   4.399 -0.9305  0.0091  0.2526
 9732TIP3    H129160   2.498   6.122   4.426  2.0668 -0.5704  1.3621
 9732TIP3    H229161   2.519   6.028   4.309 -3.5643  0.4679 -0.7814
 9733TIP3   OH229162   3.115   6.475   3.536  0.4137  0.4144  0.4630
 9733TIP3    H129163   3.048   6.537   3.506 -0.5212 -0.5978  0.3875
 9733TIP3    H229164   3.065   6.400   3.569  1.5125 -0.6010 -0.0921
 9734TIP3   OH229165   6.612   3.706   3.571 -0.2100  0.0635  0.3744
 9734TIP3    H129166   6.562   3.787   3.576  0.7142  0.7676 -1.1716
 9734TIP3    H229167   6.608   3.681   3.479  0.3530 -1.1364  0.6466
 9735TIP3   OH229168   1.239   5.866   1.851  0.5038  0.3585  0.2466
 9735TIP3    H129169   1.268   5.839   1.938  0.1614 -0.0530  0.2364
 9735TIP3    H229170   1.183   5.794   1.821  1.8432 -0.2254 -0.9495
 9736TIP3   OH229171   1.560   0.177   2.908  0.3924  0.7274 -0.1334
 9736TIP3    H129172   1.511   0.148   2.985 -1.0160  1.0521 -0.8668
 9736TIP3    H229173   1.602   0.258   2.936 -0.2702  0.9491  0.2552
 9737TIP3   OH229174   5.804   6.098   0.295 -0.3007  0.0596  0.4007
 9737TIP3    H129175   5.823   6.192   0.303  0.4713 -0.2135  2.2052
 9737TIP3    H229176   5.873   6.066   0.236 -0.3125  0.5431  0.1117
 9738TIP3   OH229177   0.052   3.734   0.595  0.0128  0.5032 -0.0315
 9738TIP3    H129178   0.030   3.821   0.562  0.1634 -0.1975 -2.1549
 9738TIP3    H229179   0.128   3.747   0.651 -0.7152  1.8688  0.6786
 9739TIP3   OH229180   2.800   0.892   3.426  0.0257  0.0876 -0.0539
 9739TIP3    H129181   2.852   0.923   3.351 -0.6678  0.3600 -0.4249
 9739TIP3    H229182   2.713   0.929   3.412 -1.2169 -2.8764 -1.1534
 9740TIP3   OH229183   3.630   3.464   2.307 -0.3266  0.1155  0.5502
 9740TIP3    H129184   3.707   3.461   2.363  1.6914 -1.6307 -2.0791
 9740TIP3    H229185   3.634   3.550   2.264  0.7579 -0.3261 -0.2759
 9741TIP3   OH229186   2.604   5.198   4.138  0.2331  0.3713  0.9319
 9741TIP3    H129187   2.654   5.276   4.158  1.4928 -0.6513  1.8816
 9741TIP3    H229188   2.521   5.210   4.184  0.2807  1.2673  0.8057
 9742TIP3   OH229189   0.409   3.424   2.401 -0.0300 -0.4957 -0.2914
 9742TIP3    H129190   0.423   3.433   2.495  0.6640  0.4161 -0.4655
 9742TIP3    H229191   0.392   3.513   2.370  2.7415 -0.2489 -1.4588
 9743TIP3   OH229192   6.782   2.904   5.325 -0.1067  0.0592 -0.3492
 9743TIP3    H129193   6.801   2.924   5.233  0.8509  0.3530 -0.1022
 9743TIP3    H229194   6.744   2.816   5.323  3.4982 -1.6801 -0.7206
 9744TIP3   OH229195   1.963   4.319   5.264 -0.3123  0.1442 -0.5584
 9744TIP3    H129196   2.001   4.252   5.208  0.4933  0.4575 -0.4077
 9744TIP3    H229197   1.950   4.275   5.348  0.6750  0.2927 -0.3138
 9745TIP3   OH229198   7.139   0.583   5.594  0.0082 -0.0115  0.2494
 9745TIP3    H129199   7.083   0.585   5.516  0.4946 -0.4587 -0.1139
 9745TIP3    H229200   7.077   0.578   5.667 -0.4510  0.3783 -0.1035
 9746TIP3   OH229201   2.233   0.696   0.318  0.3030  0.2620  0.1176
 9746TIP3    H129202   2.316   0.730   0.286  1.7331 -1.3401  1.8777
 9746TIP3    H229203   2.209   0.627   0.257  2.0152 -1.4781  1.3176
 9747TIP3   OH229204   4.643   0.000   3.933 -0.2271  0.0189  0.5857
 9747TIP3    H129205   4.588  -0.005   3.855 -0.5347 -1.2386  0.8682
 9747TIP3    H229206   4.629   0.089   3.966  0.8542  1.0281 -1.4454
 9748TIP3   OH229207   5.205   0.229   5.033  0.1454  0.3495  0.7555
 9748TIP3    H129208   5.148   0.254   4.960  1.3057  0.4166 -0.1508
 9748TIP3    H229209   5.163   0.152   5.071 -0.6240  0.4847  0.1968
 9749TIP3   OH229210   6.351   6.631   0.985  0.7193 -0.4711  0.3463
 9749TIP3    H129211   6.258   6.654   0.981  0.9429  0.3974  0.0698
 9749TIP3    H229212   6.362   6.591   1.072 -0.0716 -1.3456  0.0635
   7.20613   6.79402   5.88377   0.00000   0.00000  -2.40205   0.00000  -2.40205  -3.39700
