Title t= 346.00000 step= 173000
44434
    1GLY      N    1   5.144   3.286   4.935
    1GLY    HT1    2   5.226   3.308   4.996
    1GLY    HT2    3   5.145   3.353   4.856
    1GLY    HT3    4   5.151   3.190   4.896
    1GLY     CA    5   5.007   3.290   5.008
    1GLY    HA1    6   4.974   3.392   5.021
    1GLY    HA2    7   5.025   3.234   5.099
    1GLY      C    8   4.909   3.217   4.927
    1GLY      O    9   4.935   3.184   4.813
    2PRO      N   10   4.792   3.193   4.985
    2PRO     CD   11   4.770   3.215   5.129
    2PRO    HD1   12   4.742   3.322   5.135
    2PRO    HD2   13   4.850   3.184   5.200
    2PRO     CA   14   4.671   3.136   4.924
    2PRO     HA   15   4.706   3.035   4.907
    2PRO     CB   16   4.564   3.136   5.037
    2PRO    HB1   17   4.517   3.035   5.039
    2PRO    HB2   18   4.501   3.227   5.032
    2PRO     CG   19   4.645   3.127   5.168
    2PRO    HG1   20   4.596   3.174   5.256
    2PRO    HG2   21   4.680   3.025   5.197
    2PRO      C   22   4.625   3.197   4.794
    2PRO      O   23   4.587   3.315   4.797
    3GLY      N   24   4.596   3.113   4.693
    3GLY     HN   25   4.622   3.017   4.691
    3GLY     CA   26   4.531   3.161   4.570
    3GLY    HA1   27   4.456   3.237   4.585
    3GLY    HA2   28   4.488   3.067   4.538
    3GLY      C   29   4.628   3.205   4.473
    3GLY      O   30   4.745   3.233   4.493
    4ASP      N   31   4.571   3.222   4.352
    4ASP     HN   32   4.481   3.185   4.330
    4ASP     CA   33   4.624   3.289   4.234
    4ASP     HA   34   4.712   3.231   4.212
    4ASP     CB   35   4.516   3.286   4.119
    4ASP    HB1   36   4.534   3.344   4.026
    4ASP    HB2   37   4.419   3.318   4.162
    4ASP     CG   38   4.517   3.138   4.074
    4ASP    OD1   39   4.595   3.049   4.111
    4ASP    OD2   40   4.431   3.114   3.987
    4ASP      C   41   4.658   3.434   4.261
    4ASP      O   42   4.608   3.491   4.353
    5PRO      N   43   4.752   3.498   4.194
    5PRO     CD   44   4.838   3.431   4.095
    5PRO    HD1   45   4.773   3.425   4.005
    5PRO    HD2   46   4.894   3.338   4.120
    5PRO     CA   47   4.764   3.643   4.192
    5PRO     HA   48   4.794   3.672   4.292
    5PRO     CB   49   4.868   3.672   4.072
    5PRO    HB1   50   4.938   3.757   4.083
    5PRO    HB2   51   4.812   3.686   3.977
    5PRO     CG   52   4.940   3.538   4.050
    5PRO    HG1   53   4.985   3.500   3.956
    5PRO    HG2   54   5.030   3.547   4.113
    5PRO      C   55   4.638   3.720   4.159
    5PRO      O   56   4.545   3.658   4.107
    6GLY      N   57   4.628   3.851   4.205
    6GLY     HN   58   4.698   3.889   4.264
    6GLY     CA   59   4.517   3.931   4.179
    6GLY    HA1   60   4.486   3.968   4.276
    6GLY    HA2   61   4.437   3.881   4.126
    6GLY      C   62   4.550   4.054   4.096
    6GLY      O   63   4.664   4.079   4.069
    7SER      N   64   4.444   4.124   4.046
    7SER     HN   65   4.354   4.084   4.058
    7SER     CA   66   4.460   4.244   3.974
    7SER     HA   67   4.544   4.237   3.907
    7SER     CB   68   4.332   4.293   3.900
    7SER    HB1   69   4.339   4.391   3.849
    7SER    HB2   70   4.241   4.300   3.964
    7SER     OG   71   4.285   4.205   3.795
    7SER    HG1   72   4.233   4.133   3.832
    7SER      C   73   4.490   4.356   4.074
    7SER      O   74   4.408   4.404   4.151
    8GLY      N   75   4.612   4.398   4.075
    8GLY     HN   76   4.680   4.356   4.016
    8GLY     CA   77   4.665   4.514   4.132
    8GLY    HA1   78   4.772   4.503   4.128
    8GLY    HA2   79   4.619   4.530   4.228
    8GLY      C   80   4.634   4.640   4.057
    8GLY      O   81   4.527   4.655   4.000
    9ASN      N   82   4.730   4.732   4.061
    9ASN     HN   83   4.810   4.717   4.119
    9ASN     CA   84   4.724   4.848   3.981
    9ASN     HA   85   4.630   4.869   3.932
    9ASN     CB   86   4.739   4.974   4.064
    9ASN    HB1   87   4.839   4.978   4.113
    9ASN    HB2   88   4.661   4.968   4.142
    9ASN     CG   89   4.715   5.108   3.981
    9ASN    OD1   90   4.655   5.105   3.876
    9ASN    ND2   91   4.755   5.223   4.038
    9ASN   HD21   92   4.723   5.314   4.010
    9ASN   HD22   93   4.804   5.227   4.126
    9ASN      C   94   4.826   4.843   3.872
    9ASN      O   95   4.940   4.802   3.913
   10PRO      N   96   4.806   4.865   3.742
   10PRO     CD   97   4.686   4.859   3.667
   10PRO    HD1   98   4.643   4.961   3.664
   10PRO    HD2   99   4.606   4.792   3.707
   10PRO     CA  100   4.922   4.856   3.651
   10PRO     HA  101   4.961   4.756   3.666
   10PRO     CB  102   4.868   4.875   3.511
   10PRO    HB1  103   4.940   4.843   3.433
   10PRO    HB2  104   4.860   4.983   3.490
   10PRO     CG  105   4.727   4.814   3.523
   10PRO    HG1  106   4.661   4.862   3.449
   10PRO    HG2  107   4.720   4.703   3.523
   10PRO      C  108   5.042   4.946   3.673
   10PRO      O  109   5.035   5.037   3.752
   11GLY      N  110   5.157   4.910   3.613
   11GLY     HN  111   5.162   4.829   3.555
   11GLY     CA  112   5.274   4.992   3.624
   11GLY    HA1  113   5.362   4.929   3.624
   11GLY    HA2  114   5.271   5.048   3.715
   11GLY      C  115   5.269   5.099   3.516
   11GLY      O  116   5.174   5.103   3.433
   12SER      N  117   5.375   5.180   3.507
   12SER     HN  118   5.448   5.187   3.575
   12SER     CA  119   5.379   5.288   3.405
   12SER     HA  120   5.280   5.321   3.379
   12SER     CB  121   5.455   5.414   3.436
   12SER    HB1  122   5.464   5.465   3.338
   12SER    HB2  123   5.562   5.394   3.457
   12SER     OG  124   5.401   5.503   3.535
   12SER    HG1  125   5.373   5.449   3.609
   12SER      C  126   5.442   5.233   3.274
   12SER      O  127   5.531   5.151   3.280
   13GLY      N  128   5.389   5.273   3.152
   13GLY     HN  129   5.309   5.331   3.159
   13GLY     CA  130   5.430   5.233   3.019
   13GLY    HA1  131   5.379   5.289   2.942
   13GLY    HA2  132   5.405   5.128   3.009
   13GLY      C  133   5.577   5.241   2.999
   13GLY      O  134   5.647   5.314   3.065
   14ASP      N  135   5.622   5.167   2.904
   14ASP     HN  136   5.556   5.114   2.852
   14ASP     CA  137   5.762   5.173   2.868
   14ASP     HA  138   5.823   5.141   2.951
   14ASP     CB  139   5.790   5.070   2.755
   14ASP    HB1  140   5.897   5.058   2.728
   14ASP    HB2  141   5.742   5.097   2.659
   14ASP     CG  142   5.727   4.937   2.793
   14ASP    OD1  143   5.630   4.888   2.729
   14ASP    OD2  144   5.768   4.871   2.894
   14ASP      C  145   5.832   5.306   2.822
   14ASP      O  146   5.778   5.378   2.736
   15PRO      N  147   5.950   5.340   2.878
   15PRO     CD  148   6.028   5.269   2.982
   15PRO    HD1  149   6.053   5.168   2.944
   15PRO    HD2  150   5.967   5.265   3.074
   15PRO     CA  151   6.018   5.456   2.834
   15PRO     HA  152   5.948   5.538   2.830
   15PRO     CB  153   6.126   5.486   2.937
   15PRO    HB1  154   6.086   5.570   2.997
   15PRO    HB2  155   6.220   5.525   2.892
   15PRO     CG  156   6.155   5.348   3.004
   15PRO    HG1  157   6.241   5.303   2.951
   15PRO    HG2  158   6.163   5.357   3.115
   15PRO      C  159   6.083   5.447   2.701
   15PRO    OT1  160   6.133   5.339   2.655
   15PRO    OT2  161   6.093   5.550   2.623
   16LIT    LIT  162   4.492   2.927   3.994
   17LIT    LIT  163   5.407   3.803   3.067
   18LIT    LIT  164   5.998   1.034   1.305
   19LIT    LIT  165   2.813   5.140   4.450
   20LIT    LIT  166   6.116   3.723   4.843
   21LIT    LIT  167   0.289   3.165   6.181
   22LIT    LIT  168   0.902   2.075   6.218
   23LIT    LIT  169   5.292   1.154   1.491
   24LIT    LIT  170   6.310   6.864   4.065
   25LIT    LIT  171   7.941   0.524   4.587
   26LIT    LIT  172   2.282   3.765   3.839
   27LIT    LIT  173   7.476   7.626   4.475
   28LIT    LIT  174   6.670   3.321   3.028
   29LIT    LIT  175   0.098   2.010   3.055
   30LIT    LIT  176   8.034   0.405   5.835
   31LIT    LIT  177   7.429   7.541   0.838
   32LIT    LIT  178   0.566   2.509   5.423
   33LIT    LIT  179   2.123   7.602   1.499
   34LIT    LIT  180   7.639   6.984   0.728
   35LIT    LIT  181   6.787   7.652   6.550
   36LIT    LIT  182   3.802   6.446   2.034
   37LIT    LIT  183   1.385   5.386   3.070
   38LIT    LIT  184   5.729   5.047   5.825
   39LIT    LIT  185   2.243   0.415   5.438
   40LIT    LIT  186   6.155   5.010   3.331
   41LIT    LIT  187   6.213   5.491   2.503
   42LIT    LIT  188   3.607   2.045   6.306
   43LIT    LIT  189   0.387   0.564   1.889
   44LIT    LIT  190   6.170   6.071   3.022
   45LIT    LIT  191   0.515   2.069   1.573
   46LIT    LIT  192   3.990   3.557   0.594
   47LIT    LIT  193   3.577   0.935   0.474
   48LIT    LIT  194   7.265   5.767   4.681
   49LIT    LIT  195   5.634   4.744   2.879
   50LIT    LIT  196   5.760   1.720   1.798
   51LIT    LIT  197   0.359   7.759   0.671
   52LIT    LIT  198   7.397   2.656   5.464
   53LIT    LIT  199   3.192   4.925   3.445
   54LIT    LIT  200   8.045   6.388   3.540
   55LIT    LIT  201   1.571   0.987   4.564
   56LIT    LIT  202   0.802   7.382   1.500
   57LIT    LIT  203   6.138   0.281   2.905
   58LIT    LIT  204   7.528   5.531   0.843
   59LIT    LIT  205   3.539   4.951   1.337
   60CLA    CLA  206   2.134   0.515   4.976
   61CLA    CLA  207   5.870   4.790   5.494
   62CLA    CLA  208   6.276   4.687   1.307
   63CLA    CLA  209   0.409   3.916   1.999
   64CLA    CLA  210   7.036   6.350   5.002
   65CLA    CLA  211   4.208   0.693   2.358
   66CLA    CLA  212   2.905   1.847   4.691
   67CLA    CLA  213   2.442   6.539   1.600
   68CLA    CLA  214   7.336   1.864   4.408
   69CLA    CLA  215   0.209   2.545   4.596
   70CLA    CLA  216   2.446   2.084   6.764
   71CLA    CLA  217   2.168   1.463   6.269
   72CLA    CLA  218   6.592   2.737   2.888
   73CLA    CLA  219   3.371   3.917   4.254
   74CLA    CLA  220   4.248   5.387   1.259
   75CLA    CLA  221   5.312   0.728   4.856
   76CLA    CLA  222   2.572   4.471   5.042
   77CLA    CLA  223   1.826   2.825   4.994
   78CLA    CLA  224   4.225   6.449   6.000
   79CLA    CLA  225   1.799   0.521   1.080
   80CLA    CLA  226   4.325   0.984   0.386
   81CLA    CLA  227   6.068   0.470   2.784
   82CLA    CLA  228   7.795   0.010   5.230
   83CLA    CLA  229   0.136   3.600   4.786
   84CLA    CLA  230   5.139   2.059   6.609
   85CLA    CLA  231   3.263   7.680   0.868
   86CLA    CLA  232   5.971   3.964   2.157
   87CLA    CLA  233   7.865   6.489   1.538
   88CLA    CLA  234   0.527   5.486   3.831
   89CLA    CLA  235   3.943   0.334   0.774
   90CLA    CLA  236   2.002   0.028   1.509
   91CLA    CLA  237   4.133   7.655   0.319
   92CLA    CLA  238   1.503   1.931   0.449
   93CLA    CLA  239   3.975   1.001   3.575
   94CLA    CLA  240   5.343   5.842   5.924
   95CLA    CLA  241   7.328   5.568   0.723
   96CLA    CLA  242   8.119   0.401   4.642
   97CLA    CLA  243   5.571   5.113   3.740
   98CLA    CLA  244   2.181   3.228   6.458
   99CLA    CLA  245   4.929   3.550   0.093
  100CLA    CLA  246   2.302   4.407   2.408
  101CLA    CLA  247   7.834   1.268   0.640
  102TIP3   OH2  248   2.417   1.257   3.516
  102TIP3    H1  249   2.490   1.271   3.457
  102TIP3    H2  250   2.442   1.303   3.597
  103TIP3   OH2  251   4.942   6.493   5.832
  103TIP3    H1  252   4.980   6.491   5.920
  103TIP3    H2  253   4.991   6.427   5.783
  104TIP3   OH2  254   1.690  -0.038   5.113
  104TIP3    H1  255   1.674   0.053   5.088
  104TIP3    H2  256   1.728  -0.078   5.035
  105TIP3   OH2  257   4.702   6.833   1.334
  105TIP3    H1  258   4.693   6.917   1.380
  105TIP3    H2  259   4.614   6.796   1.335
  106TIP3   OH2  260   4.909   2.127   0.378
  106TIP3    H1  261   4.833   2.076   0.350
  106TIP3    H2  262   4.901   2.130   0.474
  107TIP3   OH2  263   1.388  -0.039   6.601
  107TIP3    H1  264   1.427   0.046   6.581
  107TIP3    H2  265   1.461  -0.093   6.632
  108TIP3   OH2  266   4.043   6.627   6.432
  108TIP3    H1  267   4.065   6.534   6.444
  108TIP3    H2  268   3.986   6.628   6.355
  109TIP3   OH2  269   4.865   1.315   1.353
  109TIP3    H1  270   4.846   1.295   1.261
  109TIP3    H2  271   4.784   1.293   1.399
  110TIP3   OH2  272   6.845   3.390   0.353
  110TIP3    H1  273   6.869   3.408   0.262
  110TIP3    H2  274   6.927   3.365   0.395
  111TIP3   OH2  275   1.301   7.458   0.467
  111TIP3    H1  276   1.253   7.380   0.440
  111TIP3    H2  277   1.391   7.442   0.440
  112TIP3   OH2  278   3.244   3.627   5.195
  112TIP3    H1  279   3.324   3.597   5.152
  112TIP3    H2  280   3.176   3.569   5.161
  113TIP3   OH2  281   2.431   0.737   6.122
  113TIP3    H1  282   2.347   0.695   6.104
  113TIP3    H2  283   2.497   0.672   6.098
  114TIP3   OH2  284   5.174   6.515   1.330
  114TIP3    H1  285   5.159   6.435   1.380
  114TIP3    H2  286   5.196   6.581   1.397
  115TIP3   OH2  287   6.831   1.623   1.968
  115TIP3    H1  288   6.890   1.654   1.900
  115TIP3    H2  289   6.878   1.636   2.050
  116TIP3   OH2  290   2.308   2.031   3.866
  116TIP3    H1  291   2.306   2.047   3.961
  116TIP3    H2  292   2.312   1.936   3.858
  117TIP3   OH2  293   1.592   5.266   4.568
  117TIP3    H1  294   1.565   5.207   4.498
  117TIP3    H2  295   1.648   5.331   4.526
  118TIP3   OH2  296   2.451   0.977   5.143
  118TIP3    H1  297   2.389   1.048   5.159
  118TIP3    H2  298   2.527   0.999   5.196
  119TIP3   OH2  299   1.932   4.185   1.869
  119TIP3    H1  300   1.849   4.228   1.891
  119TIP3    H2  301   1.906   4.113   1.812
  120TIP3   OH2  302  -0.005   5.420   3.255
  120TIP3    H1  303   0.052   5.405   3.331
  120TIP3    H2  304   0.029   5.362   3.187
  121TIP3   OH2  305   0.636   2.914   1.637
  121TIP3    H1  306   0.663   2.955   1.719
  121TIP3    H2  307   0.685   2.960   1.570
  122TIP3   OH2  308   7.721   4.715   0.574
  122TIP3    H1  309   7.678   4.724   0.659
  122TIP3    H2  310   7.812   4.691   0.596
  123TIP3   OH2  311   5.115   5.093   1.958
  123TIP3    H1  312   5.199   5.063   1.925
  123TIP3    H2  313   5.053   5.024   1.933
  124TIP3   OH2  314   4.839   5.730   0.982
  124TIP3    H1  315   4.850   5.821   1.010
  124TIP3    H2  316   4.877   5.727   0.894
  125TIP3   OH2  317   7.829   1.692   2.844
  125TIP3    H1  318   7.885   1.770   2.850
  125TIP3    H2  319   7.754   1.713   2.899
  126TIP3   OH2  320   2.006   5.062   5.271
  126TIP3    H1  321   1.977   5.145   5.234
  126TIP3    H2  322   2.092   5.047   5.232
  127TIP3   OH2  323   7.220   0.799   4.599
  127TIP3    H1  324   7.202   0.750   4.679
  127TIP3    H2  325   7.290   0.750   4.557
  128TIP3   OH2  326   2.190   2.388   5.755
  128TIP3    H1  327   2.137   2.429   5.824
  128TIP3    H2  328   2.228   2.311   5.797
  129TIP3   OH2  329   8.109   6.057   0.083
  129TIP3    H1  330   8.192   6.022   0.049
  129TIP3    H2  331   8.042   6.007   0.037
  130TIP3   OH2  332   1.916   5.933   5.269
  130TIP3    H1  333   1.912   5.865   5.336
  130TIP3    H2  334   1.859   5.901   5.199
  131TIP3   OH2  335   5.073   0.723   5.093
  131TIP3    H1  336   5.152   0.748   5.045
  131TIP3    H2  337   5.028   0.661   5.035
  132TIP3   OH2  338   1.118   4.914   3.870
  132TIP3    H1  339   1.189   4.930   3.807
  132TIP3    H2  340   1.138   4.971   3.944
  133TIP3   OH2  341   7.158   0.598   5.537
  133TIP3    H1  342   7.071   0.584   5.499
  133TIP3    H2  343   7.141   0.635   5.624
  134TIP3   OH2  344   3.953   1.952   5.361
  134TIP3    H1  345   4.012   2.021   5.392
  134TIP3    H2  346   3.869   1.996   5.348
  135TIP3   OH2  347   0.212   1.993   6.495
  135TIP3    H1  348   0.297   1.953   6.510
  135TIP3    H2  349   0.227   2.087   6.507
  136TIP3   OH2  350   3.072   7.339   2.818
  136TIP3    H1  351   2.981   7.347   2.846
  136TIP3    H2  352   3.071   7.270   2.751
  137TIP3   OH2  353   8.229   3.826   6.150
  137TIP3    H1  354   8.277   3.900   6.186
  137TIP3    H2  355   8.297   3.770   6.110
  138TIP3   OH2  356   0.703   5.942   4.920
  138TIP3    H1  357   0.642   5.923   4.990
  138TIP3    H2  358   0.675   5.885   4.847
  139TIP3   OH2  359   5.221   3.830   5.305
  139TIP3    H1  360   5.250   3.767   5.372
  139TIP3    H2  361   5.230   3.915   5.347
  140TIP3   OH2  362   2.401   4.311   5.824
  140TIP3    H1  363   2.363   4.331   5.738
  140TIP3    H2  364   2.390   4.393   5.873
  141TIP3   OH2  365   3.696   6.143   2.871
  141TIP3    H1  366   3.610   6.113   2.899
  141TIP3    H2  367   3.757   6.101   2.931
  142TIP3   OH2  368   2.518   3.369   2.940
  142TIP3    H1  369   2.538   3.458   2.910
  142TIP3    H2  370   2.551   3.312   2.871
  143TIP3   OH2  371   2.334   7.251   1.853
  143TIP3    H1  372   2.346   7.244   1.948
  143TIP3    H2  373   2.418   7.286   1.821
  144TIP3   OH2  374   6.263   6.901   5.706
  144TIP3    H1  375   6.304   6.934   5.625
  144TIP3    H2  376   6.333   6.852   5.749
  145TIP3   OH2  377   0.013   2.544   5.547
  145TIP3    H1  378  -0.065   2.530   5.601
  145TIP3    H2  379   0.018   2.466   5.491
  146TIP3   OH2  380   4.712   2.605   1.456
  146TIP3    H1  381   4.747   2.694   1.459
  146TIP3    H2  382   4.783   2.553   1.418
  147TIP3   OH2  383   3.305   1.013   3.710
  147TIP3    H1  384   3.321   1.072   3.636
  147TIP3    H2  385   3.268   0.934   3.670
  148TIP3   OH2  386   7.822   1.237   2.976
  148TIP3    H1  387   7.752   1.282   2.928
  148TIP3    H2  388   7.857   1.303   3.035
  149TIP3   OH2  389   4.261   4.751   2.244
  149TIP3    H1  390   4.214   4.701   2.311
  149TIP3    H2  391   4.214   4.834   2.238
  150TIP3   OH2  392   7.125   3.800   4.527
  150TIP3    H1  393   7.206   3.850   4.536
  150TIP3    H2  394   7.056   3.866   4.524
  151TIP3   OH2  395   3.725   4.754   5.577
  151TIP3    H1  396   3.665   4.687   5.545
  151TIP3    H2  397   3.688   4.780   5.662
  152TIP3   OH2  398   6.594   2.506   5.934
  152TIP3    H1  399   6.688   2.489   5.944
  152TIP3    H2  400   6.578   2.584   5.987
  153TIP3   OH2  401   5.363   0.639   2.561
  153TIP3    H1  402   5.300   0.667   2.495
  153TIP3    H2  403   5.364   0.543   2.554
  154TIP3   OH2  404   7.078   5.128   0.814
  154TIP3    H1  405   7.108   5.201   0.761
  154TIP3    H2  406   6.990   5.110   0.782
  155TIP3   OH2  407   3.740   5.555   2.579
  155TIP3    H1  408   3.773   5.584   2.664
  155TIP3    H2  409   3.754   5.460   2.579
  156TIP3   OH2  410   5.850   3.473   0.721
  156TIP3    H1  411   5.777   3.487   0.782
  156TIP3    H2  412   5.924   3.452   0.778
  157TIP3   OH2  413   2.004   1.377   3.730
  157TIP3    H1  414   2.081   1.320   3.731
  157TIP3    H2  415   1.984   1.392   3.822
  158TIP3   OH2  416   3.021   6.119   4.379
  158TIP3    H1  417   2.991   6.199   4.337
  158TIP3    H2  418   3.111   6.138   4.406
  159TIP3   OH2  419   7.894   0.923   0.126
  159TIP3    H1  420   7.801   0.920   0.100
  159TIP3    H2  421   7.941   0.925   0.043
  160TIP3   OH2  422   1.419   1.606   2.329
  160TIP3    H1  423   1.394   1.634   2.240
  160TIP3    H2  424   1.364   1.530   2.346
  161TIP3   OH2  425   3.204   2.321   6.303
  161TIP3    H1  426   3.204   2.390   6.237
  161TIP3    H2  427   3.143   2.255   6.270
  162TIP3   OH2  428   6.887   7.373   3.503
  162TIP3    H1  429   6.825   7.436   3.464
  162TIP3    H2  430   6.951   7.358   3.433
  163TIP3   OH2  431   1.693   4.735   2.851
  163TIP3    H1  432   1.662   4.794   2.782
  163TIP3    H2  433   1.712   4.653   2.805
  164TIP3   OH2  434   6.766   4.155   5.927
  164TIP3    H1  435   6.716   4.075   5.918
  164TIP3    H2  436   6.736   4.211   5.856
  165TIP3   OH2  437   1.292   0.555   0.233
  165TIP3    H1  438   1.308   0.645   0.204
  165TIP3    H2  439   1.204   0.558   0.270
  166TIP3   OH2  440   3.836   0.242   1.041
  166TIP3    H1  441   3.794   0.158   1.021
  166TIP3    H2  442   3.859   0.278   0.955
  167TIP3   OH2  443   7.969   1.711   0.887
  167TIP3    H1  444   7.971   1.770   0.811
  167TIP3    H2  445   7.916   1.637   0.858
  168TIP3   OH2  446   5.911   2.491   0.708
  168TIP3    H1  447   5.902   2.448   0.794
  168TIP3    H2  448   5.884   2.581   0.723
  169TIP3   OH2  449   4.377   7.038   5.761
  169TIP3    H1  450   4.336   7.080   5.837
  169TIP3    H2  451   4.315   7.053   5.690
  170TIP3   OH2  452   4.629   0.316   0.748
  170TIP3    H1  453   4.660   0.350   0.664
  170TIP3    H2  454   4.563   0.380   0.776
  171TIP3   OH2  455   5.057   0.738   6.274
  171TIP3    H1  456   5.086   0.781   6.354
  171TIP3    H2  457   5.092   0.791   6.203
  172TIP3   OH2  458   4.267   6.895   5.015
  172TIP3    H1  459   4.231   6.920   4.930
  172TIP3    H2  460   4.343   6.951   5.026
  173TIP3   OH2  461   1.448   7.501   1.817
  173TIP3    H1  462   1.427   7.539   1.902
  173TIP3    H2  463   1.507   7.428   1.837
  174TIP3   OH2  464   3.088   6.786   5.031
  174TIP3    H1  465   3.047   6.728   5.096
  174TIP3    H2  466   3.078   6.874   5.068
  175TIP3   OH2  467   4.560   6.207   1.732
  175TIP3    H1  468   4.508   6.283   1.704
  175TIP3    H2  469   4.515   6.174   1.809
  176TIP3   OH2  470   4.179   0.337   5.063
  176TIP3    H1  471   4.191   0.412   5.122
  176TIP3    H2  472   4.203   0.370   4.977
  177TIP3   OH2  473   0.789   2.951   2.243
  177TIP3    H1  474   0.755   2.962   2.331
  177TIP3    H2  475   0.879   2.983   2.247
  178TIP3   OH2  476   7.692   5.514   6.667
  178TIP3    H1  477   7.709   5.512   6.761
  178TIP3    H2  478   7.640   5.436   6.651
  179TIP3   OH2  479   5.400   7.538   0.011
  179TIP3    H1  480   5.478   7.592  -0.003
  179TIP3    H2  481   5.367   7.568   0.096
  180TIP3   OH2  482   2.752   7.635   5.843
  180TIP3    H1  483   2.829   7.674   5.885
  180TIP3    H2  484   2.772   7.542   5.840
  181TIP3   OH2  485   4.157   0.400   4.150
  181TIP3    H1  486   4.122   0.482   4.183
  181TIP3    H2  487   4.230   0.425   4.094
  182TIP3   OH2  488   1.149   5.360   6.497
  182TIP3    H1  489   1.056   5.352   6.517
  182TIP3    H2  490   1.192   5.346   6.581
  183TIP3   OH2  491   3.807   2.313   2.212
  183TIP3    H1  492   3.726   2.349   2.176
  183TIP3    H2  493   3.835   2.378   2.277
  184TIP3   OH2  494   6.093  -0.068   3.676
  184TIP3    H1  495   6.176  -0.027   3.702
  184TIP3    H2  496   6.082  -0.042   3.584
  185TIP3   OH2  497   1.076   5.811   5.205
  185TIP3    H1  498   1.140   5.865   5.250
  185TIP3    H2  499   0.998   5.814   5.261
  186TIP3   OH2  500   4.947   2.886   2.410
  186TIP3    H1  501   4.916   2.967   2.450
  186TIP3    H2  502   5.035   2.906   2.379
  187TIP3   OH2  503   1.916   4.952   6.595
  187TIP3    H1  504   1.974   4.968   6.520
  187TIP3    H2  505   1.968   4.899   6.655
  188TIP3   OH2  506   2.589   0.129   3.437
  188TIP3    H1  507   2.554   0.098   3.520
  188TIP3    H2  508   2.644   0.204   3.461
  189TIP3   OH2  509   2.527   0.080   0.201
  189TIP3    H1  510   2.466   0.114   0.266
  189TIP3    H2  511   2.527  -0.014   0.215
  190TIP3   OH2  512   0.030   6.254   2.330
  190TIP3    H1  513  -0.064   6.238   2.333
  190TIP3    H2  514   0.065   6.209   2.407
  191TIP3   OH2  515   0.119   3.998   0.109
  191TIP3    H1  516   0.057   4.024   0.178
  191TIP3    H2  517   0.156   3.915   0.141
  192TIP3   OH2  518   3.931   0.267   6.088
  192TIP3    H1  519   3.999   0.313   6.139
  192TIP3    H2  520   3.945   0.175   6.108
  193TIP3   OH2  521   1.219   5.988   2.150
  193TIP3    H1  522   1.149   6.051   2.167
  193TIP3    H2  523   1.299   6.031   2.182
  194TIP3   OH2  524   5.166   3.741   2.732
  194TIP3    H1  525   5.229   3.670   2.744
  194TIP3    H2  526   5.217   3.821   2.746
  195TIP3   OH2  527   1.438   2.930   4.621
  195TIP3    H1  528   1.508   2.907   4.683
  195TIP3    H2  529   1.449   3.024   4.606
  196TIP3   OH2  530   7.357   3.095   6.609
  196TIP3    H1  531   7.343   3.129   6.698
  196TIP3    H2  532   7.329   3.167   6.552
  197TIP3   OH2  533   2.397   2.549   5.585
  197TIP3    H1  534   2.336   2.510   5.647
  197TIP3    H2  535   2.357   2.632   5.560
  198TIP3   OH2  536   6.021   5.904   4.803
  198TIP3    H1  537   5.998   5.997   4.811
  198TIP3    H2  538   6.021   5.888   4.709
  199TIP3   OH2  539   7.586   6.168   5.352
  199TIP3    H1  540   7.585   6.262   5.367
  199TIP3    H2  541   7.643   6.133   5.420
  200TIP3   OH2  542   3.463   2.324   5.725
  200TIP3    H1  543   3.400   2.252   5.726
  200TIP3    H2  544   3.482   2.337   5.632
  201TIP3   OH2  545   3.986   6.950   2.587
  201TIP3    H1  546   3.909   6.974   2.536
  201TIP3    H2  547   3.952   6.922   2.672
  202TIP3   OH2  548   7.065   2.615   5.057
  202TIP3    H1  549   7.128   2.569   5.112
  202TIP3    H2  550   6.980   2.595   5.095
  203TIP3   OH2  551   6.010   3.730   1.582
  203TIP3    H1  552   5.934   3.747   1.637
  203TIP3    H2  553   6.040   3.817   1.554
  204TIP3   OH2  554   5.453   0.236   4.824
  204TIP3    H1  555   5.547   0.230   4.807
  204TIP3    H2  556   5.426   0.318   4.782
  205TIP3   OH2  557   0.182   6.126   5.058
  205TIP3    H1  558   0.239   6.064   5.012
  205TIP3    H2  559   0.172   6.090   5.146
  206TIP3   OH2  560   6.289   4.343   5.251
  206TIP3    H1  561   6.263   4.363   5.341
  206TIP3    H2  562   6.336   4.260   5.257
  207TIP3   OH2  563   7.480   2.954   4.906
  207TIP3    H1  564   7.390   2.937   4.931
  207TIP3    H2  565   7.512   3.017   4.970
  208TIP3   OH2  566   2.444   6.549   3.131
  208TIP3    H1  567   2.523   6.594   3.160
  208TIP3    H2  568   2.374   6.585   3.186
  209TIP3   OH2  569   4.766   2.587   3.773
  209TIP3    H1  570   4.769   2.617   3.682
  209TIP3    H2  571   4.673   2.592   3.796
  210TIP3   OH2  572   1.521   4.892   3.930
  210TIP3    H1  573   1.554   4.890   4.020
  210TIP3    H2  574   1.457   4.964   3.929
  211TIP3   OH2  575   2.307   3.090   5.661
  211TIP3    H1  576   2.358   3.129   5.590
  211TIP3    H2  577   2.371   3.073   5.731
  212TIP3   OH2  578   5.006   7.089   6.364
  212TIP3    H1  579   5.062   7.166   6.377
  212TIP3    H2  580   4.970   7.100   6.276
  213TIP3   OH2  581   7.210   4.960   2.134
  213TIP3    H1  582   7.155   4.891   2.170
  213TIP3    H2  583   7.152   5.035   2.124
  214TIP3   OH2  584   4.983   2.268   0.995
  214TIP3    H1  585   5.002   2.266   0.902
  214TIP3    H2  586   5.030   2.192   1.031
  215TIP3   OH2  587   7.217   5.852   3.378
  215TIP3    H1  588   7.125   5.863   3.354
  215TIP3    H2  589   7.259   5.818   3.299
  216TIP3   OH2  590   1.648   0.510   5.921
  216TIP3    H1  591   1.663   0.584   5.980
  216TIP3    H2  592   1.553   0.505   5.911
  217TIP3   OH2  593   6.348   4.174   5.573
  217TIP3    H1  594   6.265   4.139   5.603
  217TIP3    H2  595   6.332   4.267   5.560
  218TIP3   OH2  596   5.662   1.732   3.406
  218TIP3    H1  597   5.596   1.801   3.415
  218TIP3    H2  598   5.612   1.655   3.380
  219TIP3   OH2  599   7.973   4.921   5.301
  219TIP3    H1  600   7.884   4.927   5.267
  219TIP3    H2  601   7.967   4.856   5.371
  220TIP3   OH2  602   4.292   7.491   0.524
  220TIP3    H1  603   4.370   7.465   0.475
  220TIP3    H2  604   4.246   7.552   0.466
  221TIP3   OH2  605   5.145   0.520   4.078
  221TIP3    H1  606   5.129   0.444   4.023
  221TIP3    H2  607   5.101   0.592   4.033
  222TIP3   OH2  608   3.331   1.722   3.747
  222TIP3    H1  609   3.413   1.689   3.784
  222TIP3    H2  610   3.265   1.658   3.775
  223TIP3   OH2  611   5.009   6.925   3.091
  223TIP3    H1  612   4.951   6.928   3.167
  223TIP3    H2  613   5.060   6.844   3.103
  224TIP3   OH2  614   7.023   1.309   2.062
  224TIP3    H1  615   6.969   1.274   2.132
  224TIP3    H2  616   7.042   1.399   2.088
  225TIP3   OH2  617   0.783   2.512   2.025
  225TIP3    H1  618   0.692   2.496   1.998
  225TIP3    H2  619   0.833   2.508   1.944
  226TIP3   OH2  620   5.331   0.103   5.064
  226TIP3    H1  621   5.398   0.140   5.007
  226TIP3    H2  622   5.349   0.142   5.150
  227TIP3   OH2  623   5.525   5.820   0.893
  227TIP3    H1  624   5.435   5.845   0.873
  227TIP3    H2  625   5.523   5.800   0.987
  228TIP3   OH2  626   0.182   3.540   6.279
  228TIP3    H1  627   0.200   3.596   6.204
  228TIP3    H2  628   0.165   3.454   6.241
  229TIP3   OH2  629   5.153   2.800   4.204
  229TIP3    H1  630   5.161   2.879   4.149
  229TIP3    H2  631   5.071   2.760   4.176
  230TIP3   OH2  632   3.057   5.135   4.900
  230TIP3    H1  633   3.079   5.069   4.966
  230TIP3    H2  634   3.023   5.085   4.826
  231TIP3   OH2  635   0.948   5.761   5.896
  231TIP3    H1  636   1.020   5.823   5.909
  231TIP3    H2  637   0.958   5.698   5.967
  232TIP3   OH2  638   6.994   0.437   3.718
  232TIP3    H1  639   7.003   0.488   3.798
  232TIP3    H2  640   6.924   0.375   3.737
  233TIP3   OH2  641   0.636   5.743   4.189
  233TIP3    H1  642   0.653   5.827   4.146
  233TIP3    H2  643   0.546   5.721   4.164
  234TIP3   OH2  644   1.905   7.493   6.343
  234TIP3    H1  645   1.924   7.464   6.433
  234TIP3    H2  646   1.812   7.473   6.330
  235TIP3   OH2  647   6.836   4.639   2.009
  235TIP3    H1  648   6.905   4.622   2.074
  235TIP3    H2  649   6.860   4.724   1.971
  236TIP3   OH2  650   0.458   5.143   0.030
  236TIP3    H1  651   0.429   5.233   0.042
  236TIP3    H2  652   0.534   5.151  -0.029
  237TIP3   OH2  653   2.477   3.572   5.815
  237TIP3    H1  654   2.568   3.546   5.832
  237TIP3    H2  655   2.427   3.526   5.883
  238TIP3   OH2  656   4.239   5.934   1.834
  238TIP3    H1  657   4.317   5.888   1.803
  238TIP3    H2  658   4.225   6.003   1.769
  239TIP3   OH2  659   7.896   2.976   4.859
  239TIP3    H1  660   7.929   3.062   4.833
  239TIP3    H2  661   7.971   2.918   4.851
  240TIP3   OH2  662   1.301   1.691   1.214
  240TIP3    H1  663   1.298   1.600   1.187
  240TIP3    H2  664   1.215   1.727   1.191
  241TIP3   OH2  665   6.367   4.930   2.279
  241TIP3    H1  666   6.329   4.843   2.263
  241TIP3    H2  667   6.300   4.975   2.330
  242TIP3   OH2  668   0.724   2.382   2.281
  242TIP3    H1  669   0.793   2.420   2.335
  242TIP3    H2  670   0.735   2.423   2.195
  243TIP3   OH2  671   4.038   2.281   0.223
  243TIP3    H1  672   3.985   2.293   0.144
  243TIP3    H2  673   4.095   2.207   0.202
  244TIP3   OH2  674   6.851   7.393   2.894
  244TIP3    H1  675   6.929   7.448   2.883
  244TIP3    H2  676   6.780   7.444   2.855
  245TIP3   OH2  677   6.566   6.032   4.285
  245TIP3    H1  678   6.516   6.113   4.280
  245TIP3    H2  679   6.502   5.963   4.267
  246TIP3   OH2  680   3.844   3.888   2.835
  246TIP3    H1  681   3.788   3.946   2.886
  246TIP3    H2  682   3.932   3.904   2.868
  247TIP3   OH2  683   8.018   6.725   5.597
  247TIP3    H1  684   8.105   6.719   5.637
  247TIP3    H2  685   8.029   6.686   5.510
  248TIP3   OH2  686   3.918   3.165   0.756
  248TIP3    H1  687   3.907   3.135   0.666
  248TIP3    H2  688   3.883   3.093   0.809
  249TIP3   OH2  689   2.124   5.116   0.842
  249TIP3    H1  690   2.142   5.041   0.786
  249TIP3    H2  691   2.030   5.108   0.863
  250TIP3   OH2  692   3.473   0.962   4.696
  250TIP3    H1  693   3.472   1.055   4.716
  250TIP3    H2  694   3.558   0.932   4.727
  251TIP3   OH2  695   6.861   2.169   1.608
  251TIP3    H1  696   6.839   2.116   1.685
  251TIP3    H2  697   6.893   2.252   1.645
  252TIP3   OH2  698   2.238   5.562   3.557
  252TIP3    H1  699   2.198   5.586   3.473
  252TIP3    H2  700   2.175   5.594   3.623
  253TIP3   OH2  701   4.140   0.433   5.552
  253TIP3    H1  702   4.157   0.450   5.459
  253TIP3    H2  703   4.219   0.463   5.596
  254TIP3   OH2  704   6.528   4.262   1.909
  254TIP3    H1  705   6.584   4.286   1.983
  254TIP3    H2  706   6.576   4.291   1.832
  255TIP3   OH2  707   2.439   5.586   5.563
  255TIP3    H1  708   2.404   5.639   5.491
  255TIP3    H2  709   2.408   5.497   5.544
  256TIP3   OH2  710   4.444   6.777   1.310
  256TIP3    H1  711   4.385   6.737   1.374
  256TIP3    H2  712   4.424   6.870   1.314
  257TIP3   OH2  713   2.781   2.197   6.522
  257TIP3    H1  714   2.865   2.239   6.507
  257TIP3    H2  715   2.752   2.169   6.435
  258TIP3   OH2  716   3.092   5.610   3.901
  258TIP3    H1  717   3.011   5.607   3.851
  258TIP3    H2  718   3.110   5.519   3.925
  259TIP3   OH2  719   6.429   4.935   0.083
  259TIP3    H1  720   6.484   4.994   0.135
  259TIP3    H2  721   6.449   4.959  -0.008
  260TIP3   OH2  722   2.204   3.449   5.092
  260TIP3    H1  723   2.187   3.523   5.032
  260TIP3    H2  724   2.120   3.435   5.136
  261TIP3   OH2  725   6.674   1.716   0.968
  261TIP3    H1  726   6.761   1.755   0.971
  261TIP3    H2  727   6.616   1.785   0.999
  262TIP3   OH2  728   3.615   7.724   0.216
  262TIP3    H1  729   3.613   7.749   0.309
  262TIP3    H2  730   3.678   7.652   0.211
  263TIP3   OH2  731   4.810   2.923   4.179
  263TIP3    H1  732   4.732   2.974   4.157
  263TIP3    H2  733   4.879   2.988   4.189
  264TIP3   OH2  734   4.409   4.004   6.638
  264TIP3    H1  735   4.422   4.099   6.642
  264TIP3    H2  736   4.497   3.968   6.623
  265TIP3   OH2  737   2.876   5.208   4.012
  265TIP3    H1  738   2.804   5.259   3.974
  265TIP3    H2  739   2.864   5.120   3.977
  266TIP3   OH2  740   3.419   7.527   3.565
  266TIP3    H1  741   3.353   7.589   3.595
  266TIP3    H2  742   3.483   7.524   3.636
  267TIP3   OH2  743   7.999   5.170   4.643
  267TIP3    H1  744   8.062   5.125   4.699
  267TIP3    H2  745   8.051   5.203   4.570
  268TIP3   OH2  746   7.873   5.968   3.595
  268TIP3    H1  747   7.814   5.981   3.669
  268TIP3    H2  748   7.928   5.894   3.620
  269TIP3   OH2  749   2.867   1.663   6.469
  269TIP3    H1  750   2.860   1.568   6.478
  269TIP3    H2  751   2.958   1.683   6.492
  270TIP3   OH2  752   0.282   1.926   0.511
  270TIP3    H1  753   0.271   1.837   0.477
  270TIP3    H2  754   0.210   1.976   0.471
  271TIP3   OH2  755   7.328   3.833   5.426
  271TIP3    H1  756   7.337   3.909   5.369
  271TIP3    H2  757   7.410   3.831   5.476
  272TIP3   OH2  758   4.365   1.272   4.697
  272TIP3    H1  759   4.457   1.290   4.676
  272TIP3    H2  760   4.317   1.296   4.618
  273TIP3   OH2  761   6.661   2.507   1.808
  273TIP3    H1  762   6.604   2.523   1.733
  273TIP3    H2  763   6.603   2.478   1.878
  274TIP3   OH2  764   3.339   6.647   1.889
  274TIP3    H1  765   3.365   6.674   1.977
  274TIP3    H2  766   3.362   6.554   1.884
  275TIP3   OH2  767   3.437   1.936   5.321
  275TIP3    H1  768   3.460   1.978   5.237
  275TIP3    H2  769   3.341   1.933   5.320
  276TIP3   OH2  770   1.687   3.867   6.316
  276TIP3    H1  771   1.656   3.814   6.389
  276TIP3    H2  772   1.615   3.866   6.253
  277TIP3   OH2  773   8.277   0.559   4.035
  277TIP3    H1  774   8.325   0.520   3.962
  277TIP3    H2  775   8.198   0.506   4.043
  278TIP3   OH2  776   5.867   0.551   5.667
  278TIP3    H1  777   5.808   0.585   5.735
  278TIP3    H2  778   5.930   0.621   5.651
  279TIP3   OH2  779   3.233   1.254   2.646
  279TIP3    H1  780   3.165   1.310   2.683
  279TIP3    H2  781   3.308   1.266   2.705
  280TIP3   OH2  782   1.458   2.518   4.073
  280TIP3    H1  783   1.546   2.532   4.109
  280TIP3    H2  784   1.413   2.601   4.088
  281TIP3   OH2  785   1.061   3.741   5.579
  281TIP3    H1  786   1.085   3.666   5.524
  281TIP3    H2  787   1.066   3.707   5.669
  282TIP3   OH2  788   2.160   6.132   3.704
  282TIP3    H1  789   2.197   6.083   3.631
  282TIP3    H2  790   2.232   6.187   3.736
  283TIP3   OH2  791   6.641   3.214   0.416
  283TIP3    H1  792   6.707   3.283   0.414
  283TIP3    H2  793   6.627   3.197   0.509
  284TIP3   OH2  794   8.185   3.113   3.262
  284TIP3    H1  795   8.270   3.140   3.226
  284TIP3    H2  796   8.187   3.146   3.352
  285TIP3   OH2  797   4.235   4.296   0.845
  285TIP3    H1  798   4.180   4.237   0.896
  285TIP3    H2  799   4.299   4.330   0.908
  286TIP3   OH2  800   6.636   6.582   5.895
  286TIP3    H1  801   6.706   6.575   5.960
  286TIP3    H2  802   6.648   6.506   5.838
  287TIP3   OH2  803   2.956   7.772   5.978
  287TIP3    H1  804   3.018   7.828   5.932
  287TIP3    H2  805   2.954   7.806   6.067
  288TIP3   OH2  806   5.351   5.013   5.335
  288TIP3    H1  807   5.431   5.065   5.347
  288TIP3    H2  808   5.330   4.982   5.423
  289TIP3   OH2  809   5.332   6.764   0.927
  289TIP3    H1  810   5.319   6.733   0.837
  289TIP3    H2  811   5.247   6.798   0.954
  290TIP3   OH2  812   6.390   5.285   4.173
  290TIP3    H1  813   6.296   5.287   4.151
  290TIP3    H2  814   6.402   5.201   4.218
  291TIP3   OH2  815   1.483   7.231   6.193
  291TIP3    H1  816   1.411   7.232   6.255
  291TIP3    H2  817   1.546   7.294   6.229
  292TIP3   OH2  818   8.000   1.005   4.325
  292TIP3    H1  819   8.059   1.010   4.400
  292TIP3    H2  820   8.044   0.946   4.264
  293TIP3   OH2  821   7.788   6.644   2.115
  293TIP3    H1  822   7.705   6.652   2.161
  293TIP3    H2  823   7.853   6.632   2.185
  294TIP3   OH2  824   7.099   1.373   6.224
  294TIP3    H1  825   7.074   1.287   6.190
  294TIP3    H2  826   7.024   1.430   6.205
  295TIP3   OH2  827   2.977   0.428   4.440
  295TIP3    H1  828   3.050   0.449   4.498
  295TIP3    H2  829   2.967   0.333   4.447
  296TIP3   OH2  830   5.218   1.160   2.447
  296TIP3    H1  831   5.259   1.086   2.492
  296TIP3    H2  832   5.292   1.214   2.418
  297TIP3   OH2  833   3.803   0.710   3.249
  297TIP3    H1  834   3.816   0.680   3.339
  297TIP3    H2  835   3.879   0.766   3.232
  298TIP3   OH2  836   3.762   5.223   4.846
  298TIP3    H1  837   3.688   5.280   4.824
  298TIP3    H2  838   3.746   5.143   4.796
  299TIP3   OH2  839   5.269   3.909   3.118
  299TIP3    H1  840   5.275   3.970   3.192
  299TIP3    H2  841   5.193   3.939   3.068
  300TIP3   OH2  842   1.262   7.471   4.414
  300TIP3    H1  843   1.173   7.505   4.420
  300TIP3    H2  844   1.252   7.383   4.377
  301TIP3   OH2  845   5.543   5.929   4.047
  301TIP3    H1  846   5.534   6.023   4.063
  301TIP3    H2  847   5.494   5.913   3.966
  302TIP3   OH2  848   6.038   7.796   6.010
  302TIP3    H1  849   5.969   7.731   6.000
  302TIP3    H2  850   6.073   7.809   5.922
  303TIP3   OH2  851   2.314   1.891   0.192
  303TIP3    H1  852   2.397   1.936   0.173
  303TIP3    H2  853   2.292   1.920   0.281
  304TIP3   OH2  854   4.942   1.601   1.681
  304TIP3    H1  855   4.855   1.584   1.645
  304TIP3    H2  856   4.927   1.661   1.753
  305TIP3   OH2  857   7.926   6.665   1.790
  305TIP3    H1  858   8.019   6.648   1.775
  305TIP3    H2  859   7.882   6.623   1.715
  306TIP3   OH2  860   1.198   6.526   6.433
  306TIP3    H1  861   1.154   6.537   6.517
  306TIP3    H2  862   1.135   6.477   6.379
  307TIP3   OH2  863   3.234   5.052   5.307
  307TIP3    H1  864   3.255   5.143   5.283
  307TIP3    H2  865   3.169   5.059   5.376
  308TIP3   OH2  866   0.202   6.570   4.225
  308TIP3    H1  867   0.227   6.479   4.212
  308TIP3    H2  868   0.190   6.578   4.320
  309TIP3   OH2  869   5.139   0.036   1.535
  309TIP3    H1  870   5.085   0.108   1.568
  309TIP3    H2  871   5.142  -0.027   1.607
  310TIP3   OH2  872   6.176   5.080   2.441
  310TIP3    H1  873   6.218   5.071   2.526
  310TIP3    H2  874   6.103   5.141   2.456
  311TIP3   OH2  875   0.938   4.584   2.940
  311TIP3    H1  876   0.849   4.598   2.907
  311TIP3    H2  877   0.930   4.511   3.001
  312TIP3   OH2  878   0.699   1.915   2.904
  312TIP3    H1  879   0.642   1.850   2.863
  312TIP3    H2  880   0.641   1.988   2.927
  313TIP3   OH2  881   3.180   5.200   0.646
  313TIP3    H1  882   3.208   5.108   0.644
  313TIP3    H2  883   3.208   5.236   0.562
  314TIP3   OH2  884   1.618   0.474   4.883
  314TIP3    H1  885   1.632   0.383   4.910
  314TIP3    H2  886   1.701   0.518   4.904
  315TIP3   OH2  887   7.289   7.266   6.585
  315TIP3    H1  888   7.311   7.185   6.631
  315TIP3    H2  889   7.374   7.309   6.571
  316TIP3   OH2  890   4.701   3.499   6.237
  316TIP3    H1  891   4.695   3.517   6.331
  316TIP3    H2  892   4.727   3.582   6.198
  317TIP3   OH2  893   3.795   4.178   5.915
  317TIP3    H1  894   3.826   4.221   5.835
  317TIP3    H2  895   3.808   4.245   5.983
  318TIP3   OH2  896   0.248   4.746   6.346
  318TIP3    H1  897   0.195   4.794   6.282
  318TIP3    H2  898   0.220   4.782   6.431
  319TIP3   OH2  899   6.562   4.668   6.044
  319TIP3    H1  900   6.571   4.579   6.009
  319TIP3    H2  901   6.474   4.671   6.081
  320TIP3   OH2  902   1.141   6.408   4.208
  320TIP3    H1  903   1.175   6.403   4.298
  320TIP3    H2  904   1.165   6.495   4.178
  321TIP3   OH2  905   0.071   1.830   2.270
  321TIP3    H1  906  -0.011   1.826   2.221
  321TIP3    H2  907   0.056   1.898   2.336
  322TIP3   OH2  908   6.361   0.229   5.284
  322TIP3    H1  909   6.344   0.289   5.357
  322TIP3    H2  910   6.442   0.261   5.244
  323TIP3   OH2  911   4.463   4.974   2.638
  323TIP3    H1  912   4.447   5.068   2.638
  323TIP3    H2  913   4.461   4.949   2.730
  324TIP3   OH2  914   6.471   2.276   1.617
  324TIP3    H1  915   6.463   2.267   1.712
  324TIP3    H2  916   6.523   2.356   1.605
  325TIP3   OH2  917   5.866   6.753   5.830
  325TIP3    H1  918   5.774   6.745   5.804
  325TIP3    H2  919   5.864   6.808   5.908
  326TIP3   OH2  920   0.103   1.020   0.542
  326TIP3    H1  921   0.009   1.007   0.547
  326TIP3    H2  922   0.136   1.000   0.629
  327TIP3   OH2  923   7.196   7.612   3.652
  327TIP3    H1  924   7.245   7.687   3.617
  327TIP3    H2  925   7.188   7.631   3.745
  328TIP3   OH2  926   1.114   0.963   1.968
  328TIP3    H1  927   1.186   0.913   1.930
  328TIP3    H2  928   1.117   1.047   1.923
  329TIP3   OH2  929   6.668   4.591   6.521
  329TIP3    H1  930   6.700   4.533   6.590
  329TIP3    H2  931   6.747   4.620   6.476
  330TIP3   OH2  932   5.550   2.714   4.935
  330TIP3    H1  933   5.499   2.766   4.873
  330TIP3    H2  934   5.615   2.669   4.881
  331TIP3   OH2  935   0.121   6.906   6.295
  331TIP3    H1  936   0.199   6.875   6.341
  331TIP3    H2  937   0.155   6.961   6.224
  332TIP3   OH2  938   1.872   5.611   0.158
  332TIP3    H1  939   1.823   5.531   0.177
  332TIP3    H2  940   1.805   5.676   0.137
  333TIP3   OH2  941   6.111   5.812   3.371
  333TIP3    H1  942   6.059   5.841   3.446
  333TIP3    H2  943   6.132   5.720   3.391
  334TIP3   OH2  944   4.856   2.024   1.828
  334TIP3    H1  945   4.791   2.061   1.888
  334TIP3    H2  946   4.919   2.095   1.815
  335TIP3   OH2  947   1.500   4.611   5.870
  335TIP3    H1  948   1.481   4.596   5.962
  335TIP3    H2  949   1.592   4.638   5.868
  336TIP3   OH2  950   5.866   1.397   5.380
  336TIP3    H1  951   5.772   1.419   5.378
  336TIP3    H2  952   5.871   1.308   5.347
  337TIP3   OH2  953   0.527   7.090   2.342
  337TIP3    H1  954   0.444   7.124   2.308
  337TIP3    H2  955   0.502   7.017   2.400
  338TIP3   OH2  956   2.985   6.972   2.193
  338TIP3    H1  957   2.954   6.910   2.127
  338TIP3    H2  958   2.915   6.973   2.259
  339TIP3   OH2  959   7.132   7.330   1.726
  339TIP3    H1  960   7.184   7.266   1.677
  339TIP3    H2  961   7.041   7.303   1.712
  340TIP3   OH2  962   7.716   5.643   1.663
  340TIP3    H1  963   7.657   5.617   1.593
  340TIP3    H2  964   7.659   5.657   1.739
  341TIP3   OH2  965   6.248   1.484   0.162
  341TIP3    H1  966   6.210   1.458   0.247
  341TIP3    H2  967   6.306   1.412   0.138
  342TIP3   OH2  968   7.385   5.242   6.626
  342TIP3    H1  969   7.425   5.323   6.659
  342TIP3    H2  970   7.389   5.181   6.700
  343TIP3   OH2  971   0.582   4.897   1.001
  343TIP3    H1  972   0.570   4.865   1.090
  343TIP3    H2  973   0.620   4.824   0.953
  344TIP3   OH2  974   4.358   1.379   1.366
  344TIP3    H1  975   4.340   1.392   1.273
  344TIP3    H2  976   4.383   1.465   1.398
  345TIP3   OH2  977   7.466   2.020   2.534
  345TIP3    H1  978   7.520   2.092   2.568
  345TIP3    H2  979   7.410   1.996   2.608
  346TIP3   OH2  980   1.176   2.741   4.890
  346TIP3    H1  981   1.202   2.719   4.980
  346TIP3    H2  982   1.256   2.731   4.839
  347TIP3   OH2  983   5.149   3.352   2.954
  347TIP3    H1  984   5.189   3.319   2.873
  347TIP3    H2  985   5.056   3.334   2.944
  348TIP3   OH2  986   7.320   5.332   0.274
  348TIP3    H1  987   7.260   5.260   0.294
  348TIP3    H2  988   7.264   5.410   0.272
  349TIP3   OH2  989   0.019   2.976   2.077
  349TIP3    H1  990   0.112   2.965   2.056
  349TIP3    H2  991   0.007   2.930   2.160
  350TIP3   OH2  992   3.039  -0.011   5.699
  350TIP3    H1  993   3.033   0.083   5.684
  350TIP3    H2  994   2.954  -0.045   5.670
  351TIP3   OH2  995   7.362   6.987   5.198
  351TIP3    H1  996   7.394   7.043   5.269
  351TIP3    H2  997   7.440   6.971   5.144
  352TIP3   OH2  998   0.819   4.276   5.967
  352TIP3    H1  999   0.824   4.353   6.025
  352TIP3    H2 1000   0.867   4.208   6.014
  353TIP3   OH2 1001   6.773   2.554  -0.003
  353TIP3    H1 1002   6.785   2.466   0.032
  353TIP3    H2 1003   6.801   2.612   0.068
  354TIP3   OH2 1004  -0.007   6.275   1.659
  354TIP3    H1 1005   0.047   6.306   1.732
  354TIP3    H2 1006  -0.083   6.234   1.701
  355TIP3   OH2 1007   4.298   7.512   2.094
  355TIP3    H1 1008   4.270   7.602   2.081
  355TIP3    H2 1009   4.368   7.517   2.160
  356TIP3   OH2 1010   8.142   3.206   2.603
  356TIP3    H1 1011   8.086   3.150   2.657
  356TIP3    H2 1012   8.180   3.146   2.538
  357TIP3   OH2 1013   6.287   6.517   4.814
  357TIP3    H1 1014   6.359   6.475   4.861
  357TIP3    H2 1015   6.238   6.445   4.775
  358TIP3   OH2 1016   2.632   5.094   2.229
  358TIP3    H1 1017   2.628   5.164   2.294
  358TIP3    H2 1018   2.699   5.122   2.167
  359TIP3   OH2 1019   2.298   1.620   3.285
  359TIP3    H1 1020   2.381   1.573   3.288
  359TIP3    H2 1021   2.237   1.566   3.336
  360TIP3   OH2 1022   2.642   2.681   4.432
  360TIP3    H1 1023   2.557   2.654   4.466
  360TIP3    H2 1024   2.706   2.628   4.480
  361TIP3   OH2 1025   6.744   2.350   0.380
  361TIP3    H1 1026   6.728   2.283   0.447
  361TIP3    H2 1027   6.823   2.395   0.409
  362TIP3   OH2 1028   6.652   4.000   4.042
  362TIP3    H1 1029   6.608   3.915   4.036
  362TIP3    H2 1030   6.695   4.011   3.957
  363TIP3   OH2 1031   4.623   3.765   4.989
  363TIP3    H1 1032   4.625   3.675   5.020
  363TIP3    H2 1033   4.675   3.764   4.909
  364TIP3   OH2 1034   5.093   5.149   2.234
  364TIP3    H1 1035   5.174   5.098   2.242
  364TIP3    H2 1036   5.073   5.147   2.140
  365TIP3   OH2 1037   2.711   4.997   0.533
  365TIP3    H1 1038   2.650   5.070   0.526
  365TIP3    H2 1039   2.747   5.005   0.621
  366TIP3   OH2 1040   7.147   7.393   1.161
  366TIP3    H1 1041   7.091   7.453   1.113
  366TIP3    H2 1042   7.108   7.307   1.147
  367TIP3   OH2 1043   1.981   6.063   2.247
  367TIP3    H1 1044   2.002   6.156   2.232
  367TIP3    H2 1045   2.066   6.019   2.244
  368TIP3   OH2 1046   0.992   4.572   4.099
  368TIP3    H1 1047   1.045   4.493   4.090
  368TIP3    H2 1048   1.050   4.644   4.073
  369TIP3   OH2 1049   3.937   6.397   1.904
  369TIP3    H1 1050   4.012   6.448   1.871
  369TIP3    H2 1051   3.975   6.312   1.928
  370TIP3   OH2 1052   7.343   2.992   4.318
  370TIP3    H1 1053   7.304   3.041   4.390
  370TIP3    H2 1054   7.339   2.900   4.346
  371TIP3   OH2 1055   3.181   0.789   2.284
  371TIP3    H1 1056   3.160   0.697   2.267
  371TIP3    H2 1057   3.127   0.812   2.360
  372TIP3   OH2 1058   7.365   1.430   2.663
  372TIP3    H1 1059   7.446   1.429   2.613
  372TIP3    H2 1060   7.316   1.354   2.631
  373TIP3   OH2 1061   1.425   2.206   5.668
  373TIP3    H1 1062   1.343   2.156   5.671
  373TIP3    H2 1063   1.461   2.188   5.582
  374TIP3   OH2 1064   2.935   0.902   5.708
  374TIP3    H1 1065   3.007   0.932   5.764
  374TIP3    H2 1066   2.902   0.981   5.666
  375TIP3   OH2 1067   1.261   4.771   1.062
  375TIP3    H1 1068   1.296   4.687   1.092
  375TIP3    H2 1069   1.250   4.761   0.968
  376TIP3   OH2 1070   2.428   0.950   4.805
  376TIP3    H1 1071   2.403   0.902   4.884
  376TIP3    H2 1072   2.466   1.031   4.839
  377TIP3   OH2 1073   0.735   2.809   3.103
  377TIP3    H1 1074   0.785   2.880   3.063
  377TIP3    H2 1075   0.663   2.793   3.041
  378TIP3   OH2 1076   1.580   0.100   1.234
  378TIP3    H1 1077   1.629   0.164   1.286
  378TIP3    H2 1078   1.614   0.015   1.262
  379TIP3   OH2 1079   0.127   5.732   1.063
  379TIP3    H1 1080   0.217   5.746   1.034
  379TIP3    H2 1081   0.077   5.723   0.982
  380TIP3   OH2 1082   7.270   4.636   1.908
  380TIP3    H1 1083   7.242   4.548   1.881
  380TIP3    H2 1084   7.206   4.662   1.974
  381TIP3   OH2 1085   4.373   3.458   4.729
  381TIP3    H1 1086   4.402   3.516   4.659
  381TIP3    H2 1087   4.451   3.410   4.755
  382TIP3   OH2 1088   1.767   4.498   2.685
  382TIP3    H1 1089   1.815   4.416   2.696
  382TIP3    H2 1090   1.816   4.545   2.617
  383TIP3   OH2 1091   7.720   2.376   3.308
  383TIP3    H1 1092   7.808   2.342   3.291
  383TIP3    H2 1093   7.679   2.380   3.222
  384TIP3   OH2 1094   6.740   7.213   6.692
  384TIP3    H1 1095   6.654   7.238   6.729
  384TIP3    H2 1096   6.738   7.118   6.691
  385TIP3   OH2 1097   7.048   7.594   4.705
  385TIP3    H1 1098   7.094   7.512   4.695
  385TIP3    H2 1099   7.017   7.593   4.796
  386TIP3   OH2 1100   5.171   6.265   5.143
  386TIP3    H1 1101   5.114   6.225   5.209
  386TIP3    H2 1102   5.114   6.282   5.068
  387TIP3   OH2 1103   3.971   2.147   1.242
  387TIP3    H1 1104   3.961   2.108   1.155
  387TIP3    H2 1105   3.893   2.121   1.290
  388TIP3   OH2 1106   5.178   7.619   2.406
  388TIP3    H1 1107   5.189   7.691   2.467
  388TIP3    H2 1108   5.083   7.610   2.397
  389TIP3   OH2 1109   3.845   4.968   0.508
  389TIP3    H1 1110   3.785   5.016   0.566
  389TIP3    H2 1111   3.867   4.889   0.557
  390TIP3   OH2 1112   0.840   1.375   3.504
  390TIP3    H1 1113   0.895   1.449   3.532
  390TIP3    H2 1114   0.824   1.392   3.411
  391TIP3   OH2 1115   0.781   4.698   4.484
  391TIP3    H1 1116   0.715   4.645   4.528
  391TIP3    H2 1117   0.745   4.786   4.483
  392TIP3   OH2 1118   7.216   3.059   1.863
  392TIP3    H1 1119   7.134   3.094   1.899
  392TIP3    H2 1120   7.207   2.964   1.871
  393TIP3   OH2 1121   7.421   6.335   6.772
  393TIP3    H1 1122   7.460   6.404   6.826
  393TIP3    H2 1123   7.473   6.335   6.692
  394TIP3   OH2 1124   5.705   3.776   5.152
  394TIP3    H1 1125   5.697   3.862   5.194
  394TIP3    H2 1126   5.783   3.738   5.190
  395TIP3   OH2 1127   4.609   4.786   3.140
  395TIP3    H1 1128   4.583   4.695   3.156
  395TIP3    H2 1129   4.564   4.836   3.207
  396TIP3   OH2 1130   6.257   2.015   6.614
  396TIP3    H1 1131   6.298   2.101   6.607
  396TIP3    H2 1132   6.325   1.960   6.654
  397TIP3   OH2 1133   6.151   7.467   6.497
  397TIP3    H1 1134   6.061   7.453   6.528
  397TIP3    H2 1135   6.145   7.541   6.437
  398TIP3   OH2 1136   5.079   3.014   1.924
  398TIP3    H1 1137   5.131   2.949   1.970
  398TIP3    H2 1138   5.054   3.078   1.991
  399TIP3   OH2 1139   8.035   3.998   4.154
  399TIP3    H1 1140   8.108   3.978   4.096
  399TIP3    H2 1141   8.053   4.087   4.185
  400TIP3   OH2 1142   0.669   3.448   4.794
  400TIP3    H1 1143   0.666   3.353   4.778
  400TIP3    H2 1144   0.758   3.474   4.771
  401TIP3   OH2 1145   6.933   4.227   3.778
  401TIP3    H1 1146   6.974   4.291   3.837
  401TIP3    H2 1147   7.007   4.191   3.728
  402TIP3   OH2 1148   6.754   1.231   6.379
  402TIP3    H1 1149   6.676   1.285   6.393
  402TIP3    H2 1150   6.738   1.152   6.431
  403TIP3   OH2 1151   7.345   3.182   2.076
  403TIP3    H1 1152   7.394   3.262   2.058
  403TIP3    H2 1153   7.318   3.150   1.990
  404TIP3   OH2 1154   6.351   0.705   1.771
  404TIP3    H1 1155   6.411   0.631   1.762
  404TIP3    H2 1156   6.405   0.781   1.750
  405TIP3   OH2 1157   1.478   4.900   0.534
  405TIP3    H1 1158   1.525   4.960   0.477
  405TIP3    H2 1159   1.535   4.823   0.540
  406TIP3   OH2 1160   2.019   5.041   5.772
  406TIP3    H1 1161   1.954   5.112   5.772
  406TIP3    H2 1162   2.004   4.995   5.689
  407TIP3   OH2 1163   2.722   5.057   4.607
  407TIP3    H1 1164   2.659   4.995   4.643
  407TIP3    H2 1165   2.771   5.088   4.684
  408TIP3   OH2 1166   0.597   4.913   2.333
  408TIP3    H1 1167   0.578   4.999   2.295
  408TIP3    H2 1168   0.526   4.896   2.394
  409TIP3   OH2 1169   6.751   5.433   1.153
  409TIP3    H1 1170   6.676   5.443   1.095
  409TIP3    H2 1171   6.740   5.346   1.192
  410TIP3   OH2 1172   4.713   6.274   3.985
  410TIP3    H1 1173   4.728   6.365   4.010
  410TIP3    H2 1174   4.621   6.271   3.959
  411TIP3   OH2 1175   8.161   6.746   3.193
  411TIP3    H1 1176   8.095   6.746   3.262
  411TIP3    H2 1177   8.244   6.734   3.239
  412TIP3   OH2 1178   6.447   3.801   0.887
  412TIP3    H1 1179   6.465   3.849   0.968
  412TIP3    H2 1180   6.518   3.826   0.828
  413TIP3   OH2 1181   7.303   7.675   6.552
  413TIP3    H1 1182   7.272   7.721   6.630
  413TIP3    H2 1183   7.332   7.745   6.493
  414TIP3   OH2 1184   4.598   4.260   6.268
  414TIP3    H1 1185   4.613   4.168   6.290
  414TIP3    H2 1186   4.502   4.268   6.263
  415TIP3   OH2 1187   1.290   2.409   1.866
  415TIP3    H1 1188   1.284   2.501   1.894
  415TIP3    H2 1189   1.275   2.359   1.946
  416TIP3   OH2 1190   8.060   1.589   6.356
  416TIP3    H1 1191   8.065   1.684   6.348
  416TIP3    H2 1192   8.131   1.567   6.417
  417TIP3   OH2 1193   8.302   1.220   1.978
  417TIP3    H1 1194   8.300   1.251   2.069
  417TIP3    H2 1195   8.328   1.296   1.927
  418TIP3   OH2 1196   5.232   1.471   6.068
  418TIP3    H1 1197   5.261   1.381   6.080
  418TIP3    H2 1198   5.313   1.520   6.052
  419TIP3   OH2 1199   1.560   3.296   5.593
  419TIP3    H1 1200   1.613   3.360   5.641
  419TIP3    H2 1201   1.579   3.212   5.637
  420TIP3   OH2 1202   4.748   0.652   2.452
  420TIP3    H1 1203   4.763   0.634   2.359
  420TIP3    H2 1204   4.806   0.727   2.471
  421TIP3   OH2 1205   3.358   0.858   1.201
  421TIP3    H1 1206   3.336   0.859   1.294
  421TIP3    H2 1207   3.310   0.932   1.164
  422TIP3   OH2 1208   8.136   0.059   4.405
  422TIP3    H1 1209   8.101  -0.008   4.464
  422TIP3    H2 1210   8.061   0.114   4.385
  423TIP3   OH2 1211   4.609   0.446   2.204
  423TIP3    H1 1212   4.596   0.477   2.294
  423TIP3    H2 1213   4.531   0.473   2.157
  424TIP3   OH2 1214   7.509   4.746   0.360
  424TIP3    H1 1215   7.454   4.695   0.419
  424TIP3    H2 1216   7.590   4.761   0.410
  425TIP3   OH2 1217   6.570   2.492   0.666
  425TIP3    H1 1218   6.490   2.510   0.616
  425TIP3    H2 1219   6.591   2.401   0.646
  426TIP3   OH2 1220   6.011   5.454   1.663
  426TIP3    H1 1221   5.947   5.468   1.732
  426TIP3    H2 1222   6.071   5.388   1.698
  427TIP3   OH2 1223   8.194   7.236   4.841
  427TIP3    H1 1224   8.290   7.234   4.850
  427TIP3    H2 1225   8.177   7.189   4.760
  428TIP3   OH2 1226   0.258   6.039   4.113
  428TIP3    H1 1227   0.234   5.967   4.171
  428TIP3    H2 1228   0.341   6.012   4.073
  429TIP3   OH2 1229   7.616   7.814   5.430
  429TIP3    H1 1230   7.621   7.789   5.522
  429TIP3    H2 1231   7.523   7.806   5.407
  430TIP3   OH2 1232   7.163   4.853   0.768
  430TIP3    H1 1233   7.258   4.860   0.754
  430TIP3    H2 1234   7.136   4.942   0.790
  431TIP3   OH2 1235   8.293   4.916   2.953
  431TIP3    H1 1236   8.237   4.989   2.980
  431TIP3    H2 1237   8.307   4.866   3.034
  432TIP3   OH2 1238   5.063   1.225   4.405
  432TIP3    H1 1239   5.136   1.226   4.468
  432TIP3    H2 1240   5.070   1.309   4.359
  433TIP3   OH2 1241   6.481   6.724   3.703
  433TIP3    H1 1242   6.561   6.726   3.755
  433TIP3    H2 1243   6.476   6.634   3.671
  434TIP3   OH2 1244   2.354   1.965   1.275
  434TIP3    H1 1245   2.355   2.047   1.325
  434TIP3    H2 1246   2.443   1.932   1.281
  435TIP3   OH2 1247   7.724   0.253   3.741
  435TIP3    H1 1248   7.692   0.234   3.829
  435TIP3    H2 1249   7.783   0.180   3.721
  436TIP3   OH2 1250   5.494   3.085   6.635
  436TIP3    H1 1251   5.566   3.027   6.662
  436TIP3    H2 1252   5.419   3.026   6.627
  437TIP3   OH2 1253   5.603   1.063   1.152
  437TIP3    H1 1254   5.574   0.972   1.157
  437TIP3    H2 1255   5.696   1.058   1.132
  438TIP3   OH2 1256   5.712   1.762   4.272
  438TIP3    H1 1257   5.719   1.730   4.182
  438TIP3    H2 1258   5.791   1.814   4.286
  439TIP3   OH2 1259   2.209   4.274   0.419
  439TIP3    H1 1260   2.195   4.215   0.345
  439TIP3    H2 1261   2.126   4.274   0.467
  440TIP3   OH2 1262   3.585   6.981   0.453
  440TIP3    H1 1263   3.527   7.036   0.401
  440TIP3    H2 1264   3.659   7.038   0.475
  441TIP3   OH2 1265   3.463   0.412   3.760
  441TIP3    H1 1266   3.432   0.411   3.850
  441TIP3    H2 1267   3.558   0.418   3.767
  442TIP3   OH2 1268   7.977   2.178   1.174
  442TIP3    H1 1269   7.964   2.174   1.079
  442TIP3    H2 1270   8.051   2.237   1.186
  443TIP3   OH2 1271   4.710   1.426   3.852
  443TIP3    H1 1272   4.783   1.456   3.907
  443TIP3    H2 1273   4.720   1.331   3.848
  444TIP3   OH2 1274   6.983   6.810   2.033
  444TIP3    H1 1275   6.993   6.883   1.971
  444TIP3    H2 1276   7.050   6.747   2.008
  445TIP3   OH2 1277   5.212   6.093   1.906
  445TIP3    H1 1278   5.210   6.044   1.988
  445TIP3    H2 1279   5.122   6.122   1.894
  446TIP3   OH2 1280   5.327   3.505   0.876
  446TIP3    H1 1281   5.327   3.411   0.858
  446TIP3    H2 1282   5.357   3.511   0.967
  447TIP3   OH2 1283   7.843   0.517   2.865
  447TIP3    H1 1284   7.766   0.493   2.917
  447TIP3    H2 1285   7.843   0.612   2.864
  448TIP3   OH2 1286   1.893   1.841   4.011
  448TIP3    H1 1287   1.952   1.802   4.076
  448TIP3    H2 1288   1.882   1.931   4.040
  449TIP3   OH2 1289   6.543   5.676   6.271
  449TIP3    H1 1290   6.472   5.681   6.207
  449TIP3    H2 1291   6.556   5.767   6.299
  450TIP3   OH2 1292   6.451   0.740   1.143
  450TIP3    H1 1293   6.443   0.835   1.150
  450TIP3    H2 1294   6.366   0.706   1.173
  451TIP3   OH2 1295   3.995   5.822   4.939
  451TIP3    H1 1296   3.972   5.735   4.970
  451TIP3    H2 1297   3.978   5.880   5.014
  452TIP3   OH2 1298   5.417   4.762   1.349
  452TIP3    H1 1299   5.376   4.676   1.347
  452TIP3    H2 1300   5.344   4.824   1.345
  453TIP3   OH2 1301   4.011   2.326   2.761
  453TIP3    H1 1302   4.099   2.330   2.797
  453TIP3    H2 1303   3.990   2.416   2.738
  454TIP3   OH2 1304   3.395   1.565   6.731
  454TIP3    H1 1305   3.438   1.480   6.726
  454TIP3    H2 1306   3.344   1.570   6.650
  455TIP3   OH2 1307   1.569   7.305   3.489
  455TIP3    H1 1308   1.477   7.319   3.510
  455TIP3    H2 1309   1.602   7.250   3.560
  456TIP3   OH2 1310   4.150   6.286   0.407
  456TIP3    H1 1311   4.057   6.268   0.398
  456TIP3    H2 1312   4.176   6.242   0.488
  457TIP3   OH2 1313   7.803   0.319   5.146
  457TIP3    H1 1314   7.838   0.315   5.057
  457TIP3    H2 1315   7.782   0.229   5.168
  458TIP3   OH2 1316   7.375   4.326   1.150
  458TIP3    H1 1317   7.381   4.380   1.229
  458TIP3    H2 1318   7.457   4.277   1.148
  459TIP3   OH2 1319   7.375   6.673   1.360
  459TIP3    H1 1320   7.309   6.642   1.423
  459TIP3    H2 1321   7.333   6.659   1.275
  460TIP3   OH2 1322   6.115   6.905   1.837
  460TIP3    H1 1323   6.038   6.957   1.863
  460TIP3    H2 1324   6.172   6.968   1.793
  461TIP3   OH2 1325   2.998   3.366   3.243
  461TIP3    H1 1326   2.971   3.376   3.151
  461TIP3    H2 1327   3.005   3.272   3.256
  462TIP3   OH2 1328   6.125   5.347   0.268
  462TIP3    H1 1329   6.037   5.344   0.231
  462TIP3    H2 1330   6.167   5.422   0.225
  463TIP3   OH2 1331   3.826   3.720   5.771
  463TIP3    H1 1332   3.840   3.627   5.788
  463TIP3    H2 1333   3.745   3.724   5.721
  464TIP3   OH2 1334   7.194   5.250   2.097
  464TIP3    H1 1335   7.142   5.266   2.018
  464TIP3    H2 1336   7.258   5.321   2.099
  465TIP3   OH2 1337   2.814   1.340   2.723
  465TIP3    H1 1338   2.742   1.280   2.737
  465TIP3    H2 1339   2.822   1.346   2.627
  466TIP3   OH2 1340   1.534   6.517   6.768
  466TIP3    H1 1341   1.472   6.480   6.706
  466TIP3    H2 1342   1.517   6.611   6.767
  467TIP3   OH2 1343   4.189   2.346   5.705
  467TIP3    H1 1344   4.222   2.427   5.666
  467TIP3    H2 1345   4.218   2.349   5.797
  468TIP3   OH2 1346   0.305   6.327   4.137
  468TIP3    H1 1347   0.288   6.233   4.136
  468TIP3    H2 1348   0.312   6.352   4.045
  469TIP3   OH2 1349   2.533   3.179   5.470
  469TIP3    H1 1350   2.552   3.264   5.508
  469TIP3    H2 1351   2.495   3.198   5.384
  470TIP3   OH2 1352   3.056   2.656   2.729
  470TIP3    H1 1353   3.005   2.576   2.721
  470TIP3    H2 1354   3.137   2.639   2.681
  471TIP3   OH2 1355   6.051   3.028   6.304
  471TIP3    H1 1356   6.020   3.098   6.247
  471TIP3    H2 1357   5.981   3.017   6.369
  472TIP3   OH2 1358   4.503   4.635   6.390
  472TIP3    H1 1359   4.543   4.669   6.310
  472TIP3    H2 1360   4.483   4.712   6.442
  473TIP3   OH2 1361   2.061   2.424   3.710
  473TIP3    H1 1362   2.006   2.349   3.690
  473TIP3    H2 1363   2.002   2.485   3.756
  474TIP3   OH2 1364   5.862   6.711   0.932
  474TIP3    H1 1365   5.849   6.801   0.902
  474TIP3    H2 1366   5.794   6.660   0.888
  475TIP3   OH2 1367   1.797   3.945   2.928
  475TIP3    H1 1368   1.889   3.962   2.950
  475TIP3    H2 1369   1.755   3.930   3.013
  476TIP3   OH2 1370   4.670   5.381   0.921
  476TIP3    H1 1371   4.656   5.473   0.900
  476TIP3    H2 1372   4.675   5.378   1.016
  477TIP3   OH2 1373   0.158   2.492   4.296
  477TIP3    H1 1374   0.206   2.563   4.254
  477TIP3    H2 1375   0.178   2.503   4.390
  478TIP3   OH2 1376   7.269   4.222   0.910
  478TIP3    H1 1377   7.301   4.273   0.984
  478TIP3    H2 1378   7.334   4.153   0.898
  479TIP3   OH2 1379   6.678   6.061   3.580
  479TIP3    H1 1380   6.766   6.024   3.590
  479TIP3    H2 1381   6.624   5.988   3.551
  480TIP3   OH2 1382   2.112   1.598   2.207
  480TIP3    H1 1383   2.139   1.541   2.134
  480TIP3    H2 1384   2.036   1.554   2.245
  481TIP3   OH2 1385   1.118   4.834   2.646
  481TIP3    H1 1386   1.034   4.810   2.605
  481TIP3    H2 1387   1.183   4.785   2.597
  482TIP3   OH2 1388   3.983   4.813   3.180
  482TIP3    H1 1389   3.958   4.722   3.195
  482TIP3    H2 1390   3.905   4.864   3.204
  483TIP3   OH2 1391   3.575   5.310   1.496
  483TIP3    H1 1392   3.581   5.374   1.567
  483TIP3    H2 1393   3.495   5.333   1.448
  484TIP3   OH2 1394   3.378   0.385   3.237
  484TIP3    H1 1395   3.368   0.350   3.326
  484TIP3    H2 1396   3.414   0.312   3.187
  485TIP3   OH2 1397   4.128   4.081   5.419
  485TIP3    H1 1398   4.067   4.142   5.460
  485TIP3    H2 1399   4.076   4.002   5.402
  486TIP3   OH2 1400   4.351   0.722   5.982
  486TIP3    H1 1401   4.257   0.740   5.989
  486TIP3    H2 1402   4.392   0.803   6.012
  487TIP3   OH2 1403   6.890   6.782   0.053
  487TIP3    H1 1404   6.822   6.848   0.063
  487TIP3    H2 1405   6.863   6.732  -0.024
  488TIP3   OH2 1406   1.050   6.926   6.258
  488TIP3    H1 1407   1.083   6.871   6.328
  488TIP3    H2 1408   1.078   6.882   6.177
  489TIP3   OH2 1409   1.382   5.810   1.994
  489TIP3    H1 1410   1.341   5.885   2.036
  489TIP3    H2 1411   1.364   5.821   1.901
  490TIP3   OH2 1412   2.780   4.197   3.965
  490TIP3    H1 1413   2.709   4.137   3.990
  490TIP3    H2 1414   2.852   4.175   4.024
  491TIP3   OH2 1415   3.463   2.834   1.220
  491TIP3    H1 1416   3.469   2.767   1.288
  491TIP3    H2 1417   3.554   2.859   1.204
  492TIP3   OH2 1418   4.431   2.762   2.431
  492TIP3    H1 1419   4.339   2.760   2.453
  492TIP3    H2 1420   4.436   2.717   2.346
  493TIP3   OH2 1421   3.940   6.441   3.786
  493TIP3    H1 1422   3.901   6.501   3.850
  493TIP3    H2 1423   3.935   6.355   3.828
  494TIP3   OH2 1424   2.433   7.378   3.646
  494TIP3    H1 1425   2.460   7.288   3.629
  494TIP3    H2 1426   2.374   7.400   3.574
  495TIP3   OH2 1427   3.052   0.799   2.017
  495TIP3    H1 1428   3.099   0.793   2.101
  495TIP3    H2 1429   3.040   0.708   1.990
  496TIP3   OH2 1430   2.718   6.281   4.863
  496TIP3    H1 1431   2.664   6.208   4.835
  496TIP3    H2 1432   2.717   6.277   4.959
  497TIP3   OH2 1433   4.461   0.675   0.547
  497TIP3    H1 1434   4.468   0.771   0.540
  497TIP3    H2 1435   4.550   0.644   0.533
  498TIP3   OH2 1436   6.868   3.413   5.515
  498TIP3    H1 1437   6.811   3.410   5.439
  498TIP3    H2 1438   6.822   3.361   5.581
  499TIP3   OH2 1439   6.339   4.347   1.088
  499TIP3    H1 1440   6.266   4.292   1.059
  499TIP3    H2 1441   6.322   4.364   1.180
  500TIP3   OH2 1442   1.379   6.385   5.490
  500TIP3    H1 1443   1.328   6.422   5.418
  500TIP3    H2 1444   1.393   6.459   5.550
  501TIP3   OH2 1445   4.021   2.442   3.473
  501TIP3    H1 1446   4.023   2.536   3.459
  501TIP3    H2 1447   4.088   2.407   3.414
  502TIP3   OH2 1448   3.526   4.245   3.136
  502TIP3    H1 1449   3.540   4.334   3.168
  502TIP3    H2 1450   3.571   4.189   3.198
  503TIP3   OH2 1451   4.998   6.239   1.134
  503TIP3    H1 1452   4.948   6.225   1.215
  503TIP3    H2 1453   5.087   6.255   1.164
  504TIP3   OH2 1454   2.892   3.023   2.409
  504TIP3    H1 1455   2.893   2.945   2.465
  504TIP3    H2 1456   2.926   3.093   2.465
  505TIP3   OH2 1457   2.269   5.041   4.820
  505TIP3    H1 1458   2.315   4.960   4.841
  505TIP3    H2 1459   2.176   5.016   4.816
  506TIP3   OH2 1460   6.503   2.134   2.837
  506TIP3    H1 1461   6.448   2.106   2.764
  506TIP3    H2 1462   6.511   2.229   2.827
  507TIP3   OH2 1463   2.104   4.842   4.527
  507TIP3    H1 1464   2.165   4.815   4.595
  507TIP3    H2 1465   2.024   4.793   4.545
  508TIP3   OH2 1466   5.696   3.798   6.742
  508TIP3    H1 1467   5.779   3.778   6.700
  508TIP3    H2 1468   5.687   3.893   6.734
  509TIP3   OH2 1469   6.423   6.189   6.716
  509TIP3    H1 1470   6.431   6.095   6.701
  509TIP3    H2 1471   6.430   6.228   6.629
  510TIP3   OH2 1472   7.063   6.400   6.611
  510TIP3    H1 1473   6.968   6.390   6.615
  510TIP3    H2 1474   7.082   6.479   6.662
  511TIP3   OH2 1475   5.871   3.875   6.001
  511TIP3    H1 1476   5.936   3.805   5.994
  511TIP3    H2 1477   5.922   3.952   6.027
  512TIP3   OH2 1478   5.660   5.592   5.467
  512TIP3    H1 1479   5.668   5.682   5.438
  512TIP3    H2 1480   5.568   5.583   5.493
  513TIP3   OH2 1481   7.213   3.361   0.880
  513TIP3    H1 1482   7.234   3.445   0.840
  513TIP3    H2 1483   7.188   3.383   0.970
  514TIP3   OH2 1484   0.887   4.892   1.882
  514TIP3    H1 1485   0.810   4.843   1.852
  514TIP3    H2 1486   0.923   4.838   1.953
  515TIP3   OH2 1487   5.413   7.556   6.556
  515TIP3    H1 1488   5.325   7.593   6.547
  515TIP3    H2 1489   5.407   7.494   6.628
  516TIP3   OH2 1490   4.670   4.066   5.673
  516TIP3    H1 1491   4.688   4.058   5.767
  516TIP3    H2 1492   4.678   4.159   5.655
  517TIP3   OH2 1493   3.424   2.871   3.919
  517TIP3    H1 1494   3.515   2.874   3.948
  517TIP3    H2 1495   3.416   2.787   3.874
  518TIP3   OH2 1496   6.113   6.370   5.185
  518TIP3    H1 1497   6.075   6.355   5.271
  518TIP3    H2 1498   6.190   6.424   5.202
  519TIP3   OH2 1499   7.454   1.778   5.600
  519TIP3    H1 1500   7.452   1.682   5.611
  519TIP3    H2 1501   7.453   1.812   5.690
  520TIP3   OH2 1502   2.472   7.670   5.030
  520TIP3    H1 1503   2.518   7.738   5.079
  520TIP3    H2 1504   2.380   7.695   5.035
  521TIP3   OH2 1505   1.992   3.779   2.262
  521TIP3    H1 1506   2.030   3.829   2.190
  521TIP3    H2 1507   1.922   3.834   2.295
  522TIP3   OH2 1508   2.211   1.124   2.539
  522TIP3    H1 1509   2.304   1.101   2.540
  522TIP3    H2 1510   2.167   1.046   2.571
  523TIP3   OH2 1511   0.127   7.686   3.896
  523TIP3    H1 1512   0.108   7.613   3.838
  523TIP3    H2 1513   0.067   7.675   3.970
  524TIP3   OH2 1514   5.606   4.750   1.566
  524TIP3    H1 1515   5.659   4.752   1.646
  524TIP3    H2 1516   5.656   4.802   1.504
  525TIP3   OH2 1517   4.607   2.287   3.034
  525TIP3    H1 1518   4.646   2.272   2.948
  525TIP3    H2 1519   4.535   2.224   3.039
  526TIP3   OH2 1520   2.256   6.509   4.401
  526TIP3    H1 1521   2.307   6.515   4.482
  526TIP3    H2 1522   2.307   6.450   4.346
  527TIP3   OH2 1523   3.207   5.381   1.650
  527TIP3    H1 1524   3.197   5.298   1.696
  527TIP3    H2 1525   3.283   5.423   1.692
  528TIP3   OH2 1526   0.705   1.327   5.561
  528TIP3    H1 1527   0.631   1.307   5.617
  528TIP3    H2 1528   0.725   1.245   5.517
  529TIP3   OH2 1529   5.932   1.850   2.656
  529TIP3    H1 1530   6.018   1.871   2.620
  529TIP3    H2 1531   5.951   1.802   2.737
  530TIP3   OH2 1532   1.928   0.823   5.054
  530TIP3    H1 1533   1.920   0.792   5.144
  530TIP3    H2 1534   2.020   0.810   5.032
  531TIP3   OH2 1535   2.827   2.702   1.099
  531TIP3    H1 1536   2.852   2.610   1.084
  531TIP3    H2 1537   2.738   2.696   1.136
  532TIP3   OH2 1538   5.109   5.303   3.756
  532TIP3    H1 1539   5.204   5.292   3.751
  532TIP3    H2 1540   5.075   5.213   3.759
  533TIP3   OH2 1541   1.077   4.485   2.658
  533TIP3    H1 1542   1.084   4.393   2.683
  533TIP3    H2 1543   0.987   4.509   2.680
  534TIP3   OH2 1544   2.020   2.095   5.027
  534TIP3    H1 1545   2.097   2.149   5.047
  534TIP3    H2 1546   1.989   2.129   4.943
  535TIP3   OH2 1547   2.515   2.329   4.400
  535TIP3    H1 1548   2.500   2.344   4.306
  535TIP3    H2 1549   2.598   2.372   4.418
  536TIP3   OH2 1550   6.032   0.335   5.802
  536TIP3    H1 1551   6.016   0.392   5.727
  536TIP3    H2 1552   6.014   0.247   5.770
  537TIP3   OH2 1553   6.449   3.771   2.029
  537TIP3    H1 1554   6.424   3.854   1.990
  537TIP3    H2 1555   6.449   3.709   1.955
  538TIP3   OH2 1556   1.171   1.405   1.672
  538TIP3    H1 1557   1.226   1.475   1.638
  538TIP3    H2 1558   1.104   1.391   1.605
  539TIP3   OH2 1559   1.937   2.684   4.096
  539TIP3    H1 1560   1.968   2.769   4.066
  539TIP3    H2 1561   2.014   2.641   4.132
  540TIP3   OH2 1562   2.658   6.898   4.536
  540TIP3    H1 1563   2.680   6.896   4.629
  540TIP3    H2 1564   2.570   6.936   4.533
  541TIP3   OH2 1565   0.342   7.448   5.617
  541TIP3    H1 1566   0.403   7.375   5.605
  541TIP3    H2 1567   0.312   7.470   5.529
  542TIP3   OH2 1568   2.361   4.084   6.439
  542TIP3    H1 1569   2.341   4.009   6.383
  542TIP3    H2 1570   2.450   4.068   6.470
  543TIP3   OH2 1571   2.610   1.088   6.456
  543TIP3    H1 1572   2.689   1.087   6.402
  543TIP3    H2 1573   2.557   1.015   6.423
  544TIP3   OH2 1574   3.326   0.955   2.942
  544TIP3    H1 1575   3.388   0.902   2.891
  544TIP3    H2 1576   3.365   1.042   2.946
  545TIP3   OH2 1577   0.706   0.100   3.236
  545TIP3    H1 1578   0.650   0.030   3.202
  545TIP3    H2 1579   0.732   0.149   3.158
  546TIP3   OH2 1580   8.143   0.588   2.963
  546TIP3    H1 1581   8.218   0.533   2.986
  546TIP3    H2 1582   8.073   0.527   2.942
  547TIP3   OH2 1583   4.447   4.601   5.899
  547TIP3    H1 1584   4.511   4.572   5.835
  547TIP3    H2 1585   4.372   4.630   5.847
  548TIP3   OH2 1586   0.785   3.837   0.461
  548TIP3    H1 1587   0.803   3.930   0.446
  548TIP3    H2 1588   0.717   3.836   0.528
  549TIP3   OH2 1589   5.349   2.855   3.237
  549TIP3    H1 1590   5.430   2.817   3.270
  549TIP3    H2 1591   5.354   2.843   3.142
  550TIP3   OH2 1592   7.181   4.110   5.163
  550TIP3    H1 1593   7.246   4.177   5.141
  550TIP3    H2 1594   7.112   4.122   5.098
  551TIP3   OH2 1595   0.528   4.604   2.542
  551TIP3    H1 1596   0.600   4.615   2.479
  551TIP3    H2 1597   0.487   4.690   2.548
  552TIP3   OH2 1598   3.570   3.296   1.560
  552TIP3    H1 1599   3.656   3.255   1.559
  552TIP3    H2 1600   3.543   3.298   1.468
  553TIP3   OH2 1601   2.519   0.568   3.050
  553TIP3    H1 1602   2.603   0.611   3.067
  553TIP3    H2 1603   2.526   0.537   2.960
  554TIP3   OH2 1604   1.131   4.665   6.396
  554TIP3    H1 1605   1.218   4.697   6.373
  554TIP3    H2 1606   1.079   4.677   6.316
  555TIP3   OH2 1607   6.237   4.481   5.009
  555TIP3    H1 1608   6.152   4.451   4.975
  555TIP3    H2 1609   6.252   4.426   5.086
  556TIP3   OH2 1610   6.350   0.736   0.133
  556TIP3    H1 1611   6.334   0.830   0.119
  556TIP3    H2 1612   6.436   0.721   0.094
  557TIP3   OH2 1613   7.712   3.460   0.203
  557TIP3    H1 1614   7.708   3.408   0.123
  557TIP3    H2 1615   7.620   3.473   0.228
  558TIP3   OH2 1616   7.182   6.737   4.007
  558TIP3    H1 1617   7.258   6.783   3.971
  558TIP3    H2 1618   7.206   6.644   4.001
  559TIP3   OH2 1619   4.538   1.171   0.797
  559TIP3    H1 1620   4.471   1.113   0.760
  559TIP3    H2 1621   4.561   1.131   0.880
  560TIP3   OH2 1622   7.570   0.168   1.221
  560TIP3    H1 1623   7.524   0.109   1.162
  560TIP3    H2 1624   7.508   0.240   1.236
  561TIP3   OH2 1625   8.123   1.856   2.168
  561TIP3    H1 1626   8.048   1.840   2.110
  561TIP3    H2 1627   8.087   1.911   2.238
  562TIP3   OH2 1628   5.852   0.188   2.542
  562TIP3    H1 1629   5.933   0.140   2.558
  562TIP3    H2 1630   5.782   0.126   2.563
  563TIP3   OH2 1631   0.771   4.495   6.576
  563TIP3    H1 1632   0.857   4.510   6.616
  563TIP3    H2 1633   0.720   4.573   6.599
  564TIP3   OH2 1634   4.333   5.000   4.443
  564TIP3    H1 1635   4.243   5.015   4.472
  564TIP3    H2 1636   4.325   4.973   4.352
  565TIP3   OH2 1637   6.815   3.071   4.974
  565TIP3    H1 1638   6.834   3.095   4.884
  565TIP3    H2 1639   6.803   3.155   5.019
  566TIP3   OH2 1640   7.757   3.971   4.091
  566TIP3    H1 1641   7.851   3.992   4.088
  566TIP3    H2 1642   7.744   3.912   4.016
  567TIP3   OH2 1643   1.225   1.916   0.147
  567TIP3    H1 1644   1.163   1.936   0.218
  567TIP3    H2 1645   1.188   1.839   0.104
  568TIP3   OH2 1646   7.109   4.117   3.600
  568TIP3    H1 1647   7.059   4.165   3.534
  568TIP3    H2 1648   7.197   4.154   3.595
  569TIP3   OH2 1649   2.635   4.098   6.541
  569TIP3    H1 1650   2.666   4.070   6.455
  569TIP3    H2 1651   2.637   4.193   6.538
  570TIP3   OH2 1652   1.780   2.895   6.229
  570TIP3    H1 1653   1.814   2.948   6.301
  570TIP3    H2 1654   1.858   2.864   6.183
  571TIP3   OH2 1655   6.299   1.441   0.893
  571TIP3    H1 1656   6.286   1.504   0.963
  571TIP3    H2 1657   6.353   1.487   0.828
  572TIP3   OH2 1658   5.429   0.907   0.053
  572TIP3    H1 1659   5.476   0.830   0.023
  572TIP3    H2 1660   5.496   0.964   0.090
  573TIP3   OH2 1661   3.476   3.034   4.914
  573TIP3    H1 1662   3.558   3.081   4.927
  573TIP3    H2 1663   3.467   2.979   4.992
  574TIP3   OH2 1664   6.624   2.954   3.144
  574TIP3    H1 1665   6.575   2.934   3.224
  574TIP3    H2 1666   6.590   2.892   3.080
  575TIP3   OH2 1667   3.064   2.949   6.125
  575TIP3    H1 1668   3.023   3.024   6.081
  575TIP3    H2 1669   3.035   2.957   6.216
  576TIP3   OH2 1670   1.493   4.196   5.982
  576TIP3    H1 1671   1.493   4.173   6.075
  576TIP3    H2 1672   1.544   4.127   5.940
  577TIP3   OH2 1673   5.084   1.846   2.883
  577TIP3    H1 1674   5.176   1.834   2.905
  577TIP3    H2 1675   5.041   1.766   2.914
  578TIP3   OH2 1676   1.436   2.022   3.321
  578TIP3    H1 1677   1.525   2.044   3.347
  578TIP3    H2 1678   1.441   2.010   3.226
  579TIP3   OH2 1679   5.096   4.340   1.711
  579TIP3    H1 1680   5.081   4.433   1.695
  579TIP3    H2 1681   5.190   4.334   1.727
  580TIP3   OH2 1682   3.285   6.628   2.729
  580TIP3    H1 1683   3.368   6.634   2.777
  580TIP3    H2 1684   3.270   6.534   2.720
  581TIP3   OH2 1685   5.780   2.112   0.858
  581TIP3    H1 1686   5.710   2.060   0.898
  581TIP3    H2 1687   5.736   2.190   0.825
  582TIP3   OH2 1688   5.865   3.936   3.299
  582TIP3    H1 1689   5.829   3.872   3.238
  582TIP3    H2 1690   5.868   3.890   3.383
  583TIP3   OH2 1691   8.003   3.318   0.113
  583TIP3    H1 1692   8.081   3.368   0.092
  583TIP3    H2 1693   7.960   3.368   0.183
  584TIP3   OH2 1694   3.426   4.906   4.325
  584TIP3    H1 1695   3.493   4.966   4.293
  584TIP3    H2 1696   3.348   4.960   4.336
  585TIP3   OH2 1697   7.293   5.844   2.204
  585TIP3    H1 1698   7.285   5.859   2.110
  585TIP3    H2 1699   7.208   5.808   2.229
  586TIP3   OH2 1700   5.270   7.319   0.296
  586TIP3    H1 1701   5.258   7.412   0.277
  586TIP3    H2 1702   5.365   7.306   0.293
  587TIP3   OH2 1703   0.739   7.795   2.284
  587TIP3    H1 1704   0.788   7.798   2.201
  587TIP3    H2 1705   0.801   7.824   2.350
  588TIP3   OH2 1706   4.133   4.272   0.544
  588TIP3    H1 1707   4.182   4.292   0.624
  588TIP3    H2 1708   4.113   4.357   0.506
  589TIP3   OH2 1709   6.123   3.215   2.191
  589TIP3    H1 1710   6.080   3.220   2.277
  589TIP3    H2 1711   6.156   3.303   2.176
  590TIP3   OH2 1712   0.405   6.278   5.197
  590TIP3    H1 1713   0.411   6.252   5.106
  590TIP3    H2 1714   0.320   6.323   5.204
  591TIP3   OH2 1715   3.580   5.860   1.792
  591TIP3    H1 1716   3.653   5.919   1.775
  591TIP3    H2 1717   3.506   5.919   1.811
  592TIP3   OH2 1718   7.730   1.846   4.659
  592TIP3    H1 1719   7.706   1.808   4.574
  592TIP3    H2 1720   7.713   1.776   4.722
  593TIP3   OH2 1721   5.773   4.993   4.347
  593TIP3    H1 1722   5.727   5.073   4.373
  593TIP3    H2 1723   5.769   4.937   4.424
  594TIP3   OH2 1724   3.698   5.747   5.795
  594TIP3    H1 1725   3.750   5.823   5.769
  594TIP3    H2 1726   3.751   5.701   5.859
  595TIP3   OH2 1727   0.710   6.171   0.387
  595TIP3    H1 1728   0.778   6.109   0.413
  595TIP3    H2 1729   0.633   6.144   0.437
  596TIP3   OH2 1730   0.090   3.137   0.147
  596TIP3    H1 1731   0.144   3.157   0.224
  596TIP3    H2 1732   0.153   3.134   0.075
  597TIP3   OH2 1733   7.215   0.275   3.733
  597TIP3    H1 1734   7.183   0.196   3.689
  597TIP3    H2 1735   7.143   0.337   3.726
  598TIP3   OH2 1736   5.336   2.120   0.468
  598TIP3    H1 1737   5.426   2.124   0.436
  598TIP3    H2 1738   5.282   2.137   0.391
  599TIP3   OH2 1739   2.815   0.220   2.738
  599TIP3    H1 1740   2.822   0.185   2.827
  599TIP3    H2 1741   2.891   0.185   2.692
  600TIP3   OH2 1742   5.276   5.800   4.683
  600TIP3    H1 1743   5.208   5.749   4.727
  600TIP3    H2 1744   5.240   5.889   4.678
  601TIP3   OH2 1745   5.658   5.429   4.808
  601TIP3    H1 1746   5.681   5.522   4.803
  601TIP3    H2 1747   5.563   5.429   4.825
  602TIP3   OH2 1748   1.886   7.567   2.902
  602TIP3    H1 1749   1.838   7.484   2.899
  602TIP3    H2 1750   1.959   7.550   2.962
  603TIP3   OH2 1751   2.253   6.430   5.002
  603TIP3    H1 1752   2.319   6.410   4.935
  603TIP3    H2 1753   2.216   6.345   5.026
  604TIP3   OH2 1754   2.407   6.587   4.016
  604TIP3    H1 1755   2.370   6.660   4.065
  604TIP3    H2 1756   2.340   6.519   4.019
  605TIP3   OH2 1757   0.192   2.127   3.457
  605TIP3    H1 1758   0.144   2.190   3.511
  605TIP3    H2 1759   0.283   2.157   3.461
  606TIP3   OH2 1760   7.861   5.454   4.232
  606TIP3    H1 1761   7.778   5.472   4.188
  606TIP3    H2 1762   7.881   5.363   4.208
  607TIP3   OH2 1763   1.707   7.736   4.524
  607TIP3    H1 1764   1.647   7.661   4.516
  607TIP3    H2 1765   1.737   7.732   4.615
  608TIP3   OH2 1766   4.013   5.353   0.287
  608TIP3    H1 1767   3.985   5.358   0.379
  608TIP3    H2 1768   4.107   5.367   0.289
  609TIP3   OH2 1769   6.343   1.410   5.002
  609TIP3    H1 1770   6.397   1.350   4.950
  609TIP3    H2 1771   6.358   1.496   4.963
  610TIP3   OH2 1772   7.764   5.057   6.748
  610TIP3    H1 1773   7.856   5.064   6.775
  610TIP3    H2 1774   7.722   5.132   6.790
  611TIP3   OH2 1775   5.314   6.395   5.595
  611TIP3    H1 1776   5.375   6.397   5.669
  611TIP3    H2 1777   5.275   6.482   5.594
  612TIP3   OH2 1778   3.359   3.379   0.754
  612TIP3    H1 1779   3.324   3.290   0.764
  612TIP3    H2 1780   3.414   3.374   0.676
  613TIP3   OH2 1781   0.359   5.270   6.713
  613TIP3    H1 1782   0.352   5.179   6.741
  613TIP3    H2 1783   0.411   5.267   6.633
  614TIP3   OH2 1784   3.531   6.757   6.745
  614TIP3    H1 1785   3.520   6.852   6.736
  614TIP3    H2 1786   3.474   6.720   6.677
  615TIP3   OH2 1787   8.301   2.113   1.689
  615TIP3    H1 1788   8.384   2.106   1.735
  615TIP3    H2 1789   8.236   2.122   1.759
  616TIP3   OH2 1790   6.038   6.122   3.974
  616TIP3    H1 1791   6.017   6.212   3.997
  616TIP3    H2 1792   5.955   6.074   3.986
  617TIP3   OH2 1793   7.414   7.336   1.194
  617TIP3    H1 1794   7.436   7.399   1.263
  617TIP3    H2 1795   7.318   7.340   1.187
  618TIP3   OH2 1796   6.382   3.380   6.701
  618TIP3    H1 1797   6.475   3.400   6.706
  618TIP3    H2 1798   6.378   3.288   6.675
  619TIP3   OH2 1799   0.402   6.072   1.819
  619TIP3    H1 1800   0.308   6.057   1.825
  619TIP3    H2 1801   0.422   6.059   1.726
  620TIP3   OH2 1802   0.102   1.118   4.582
  620TIP3    H1 1803   0.184   1.166   4.572
  620TIP3    H2 1804   0.054   1.168   4.648
  621TIP3   OH2 1805   1.011   3.450   5.032
  621TIP3    H1 1806   1.046   3.448   4.942
  621TIP3    H2 1807   1.063   3.517   5.076
  622TIP3   OH2 1808   1.449   5.049   2.568
  622TIP3    H1 1809   1.488   5.134   2.587
  622TIP3    H2 1810   1.385   5.067   2.499
  623TIP3   OH2 1811   7.932   0.519   2.219
  623TIP3    H1 1812   7.923   0.611   2.244
  623TIP3    H2 1813   7.912   0.518   2.125
  624TIP3   OH2 1814   2.966   6.252   6.345
  624TIP3    H1 1815   2.893   6.211   6.299
  624TIP3    H2 1816   3.044   6.208   6.310
  625TIP3   OH2 1817   7.338   3.181   5.967
  625TIP3    H1 1818   7.398   3.240   5.922
  625TIP3    H2 1819   7.251   3.215   5.946
  626TIP3   OH2 1820   3.372   0.923   6.343
  626TIP3    H1 1821   3.420   1.006   6.342
  626TIP3    H2 1822   3.373   0.895   6.434
  627TIP3   OH2 1823   0.019   5.377   1.746
  627TIP3    H1 1824   0.040   5.371   1.839
  627TIP3    H2 1825  -0.044   5.307   1.731
  628TIP3   OH2 1826   3.776   4.300   0.384
  628TIP3    H1 1827   3.825   4.286   0.303
  628TIP3    H2 1828   3.816   4.241   0.447
  629TIP3   OH2 1829   1.998   1.977   2.542
  629TIP3    H1 1830   1.922   2.031   2.519
  629TIP3    H2 1831   2.019   1.929   2.461
  630TIP3   OH2 1832   5.500   0.360   2.202
  630TIP3    H1 1833   5.504   0.267   2.178
  630TIP3    H2 1834   5.555   0.367   2.280
  631TIP3   OH2 1835   3.880   6.672   1.219
  631TIP3    H1 1836   3.796   6.671   1.174
  631TIP3    H2 1837   3.945   6.662   1.149
  632TIP3   OH2 1838   1.771   3.769   0.127
  632TIP3    H1 1839   1.692   3.754   0.075
  632TIP3    H2 1840   1.819   3.686   0.122
  633TIP3   OH2 1841   6.086   6.659   0.446
  633TIP3    H1 1842   5.993   6.669   0.467
  633TIP3    H2 1843   6.131   6.721   0.504
  634TIP3   OH2 1844   3.561   6.191   3.997
  634TIP3    H1 1845   3.592   6.139   3.923
  634TIP3    H2 1846   3.579   6.282   3.973
  635TIP3   OH2 1847   1.121   6.744   3.554
  635TIP3    H1 1848   1.132   6.650   3.540
  635TIP3    H2 1849   1.210   6.778   3.562
  636TIP3   OH2 1850   1.119   3.208   5.892
  636TIP3    H1 1851   1.191   3.172   5.944
  636TIP3    H2 1852   1.076   3.270   5.950
  637TIP3   OH2 1853   6.353   5.728   3.083
  637TIP3    H1 1854   6.433   5.780   3.078
  637TIP3    H2 1855   6.330   5.728   3.176
  638TIP3   OH2 1856   1.791   6.238   0.643
  638TIP3    H1 1857   1.730   6.257   0.714
  638TIP3    H2 1858   1.796   6.142   0.641
  639TIP3   OH2 1859   1.645   2.245   2.389
  639TIP3    H1 1860   1.685   2.170   2.432
  639TIP3    H2 1861   1.716   2.308   2.380
  640TIP3   OH2 1862   1.550   6.804   5.578
  640TIP3    H1 1863   1.599   6.872   5.624
  640TIP3    H2 1864   1.561   6.725   5.632
  641TIP3   OH2 1865   0.775   5.660   5.127
  641TIP3    H1 1866   0.869   5.668   5.113
  641TIP3    H2 1867   0.745   5.750   5.138
  642TIP3   OH2 1868   0.693   0.399   6.217
  642TIP3    H1 1869   0.619   0.451   6.186
  642TIP3    H2 1870   0.718   0.440   6.300
  643TIP3   OH2 1871   4.050   6.139   1.985
  643TIP3    H1 1872   4.075   6.063   1.932
  643TIP3    H2 1873   4.042   6.104   2.074
  644TIP3   OH2 1874   0.429   2.074   0.704
  644TIP3    H1 1875   0.467   1.996   0.746
  644TIP3    H2 1876   0.408   2.046   0.616
  645TIP3   OH2 1877   5.623   1.324   3.636
  645TIP3    H1 1878   5.685   1.251   3.636
  645TIP3    H2 1879   5.559   1.300   3.703
  646TIP3   OH2 1880   0.188   2.172   1.862
  646TIP3    H1 1881   0.202   2.256   1.908
  646TIP3    H2 1882   0.178   2.108   1.932
  647TIP3   OH2 1883   5.866   5.085   1.749
  647TIP3    H1 1884   5.861   5.123   1.662
  647TIP3    H2 1885   5.899   4.996   1.735
  648TIP3   OH2 1886   4.420   1.610   4.075
  648TIP3    H1 1887   4.469   1.671   4.020
  648TIP3    H2 1888   4.413   1.531   4.022
  649TIP3   OH2 1889   6.279   5.148   3.281
  649TIP3    H1 1890   6.364   5.137   3.238
  649TIP3    H2 1891   6.280   5.237   3.316
  650TIP3   OH2 1892   2.193   1.845   1.465
  650TIP3    H1 1893   2.272   1.873   1.418
  650TIP3    H2 1894   2.178   1.756   1.435
  651TIP3   OH2 1895   6.644   3.287   4.619
  651TIP3    H1 1896   6.649   3.335   4.536
  651TIP3    H2 1897   6.657   3.353   4.686
  652TIP3   OH2 1898   3.887   5.356   0.545
  652TIP3    H1 1899   3.937   5.320   0.619
  652TIP3    H2 1900   3.796   5.333   0.563
  653TIP3   OH2 1901   0.758   2.677   3.902
  653TIP3    H1 1902   0.808   2.684   3.820
  653TIP3    H2 1903   0.824   2.659   3.969
  654TIP3   OH2 1904   3.303   1.270   1.318
  654TIP3    H1 1905   3.231   1.332   1.330
  654TIP3    H2 1906   3.338   1.256   1.406
  655TIP3   OH2 1907   7.347   1.119   1.975
  655TIP3    H1 1908   7.407   1.190   1.953
  655TIP3    H2 1909   7.269   1.136   1.922
  656TIP3   OH2 1910   0.209   3.509   0.695
  656TIP3    H1 1911   0.218   3.570   0.768
  656TIP3    H2 1912   0.205   3.565   0.617
  657TIP3   OH2 1913   5.331   5.013   4.842
  657TIP3    H1 1914   5.361   4.926   4.869
  657TIP3    H2 1915   5.297   5.053   4.922
  658TIP3   OH2 1916   5.139   6.737   4.718
  658TIP3    H1 1917   5.182   6.822   4.708
  658TIP3    H2 1918   5.055   6.758   4.760
  659TIP3   OH2 1919   5.631   2.340   6.731
  659TIP3    H1 1920   5.581   2.370   6.808
  659TIP3    H2 1921   5.564   2.321   6.665
  660TIP3   OH2 1922   5.392   6.749   5.303
  660TIP3    H1 1923   5.400   6.844   5.310
  660TIP3    H2 1924   5.304   6.730   5.336
  661TIP3   OH2 1925   5.518   3.803   3.574
  661TIP3    H1 1926   5.539   3.710   3.567
  661TIP3    H2 1927   5.435   3.812   3.528
  662TIP3   OH2 1928   3.991   5.175   5.866
  662TIP3    H1 1929   4.032   5.260   5.848
  662TIP3    H2 1930   3.949   5.151   5.784
  663TIP3   OH2 1931   1.860   7.185   0.451
  663TIP3    H1 1932   1.882   7.202   0.359
  663TIP3    H2 1933   1.938   7.212   0.499
  664TIP3   OH2 1934   4.795   3.270   1.625
  664TIP3    H1 1935   4.796   3.332   1.698
  664TIP3    H2 1936   4.732   3.203   1.651
  665TIP3   OH2 1937   4.613   1.467   1.139
  665TIP3    H1 1938   4.700   1.462   1.098
  665TIP3    H2 1939   4.553   1.442   1.069
  666TIP3   OH2 1940   1.888   6.220   3.953
  666TIP3    H1 1941   1.807   6.246   3.909
  666TIP3    H2 1942   1.864   6.207   4.045
  667TIP3   OH2 1943   1.566   3.011   0.941
  667TIP3    H1 1944   1.501   3.060   0.992
  667TIP3    H2 1945   1.529   2.923   0.934
  668TIP3   OH2 1946   4.135   7.689   6.067
  668TIP3    H1 1947   4.195   7.680   6.141
  668TIP3    H2 1948   4.192   7.701   5.991
  669TIP3   OH2 1949   7.170   4.274   1.515
  669TIP3    H1 1950   7.145   4.345   1.455
  669TIP3    H2 1951   7.242   4.310   1.567
  670TIP3   OH2 1952   3.854   1.826   4.043
  670TIP3    H1 1953   3.805   1.903   4.070
  670TIP3    H2 1954   3.800   1.752   4.070
  671TIP3   OH2 1955   4.027   7.632   2.755
  671TIP3    H1 1956   4.041   7.686   2.833
  671TIP3    H2 1957   4.111   7.633   2.709
  672TIP3   OH2 1958   4.154   0.152   3.582
  672TIP3    H1 1959   4.185   0.222   3.640
  672TIP3    H2 1960   4.171   0.072   3.630
  673TIP3   OH2 1961   6.001   5.820   6.366
  673TIP3    H1 1962   5.976   5.880   6.295
  673TIP3    H2 1963   5.926   5.761   6.375
  674TIP3   OH2 1964   4.355   0.907   5.216
  674TIP3    H1 1965   4.346   0.975   5.282
  674TIP3    H2 1966   4.450   0.894   5.208
  675TIP3   OH2 1967   6.843   3.107   2.203
  675TIP3    H1 1968   6.889   3.154   2.273
  675TIP3    H2 1969   6.806   3.030   2.246
  676TIP3   OH2 1970   2.424   6.916   3.625
  676TIP3    H1 1971   2.411   6.839   3.570
  676TIP3    H2 1972   2.517   6.935   3.620
  677TIP3   OH2 1973   2.294   3.187   0.505
  677TIP3    H1 1974   2.389   3.177   0.493
  677TIP3    H2 1975   2.286   3.252   0.574
  678TIP3   OH2 1976   5.277   7.253   1.130
  678TIP3    H1 1977   5.265   7.294   1.044
  678TIP3    H2 1978   5.214   7.181   1.131
  679TIP3   OH2 1979   2.044   2.490   2.817
  679TIP3    H1 1980   2.100   2.495   2.739
  679TIP3    H2 1981   2.095   2.438   2.879
  680TIP3   OH2 1982   0.114   4.535   5.054
  680TIP3    H1 1983   0.050   4.543   5.124
  680TIP3    H2 1984   0.184   4.482   5.091
  681TIP3   OH2 1985   2.214   4.162   4.081
  681TIP3    H1 1986   2.156   4.188   4.009
  681TIP3    H2 1987   2.229   4.242   4.130
  682TIP3   OH2 1988   6.832   0.330   6.174
  682TIP3    H1 1989   6.863   0.253   6.127
  682TIP3    H2 1990   6.863   0.404   6.122
  683TIP3   OH2 1991   5.561   3.043   2.843
  683TIP3    H1 1992   5.642   3.039   2.893
  683TIP3    H2 1993   5.493   3.056   2.909
  684TIP3   OH2 1994   2.315   7.551   5.268
  684TIP3    H1 1995   2.360   7.585   5.191
  684TIP3    H2 1996   2.380   7.496   5.312
  685TIP3   OH2 1997   2.957   2.883   3.882
  685TIP3    H1 1998   2.986   2.829   3.956
  685TIP3    H2 1999   2.915   2.959   3.922
  686TIP3   OH2 2000   1.328   5.230   4.683
  686TIP3    H1 2001   1.266   5.159   4.668
  686TIP3    H2 2002   1.306   5.264   4.769
  687TIP3   OH2 2003   0.281   2.255   6.525
  687TIP3    H1 2004   0.296   2.278   6.617
  687TIP3    H2 2005   0.362   2.280   6.480
  688TIP3   OH2 2006   5.485   1.810   5.228
  688TIP3    H1 2007   5.395   1.840   5.228
  688TIP3    H2 2008   5.481   1.721   5.193
  689TIP3   OH2 2009   8.208   6.707   0.603
  689TIP3    H1 2010   8.300   6.681   0.596
  689TIP3    H2 2011   8.206   6.798   0.572
  690TIP3   OH2 2012   4.728   0.466   0.184
  690TIP3    H1 2013   4.802   0.515   0.219
  690TIP3    H2 2014   4.685   0.428   0.260
  691TIP3   OH2 2015   2.205   3.486   2.506
  691TIP3    H1 2016   2.112   3.463   2.517
  691TIP3    H2 2017   2.211   3.516   2.415
  692TIP3   OH2 2018   0.099   2.016   4.920
  692TIP3    H1 2019   0.093   1.922   4.936
  692TIP3    H2 2020   0.009   2.048   4.927
  693TIP3   OH2 2021   2.172   5.791   1.178
  693TIP3    H1 2022   2.164   5.707   1.224
  693TIP3    H2 2023   2.165   5.857   1.246
  694TIP3   OH2 2024   3.795   0.721   3.826
  694TIP3    H1 2025   3.713   0.768   3.811
  694TIP3    H2 2026   3.860   0.789   3.844
  695TIP3   OH2 2027   0.315   3.116   5.144
  695TIP3    H1 2028   0.362   3.199   5.159
  695TIP3    H2 2029   0.242   3.141   5.088
  696TIP3   OH2 2030   6.113   6.119   6.421
  696TIP3    H1 2031   6.060   6.067   6.360
  696TIP3    H2 2032   6.143   6.194   6.369
  697TIP3   OH2 2033   5.839   4.174   5.906
  697TIP3    H1 2034   5.776   4.231   5.861
  697TIP3    H2 2035   5.847   4.098   5.849
  698TIP3   OH2 2036   6.729   7.296   5.103
  698TIP3    H1 2037   6.726   7.243   5.023
  698TIP3    H2 2038   6.819   7.288   5.134
  699TIP3   OH2 2039   5.665   1.046   0.156
  699TIP3    H1 2040   5.738   1.047   0.095
  699TIP3    H2 2041   5.702   1.014   0.238
  700TIP3   OH2 2042   0.650   4.728   6.644
  700TIP3    H1 2043   0.729   4.782   6.655
  700TIP3    H2 2044   0.589   4.785   6.597
  701TIP3   OH2 2045   3.318   5.860   2.360
  701TIP3    H1 2046   3.286   5.863   2.270
  701TIP3    H2 2047   3.402   5.815   2.355
  702TIP3   OH2 2048   3.528   4.841   4.601
  702TIP3    H1 2049   3.525   4.881   4.514
  702TIP3    H2 2050   3.517   4.747   4.585
  703TIP3   OH2 2051   2.494   2.794   2.437
  703TIP3    H1 2052   2.435   2.854   2.391
  703TIP3    H2 2053   2.485   2.711   2.391
  704TIP3   OH2 2054   0.754   0.651   3.187
  704TIP3    H1 2055   0.704   0.630   3.108
  704TIP3    H2 2056   0.701   0.715   3.233
  705TIP3   OH2 2057   0.850   1.109   3.289
  705TIP3    H1 2058   0.870   1.174   3.222
  705TIP3    H2 2059   0.881   1.026   3.253
  706TIP3   OH2 2060   4.893   0.462   6.319
  706TIP3    H1 2061   4.948   0.384   6.308
  706TIP3    H2 2062   4.939   0.530   6.270
  707TIP3   OH2 2063   5.374   1.018   3.660
  707TIP3    H1 2064   5.336   1.052   3.741
  707TIP3    H2 2065   5.465   0.999   3.681
  708TIP3   OH2 2066   0.967   5.249   2.748
  708TIP3    H1 2067   1.029   5.224   2.816
  708TIP3    H2 2068   1.002   5.330   2.712
  709TIP3   OH2 2069   2.786   2.049   2.718
  709TIP3    H1 2070   2.808   2.104   2.643
  709TIP3    H2 2071   2.698   2.015   2.698
  710TIP3   OH2 2072   3.334   2.597   2.193
  710TIP3    H1 2073   3.303   2.593   2.103
  710TIP3    H2 2074   3.293   2.522   2.237
  711TIP3   OH2 2075   3.529   2.380   1.991
  711TIP3    H1 2076   3.607   2.431   1.972
  711TIP3    H2 2077   3.562   2.294   2.018
  712TIP3   OH2 2078   6.116   0.058   3.378
  712TIP3    H1 2079   6.203   0.074   3.340
  712TIP3    H2 2080   6.067   0.013   3.308
  713TIP3   OH2 2081   4.916   4.586   0.582
  713TIP3    H1 2082   4.913   4.552   0.671
  713TIP3    H2 2083   5.007   4.576   0.555
  714TIP3   OH2 2084   7.961   6.754   0.204
  714TIP3    H1 2085   8.024   6.752   0.276
  714TIP3    H2 2086   7.964   6.666   0.166
  715TIP3   OH2 2087   5.608   6.995   0.477
  715TIP3    H1 2088   5.526   6.955   0.504
  715TIP3    H2 2089   5.618   6.970   0.385
  716TIP3   OH2 2090   6.169   4.245   6.753
  716TIP3    H1 2091   6.128   4.294   6.682
  716TIP3    H2 2092   6.121   4.162   6.756
  717TIP3   OH2 2093   0.596   1.502   1.758
  717TIP3    H1 2094   0.624   1.537   1.843
  717TIP3    H2 2095   0.522   1.557   1.733
  718TIP3   OH2 2096   3.788   1.513   6.748
  718TIP3    H1 2097   3.873   1.475   6.726
  718TIP3    H2 2098   3.733   1.496   6.671
  719TIP3   OH2 2099   5.174   3.620   6.044
  719TIP3    H1 2100   5.100   3.585   6.093
  719TIP3    H2 2101   5.225   3.543   6.018
  720TIP3   OH2 2102   2.371   0.910   1.193
  720TIP3    H1 2103   2.339   0.953   1.113
  720TIP3    H2 2104   2.378   0.818   1.168
  721TIP3   OH2 2105   6.550   6.809   5.561
  721TIP3    H1 2106   6.564   6.835   5.470
  721TIP3    H2 2107   6.519   6.719   5.556
  722TIP3   OH2 2108   0.131   6.569   5.855
  722TIP3    H1 2109   0.152   6.490   5.905
  722TIP3    H2 2110   0.193   6.635   5.888
  723TIP3   OH2 2111   6.987   4.820   5.793
  723TIP3    H1 2112   6.947   4.830   5.879
  723TIP3    H2 2113   6.920   4.779   5.739
  724TIP3   OH2 2114   0.906   5.988   4.621
  724TIP3    H1 2115   0.851   6.067   4.613
  724TIP3    H2 2116   0.852   5.926   4.670
  725TIP3   OH2 2117   6.619   4.905   6.238
  725TIP3    H1 2118   6.698   4.874   6.282
  725TIP3    H2 2119   6.549   4.849   6.272
  726TIP3   OH2 2120   7.531   7.178   4.071
  726TIP3    H1 2121   7.581   7.132   4.004
  726TIP3    H2 2122   7.562   7.268   4.068
  727TIP3   OH2 2123   6.089   0.909   0.587
  727TIP3    H1 2124   6.120   0.829   0.545
  727TIP3    H2 2125   6.102   0.893   0.681
  728TIP3   OH2 2126   6.836   7.690   0.630
  728TIP3    H1 2127   6.801   7.639   0.557
  728TIP3    H2 2128   6.841   7.780   0.596
  729TIP3   OH2 2129   4.763   2.522   4.882
  729TIP3    H1 2130   4.746   2.519   4.788
  729TIP3    H2 2131   4.858   2.529   4.888
  730TIP3   OH2 2132   6.982   6.518   0.726
  730TIP3    H1 2133   6.921   6.506   0.653
  730TIP3    H2 2134   6.927   6.549   0.798
  731TIP3   OH2 2135   6.400   2.136   5.175
  731TIP3    H1 2136   6.419   2.066   5.238
  731TIP3    H2 2137   6.324   2.104   5.127
  732TIP3   OH2 2138   3.453   3.472   3.577
  732TIP3    H1 2139   3.408   3.556   3.566
  732TIP3    H2 2140   3.521   3.490   3.641
  733TIP3   OH2 2141   6.904   2.085   2.813
  733TIP3    H1 2142   6.882   1.997   2.845
  733TIP3    H2 2143   6.821   2.119   2.779
  734TIP3   OH2 2144   0.033   5.181   3.941
  734TIP3    H1 2145  -0.043   5.193   3.884
  734TIP3    H2 2146   0.098   5.137   3.886
  735TIP3   OH2 2147   2.674   1.160   2.249
  735TIP3    H1 2148   2.728   1.096   2.204
  735TIP3    H2 2149   2.588   1.118   2.258
  736TIP3   OH2 2150   7.106   4.685   3.318
  736TIP3    H1 2151   7.196   4.716   3.308
  736TIP3    H2 2152   7.054   4.763   3.334
  737TIP3   OH2 2153   4.193   0.029   0.187
  737TIP3    H1 2154   4.129  -0.021   0.238
  737TIP3    H2 2155   4.274   0.021   0.236
  738TIP3   OH2 2156   1.154   3.711   2.688
  738TIP3    H1 2157   1.157   3.793   2.639
  738TIP3    H2 2158   1.208   3.727   2.765
  739TIP3   OH2 2159   1.559   0.709   0.998
  739TIP3    H1 2160   1.596   0.696   0.911
  739TIP3    H2 2161   1.608   0.649   1.054
  740TIP3   OH2 2162   3.960   4.035   4.581
  740TIP3    H1 2163   4.003   3.953   4.605
  740TIP3    H2 2164   3.874   4.007   4.547
  741TIP3   OH2 2165   3.781   3.229   3.548
  741TIP3    H1 2166   3.814   3.145   3.516
  741TIP3    H2 2167   3.687   3.225   3.531
  742TIP3   OH2 2168   3.867   1.292   6.365
  742TIP3    H1 2169   3.919   1.228   6.317
  742TIP3    H2 2170   3.921   1.370   6.368
  743TIP3   OH2 2171   1.834   0.903   3.845
  743TIP3    H1 2172   1.919   0.925   3.884
  743TIP3    H2 2173   1.773   0.912   3.918
  744TIP3   OH2 2174   4.402   0.179   2.124
  744TIP3    H1 2175   4.335   0.232   2.081
  744TIP3    H2 2176   4.460   0.152   2.053
  745TIP3   OH2 2177   5.281   5.358   4.724
  745TIP3    H1 2178   5.215   5.318   4.781
  745TIP3    H2 2179   5.267   5.318   4.639
  746TIP3   OH2 2180   0.513   7.153  -0.027
  746TIP3    H1 2181   0.557   7.071  -0.005
  746TIP3    H2 2182   0.563   7.221   0.019
  747TIP3   OH2 2183   2.006   7.600   0.803
  747TIP3    H1 2184   1.984   7.583   0.711
  747TIP3    H2 2185   1.992   7.694   0.813
  748TIP3   OH2 2186   2.090   3.188   1.710
  748TIP3    H1 2187   2.090   3.236   1.793
  748TIP3    H2 2188   2.106   3.254   1.643
  749TIP3   OH2 2189   4.571   5.684   3.022
  749TIP3    H1 2190   4.600   5.702   3.112
  749TIP3    H2 2191   4.615   5.602   2.999
  750TIP3   OH2 2192   0.908   2.606   1.436
  750TIP3    H1 2193   0.913   2.643   1.348
  750TIP3    H2 2194   0.814   2.595   1.452
  751TIP3   OH2 2195   7.022   3.215   4.295
  751TIP3    H1 2196   6.975   3.282   4.245
  751TIP3    H2 2197   7.092   3.186   4.236
  752TIP3   OH2 2198   4.203   1.200   3.926
  752TIP3    H1 2199   4.187   1.151   3.845
  752TIP3    H2 2200   4.297   1.217   3.926
  753TIP3   OH2 2201   5.211   2.542   6.121
  753TIP3    H1 2202   5.217   2.462   6.068
  753TIP3    H2 2203   5.139   2.525   6.181
  754TIP3   OH2 2204   5.063   3.782   6.438
  754TIP3    H1 2205   5.046   3.824   6.354
  754TIP3    H2 2206   5.155   3.756   6.433
  755TIP3   OH2 2207   2.908   1.779   0.938
  755TIP3    H1 2208   2.889   1.862   0.896
  755TIP3    H2 2209   2.991   1.750   0.900
  756TIP3   OH2 2210   4.190   6.421   0.152
  756TIP3    H1 2211   4.152   6.404   0.238
  756TIP3    H2 2212   4.227   6.337   0.125
  757TIP3   OH2 2213   4.975   7.091   0.797
  757TIP3    H1 2214   4.910   7.131   0.739
  757TIP3    H2 2215   5.040   7.160   0.813
  758TIP3   OH2 2216   1.351   7.374   3.658
  758TIP3    H1 2217   1.283   7.412   3.603
  758TIP3    H2 2218   1.318   7.382   3.747
  759TIP3   OH2 2219   4.403   4.723   4.711
  759TIP3    H1 2220   4.320   4.742   4.666
  759TIP3    H2 2221   4.380   4.718   4.803
  760TIP3   OH2 2222   6.827   2.361   6.384
  760TIP3    H1 2223   6.739   2.369   6.347
  760TIP3    H2 2224   6.879   2.323   6.312
  761TIP3   OH2 2225   3.415   6.913   3.529
  761TIP3    H1 2226   3.486   6.917   3.465
  761TIP3    H2 2227   3.337   6.896   3.477
  762TIP3   OH2 2228   7.824   0.994   1.858
  762TIP3    H1 2229   7.868   0.909   1.851
  762TIP3    H2 2230   7.741   0.982   1.813
  763TIP3   OH2 2231   8.324   0.395   2.036
  763TIP3    H1 2232   8.247   0.362   2.082
  763TIP3    H2 2233   8.323   0.351   1.951
  764TIP3   OH2 2234   5.597   0.103   5.137
  764TIP3    H1 2235   5.606   0.134   5.047
  764TIP3    H2 2236   5.617   0.179   5.191
  765TIP3   OH2 2237   0.570   1.877   1.593
  765TIP3    H1 2238   0.658   1.854   1.623
  765TIP3    H2 2239   0.518   1.798   1.609
  766TIP3   OH2 2240   2.609   1.016   1.959
  766TIP3    H1 2241   2.665   0.980   2.028
  766TIP3    H2 2242   2.650   1.100   1.937
  767TIP3   OH2 2243   7.850   3.039   6.555
  767TIP3    H1 2244   7.840   3.128   6.521
  767TIP3    H2 2245   7.760   3.006   6.563
  768TIP3   OH2 2246   5.781   3.492   6.620
  768TIP3    H1 2247   5.836   3.526   6.691
  768TIP3    H2 2248   5.784   3.397   6.631
  769TIP3   OH2 2249   0.327   4.761   1.389
  769TIP3    H1 2250   0.365   4.681   1.426
  769TIP3    H2 2251   0.381   4.779   1.311
  770TIP3   OH2 2252   6.520   1.512   1.088
  770TIP3    H1 2253   6.440   1.551   1.123
  770TIP3    H2 2254   6.560   1.581   1.035
  771TIP3   OH2 2255   4.518   5.202   4.432
  771TIP3    H1 2256   4.462   5.126   4.414
  771TIP3    H2 2257   4.497   5.265   4.364
  772TIP3   OH2 2258   1.989   1.405   4.974
  772TIP3    H1 2259   1.991   1.442   5.063
  772TIP3    H2 2260   1.942   1.323   4.983
  773TIP3   OH2 2261   4.667   3.913   2.067
  773TIP3    H1 2262   4.670   3.851   1.994
  773TIP3    H2 2263   4.575   3.939   2.073
  774TIP3   OH2 2264   8.070   6.483   3.695
  774TIP3    H1 2265   8.049   6.542   3.768
  774TIP3    H2 2266   8.143   6.430   3.728
  775TIP3   OH2 2267   5.074   5.675   2.560
  775TIP3    H1 2268   5.012   5.630   2.503
  775TIP3    H2 2269   5.159   5.664   2.518
  776TIP3   OH2 2270   0.063   5.307   5.487
  776TIP3    H1 2271   0.127   5.315   5.557
  776TIP3    H2 2272   0.105   5.250   5.422
  777TIP3   OH2 2273   6.112   6.671   5.795
  777TIP3    H1 2274   6.140   6.751   5.750
  777TIP3    H2 2275   6.027   6.693   5.833
  778TIP3   OH2 2276   5.209   5.117   5.084
  778TIP3    H1 2277   5.280   5.123   5.148
  778TIP3    H2 2278   5.138   5.168   5.122
  779TIP3   OH2 2279   2.138   7.577   4.869
  779TIP3    H1 2280   2.169   7.631   4.942
  779TIP3    H2 2281   2.055   7.617   4.843
  780TIP3   OH2 2282   7.227   4.928   5.631
  780TIP3    H1 2283   7.155   4.865   5.631
  780TIP3    H2 2284   7.191   5.005   5.586
  781TIP3   OH2 2285   1.664   4.805   6.560
  781TIP3    H1 2286   1.722   4.870   6.518
  781TIP3    H2 2287   1.665   4.731   6.500
  782TIP3   OH2 2288   6.707   4.161   3.613
  782TIP3    H1 2289   6.711   4.195   3.524
  782TIP3    H2 2290   6.794   4.180   3.650
  783TIP3   OH2 2291   0.153   2.995   2.684
  783TIP3    H1 2292   0.110   3.044   2.753
  783TIP3    H2 2293   0.082   2.952   2.636
  784TIP3   OH2 2294   6.885   1.089   0.488
  784TIP3    H1 2295   6.921   1.011   0.529
  784TIP3    H2 2296   6.959   1.131   0.445
  785TIP3   OH2 2297   2.755   6.894   2.024
  785TIP3    H1 2298   2.688   6.962   2.022
  785TIP3    H2 2299   2.769   6.871   1.932
  786TIP3   OH2 2300   7.820   1.275   1.251
  786TIP3    H1 2301   7.798   1.261   1.159
  786TIP3    H2 2302   7.904   1.230   1.262
  787TIP3   OH2 2303   0.483   1.763   5.964
  787TIP3    H1 2304   0.519   1.785   6.050
  787TIP3    H2 2305   0.389   1.775   5.973
  788TIP3   OH2 2306   0.888   0.084   1.629
  788TIP3    H1 2307   0.857   0.093   1.539
  788TIP3    H2 2308   0.821   0.128   1.682
  789TIP3   OH2 2309   7.382   6.060   1.253
  789TIP3    H1 2310   7.440   6.136   1.251
  789TIP3    H2 2311   7.389   6.027   1.343
  790TIP3   OH2 2312   1.682   6.465   1.784
  790TIP3    H1 2313   1.752   6.529   1.776
  790TIP3    H2 2314   1.635   6.491   1.864
  791TIP3   OH2 2315   8.233   2.093   5.713
  791TIP3    H1 2316   8.168   2.044   5.764
  791TIP3    H2 2317   8.306   2.031   5.703
  792TIP3   OH2 2318   6.871   4.117   2.524
  792TIP3    H1 2319   6.901   4.202   2.492
  792TIP3    H2 2320   6.851   4.067   2.445
  793TIP3   OH2 2321   8.243   7.696   2.406
  793TIP3    H1 2322   8.280   7.781   2.380
  793TIP3    H2 2323   8.181   7.675   2.336
  794TIP3   OH2 2324   6.404   0.194   4.621
  794TIP3    H1 2325   6.366   0.281   4.640
  794TIP3    H2 2326   6.420   0.156   4.707
  795TIP3   OH2 2327   2.370   0.682   4.255
  795TIP3    H1 2328   2.307   0.752   4.269
  795TIP3    H2 2329   2.436   0.696   4.323
  796TIP3   OH2 2330   0.748   5.917   2.394
  796TIP3    H1 2331   0.783   5.873   2.317
  796TIP3    H2 2332   0.702   5.994   2.360
  797TIP3   OH2 2333   1.588   2.002   4.879
  797TIP3    H1 2334   1.606   1.914   4.846
  797TIP3    H2 2335   1.545   2.048   4.807
  798TIP3   OH2 2336   6.269   1.957   1.341
  798TIP3    H1 2337   6.186   1.909   1.342
  798TIP3    H2 2338   6.255   2.031   1.400
  799TIP3   OH2 2339   0.990   2.950   4.855
  799TIP3    H1 2340   1.068   2.897   4.875
  799TIP3    H2 2341   1.016   3.004   4.780
  800TIP3   OH2 2342   1.357   6.811   6.478
  800TIP3    H1 2343   1.384   6.776   6.393
  800TIP3    H2 2344   1.263   6.795   6.481
  801TIP3   OH2 2345   7.923   4.085   2.698
  801TIP3    H1 2346   7.998   4.129   2.739
  801TIP3    H2 2347   7.940   3.992   2.711
  802TIP3   OH2 2348   0.404   5.564   5.451
  802TIP3    H1 2349   0.404   5.642   5.396
  802TIP3    H2 2350   0.313   5.554   5.479
  803TIP3   OH2 2351   8.059   1.718   4.648
  803TIP3    H1 2352   8.060   1.812   4.630
  803TIP3    H2 2353   7.975   1.703   4.693
  804TIP3   OH2 2354   2.434   4.580   1.576
  804TIP3    H1 2355   2.505   4.572   1.639
  804TIP3    H2 2356   2.461   4.527   1.502
  805TIP3   OH2 2357   2.508   6.059   4.372
  805TIP3    H1 2358   2.474   5.987   4.426
  805TIP3    H2 2359   2.596   6.074   4.405
  806TIP3   OH2 2360   0.644   4.107   2.052
  806TIP3    H1 2361   0.618   4.184   2.002
  806TIP3    H2 2362   0.572   4.045   2.041
  807TIP3   OH2 2363   0.975   0.260   3.429
  807TIP3    H1 2364   1.043   0.221   3.374
  807TIP3    H2 2365   0.911   0.295   3.367
  808TIP3   OH2 2366   6.169   1.081   1.749
  808TIP3    H1 2367   6.139   1.170   1.768
  808TIP3    H2 2368   6.093   1.037   1.712
  809TIP3   OH2 2369   6.820   3.831   0.249
  809TIP3    H1 2370   6.884   3.760   0.241
  809TIP3    H2 2371   6.797   3.853   0.159
  810TIP3   OH2 2372   4.344   2.769   6.402
  810TIP3    H1 2373   4.344   2.860   6.373
  810TIP3    H2 2374   4.291   2.724   6.337
  811TIP3   OH2 2375   1.184   0.307   2.766
  811TIP3    H1 2376   1.225   0.288   2.681
  811TIP3    H2 2377   1.201   0.401   2.780
  812TIP3   OH2 2378   7.209   1.458   4.891
  812TIP3    H1 2379   7.137   1.405   4.924
  812TIP3    H2 2380   7.250   1.403   4.824
  813TIP3   OH2 2381   3.464   2.722   5.690
  813TIP3    H1 2382   3.397   2.732   5.758
  813TIP3    H2 2383   3.418   2.677   5.619
  814TIP3   OH2 2384   0.784   6.834   6.152
  814TIP3    H1 2385   0.743   6.835   6.239
  814TIP3    H2 2386   0.877   6.849   6.168
  815TIP3   OH2 2387   4.990   4.973   4.312
  815TIP3    H1 2388   5.075   4.977   4.356
  815TIP3    H2 2389   5.011   4.966   4.219
  816TIP3   OH2 2390   6.291   2.002   2.661
  816TIP3    H1 2391   6.283   1.959   2.576
  816TIP3    H2 2392   6.279   2.095   2.643
  817TIP3   OH2 2393   2.320   4.878   0.439
  817TIP3    H1 2394   2.251   4.943   0.455
  817TIP3    H2 2395   2.364   4.908   0.359
  818TIP3   OH2 2396   7.115   4.748   1.640
  818TIP3    H1 2397   7.123   4.687   1.567
  818TIP3    H2 2398   7.187   4.809   1.629
  819TIP3   OH2 2399   0.232   5.191   5.334
  819TIP3    H1 2400   0.270   5.258   5.278
  819TIP3    H2 2401   0.187   5.132   5.274
  820TIP3   OH2 2402   5.962   4.336   1.639
  820TIP3    H1 2403   5.943   4.389   1.562
  820TIP3    H2 2404   5.899   4.367   1.705
  821TIP3   OH2 2405   7.170   2.058   2.951
  821TIP3    H1 2406   7.196   2.147   2.977
  821TIP3    H2 2407   7.102   2.072   2.885
  822TIP3   OH2 2408   6.209   0.919   0.326
  822TIP3    H1 2409   6.184   0.830   0.348
  822TIP3    H2 2410   6.288   0.936   0.376
  823TIP3   OH2 2411   7.601   2.528   0.453
  823TIP3    H1 2412   7.534   2.461   0.471
  823TIP3    H2 2413   7.678   2.498   0.502
  824TIP3   OH2 2414   2.690   6.038   3.091
  824TIP3    H1 2415   2.636   5.978   3.142
  824TIP3    H2 2416   2.743   5.982   3.035
  825TIP3   OH2 2417   0.133   5.997   1.895
  825TIP3    H1 2418   0.134   5.902   1.888
  825TIP3    H2 2419   0.042   6.019   1.913
  826TIP3   OH2 2420   3.901   0.707   2.461
  826TIP3    H1 2421   3.984   0.704   2.412
  826TIP3    H2 2422   3.834   0.715   2.393
  827TIP3   OH2 2423   4.609   7.168   6.321
  827TIP3    H1 2424   4.674   7.161   6.251
  827TIP3    H2 2425   4.617   7.086   6.369
  828TIP3   OH2 2426   6.324   7.537   2.944
  828TIP3    H1 2427   6.362   7.568   3.026
  828TIP3    H2 2428   6.230   7.547   2.955
  829TIP3   OH2 2429   7.417   1.858   6.266
  829TIP3    H1 2430   7.498   1.807   6.262
  829TIP3    H2 2431   7.401   1.871   6.359
  830TIP3   OH2 2432   5.402   1.151   3.394
  830TIP3    H1 2433   5.490   1.116   3.380
  830TIP3    H2 2434   5.388   1.141   3.489
  831TIP3   OH2 2435   7.766   3.422   5.705
  831TIP3    H1 2436   7.789   3.337   5.742
  831TIP3    H2 2437   7.842   3.447   5.653
  832TIP3   OH2 2438   5.744   4.575   3.329
  832TIP3    H1 2439   5.741   4.488   3.290
  832TIP3    H2 2440   5.704   4.565   3.415
  833TIP3   OH2 2441   7.658   1.597   1.005
  833TIP3    H1 2442   7.663   1.690   1.029
  833TIP3    H2 2443   7.630   1.597   0.914
  834TIP3   OH2 2444   0.527   2.784   2.861
  834TIP3    H1 2445   0.577   2.703   2.866
  834TIP3    H2 2446   0.472   2.773   2.783
  835TIP3   OH2 2447   3.682   4.095   0.123
  835TIP3    H1 2448   3.586   4.098   0.117
  835TIP3    H2 2449   3.709   4.186   0.117
  836TIP3   OH2 2450   7.863   0.282   0.991
  836TIP3    H1 2451   7.775   0.257   0.962
  836TIP3    H2 2452   7.870   0.375   0.969
  837TIP3   OH2 2453   6.654   3.721   1.524
  837TIP3    H1 2454   6.634   3.690   1.436
  837TIP3    H2 2455   6.599   3.668   1.582
  838TIP3   OH2 2456   1.996   5.655   6.056
  838TIP3    H1 2457   2.081   5.612   6.067
  838TIP3    H2 2458   2.018   5.739   6.014
  839TIP3   OH2 2459   5.594   7.740   4.177
  839TIP3    H1 2460   5.628   7.672   4.119
  839TIP3    H2 2461   5.664   7.752   4.243
  840TIP3   OH2 2462   1.979   5.222   3.029
  840TIP3    H1 2463   2.037   5.146   3.033
  840TIP3    H2 2464   2.024   5.284   2.971
  841TIP3   OH2 2465   5.441   6.618   4.156
  841TIP3    H1 2466   5.395   6.541   4.122
  841TIP3    H2 2467   5.504   6.640   4.086
  842TIP3   OH2 2468   1.998   6.153   6.055
  842TIP3    H1 2469   2.030   6.240   6.078
  842TIP3    H2 2470   1.918   6.142   6.107
  843TIP3   OH2 2471   6.338   4.762   3.971
  843TIP3    H1 2472   6.394   4.777   3.896
  843TIP3    H2 2473   6.315   4.850   4.002
  844TIP3   OH2 2474   5.389   2.609   2.486
  844TIP3    H1 2475   5.366   2.528   2.440
  844TIP3    H2 2476   5.484   2.605   2.496
  845TIP3   OH2 2477   1.216   3.737   4.636
  845TIP3    H1 2478   1.263   3.656   4.654
  845TIP3    H2 2479   1.274   3.806   4.668
  846TIP3   OH2 2480   4.365   6.737   0.635
  846TIP3    H1 2481   4.431   6.805   0.622
  846TIP3    H2 2482   4.415   6.659   0.659
  847TIP3   OH2 2483   5.010   2.014   0.711
  847TIP3    H1 2484   5.023   1.975   0.797
  847TIP3    H2 2485   5.048   1.952   0.649
  848TIP3   OH2 2486   7.580   0.045   3.229
  848TIP3    H1 2487   7.539   0.132   3.224
  848TIP3    H2 2488   7.506  -0.016   3.225
  849TIP3   OH2 2489   1.573   2.308   1.860
  849TIP3    H1 2490   1.559   2.343   1.948
  849TIP3    H2 2491   1.498   2.338   1.810
  850TIP3   OH2 2492   1.917   2.308   2.572
  850TIP3    H1 2493   1.925   2.270   2.659
  850TIP3    H2 2494   2.006   2.309   2.538
  851TIP3   OH2 2495   6.046   3.797   6.336
  851TIP3    H1 2496   6.043   3.702   6.346
  851TIP3    H2 2497   6.138   3.816   6.317
  852TIP3   OH2 2498   1.212   4.241   4.399
  852TIP3    H1 2499   1.290   4.235   4.455
  852TIP3    H2 2500   1.154   4.172   4.432
  853TIP3   OH2 2501   5.076   4.791   0.928
  853TIP3    H1 2502   5.059   4.885   0.913
  853TIP3    H2 2503   5.008   4.746   0.877
  854TIP3   OH2 2504   2.242   6.996   3.083
  854TIP3    H1 2505   2.245   6.928   3.015
  854TIP3    H2 2506   2.156   7.037   3.071
  855TIP3   OH2 2507   6.756   3.595   3.593
  855TIP3    H1 2508   6.691   3.664   3.603
  855TIP3    H2 2509   6.821   3.632   3.533
  856TIP3   OH2 2510   1.024   7.694   6.007
  856TIP3    H1 2511   1.020   7.599   5.995
  856TIP3    H2 2512   0.998   7.730   5.923
  857TIP3   OH2 2513   7.416   3.985   2.560
  857TIP3    H1 2514   7.476   3.937   2.619
  857TIP3    H2 2515   7.380   3.917   2.503
  858TIP3   OH2 2516   0.862   2.726   1.675
  858TIP3    H1 2517   0.775   2.761   1.656
  858TIP3    H2 2518   0.895   2.697   1.590
  859TIP3   OH2 2519   4.711   6.485   4.693
  859TIP3    H1 2520   4.673   6.547   4.630
  859TIP3    H2 2521   4.700   6.527   4.778
  860TIP3   OH2 2522   1.429   0.796   3.665
  860TIP3    H1 2523   1.457   0.714   3.706
  860TIP3    H2 2524   1.363   0.770   3.601
  861TIP3   OH2 2525   7.636   6.132   6.727
  861TIP3    H1 2526   7.636   6.216   6.773
  861TIP3    H2 2527   7.728   6.118   6.703
  862TIP3   OH2 2528   4.195   0.323   2.310
  862TIP3    H1 2529   4.169   0.415   2.299
  862TIP3    H2 2530   4.212   0.292   2.221
  863TIP3   OH2 2531   7.902   2.023   0.103
  863TIP3    H1 2532   7.808   2.008   0.093
  863TIP3    H2 2533   7.931   2.058   0.019
  864TIP3   OH2 2534   7.076   2.098   6.432
  864TIP3    H1 2535   6.998   2.114   6.379
  864TIP3    H2 2536   7.125   2.032   6.383
  865TIP3   OH2 2537   4.280   7.370   0.822
  865TIP3    H1 2538   4.278   7.386   0.728
  865TIP3    H2 2539   4.339   7.296   0.834
  866TIP3   OH2 2540   5.462   5.156   1.255
  866TIP3    H1 2541   5.421   5.105   1.185
  866TIP3    H2 2542   5.414   5.239   1.255
  867TIP3   OH2 2543   1.850   4.575   1.020
  867TIP3    H1 2544   1.813   4.546   1.103
  867TIP3    H2 2545   1.890   4.496   0.983
  868TIP3   OH2 2546   8.048   2.003   3.405
  868TIP3    H1 2547   8.077   1.921   3.444
  868TIP3    H2 2548   8.033   1.982   3.313
  869TIP3   OH2 2549   3.580   1.764   2.098
  869TIP3    H1 2550   3.630   1.691   2.060
  869TIP3    H2 2551   3.579   1.830   2.029
  870TIP3   OH2 2552   5.154   2.665   0.622
  870TIP3    H1 2553   5.168   2.712   0.540
  870TIP3    H2 2554   5.240   2.663   0.663
  871TIP3   OH2 2555   4.095   5.491   5.451
  871TIP3    H1 2556   4.180   5.497   5.409
  871TIP3    H2 2557   4.033   5.520   5.384
  872TIP3   OH2 2558   5.350   0.566   3.214
  872TIP3    H1 2559   5.316   0.650   3.246
  872TIP3    H2 2560   5.273   0.517   3.188
  873TIP3   OH2 2561   3.168   1.877   5.540
  873TIP3    H1 2562   3.101   1.927   5.586
  873TIP3    H2 2563   3.151   1.894   5.447
  874TIP3   OH2 2564   3.885   5.833   2.534
  874TIP3    H1 2565   3.858   5.805   2.622
  874TIP3    H2 2566   3.979   5.849   2.543
  875TIP3   OH2 2567   1.465   1.829   5.093
  875TIP3    H1 2568   1.422   1.751   5.057
  875TIP3    H2 2569   1.473   1.888   5.018
  876TIP3   OH2 2570   3.939   0.658   5.452
  876TIP3    H1 2571   3.980   0.594   5.394
  876TIP3    H2 2572   3.881   0.607   5.508
  877TIP3   OH2 2573   6.236   4.084   4.994
  877TIP3    H1 2574   6.268   4.078   5.084
  877TIP3    H2 2575   6.292   4.150   4.953
  878TIP3   OH2 2576   8.044   7.438   2.937
  878TIP3    H1 2577   7.972   7.497   2.960
  878TIP3    H2 2578   8.058   7.452   2.844
  879TIP3   OH2 2579   7.945   1.772   1.953
  879TIP3    H1 2580   7.888   1.846   1.974
  879TIP3    H2 2581   7.995   1.801   1.877
  880TIP3   OH2 2582   6.139   4.808   3.713
  880TIP3    H1 2583   6.153   4.827   3.806
  880TIP3    H2 2584   6.080   4.733   3.712
  881TIP3   OH2 2585   0.895   7.290   3.631
  881TIP3    H1 2586   0.965   7.241   3.588
  881TIP3    H2 2587   0.893   7.254   3.720
  882TIP3   OH2 2588   8.007   2.729   3.044
  882TIP3    H1 2589   7.915   2.706   3.037
  882TIP3    H2 2590   8.010   2.800   3.108
  883TIP3   OH2 2591   7.733   1.763   0.545
  883TIP3    H1 2592   7.786   1.685   0.532
  883TIP3    H2 2593   7.766   1.825   0.480
  884TIP3   OH2 2594   1.063   2.924   4.526
  884TIP3    H1 2595   1.075   2.892   4.437
  884TIP3    H2 2596   1.088   2.850   4.582
  885TIP3   OH2 2597   7.124   6.427   1.101
  885TIP3    H1 2598   7.171   6.508   1.116
  885TIP3    H2 2599   7.105   6.427   1.007
  886TIP3   OH2 2600   7.062   3.229   5.922
  886TIP3    H1 2601   7.045   3.277   6.003
  886TIP3    H2 2602   7.026   3.284   5.853
  887TIP3   OH2 2603   1.645   1.701   4.063
  887TIP3    H1 2604   1.674   1.733   3.977
  887TIP3    H2 2605   1.646   1.779   4.119
  888TIP3   OH2 2606   5.393   6.596   0.386
  888TIP3    H1 2607   5.322   6.553   0.340
  888TIP3    H2 2608   5.391   6.559   0.474
  889TIP3   OH2 2609   2.706   7.016   3.314
  889TIP3    H1 2610   2.710   6.994   3.221
  889TIP3    H2 2611   2.797   7.016   3.342
  890TIP3   OH2 2612   3.634   6.533   2.563
  890TIP3    H1 2613   3.646   6.438   2.568
  890TIP3    H2 2614   3.645   6.563   2.653
  891TIP3   OH2 2615   1.593   2.621   5.265
  891TIP3    H1 2616   1.521   2.625   5.328
  891TIP3    H2 2617   1.649   2.550   5.298
  892TIP3   OH2 2618   3.550   2.083   4.748
  892TIP3    H1 2619   3.575   2.158   4.695
  892TIP3    H2 2620   3.472   2.048   4.705
  893TIP3   OH2 2621   8.089   3.940   6.354
  893TIP3    H1 2622   8.024   3.952   6.284
  893TIP3    H2 2623   8.139   3.863   6.328
  894TIP3   OH2 2624   1.359   7.285   5.162
  894TIP3    H1 2625   1.351   7.231   5.084
  894TIP3    H2 2626   1.448   7.321   5.158
  895TIP3   OH2 2627   1.810   4.372   6.664
  895TIP3    H1 2628   1.771   4.287   6.685
  895TIP3    H2 2629   1.737   4.423   6.630
  896TIP3   OH2 2630   6.473   0.360   6.704
  896TIP3    H1 2631   6.567   0.371   6.686
  896TIP3    H2 2632   6.429   0.407   6.633
  897TIP3   OH2 2633   6.517   4.026   4.330
  897TIP3    H1 2634   6.574   4.075   4.389
  897TIP3    H2 2635   6.543   4.055   4.242
  898TIP3   OH2 2636   3.048   6.920   2.461
  898TIP3    H1 2637   3.074   6.830   2.439
  898TIP3    H2 2638   3.046   6.965   2.377
  899TIP3   OH2 2639   2.511   7.350   1.184
  899TIP3    H1 2640   2.606   7.336   1.183
  899TIP3    H2 2641   2.490   7.366   1.276
  900TIP3   OH2 2642   6.270   2.619   2.440
  900TIP3    H1 2643   6.320   2.570   2.506
  900TIP3    H2 2644   6.206   2.556   2.408
  901TIP3   OH2 2645   1.513   6.072   5.705
  901TIP3    H1 2646   1.507   6.020   5.626
  901TIP3    H2 2647   1.605   6.095   5.712
  902TIP3   OH2 2648   1.898   7.547   1.824
  902TIP3    H1 2649   1.941   7.468   1.789
  902TIP3    H2 2650   1.919   7.546   1.917
  903TIP3   OH2 2651   7.763   4.803   2.350
  903TIP3    H1 2652   7.710   4.726   2.329
  903TIP3    H2 2653   7.850   4.783   2.316
  904TIP3   OH2 2654   7.748   7.296   4.544
  904TIP3    H1 2655   7.686   7.286   4.472
  904TIP3    H2 2656   7.772   7.389   4.542
  905TIP3   OH2 2657   2.339   1.433   0.561
  905TIP3    H1 2658   2.269   1.369   0.553
  905TIP3    H2 2659   2.304   1.500   0.620
  906TIP3   OH2 2660   3.340   6.880   0.598
  906TIP3    H1 2661   3.261   6.846   0.555
  906TIP3    H2 2662   3.395   6.910   0.526
  907TIP3   OH2 2663   1.967   5.072   4.576
  907TIP3    H1 2664   2.031   5.002   4.560
  907TIP3    H2 2665   1.954   5.073   4.670
  908TIP3   OH2 2666   3.858   1.832   1.903
  908TIP3    H1 2667   3.877   1.900   1.968
  908TIP3    H2 2668   3.764   1.839   1.887
  909TIP3   OH2 2669   1.751   2.180   1.288
  909TIP3    H1 2670   1.765   2.243   1.358
  909TIP3    H2 2671   1.824   2.118   1.296
  910TIP3   OH2 2672   7.870   7.719   0.907
  910TIP3    H1 2673   7.816   7.775   0.963
  910TIP3    H2 2674   7.919   7.664   0.968
  911TIP3   OH2 2675   7.427   2.501   5.609
  911TIP3    H1 2676   7.513   2.526   5.644
  911TIP3    H2 2677   7.430   2.405   5.605
  912TIP3   OH2 2678   2.198   6.260   3.197
  912TIP3    H1 2679   2.265   6.327   3.186
  912TIP3    H2 2680   2.244   6.185   3.234
  913TIP3   OH2 2681   5.771   4.941   3.146
  913TIP3    H1 2682   5.680   4.913   3.159
  913TIP3    H2 2683   5.788   4.927   3.053
  914TIP3   OH2 2684   6.598   0.504   0.386
  914TIP3    H1 2685   6.654   0.437   0.425
  914TIP3    H2 2686   6.509   0.476   0.406
  915TIP3   OH2 2687   1.444   5.960   5.956
  915TIP3    H1 2688   1.349   5.960   5.944
  915TIP3    H2 2689   1.479   5.998   5.876
  916TIP3   OH2 2690   7.106   0.648   2.355
  916TIP3    H1 2691   7.165   0.702   2.407
  916TIP3    H2 2692   7.022   0.655   2.399
  917TIP3   OH2 2693   1.634   6.276   5.505
  917TIP3    H1 2694   1.666   6.363   5.527
  917TIP3    H2 2695   1.546   6.290   5.471
  918TIP3   OH2 2696   1.172   4.104   1.729
  918TIP3    H1 2697   1.108   4.050   1.683
  918TIP3    H2 2698   1.218   4.152   1.659
  919TIP3   OH2 2699   6.936   6.247   0.977
  919TIP3    H1 2700   6.855   6.299   0.974
  919TIP3    H2 2701   6.967   6.256   1.068
  920TIP3   OH2 2702   5.856   6.797   4.110
  920TIP3    H1 2703   5.883   6.765   4.024
  920TIP3    H2 2704   5.865   6.722   4.168
  921TIP3   OH2 2705   1.484   3.221   0.774
  921TIP3    H1 2706   1.518   3.144   0.820
  921TIP3    H2 2707   1.525   3.217   0.688
  922TIP3   OH2 2708   8.091   2.453   0.114
  922TIP3    H1 2709   8.131   2.425   0.032
  922TIP3    H2 2710   8.021   2.389   0.130
  923TIP3   OH2 2711   1.232   6.290   1.175
  923TIP3    H1 2712   1.214   6.301   1.081
  923TIP3    H2 2713   1.327   6.276   1.179
  924TIP3   OH2 2714   7.951   0.748   2.445
  924TIP3    H1 2715   7.916   0.822   2.494
  924TIP3    H2 2716   7.936   0.672   2.502
  925TIP3   OH2 2717   8.212   2.601   3.222
  925TIP3    H1 2718   8.269   2.658   3.273
  925TIP3    H2 2719   8.134   2.653   3.204
  926TIP3   OH2 2720   3.737   1.715   0.228
  926TIP3    H1 2721   3.781   1.637   0.194
  926TIP3    H2 2722   3.677   1.740   0.158
  927TIP3   OH2 2723   7.361   3.514   4.589
  927TIP3    H1 2724   7.411   3.592   4.562
  927TIP3    H2 2725   7.272   3.546   4.604
  928TIP3   OH2 2726   7.720   2.252   6.117
  928TIP3    H1 2727   7.736   2.163   6.149
  928TIP3    H2 2728   7.796   2.273   6.063
  929TIP3   OH2 2729   3.118   6.365   1.602
  929TIP3    H1 2730   3.046   6.372   1.540
  929TIP3    H2 2731   3.081   6.395   1.685
  930TIP3   OH2 2732   4.964   6.232   1.927
  930TIP3    H1 2733   4.893   6.172   1.903
  930TIP3    H2 2734   4.939   6.266   2.013
  931TIP3   OH2 2735   1.587   7.386   0.458
  931TIP3    H1 2736   1.630   7.323   0.400
  931TIP3    H2 2737   1.577   7.339   0.541
  932TIP3   OH2 2738   4.256   4.322   4.353
  932TIP3    H1 2739   4.270   4.405   4.398
  932TIP3    H2 2740   4.305   4.331   4.271
  933TIP3   OH2 2741   6.427   3.339  -0.007
  933TIP3    H1 2742   6.433   3.264   0.052
  933TIP3    H2 2743   6.335   3.364  -0.005
  934TIP3   OH2 2744   7.371   7.039   6.073
  934TIP3    H1 2745   7.343   6.950   6.093
  934TIP3    H2 2746   7.403   7.035   5.982
  935TIP3   OH2 2747   2.957   2.328   0.898
  935TIP3    H1 2748   3.041   2.369   0.917
  935TIP3    H2 2749   2.928   2.292   0.982
  936TIP3   OH2 2750   2.161   2.495   5.327
  936TIP3    H1 2751   2.096   2.560   5.301
  936TIP3    H2 2752   2.231   2.546   5.367
  937TIP3   OH2 2753   6.111   2.314   0.362
  937TIP3    H1 2754   6.156   2.381   0.310
  937TIP3    H2 2755   6.031   2.357   0.393
  938TIP3   OH2 2756   7.535   1.098   4.417
  938TIP3    H1 2757   7.459   1.144   4.383
  938TIP3    H2 2758   7.610   1.152   4.392
  939TIP3   OH2 2759   1.228   1.917   5.253
  939TIP3    H1 2760   1.301   1.901   5.193
  939TIP3    H2 2761   1.150   1.917   5.198
  940TIP3   OH2 2762   7.323   5.483   4.795
  940TIP3    H1 2763   7.392   5.521   4.741
  940TIP3    H2 2764   7.347   5.506   4.884
  941TIP3   OH2 2765   2.079   4.721   6.085
  941TIP3    H1 2766   2.093   4.629   6.110
  941TIP3    H2 2767   1.998   4.746   6.129
  942TIP3   OH2 2768   6.761   7.755   1.790
  942TIP3    H1 2769   6.827   7.812   1.749
  942TIP3    H2 2770   6.746   7.685   1.727
  943TIP3   OH2 2771   3.285   1.422   3.592
  943TIP3    H1 2772   3.329   1.337   3.599
  943TIP3    H2 2773   3.276   1.452   3.682
  944TIP3   OH2 2774   1.884   2.786   6.501
  944TIP3    H1 2775   1.938   2.754   6.429
  944TIP3    H2 2776   1.854   2.706   6.545
  945TIP3   OH2 2777   1.533   6.682   3.563
  945TIP3    H1 2778   1.462   6.627   3.595
  945TIP3    H2 2779   1.560   6.733   3.639
  946TIP3   OH2 2780   3.365   3.574   1.857
  946TIP3    H1 2781   3.430   3.624   1.906
  946TIP3    H2 2782   3.412   3.496   1.827
  947TIP3   OH2 2783   0.471   6.912   1.422
  947TIP3    H1 2784   0.524   6.904   1.343
  947TIP3    H2 2785   0.450   6.822   1.446
  948TIP3   OH2 2786   0.452   6.248   2.026
  948TIP3    H1 2787   0.434   6.210   1.940
  948TIP3    H2 2788   0.395   6.200   2.086
  949TIP3   OH2 2789   1.800   6.169   4.205
  949TIP3    H1 2790   1.720   6.221   4.196
  949TIP3    H2 2791   1.768   6.080   4.219
  950TIP3   OH2 2792   1.513   4.243   2.956
  950TIP3    H1 2793   1.590   4.284   2.996
  950TIP3    H2 2794   1.465   4.315   2.916
  951TIP3   OH2 2795   4.802   7.140   0.528
  951TIP3    H1 2796   4.740   7.067   0.526
  951TIP3    H2 2797   4.865   7.120   0.459
  952TIP3   OH2 2798   4.531   3.209   2.831
  952TIP3    H1 2799   4.517   3.293   2.788
  952TIP3    H2 2800   4.477   3.147   2.782
  953TIP3   OH2 2801   3.802   1.909   2.882
  953TIP3    H1 2802   3.762   1.929   2.967
  953TIP3    H2 2803   3.894   1.891   2.902
  954TIP3   OH2 2804   0.704   1.048   4.282
  954TIP3    H1 2805   0.777   1.011   4.331
  954TIP3    H2 2806   0.641   1.073   4.349
  955TIP3   OH2 2807   3.380   0.490   1.136
  955TIP3    H1 2808   3.459   0.492   1.189
  955TIP3    H2 2809   3.316   0.443   1.190
  956TIP3   OH2 2810   7.305   0.163   2.867
  956TIP3    H1 2811   7.283   0.071   2.850
  956TIP3    H2 2812   7.221   0.207   2.872
  957TIP3   OH2 2813   7.163   6.721   3.287
  957TIP3    H1 2814   7.241   6.771   3.311
  957TIP3    H2 2815   7.144   6.748   3.197
  958TIP3   OH2 2816   6.472   1.530   1.427
  958TIP3    H1 2817   6.467   1.597   1.359
  958TIP3    H2 2818   6.524   1.570   1.497
  959TIP3   OH2 2819   4.268   7.591   3.467
  959TIP3    H1 2820   4.331   7.580   3.396
  959TIP3    H2 2821   4.321   7.617   3.542
  960TIP3   OH2 2822   0.949   6.127   1.687
  960TIP3    H1 2823   0.875   6.176   1.725
  960TIP3    H2 2824   0.980   6.183   1.616
  961TIP3   OH2 2825   0.548   5.851   2.610
  961TIP3    H1 2826   0.610   5.873   2.541
  961TIP3    H2 2827   0.540   5.756   2.607
  962TIP3   OH2 2828   8.182   0.949   4.860
  962TIP3    H1 2829   8.094   0.923   4.834
  962TIP3    H2 2830   8.198   0.900   4.942
  963TIP3   OH2 2831   6.788   5.969   5.973
  963TIP3    H1 2832   6.816   5.914   6.047
  963TIP3    H2 2833   6.694   5.952   5.965
  964TIP3   OH2 2834   4.316   5.981   3.959
  964TIP3    H1 2835   4.274   6.067   3.960
  964TIP3    H2 2836   4.280   5.935   4.035
  965TIP3   OH2 2837   2.873   3.857   5.923
  965TIP3    H1 2838   2.907   3.793   5.861
  965TIP3    H2 2839   2.781   3.831   5.936
  966TIP3   OH2 2840   5.603   0.396   5.551
  966TIP3    H1 2841   5.610   0.399   5.646
  966TIP3    H2 2842   5.509   0.396   5.534
  967TIP3   OH2 2843   4.494   0.386   3.673
  967TIP3    H1 2844   4.584   0.397   3.645
  967TIP3    H2 2845   4.498   0.323   3.745
  968TIP3   OH2 2846   2.275   0.379   0.546
  968TIP3    H1 2847   2.193   0.350   0.588
  968TIP3    H2 2848   2.323   0.423   0.616
  969TIP3   OH2 2849   0.321   7.039   5.582
  969TIP3    H1 2850   0.392   7.103   5.590
  969TIP3    H2 2851   0.349   6.981   5.511
  970TIP3   OH2 2852   1.727   3.543   1.672
  970TIP3    H1 2853   1.652   3.492   1.702
  970TIP3    H2 2854   1.798   3.519   1.731
  971TIP3   OH2 2855   2.671   1.809   5.455
  971TIP3    H1 2856   2.647   1.722   5.424
  971TIP3    H2 2857   2.603   1.867   5.421
  972TIP3   OH2 2858   4.502   0.630   4.225
  972TIP3    H1 2859   4.516   0.669   4.311
  972TIP3    H2 2860   4.501   0.536   4.241
  973TIP3   OH2 2861   8.153   6.624   2.493
  973TIP3    H1 2862   8.189   6.535   2.500
  973TIP3    H2 2863   8.227   6.681   2.515
  974TIP3   OH2 2864   1.655   3.393   1.060
  974TIP3    H1 2865   1.737   3.360   1.024
  974TIP3    H2 2866   1.598   3.402   0.984
  975TIP3   OH2 2867   8.177   0.979   3.686
  975TIP3    H1 2868   8.243   1.006   3.750
  975TIP3    H2 2869   8.122   1.056   3.674
  976TIP3   OH2 2870   6.069   6.193   0.384
  976TIP3    H1 2871   6.066   6.097   0.382
  976TIP3    H2 2872   5.996   6.220   0.328
  977TIP3   OH2 2873   6.573   4.203   1.287
  977TIP3    H1 2874   6.557   4.294   1.263
  977TIP3    H2 2875   6.668   4.198   1.297
  978TIP3   OH2 2876   5.911   0.264   3.557
  978TIP3    H1 2877   5.956   0.224   3.483
  978TIP3    H2 2878   5.820   0.271   3.530
  979TIP3   OH2 2879   6.125   3.249   0.126
  979TIP3    H1 2880   6.097   3.216   0.211
  979TIP3    H2 2881   6.145   3.341   0.142
  980TIP3   OH2 2882   7.250   7.381   0.188
  980TIP3    H1 2883   7.200   7.303   0.210
  980TIP3    H2 2884   7.259   7.427   0.272
  981TIP3   OH2 2885   3.966   4.697   5.757
  981TIP3    H1 2886   3.960   4.708   5.662
  981TIP3    H2 2887   3.928   4.777   5.793
  982TIP3   OH2 2888   4.795   1.715   2.930
  982TIP3    H1 2889   4.707   1.692   2.959
  982TIP3    H2 2890   4.818   1.646   2.867
  983TIP3   OH2 2891   6.078   5.319   2.104
  983TIP3    H1 2892   5.985   5.296   2.101
  983TIP3    H2 2893   6.121   5.242   2.141
  984TIP3   OH2 2894   6.159   6.631   3.467
  984TIP3    H1 2895   6.223   6.605   3.400
  984TIP3    H2 2896   6.176   6.724   3.481
  985TIP3   OH2 2897   2.521   7.789   1.309
  985TIP3    H1 2898   2.466   7.754   1.239
  985TIP3    H2 2899   2.464   7.791   1.386
  986TIP3   OH2 2900   7.987   6.937   6.359
  986TIP3    H1 2901   8.061   6.880   6.335
  986TIP3    H2 2902   8.013   7.024   6.328
  987TIP3   OH2 2903   1.693   1.471   0.078
  987TIP3    H1 2904   1.671   1.561   0.055
  987TIP3    H2 2905   1.781   1.476   0.114
  988TIP3   OH2 2906   7.501   3.369   5.814
  988TIP3    H1 2907   7.492   3.321   5.731
  988TIP3    H2 2908   7.581   3.420   5.803
  989TIP3   OH2 2909   1.336   1.685   3.586
  989TIP3    H1 2910   1.281   1.760   3.610
  989TIP3    H2 2911   1.298   1.611   3.632
  990TIP3   OH2 2912   0.105   0.920   2.749
  990TIP3    H1 2913   0.018   0.959   2.738
  990TIP3    H2 2914   0.108   0.850   2.684
  991TIP3   OH2 2915   0.840   0.864   4.890
  991TIP3    H1 2916   0.886   0.893   4.969
  991TIP3    H2 2917   0.906   0.820   4.838
  992TIP3   OH2 2918   5.294   0.457   5.413
  992TIP3    H1 2919   5.226   0.525   5.406
  992TIP3    H2 2920   5.367   0.492   5.362
  993TIP3   OH2 2921   6.413   2.183   3.129
  993TIP3    H1 2922   6.471   2.249   3.167
  993TIP3    H2 2923   6.415   2.201   3.035
  994TIP3   OH2 2924   6.748   0.585   1.826
  994TIP3    H1 2925   6.683   0.530   1.869
  994TIP3    H2 2926   6.812   0.524   1.791
  995TIP3   OH2 2927   4.991   0.412   5.550
  995TIP3    H1 2928   5.016   0.490   5.599
  995TIP3    H2 2929   4.986   0.441   5.459
  996TIP3   OH2 2930   3.421   2.097   2.705
  996TIP3    H1 2931   3.462   2.012   2.717
  996TIP3    H2 2932   3.332   2.077   2.676
  997TIP3   OH2 2933   1.123   1.419   6.226
  997TIP3    H1 2934   1.187   1.413   6.297
  997TIP3    H2 2935   1.170   1.388   6.149
  998TIP3   OH2 2936   6.974   5.623   3.637
  998TIP3    H1 2937   7.013   5.573   3.564
  998TIP3    H2 2938   6.904   5.566   3.670
  999TIP3   OH2 2939   7.760   0.789   5.188
  999TIP3    H1 2940   7.854   0.792   5.169
  999TIP3    H2 2941   7.750   0.719   5.252
 1000TIP3   OH2 2942   4.264   7.679   3.053
 1000TIP3    H1 2943   4.193   7.654   3.112
 1000TIP3    H2 2944   4.310   7.749   3.099
 1001TIP3   OH2 2945   5.685   2.375  -0.051
 1001TIP3    H1 2946   5.628   2.448  -0.029
 1001TIP3    H2 2947   5.637   2.298  -0.020
 1002TIP3   OH2 2948   4.266   2.961   5.219
 1002TIP3    H1 2949   4.330   2.890   5.228
 1002TIP3    H2 2950   4.254   2.970   5.125
 1003TIP3   OH2 2951   4.518   5.290   0.425
 1003TIP3    H1 2952   4.590   5.228   0.432
 1003TIP3    H2 2953   4.440   5.236   0.415
 1004TIP3   OH2 2954   7.449   6.482   6.158
 1004TIP3    H1 2955   7.363   6.442   6.167
 1004TIP3    H2 2956   7.492   6.432   6.088
 1005TIP3   OH2 2957   6.991   0.109   0.417
 1005TIP3    H1 2958   6.913   0.147   0.457
 1005TIP3    H2 2959   6.962   0.023   0.386
 1006TIP3   OH2 2960   5.949   7.126   1.906
 1006TIP3    H1 2961   5.876   7.143   1.965
 1006TIP3    H2 2962   5.908   7.097   1.825
 1007TIP3   OH2 2963   3.087   4.402   5.509
 1007TIP3    H1 2964   3.097   4.350   5.429
 1007TIP3    H2 2965   3.177   4.427   5.532
 1008TIP3   OH2 2966   3.140   7.312   6.480
 1008TIP3    H1 2967   3.081   7.343   6.550
 1008TIP3    H2 2968   3.140   7.217   6.489
 1009TIP3   OH2 2969   4.213   3.300   5.597
 1009TIP3    H1 2970   4.201   3.252   5.678
 1009TIP3    H2 2971   4.208   3.233   5.528
 1010TIP3   OH2 2972   5.072   3.204   3.574
 1010TIP3    H1 2973   5.150   3.150   3.562
 1010TIP3    H2 2974   5.039   3.218   3.485
 1011TIP3   OH2 2975   4.474   0.519   5.169
 1011TIP3    H1 2976   4.450   0.573   5.244
 1011TIP3    H2 2977   4.442   0.568   5.093
 1012TIP3   OH2 2978   5.297   2.956   5.243
 1012TIP3    H1 2979   5.259   2.868   5.244
 1012TIP3    H2 2980   5.387   2.942   5.214
 1013TIP3   OH2 2981   3.467   6.690   2.125
 1013TIP3    H1 2982   3.479   6.785   2.126
 1013TIP3    H2 2983   3.450   6.667   2.216
 1014TIP3   OH2 2984   0.017   7.358   4.263
 1014TIP3    H1 2985   0.103   7.397   4.277
 1014TIP3    H2 2986   0.030   7.265   4.280
 1015TIP3   OH2 2987   0.064   4.660   1.428
 1015TIP3    H1 2988   0.149   4.703   1.426
 1015TIP3    H2 2989   0.080   4.577   1.472
 1016TIP3   OH2 2990   1.444   1.092   6.493
 1016TIP3    H1 2991   1.477   1.177   6.523
 1016TIP3    H2 2992   1.470   1.030   6.561
 1017TIP3   OH2 2993   0.851   3.880   1.202
 1017TIP3    H1 2994   0.842   3.926   1.285
 1017TIP3    H2 2995   0.807   3.796   1.216
 1018TIP3   OH2 2996   7.993   5.246   2.935
 1018TIP3    H1 2997   7.979   5.169   2.879
 1018TIP3    H2 2998   8.032   5.311   2.877
 1019TIP3   OH2 2999   5.352   6.245   6.633
 1019TIP3    H1 3000   5.330   6.152   6.634
 1019TIP3    H2 3001   5.408   6.256   6.556
 1020TIP3   OH2 3002   1.658   5.910   0.896
 1020TIP3    H1 3003   1.624   5.930   0.983
 1020TIP3    H2 3004   1.753   5.911   0.907
 1021TIP3   OH2 3005   2.942   6.510   3.055
 1021TIP3    H1 3006   2.951   6.522   2.961
 1021TIP3    H2 3007   2.938   6.415   3.067
 1022TIP3   OH2 3008   2.022   0.452   1.337
 1022TIP3    H1 3009   2.113   0.483   1.330
 1022TIP3    H2 3010   1.978   0.491   1.261
 1023TIP3   OH2 3011   0.689   5.958   3.125
 1023TIP3    H1 3012   0.605   5.981   3.164
 1023TIP3    H2 3013   0.721   6.039   3.087
 1024TIP3   OH2 3014   7.235   3.718   3.890
 1024TIP3    H1 3015   7.150   3.709   3.935
 1024TIP3    H2 3016   7.279   3.635   3.908
 1025TIP3   OH2 3017   2.309   1.562   4.114
 1025TIP3    H1 3018   2.327   1.585   4.205
 1025TIP3    H2 3019   2.234   1.502   4.118
 1026TIP3   OH2 3020   2.962   7.478   3.907
 1026TIP3    H1 3021   3.055   7.456   3.915
 1026TIP3    H2 3022   2.917   7.394   3.915
 1027TIP3   OH2 3023   8.131   6.560   0.369
 1027TIP3    H1 3024   8.050   6.510   0.374
 1027TIP3    H2 3025   8.136   6.607   0.452
 1028TIP3   OH2 3026   4.543   5.614   0.993
 1028TIP3    H1 3027   4.502   5.690   0.952
 1028TIP3    H2 3028   4.577   5.647   1.076
 1029TIP3   OH2 3029   1.136   3.374   1.917
 1029TIP3    H1 3030   1.088   3.322   1.852
 1029TIP3    H2 3031   1.103   3.463   1.905
 1030TIP3   OH2 3032   0.255   3.628   5.764
 1030TIP3    H1 3033   0.335   3.610   5.813
 1030TIP3    H2 3034   0.285   3.673   5.685
 1031TIP3   OH2 3035   0.289   1.645   5.233
 1031TIP3    H1 3036   0.239   1.585   5.289
 1031TIP3    H2 3037   0.234   1.724   5.228
 1032TIP3   OH2 3038   0.060   3.699   5.237
 1032TIP3    H1 3039   0.022   3.618   5.203
 1032TIP3    H2 3040   0.147   3.703   5.197
 1033TIP3   OH2 3041   6.800   4.377   6.671
 1033TIP3    H1 3042   6.759   4.316   6.733
 1033TIP3    H2 3043   6.813   4.325   6.592
 1034TIP3   OH2 3044   5.257   7.806   2.187
 1034TIP3    H1 3045   5.245   7.765   2.101
 1034TIP3    H2 3046   5.214   7.747   2.248
 1035TIP3   OH2 3047   2.561   5.796   0.287
 1035TIP3    H1 3048   2.582   5.820   0.196
 1035TIP3    H2 3049   2.516   5.873   0.322
 1036TIP3   OH2 3050   2.824   3.076   4.290
 1036TIP3    H1 3051   2.887   3.145   4.311
 1036TIP3    H2 3052   2.864   2.995   4.321
 1037TIP3   OH2 3053   6.290   2.082   4.538
 1037TIP3    H1 3054   6.280   2.156   4.598
 1037TIP3    H2 3055   6.264   2.117   4.453
 1038TIP3   OH2 3056   5.299   3.621   6.421
 1038TIP3    H1 3057   5.221   3.566   6.430
 1038TIP3    H2 3058   5.370   3.569   6.458
 1039TIP3   OH2 3059   6.243   7.041   4.062
 1039TIP3    H1 3060   6.215   7.082   4.143
 1039TIP3    H2 3061   6.277   7.114   4.009
 1040TIP3   OH2 3062   8.055   0.389   4.964
 1040TIP3    H1 3063   8.124   0.449   4.992
 1040TIP3    H2 3064   8.075   0.370   4.873
 1041TIP3   OH2 3065   3.481   3.073   2.343
 1041TIP3    H1 3066   3.538   3.103   2.273
 1041TIP3    H2 3067   3.499   2.979   2.350
 1042TIP3   OH2 3068   6.584   2.640   5.671
 1042TIP3    H1 3069   6.577   2.633   5.767
 1042TIP3    H2 3070   6.494   2.654   5.642
 1043TIP3   OH2 3071   4.558   5.306   5.572
 1043TIP3    H1 3072   4.633   5.247   5.569
 1043TIP3    H2 3073   4.518   5.298   5.485
 1044TIP3   OH2 3074   5.524   6.197   4.310
 1044TIP3    H1 3075   5.538   6.107   4.340
 1044TIP3    H2 3076   5.524   6.191   4.215
 1045TIP3   OH2 3077   4.511   4.996   0.551
 1045TIP3    H1 3078   4.480   5.035   0.632
 1045TIP3    H2 3079   4.595   4.956   0.575
 1046TIP3   OH2 3080   7.128   4.972   4.339
 1046TIP3    H1 3081   7.181   4.994   4.416
 1046TIP3    H2 3082   7.049   4.933   4.376
 1047TIP3   OH2 3083   1.282   7.307   6.481
 1047TIP3    H1 3084   1.200   7.349   6.506
 1047TIP3    H2 3085   1.350   7.364   6.518
 1048TIP3   OH2 3086   6.244   7.471   0.477
 1048TIP3    H1 3087   6.219   7.450   0.567
 1048TIP3    H2 3088   6.337   7.450   0.472
 1049TIP3   OH2 3089   4.003   1.733   5.822
 1049TIP3    H1 3090   3.907   1.731   5.826
 1049TIP3    H2 3091   4.022   1.795   5.750
 1050TIP3   OH2 3092   0.497   2.753   1.790
 1050TIP3    H1 3093   0.532   2.801   1.715
 1050TIP3    H2 3094   0.518   2.662   1.772
 1051TIP3   OH2 3095   4.216   2.637   5.189
 1051TIP3    H1 3096   4.126   2.633   5.223
 1051TIP3    H2 3097   4.237   2.546   5.168
 1052TIP3   OH2 3098  -0.026   4.825   3.212
 1052TIP3    H1 3099   0.046   4.792   3.266
 1052TIP3    H2 3100  -0.090   4.858   3.274
 1053TIP3   OH2 3101   3.682   1.337   5.016
 1053TIP3    H1 3102   3.735   1.318   5.094
 1053TIP3    H2 3103   3.616   1.268   5.015
 1054TIP3   OH2 3104   6.818   6.322   4.134
 1054TIP3    H1 3105   6.899   6.339   4.085
 1054TIP3    H2 3106   6.804   6.228   4.127
 1055TIP3   OH2 3107   8.034   3.837   0.916
 1055TIP3    H1 3108   8.062   3.770   0.979
 1055TIP3    H2 3109   8.055   3.920   0.959
 1056TIP3   OH2 3110   7.101   6.280   5.943
 1056TIP3    H1 3111   7.175   6.221   5.928
 1056TIP3    H2 3112   7.060   6.288   5.856
 1057TIP3   OH2 3113   0.465   4.345   1.934
 1057TIP3    H1 3114   0.476   4.416   1.996
 1057TIP3    H2 3115   0.471   4.387   1.848
 1058TIP3   OH2 3116   7.579   1.596   0.763
 1058TIP3    H1 3117   7.509   1.642   0.718
 1058TIP3    H2 3118   7.643   1.576   0.695
 1059TIP3   OH2 3119   5.524   2.689   6.177
 1059TIP3    H1 3120   5.536   2.603   6.134
 1059TIP3    H2 3121   5.613   2.721   6.190
 1060TIP3   OH2 3122   2.194   5.993   1.347
 1060TIP3    H1 3123   2.226   5.998   1.437
 1060TIP3    H2 3124   2.273   5.991   1.293
 1061TIP3   OH2 3125   7.243   7.610   0.780
 1061TIP3    H1 3126   7.163   7.571   0.816
 1061TIP3    H2 3127   7.212   7.668   0.711
 1062TIP3   OH2 3128   0.467   1.240   6.235
 1062TIP3    H1 3129   0.561   1.223   6.231
 1062TIP3    H2 3130   0.455   1.290   6.315
 1063TIP3   OH2 3131   5.882   5.517   2.327
 1063TIP3    H1 3132   5.820   5.479   2.265
 1063TIP3    H2 3133   5.828   5.562   2.391
 1064TIP3   OH2 3134   5.377   1.149   2.828
 1064TIP3    H1 3135   5.438   1.089   2.871
 1064TIP3    H2 3136   5.301   1.096   2.806
 1065TIP3   OH2 3137   5.538   5.233   6.353
 1065TIP3    H1 3138   5.445   5.219   6.339
 1065TIP3    H2 3139   5.565   5.292   6.283
 1066TIP3   OH2 3140   7.660   1.733   6.327
 1066TIP3    H1 3141   7.640   1.640   6.324
 1066TIP3    H2 3142   7.696   1.747   6.414
 1067TIP3   OH2 3143   5.353   4.500   5.059
 1067TIP3    H1 3144   5.384   4.424   5.009
 1067TIP3    H2 3145   5.258   4.489   5.063
 1068TIP3   OH2 3146   3.386   7.681   1.733
 1068TIP3    H1 3147   3.377   7.643   1.646
 1068TIP3    H2 3148   3.470   7.649   1.766
 1069TIP3   OH2 3149   4.269   5.079   2.388
 1069TIP3    H1 3150   4.354   5.036   2.378
 1069TIP3    H2 3151   4.286   5.171   2.369
 1070TIP3   OH2 3152   1.155   5.265   0.839
 1070TIP3    H1 3153   1.092   5.193   0.845
 1070TIP3    H2 3154   1.172   5.290   0.930
 1071TIP3   OH2 3155   0.510   3.965   5.922
 1071TIP3    H1 3156   0.478   3.925   6.003
 1071TIP3    H2 3157   0.435   4.015   5.890
 1072TIP3   OH2 3158   5.508   4.194   1.048
 1072TIP3    H1 3159   5.495   4.281   1.084
 1072TIP3    H2 3160   5.514   4.208   0.953
 1073TIP3   OH2 3161   6.362   6.196   4.176
 1073TIP3    H1 3162   6.320   6.281   4.160
 1073TIP3    H2 3163   6.297   6.146   4.226
 1074TIP3   OH2 3164   4.649   3.202   5.547
 1074TIP3    H1 3165   4.626   3.115   5.516
 1074TIP3    H2 3166   4.690   3.187   5.632
 1075TIP3   OH2 3167   5.221   1.824   5.315
 1075TIP3    H1 3168   5.180   1.811   5.230
 1075TIP3    H2 3169   5.175   1.899   5.353
 1076TIP3   OH2 3170   7.226   5.355   2.738
 1076TIP3    H1 3171   7.249   5.285   2.676
 1076TIP3    H2 3172   7.296   5.419   2.730
 1077TIP3   OH2 3173   5.486   4.217   1.444
 1077TIP3    H1 3174   5.475   4.301   1.399
 1077TIP3    H2 3175   5.580   4.213   1.462
 1078TIP3   OH2 3176   5.086   6.052   6.043
 1078TIP3    H1 3177   5.136   5.977   6.013
 1078TIP3    H2 3178   5.135   6.128   6.012
 1079TIP3   OH2 3179   7.543   7.702   2.696
 1079TIP3    H1 3180   7.491   7.694   2.615
 1079TIP3    H2 3181   7.537   7.616   2.737
 1080TIP3   OH2 3182   5.767   6.905   3.201
 1080TIP3    H1 3183   5.734   6.843   3.136
 1080TIP3    H2 3184   5.759   6.858   3.284
 1081TIP3   OH2 3185   5.830   6.587   0.342
 1081TIP3    H1 3186   5.755   6.611   0.288
 1081TIP3    H2 3187   5.792   6.569   0.428
 1082TIP3   OH2 3188   1.512   5.643   4.559
 1082TIP3    H1 3189   1.591   5.605   4.521
 1082TIP3    H2 3190   1.519   5.737   4.539
 1083TIP3   OH2 3191   4.996   1.589   5.949
 1083TIP3    H1 3192   5.044   1.670   5.931
 1083TIP3    H2 3193   5.052   1.541   6.010
 1084TIP3   OH2 3194   3.489   1.310   4.369
 1084TIP3    H1 3195   3.581   1.334   4.361
 1084TIP3    H2 3196   3.490   1.230   4.422
 1085TIP3   OH2 3197   5.886   5.117   3.724
 1085TIP3    H1 3198   5.916   5.057   3.792
 1085TIP3    H2 3199   5.790   5.110   3.726
 1086TIP3   OH2 3200   0.265   3.847   4.905
 1086TIP3    H1 3201   0.336   3.876   4.847
 1086TIP3    H2 3202   0.224   3.774   4.858
 1087TIP3   OH2 3203   3.507   4.745   1.759
 1087TIP3    H1 3204   3.446   4.819   1.765
 1087TIP3    H2 3205   3.585   4.774   1.807
 1088TIP3   OH2 3206   7.007   4.229   1.006
 1088TIP3    H1 3207   7.091   4.189   0.981
 1088TIP3    H2 3208   6.985   4.286   0.931
 1089TIP3   OH2 3209   3.822   3.063   4.654
 1089TIP3    H1 3210   3.829   3.038   4.746
 1089TIP3    H2 3211   3.783   3.150   4.656
 1090TIP3   OH2 3212   7.609   7.751   1.210
 1090TIP3    H1 3213   7.663   7.820   1.173
 1090TIP3    H2 3214   7.594   7.778   1.301
 1091TIP3   OH2 3215   0.653   7.025   6.031
 1091TIP3    H1 3216   0.579   6.986   5.984
 1091TIP3    H2 3217   0.705   6.950   6.059
 1092TIP3   OH2 3218   6.514   5.429   1.000
 1092TIP3    H1 3219   6.466   5.474   0.931
 1092TIP3    H2 3220   6.497   5.336   0.986
 1093TIP3   OH2 3221   3.078   2.841   1.210
 1093TIP3    H1 3222   3.004   2.790   1.176
 1093TIP3    H2 3223   3.082   2.820   1.303
 1094TIP3   OH2 3224   3.150   0.645   4.897
 1094TIP3    H1 3225   3.152   0.670   4.990
 1094TIP3    H2 3226   3.165   0.550   4.898
 1095TIP3   OH2 3227   1.372   4.760   3.085
 1095TIP3    H1 3228   1.301   4.768   3.021
 1095TIP3    H2 3229   1.336   4.706   3.155
 1096TIP3   OH2 3230   0.797   6.909   0.692
 1096TIP3    H1 3231   0.716   6.939   0.734
 1096TIP3    H2 3232   0.801   6.815   0.713
 1097TIP3   OH2 3233   7.548   3.990   0.894
 1097TIP3    H1 3234   7.576   3.903   0.923
 1097TIP3    H2 3235   7.626   4.029   0.855
 1098TIP3   OH2 3236   2.117   1.112   0.845
 1098TIP3    H1 3237   2.082   1.124   0.757
 1098TIP3    H2 3238   2.042   1.083   0.897
 1099TIP3   OH2 3239   5.975   4.677   3.983
 1099TIP3    H1 3240   5.917   4.613   3.942
 1099TIP3    H2 3241   6.048   4.625   4.017
 1100TIP3   OH2 3242   6.128   7.536   3.835
 1100TIP3    H1 3243   6.064   7.607   3.840
 1100TIP3    H2 3244   6.212   7.580   3.826
 1101TIP3   OH2 3245   3.657   6.660   1.055
 1101TIP3    H1 3246   3.676   6.566   1.048
 1101TIP3    H2 3247   3.590   6.676   0.988
 1102TIP3   OH2 3248   0.563   1.422   0.847
 1102TIP3    H1 3249   0.652   1.456   0.856
 1102TIP3    H2 3250   0.554   1.359   0.918
 1103TIP3   OH2 3251   6.790   6.059   4.156
 1103TIP3    H1 3252   6.698   6.054   4.183
 1103TIP3    H2 3253   6.839   6.054   4.238
 1104TIP3   OH2 3254   2.651   4.143   5.019
 1104TIP3    H1 3255   2.572   4.116   5.066
 1104TIP3    H2 3256   2.652   4.238   5.027
 1105TIP3   OH2 3257   2.499   2.281   0.206
 1105TIP3    H1 3258   2.445   2.312   0.133
 1105TIP3    H2 3259   2.437   2.266   0.277
 1106TIP3   OH2 3260   4.566   3.027   6.451
 1106TIP3    H1 3261   4.551   3.121   6.443
 1106TIP3    H2 3262   4.520   3.002   6.531
 1107TIP3   OH2 3263   8.012   5.744   3.694
 1107TIP3    H1 3264   8.047   5.724   3.781
 1107TIP3    H2 3265   8.056   5.681   3.637
 1108TIP3   OH2 3266   1.603   0.256   5.574
 1108TIP3    H1 3267   1.528   0.290   5.623
 1108TIP3    H2 3268   1.612   0.166   5.604
 1109TIP3   OH2 3269   7.081   4.378   6.520
 1109TIP3    H1 3270   7.168   4.408   6.493
 1109TIP3    H2 3271   7.098   4.299   6.571
 1110TIP3   OH2 3272   6.019   2.505   5.161
 1110TIP3    H1 3273   5.997   2.424   5.114
 1110TIP3    H2 3274   6.056   2.562   5.094
 1111TIP3   OH2 3275   4.196   4.511   1.490
 1111TIP3    H1 3276   4.274   4.494   1.543
 1111TIP3    H2 3277   4.184   4.605   1.494
 1112TIP3   OH2 3278   6.428   0.506   4.074
 1112TIP3    H1 3279   6.365   0.538   4.138
 1112TIP3    H2 3280   6.375   0.487   3.996
 1113TIP3   OH2 3281   5.926   2.965   2.657
 1113TIP3    H1 3282   5.966   2.948   2.572
 1113TIP3    H2 3283   5.852   2.904   2.661
 1114TIP3   OH2 3284   3.228   0.161   1.724
 1114TIP3    H1 3285   3.142   0.162   1.682
 1114TIP3    H2 3286   3.209   0.164   1.818
 1115TIP3   OH2 3287   2.543   1.463   3.305
 1115TIP3    H1 3288   2.592   1.543   3.323
 1115TIP3    H2 3289   2.591   1.394   3.351
 1116TIP3   OH2 3290   5.395   7.556   5.242
 1116TIP3    H1 3291   5.346   7.475   5.235
 1116TIP3    H2 3292   5.390   7.580   5.334
 1117TIP3   OH2 3293   6.600   4.935   6.571
 1117TIP3    H1 3294   6.554   4.961   6.650
 1117TIP3    H2 3295   6.673   4.881   6.602
 1118TIP3   OH2 3296   6.025   6.326   2.205
 1118TIP3    H1 3297   6.037   6.378   2.126
 1118TIP3    H2 3298   6.049   6.386   2.277
 1119TIP3   OH2 3299   4.867   4.624   0.858
 1119TIP3    H1 3300   4.877   4.568   0.934
 1119TIP3    H2 3301   4.792   4.680   0.878
 1120TIP3   OH2 3302   5.171   2.364   4.681
 1120TIP3    H1 3303   5.185   2.271   4.664
 1120TIP3    H2 3304   5.134   2.399   4.600
 1121TIP3   OH2 3305   4.817   3.564   4.506
 1121TIP3    H1 3306   4.755   3.545   4.435
 1121TIP3    H2 3307   4.878   3.490   4.505
 1122TIP3   OH2 3308   1.187   4.793   5.729
 1122TIP3    H1 3309   1.223   4.748   5.805
 1122TIP3    H2 3310   1.245   4.869   5.718
 1123TIP3   OH2 3311   3.273   6.137   6.007
 1123TIP3    H1 3312   3.191   6.136   5.957
 1123TIP3    H2 3313   3.332   6.193   5.956
 1124TIP3   OH2 3314   6.533   5.515   3.970
 1124TIP3    H1 3315   6.501   5.472   3.891
 1124TIP3    H2 3316   6.543   5.445   4.034
 1125TIP3   OH2 3317   1.968   2.044   5.429
 1125TIP3    H1 3318   2.030   2.114   5.452
 1125TIP3    H2 3319   1.917   2.031   5.509
 1126TIP3   OH2 3320   0.568   7.283   2.904
 1126TIP3    H1 3321   0.542   7.335   2.981
 1126TIP3    H2 3322   0.656   7.315   2.883
 1127TIP3   OH2 3323   4.377   4.966   4.163
 1127TIP3    H1 3324   4.419   4.975   4.078
 1127TIP3    H2 3325   4.428   4.899   4.208
 1128TIP3   OH2 3326   0.411   4.766   4.435
 1128TIP3    H1 3327   0.492   4.752   4.484
 1128TIP3    H2 3328   0.421   4.853   4.396
 1129TIP3   OH2 3329   6.197   1.142   4.753
 1129TIP3    H1 3330   6.175   1.059   4.794
 1129TIP3    H2 3331   6.283   1.164   4.788
 1130TIP3   OH2 3332   4.780   6.618   2.666
 1130TIP3    H1 3333   4.846   6.657   2.722
 1130TIP3    H2 3334   4.760   6.685   2.600
 1131TIP3   OH2 3335   4.065   5.238   6.504
 1131TIP3    H1 3336   4.084   5.328   6.477
 1131TIP3    H2 3337   4.150   5.201   6.527
 1132TIP3   OH2 3338   1.610   0.676   2.277
 1132TIP3    H1 3339   1.687   0.651   2.228
 1132TIP3    H2 3340   1.543   0.613   2.252
 1133TIP3   OH2 3341   4.429   0.166   4.995
 1133TIP3    H1 3342   4.502   0.226   5.012
 1133TIP3    H2 3343   4.359   0.196   5.052
 1134TIP3   OH2 3344   2.935   4.991   1.009
 1134TIP3    H1 3345   2.921   4.922   1.074
 1134TIP3    H2 3346   2.860   5.048   1.018
 1135TIP3   OH2 3347   1.931   0.788   6.706
 1135TIP3    H1 3348   1.853   0.788   6.762
 1135TIP3    H2 3349   1.998   0.747   6.760
 1136TIP3   OH2 3350   2.425   0.275   6.685
 1136TIP3    H1 3351   2.500   0.217   6.699
 1136TIP3    H2 3352   2.450   0.329   6.610
 1137TIP3   OH2 3353   5.517   2.955   3.753
 1137TIP3    H1 3354   5.510   2.998   3.838
 1137TIP3    H2 3355   5.529   2.862   3.774
 1138TIP3   OH2 3356   7.217   2.709   2.069
 1138TIP3    H1 3357   7.193   2.782   2.127
 1138TIP3    H2 3358   7.295   2.672   2.109
 1139TIP3   OH2 3359   5.660   4.320   5.246
 1139TIP3    H1 3360   5.582   4.278   5.281
 1139TIP3    H2 3361   5.694   4.258   5.181
 1140TIP3   OH2 3362   6.455   1.895   1.006
 1140TIP3    H1 3363   6.379   1.879   0.949
 1140TIP3    H2 3364   6.479   1.986   0.988
 1141TIP3   OH2 3365   1.189   1.424   4.711
 1141TIP3    H1 3366   1.230   1.509   4.726
 1141TIP3    H2 3367   1.251   1.360   4.746
 1142TIP3   OH2 3368   3.677   0.381   1.618
 1142TIP3    H1 3369   3.731   0.418   1.547
 1142TIP3    H2 3370   3.708   0.291   1.625
 1143TIP3   OH2 3371   5.330   7.660   1.172
 1143TIP3    H1 3372   5.293   7.748   1.178
 1143TIP3    H2 3373   5.327   7.638   1.079
 1144TIP3   OH2 3374   4.853   0.905   3.572
 1144TIP3    H1 3375   4.882   0.919   3.482
 1144TIP3    H2 3376   4.933   0.891   3.622
 1145TIP3   OH2 3377   4.169   3.532   3.183
 1145TIP3    H1 3378   4.192   3.556   3.273
 1145TIP3    H2 3379   4.177   3.437   3.180
 1146TIP3   OH2 3380   7.325   2.118   5.693
 1146TIP3    H1 3381   7.287   2.204   5.712
 1146TIP3    H2 3382   7.271   2.083   5.622
 1147TIP3   OH2 3383   3.013   7.658   5.411
 1147TIP3    H1 3384   2.930   7.687   5.448
 1147TIP3    H2 3385   3.070   7.645   5.487
 1148TIP3   OH2 3386   2.078   3.649   3.393
 1148TIP3    H1 3387   2.134   3.638   3.316
 1148TIP3    H2 3388   2.117   3.592   3.459
 1149TIP3   OH2 3389   0.308   4.893   3.068
 1149TIP3    H1 3390   0.261   4.810   3.072
 1149TIP3    H2 3391   0.375   4.887   3.135
 1150TIP3   OH2 3392   2.631   6.281   2.245
 1150TIP3    H1 3393   2.638   6.342   2.172
 1150TIP3    H2 3394   2.601   6.335   2.318
 1151TIP3   OH2 3395   0.313   4.183   6.086
 1151TIP3    H1 3396   0.247   4.146   6.028
 1151TIP3    H2 3397   0.366   4.239   6.030
 1152TIP3   OH2 3398   0.471   6.288   0.149
 1152TIP3    H1 3399   0.512   6.276   0.235
 1152TIP3    H2 3400   0.405   6.355   0.164
 1153TIP3   OH2 3401   1.143   5.106   4.110
 1153TIP3    H1 3402   1.176   5.150   4.189
 1153TIP3    H2 3403   1.058   5.071   4.136
 1154TIP3   OH2 3404   1.025   1.175   2.719
 1154TIP3    H1 3405   0.968   1.134   2.654
 1154TIP3    H2 3406   1.103   1.119   2.722
 1155TIP3   OH2 3407   5.084   1.326   6.331
 1155TIP3    H1 3408   5.012   1.339   6.393
 1155TIP3    H2 3409   5.043   1.340   6.245
 1156TIP3   OH2 3410   0.441   7.442   6.001
 1156TIP3    H1 3411   0.505   7.431   5.931
 1156TIP3    H2 3412   0.359   7.408   5.965
 1157TIP3   OH2 3413   6.760   4.685   3.124
 1157TIP3    H1 3414   6.841   4.690   3.175
 1157TIP3    H2 3415   6.784   4.638   3.044
 1158TIP3   OH2 3416   3.439   1.324   0.196
 1158TIP3    H1 3417   3.396   1.369   0.123
 1158TIP3    H2 3418   3.523   1.297   0.161
 1159TIP3   OH2 3419   6.669   1.908   2.860
 1159TIP3    H1 3420   6.678   1.911   2.765
 1159TIP3    H2 3421   6.621   1.988   2.882
 1160TIP3   OH2 3422   0.758   0.731   5.573
 1160TIP3    H1 3423   0.812   0.712   5.650
 1160TIP3    H2 3424   0.809   0.698   5.499
 1161TIP3   OH2 3425   7.057   1.154   4.502
 1161TIP3    H1 3426   7.027   1.106   4.425
 1161TIP3    H2 3427   7.018   1.241   4.492
 1162TIP3   OH2 3428   3.841   7.445   4.601
 1162TIP3    H1 3429   3.872   7.404   4.520
 1162TIP3    H2 3430   3.757   7.402   4.618
 1163TIP3   OH2 3431   1.195   7.695   3.046
 1163TIP3    H1 3432   1.246   7.617   3.069
 1163TIP3    H2 3433   1.261   7.761   3.026
 1164TIP3   OH2 3434   3.271   7.748   1.401
 1164TIP3    H1 3435   3.271   7.659   1.367
 1164TIP3    H2 3436   3.340   7.793   1.353
 1165TIP3   OH2 3437   5.300   0.045   5.912
 1165TIP3    H1 3438   5.274   0.064   5.821
 1165TIP3    H2 3439   5.305  -0.051   5.915
 1166TIP3   OH2 3440   6.235   4.422   3.600
 1166TIP3    H1 3441   6.307   4.382   3.649
 1166TIP3    H2 3442   6.161   4.420   3.659
 1167TIP3   OH2 3443   5.302   0.163   6.568
 1167TIP3    H1 3444   5.237   0.147   6.499
 1167TIP3    H2 3445   5.288   0.255   6.593
 1168TIP3   OH2 3446   7.306   6.595   0.193
 1168TIP3    H1 3447   7.243   6.548   0.247
 1168TIP3    H2 3448   7.320   6.678   0.238
 1169TIP3   OH2 3449   5.958   7.611   0.811
 1169TIP3    H1 3450   5.873   7.653   0.801
 1169TIP3    H2 3451   5.993   7.648   0.892
 1170TIP3   OH2 3452   7.131   1.887   6.253
 1170TIP3    H1 3453   7.220   1.851   6.249
 1170TIP3    H2 3454   7.102   1.889   6.162
 1171TIP3   OH2 3455   1.773   5.149   2.504
 1171TIP3    H1 3456   1.834   5.077   2.487
 1171TIP3    H2 3457   1.773   5.159   2.599
 1172TIP3   OH2 3458   5.445   3.245   2.250
 1172TIP3    H1 3459   5.521   3.302   2.261
 1172TIP3    H2 3460   5.382   3.296   2.201
 1173TIP3   OH2 3461   1.883   6.848   5.188
 1173TIP3    H1 3462   1.822   6.828   5.117
 1173TIP3    H2 3463   1.827   6.859   5.265
 1174TIP3   OH2 3464   0.749   1.826   2.458
 1174TIP3    H1 3465   0.755   1.922   2.463
 1174TIP3    H2 3466   0.660   1.810   2.426
 1175TIP3   OH2 3467   4.594   0.918   0.258
 1175TIP3    H1 3468   4.514   0.942   0.305
 1175TIP3    H2 3469   4.573   0.836   0.214
 1176TIP3   OH2 3470   3.838   2.051   5.982
 1176TIP3    H1 3471   3.889   1.972   6.001
 1176TIP3    H2 3472   3.904   2.119   5.967
 1177TIP3   OH2 3473   5.543   5.696   5.156
 1177TIP3    H1 3474   5.528   5.714   5.248
 1177TIP3    H2 3475   5.621   5.640   5.155
 1178TIP3   OH2 3476   4.912   2.199   4.853
 1178TIP3    H1 3477   4.894   2.226   4.943
 1178TIP3    H2 3478   5.006   2.178   4.853
 1179TIP3   OH2 3479   5.320   0.821   0.555
 1179TIP3    H1 3480   5.314   0.726   0.544
 1179TIP3    H2 3481   5.333   0.854   0.466
 1180TIP3   OH2 3482   7.515   6.910   0.341
 1180TIP3    H1 3483   7.517   7.000   0.309
 1180TIP3    H2 3484   7.572   6.911   0.418
 1181TIP3   OH2 3485   2.370   0.372   1.598
 1181TIP3    H1 3486   2.429   0.413   1.661
 1181TIP3    H2 3487   2.309   0.321   1.652
 1182TIP3   OH2 3488   0.123   6.505   2.294
 1182TIP3    H1 3489   0.121   6.520   2.200
 1182TIP3    H2 3490   0.099   6.413   2.304
 1183TIP3   OH2 3491   2.369   1.611   5.296
 1183TIP3    H1 3492   2.356   1.613   5.391
 1183TIP3    H2 3493   2.321   1.688   5.264
 1184TIP3   OH2 3494   3.831   3.776   1.149
 1184TIP3    H1 3495   3.876   3.825   1.219
 1184TIP3    H2 3496   3.845   3.684   1.172
 1185TIP3   OH2 3497   8.250   3.489   4.220
 1185TIP3    H1 3498   8.273   3.409   4.173
 1185TIP3    H2 3499   8.323   3.549   4.203
 1186TIP3   OH2 3500   2.199   0.493   0.795
 1186TIP3    H1 3501   2.292   0.503   0.816
 1186TIP3    H2 3502   2.153   0.518   0.875
 1187TIP3   OH2 3503   6.684   7.208   6.423
 1187TIP3    H1 3504   6.696   7.236   6.514
 1187TIP3    H2 3505   6.654   7.117   6.429
 1188TIP3   OH2 3506   1.210   2.280   2.104
 1188TIP3    H1 3507   1.232   2.187   2.116
 1188TIP3    H2 3508   1.271   2.327   2.160
 1189TIP3   OH2 3509   1.279   1.522   6.010
 1189TIP3    H1 3510   1.284   1.429   5.989
 1189TIP3    H2 3511   1.210   1.556   5.953
 1190TIP3   OH2 3512   1.364   4.102   0.979
 1190TIP3    H1 3513   1.379   4.028   1.038
 1190TIP3    H2 3514   1.332   4.062   0.898
 1191TIP3   OH2 3515   5.832   4.996   0.789
 1191TIP3    H1 3516   5.861   5.076   0.746
 1191TIP3    H2 3517   5.913   4.954   0.818
 1192TIP3   OH2 3518   4.137   2.290   4.684
 1192TIP3    H1 3519   4.097   2.221   4.736
 1192TIP3    H2 3520   4.079   2.299   4.608
 1193TIP3   OH2 3521   4.346   2.478   2.690
 1193TIP3    H1 3522   4.388   2.527   2.761
 1193TIP3    H2 3523   4.269   2.530   2.667
 1194TIP3   OH2 3524   4.699   3.419   0.279
 1194TIP3    H1 3525   4.766   3.430   0.347
 1194TIP3    H2 3526   4.734   3.465   0.203
 1195TIP3   OH2 3527   1.721   3.961   4.068
 1195TIP3    H1 3528   1.634   3.977   4.030
 1195TIP3    H2 3529   1.749   3.878   4.031
 1196TIP3   OH2 3530   0.285   7.754   1.738
 1196TIP3    H1 3531   0.304   7.813   1.665
 1196TIP3    H2 3532   0.296   7.808   1.817
 1197TIP3   OH2 3533   6.555   3.534   0.770
 1197TIP3    H1 3534   6.517   3.619   0.790
 1197TIP3    H2 3535   6.494   3.495   0.707
 1198TIP3   OH2 3536   7.711   6.426   5.763
 1198TIP3    H1 3537   7.692   6.440   5.670
 1198TIP3    H2 3538   7.771   6.496   5.786
 1199TIP3   OH2 3539   3.726   1.072   2.911
 1199TIP3    H1 3540   3.721   1.020   2.830
 1199TIP3    H2 3541   3.788   1.142   2.890
 1200TIP3   OH2 3542   7.691   2.362   2.921
 1200TIP3    H1 3543   7.708   2.455   2.937
 1200TIP3    H2 3544   7.764   2.317   2.964
 1201TIP3   OH2 3545   5.802   2.230   4.226
 1201TIP3    H1 3546   5.763   2.317   4.218
 1201TIP3    H2 3547   5.889   2.238   4.187
 1202TIP3   OH2 3548   1.157   5.389   5.278
 1202TIP3    H1 3549   1.133   5.296   5.278
 1202TIP3    H2 3550   1.252   5.390   5.267
 1203TIP3   OH2 3551   1.303   2.085   0.825
 1203TIP3    H1 3552   1.240   2.074   0.896
 1203TIP3    H2 3553   1.251   2.112   0.750
 1204TIP3   OH2 3554   6.217   4.122   6.275
 1204TIP3    H1 3555   6.141   4.091   6.225
 1204TIP3    H2 3556   6.232   4.211   6.242
 1205TIP3   OH2 3557   2.437   6.929   5.953
 1205TIP3    H1 3558   2.448   7.014   5.995
 1205TIP3    H2 3559   2.365   6.887   6.000
 1206TIP3   OH2 3560   4.818   1.546   4.586
 1206TIP3    H1 3561   4.893   1.508   4.631
 1206TIP3    H2 3562   4.774   1.600   4.652
 1207TIP3   OH2 3563   0.277   1.438   4.431
 1207TIP3    H1 3564   0.306   1.348   4.417
 1207TIP3    H2 3565   0.218   1.455   4.358
 1208TIP3   OH2 3566   5.817   5.133   2.064
 1208TIP3    H1 3567   5.757   5.058   2.071
 1208TIP3    H2 3568   5.904   5.094   2.076
 1209TIP3   OH2 3569   1.587   4.574   3.185
 1209TIP3    H1 3570   1.499   4.536   3.185
 1209TIP3    H2 3571   1.635   4.523   3.119
 1210TIP3   OH2 3572   5.173   5.702   3.569
 1210TIP3    H1 3573   5.205   5.674   3.655
 1210TIP3    H2 3574   5.106   5.637   3.547
 1211TIP3   OH2 3575   2.677   2.837   5.656
 1211TIP3    H1 3576   2.667   2.769   5.723
 1211TIP3    H2 3577   2.681   2.788   5.573
 1212TIP3   OH2 3578   3.920   4.727   0.623
 1212TIP3    H1 3579   3.953   4.652   0.574
 1212TIP3    H2 3580   3.927   4.701   0.715
 1213TIP3   OH2 3581   6.392   2.068  -0.055
 1213TIP3    H1 3582   6.303   2.099  -0.038
 1213TIP3    H2 3583   6.439   2.084   0.026
 1214TIP3   OH2 3584   1.478   1.208   2.345
 1214TIP3    H1 3585   1.454   1.129   2.391
 1214TIP3    H2 3586   1.490   1.181   2.254
 1215TIP3   OH2 3587   1.936   2.601   5.713
 1215TIP3    H1 3588   1.860   2.548   5.688
 1215TIP3    H2 3589   1.971   2.558   5.791
 1216TIP3   OH2 3590   3.212   4.599   4.121
 1216TIP3    H1 3591   3.127   4.596   4.077
 1216TIP3    H2 3592   3.267   4.653   4.063
 1217TIP3   OH2 3593   2.670   5.101   0.179
 1217TIP3    H1 3594   2.688   5.015   0.142
 1217TIP3    H2 3595   2.733   5.109   0.251
 1218TIP3   OH2 3596   2.804   7.265   3.810
 1218TIP3    H1 3597   2.790   7.228   3.723
 1218TIP3    H2 3598   2.808   7.189   3.868
 1219TIP3   OH2 3599   0.893   2.527   2.864
 1219TIP3    H1 3600   0.962   2.592   2.865
 1219TIP3    H2 3601   0.880   2.506   2.772
 1220TIP3   OH2 3602   6.374   5.621   2.550
 1220TIP3    H1 3603   6.435   5.657   2.487
 1220TIP3    H2 3604   6.403   5.655   2.635
 1221TIP3   OH2 3605   1.590   6.764   1.798
 1221TIP3    H1 3606   1.572   6.850   1.758
 1221TIP3    H2 3607   1.651   6.722   1.737
 1222TIP3   OH2 3608   5.105   0.105   4.226
 1222TIP3    H1 3609   5.167   0.034   4.210
 1222TIP3    H2 3610   5.072   0.089   4.314
 1223TIP3   OH2 3611   4.550   7.569   1.111
 1223TIP3    H1 3612   4.562   7.657   1.075
 1223TIP3    H2 3613   4.605   7.513   1.056
 1224TIP3   OH2 3614   6.965   7.225   5.233
 1224TIP3    H1 3615   6.953   7.167   5.309
 1224TIP3    H2 3616   7.056   7.212   5.207
 1225TIP3   OH2 3617   4.237   2.541   1.264
 1225TIP3    H1 3618   4.268   2.464   1.311
 1225TIP3    H2 3619   4.266   2.527   1.174
 1226TIP3   OH2 3620   3.602   6.543   5.030
 1226TIP3    H1 3621   3.584   6.603   4.958
 1226TIP3    H2 3622   3.646   6.597   5.096
 1227TIP3   OH2 3623   1.580   4.639   0.303
 1227TIP3    H1 3624   1.616   4.597   0.225
 1227TIP3    H2 3625   1.553   4.567   0.360
 1228TIP3   OH2 3626   6.986   1.617   5.482
 1228TIP3    H1 3627   7.050   1.679   5.446
 1228TIP3    H2 3628   6.954   1.658   5.562
 1229TIP3   OH2 3629   6.868   0.612   4.226
 1229TIP3    H1 3630   6.886   0.607   4.320
 1229TIP3    H2 3631   6.824   0.529   4.206
 1230TIP3   OH2 3632   1.437   2.705   6.554
 1230TIP3    H1 3633   1.409   2.614   6.565
 1230TIP3    H2 3634   1.364   2.757   6.585
 1231TIP3   OH2 3635   6.364   3.074   2.117
 1231TIP3    H1 3636   6.409   3.138   2.061
 1231TIP3    H2 3637   6.282   3.117   2.141
 1232TIP3   OH2 3638   3.483   4.472   3.545
 1232TIP3    H1 3639   3.480   4.494   3.637
 1232TIP3    H2 3640   3.543   4.398   3.540
 1233TIP3   OH2 3641   1.316   3.444   3.327
 1233TIP3    H1 3642   1.253   3.455   3.256
 1233TIP3    H2 3643   1.267   3.400   3.396
 1234TIP3   OH2 3644   3.177   5.949   2.133
 1234TIP3    H1 3645   3.103   5.999   2.099
 1234TIP3    H2 3646   3.228   5.926   2.056
 1235TIP3   OH2 3647   6.380   6.541   1.065
 1235TIP3    H1 3648   6.290   6.565   1.087
 1235TIP3    H2 3649   6.434   6.606   1.111
 1236TIP3   OH2 3650   7.108   2.500   6.716
 1236TIP3    H1 3651   7.148   2.440   6.779
 1236TIP3    H2 3652   7.104   2.584   6.762
 1237TIP3   OH2 3653   4.175   7.303   0.293
 1237TIP3    H1 3654   4.223   7.317   0.375
 1237TIP3    H2 3655   4.117   7.379   0.286
 1238TIP3   OH2 3656   5.955   0.051   1.815
 1238TIP3    H1 3657   6.006  -0.027   1.794
 1238TIP3    H2 3658   5.979   0.073   1.905
 1239TIP3   OH2 3659   2.199   1.981   5.807
 1239TIP3    H1 3660   2.239   2.046   5.864
 1239TIP3    H2 3661   2.133   1.939   5.862
 1240TIP3   OH2 3662   0.894   4.411   4.590
 1240TIP3    H1 3663   0.847   4.363   4.522
 1240TIP3    H2 3664   0.893   4.353   4.666
 1241TIP3   OH2 3665   5.747   2.127   6.483
 1241TIP3    H1 3666   5.694   2.119   6.563
 1241TIP3    H2 3667   5.837   2.116   6.513
 1242TIP3   OH2 3668   1.613   1.474   4.982
 1242TIP3    H1 3669   1.651   1.410   5.042
 1242TIP3    H2 3670   1.688   1.528   4.954
 1243TIP3   OH2 3671   4.349   7.132   5.277
 1243TIP3    H1 3672   4.441   7.114   5.262
 1243TIP3    H2 3673   4.307   7.046   5.272
 1244TIP3   OH2 3674   2.086   1.520   3.080
 1244TIP3    H1 3675   2.155   1.509   3.014
 1244TIP3    H2 3676   2.125   1.578   3.145
 1245TIP3   OH2 3677   3.452   3.572   5.045
 1245TIP3    H1 3678   3.385   3.550   4.980
 1245TIP3    H2 3679   3.484   3.658   5.019
 1246TIP3   OH2 3680   6.723   1.660   1.566
 1246TIP3    H1 3681   6.805   1.619   1.537
 1246TIP3    H2 3682   6.723   1.746   1.525
 1247TIP3   OH2 3683   0.724   3.868   2.233
 1247TIP3    H1 3684   0.633   3.897   2.227
 1247TIP3    H2 3685   0.736   3.811   2.157
 1248TIP3   OH2 3686   1.531   1.967   4.347
 1248TIP3    H1 3687   1.592   1.966   4.421
 1248TIP3    H2 3688   1.583   1.997   4.273
 1249TIP3   OH2 3689   2.392   7.198   2.643
 1249TIP3    H1 3690   2.363   7.110   2.618
 1249TIP3    H2 3691   2.459   7.183   2.709
 1250TIP3   OH2 3692   0.053   0.173   5.287
 1250TIP3    H1 3693   0.106   0.251   5.274
 1250TIP3    H2 3694   0.001   0.166   5.207
 1251TIP3   OH2 3695   1.244   2.675   1.946
 1251TIP3    H1 3696   1.233   2.728   1.867
 1251TIP3    H2 3697   1.155   2.667   1.982
 1252TIP3   OH2 3698   2.118   3.618   0.732
 1252TIP3    H1 3699   2.163   3.684   0.679
 1252TIP3    H2 3700   2.054   3.668   0.783
 1253TIP3   OH2 3701   6.200   2.067   0.300
 1253TIP3    H1 3702   6.165   2.057   0.212
 1253TIP3    H2 3703   6.169   2.153   0.329
 1254TIP3   OH2 3704   0.839   4.150   2.251
 1254TIP3    H1 3705   0.769   4.123   2.191
 1254TIP3    H2 3706   0.908   4.085   2.239
 1255TIP3   OH2 3707   3.794   0.665   1.116
 1255TIP3    H1 3708   3.745   0.583   1.121
 1255TIP3    H2 3709   3.730   0.728   1.082
 1256TIP3   OH2 3710   4.925   0.519   4.973
 1256TIP3    H1 3711   4.850   0.539   4.918
 1256TIP3    H2 3712   4.976   0.456   4.923
 1257TIP3   OH2 3713   0.465   4.081   0.311
 1257TIP3    H1 3714   0.394   4.146   0.316
 1257TIP3    H2 3715   0.534   4.125   0.261
 1258TIP3   OH2 3716   0.225   5.530   0.449
 1258TIP3    H1 3717   0.238   5.525   0.354
 1258TIP3    H2 3718   0.163   5.603   0.461
 1259TIP3   OH2 3719   3.826   7.294   0.287
 1259TIP3    H1 3720   3.733   7.280   0.272
 1259TIP3    H2 3721   3.853   7.222   0.345
 1260TIP3   OH2 3722   1.670   5.682   1.376
 1260TIP3    H1 3723   1.704   5.593   1.376
 1260TIP3    H2 3724   1.579   5.674   1.348
 1261TIP3   OH2 3725   5.116   0.156   0.318
 1261TIP3    H1 3726   5.021   0.171   0.316
 1261TIP3    H2 3727   5.143   0.186   0.405
 1262TIP3   OH2 3728   5.084   0.756   4.644
 1262TIP3    H1 3729   5.147   0.737   4.714
 1262TIP3    H2 3730   5.055   0.845   4.661
 1263TIP3   OH2 3731   7.324   7.791   2.857
 1263TIP3    H1 3732   7.400   7.737   2.876
 1263TIP3    H2 3733   7.346   7.835   2.775
 1264TIP3   OH2 3734   2.763   5.652   4.548
 1264TIP3    H1 3735   2.805   5.736   4.566
 1264TIP3    H2 3736   2.793   5.594   4.618
 1265TIP3   OH2 3737   4.819   3.462   1.231
 1265TIP3    H1 3738   4.901   3.462   1.281
 1265TIP3    H2 3739   4.839   3.411   1.152
 1266TIP3   OH2 3740   0.117   0.345   1.230
 1266TIP3    H1 3741   0.142   0.284   1.300
 1266TIP3    H2 3742   0.058   0.294   1.174
 1267TIP3   OH2 3743   4.158   0.252   6.619
 1267TIP3    H1 3744   4.252   0.251   6.635
 1267TIP3    H2 3745   4.141   0.172   6.569
 1268TIP3   OH2 3746   6.397   6.094   2.275
 1268TIP3    H1 3747   6.335   6.108   2.203
 1268TIP3    H2 3748   6.423   6.002   2.267
 1269TIP3   OH2 3749   0.286   6.107   5.516
 1269TIP3    H1 3750   0.227   6.176   5.549
 1269TIP3    H2 3751   0.371   6.151   5.507
 1270TIP3   OH2 3752   1.739   3.744   2.473
 1270TIP3    H1 3753   1.811   3.795   2.436
 1270TIP3    H2 3754   1.662   3.773   2.423
 1271TIP3   OH2 3755   0.550   5.915   1.588
 1271TIP3    H1 3756   0.544   5.820   1.598
 1271TIP3    H2 3757   0.641   5.931   1.561
 1272TIP3   OH2 3758   2.663   7.316   0.698
 1272TIP3    H1 3759   2.627   7.233   0.728
 1272TIP3    H2 3760   2.589   7.377   0.700
 1273TIP3   OH2 3761   0.863   4.891   1.368
 1273TIP3    H1 3762   0.805   4.930   1.302
 1273TIP3    H2 3763   0.809   4.825   1.411
 1274TIP3   OH2 3764   7.094   1.699   4.787
 1274TIP3    H1 3765   7.124   1.621   4.833
 1274TIP3    H2 3766   6.999   1.690   4.782
 1275TIP3   OH2 3767   0.486   6.311   5.458
 1275TIP3    H1 3768   0.478   6.308   5.363
 1275TIP3    H2 3769   0.405   6.353   5.488
 1276TIP3   OH2 3770   2.936   2.694   4.703
 1276TIP3    H1 3771   3.011   2.646   4.668
 1276TIP3    H2 3772   2.950   2.695   4.798
 1277TIP3   OH2 3773   7.681   2.545   4.761
 1277TIP3    H1 3774   7.677   2.640   4.764
 1277TIP3    H2 3775   7.732   2.520   4.838
 1278TIP3   OH2 3776   0.355   0.954   6.723
 1278TIP3    H1 3777   0.430   1.001   6.759
 1278TIP3    H2 3778   0.279   1.005   6.752
 1279TIP3   OH2 3779   1.075   2.853   3.239
 1279TIP3    H1 3780   1.026   2.854   3.322
 1279TIP3    H2 3781   1.096   2.761   3.224
 1280TIP3   OH2 3782   6.905   6.463   1.348
 1280TIP3    H1 3783   6.959   6.445   1.271
 1280TIP3    H2 3784   6.893   6.377   1.389
 1281TIP3   OH2 3785   1.347   6.819   6.213
 1281TIP3    H1 3786   1.353   6.748   6.149
 1281TIP3    H2 3787   1.354   6.899   6.160
 1282TIP3   OH2 3788   3.733   1.625   5.908
 1282TIP3    H1 3789   3.779   1.563   5.851
 1282TIP3    H2 3790   3.642   1.621   5.879
 1283TIP3   OH2 3791   1.812   4.875   1.682
 1283TIP3    H1 3792   1.846   4.821   1.754
 1283TIP3    H2 3793   1.717   4.864   1.687
 1284TIP3   OH2 3794   4.287   3.419   2.904
 1284TIP3    H1 3795   4.307   3.485   2.838
 1284TIP3    H2 3796   4.276   3.468   2.985
 1285TIP3   OH2 3797   5.519   2.308   5.951
 1285TIP3    H1 3798   5.424   2.306   5.938
 1285TIP3    H2 3799   5.550   2.227   5.910
 1286TIP3   OH2 3800   3.112  -0.041   0.864
 1286TIP3    H1 3801   3.033   0.001   0.898
 1286TIP3    H2 3802   3.157  -0.073   0.941
 1287TIP3   OH2 3803   1.482   3.480   3.594
 1287TIP3    H1 3804   1.440   3.416   3.537
 1287TIP3    H2 3805   1.435   3.562   3.576
 1288TIP3   OH2 3806   7.890   1.143   6.435
 1288TIP3    H1 3807   7.922   1.167   6.522
 1288TIP3    H2 3808   7.898   1.048   6.433
 1289TIP3   OH2 3809   7.915   5.444   3.696
 1289TIP3    H1 3810   7.851   5.383   3.659
 1289TIP3    H2 3811   7.962   5.478   3.620
 1290TIP3   OH2 3812   6.822   0.948   3.684
 1290TIP3    H1 3813   6.867   0.953   3.599
 1290TIP3    H2 3814   6.731   0.929   3.661
 1291TIP3   OH2 3815   7.100   4.533   5.485
 1291TIP3    H1 3816   7.187   4.568   5.506
 1291TIP3    H2 3817   7.081   4.473   5.557
 1292TIP3   OH2 3818   6.993   0.951   0.154
 1292TIP3    H1 3819   6.953   0.929   0.069
 1292TIP3    H2 3820   7.082   0.916   0.148
 1293TIP3   OH2 3821   2.046   2.978   6.599
 1293TIP3    H1 3822   2.013   2.911   6.540
 1293TIP3    H2 3823   2.076   3.048   6.541
 1294TIP3   OH2 3824   7.644   2.872   3.556
 1294TIP3    H1 3825   7.735   2.846   3.542
 1294TIP3    H2 3826   7.610   2.807   3.617
 1295TIP3   OH2 3827   3.666   5.935   2.451
 1295TIP3    H1 3828   3.750   5.893   2.467
 1295TIP3    H2 3829   3.607   5.899   2.517
 1296TIP3   OH2 3830   1.276   7.708   4.172
 1296TIP3    H1 3831   1.246   7.619   4.194
 1296TIP3    H2 3832   1.263   7.758   4.252
 1297TIP3   OH2 3833   2.740   5.480   3.445
 1297TIP3    H1 3834   2.731   5.414   3.514
 1297TIP3    H2 3835   2.661   5.534   3.453
 1298TIP3   OH2 3836   4.872   3.977   5.328
 1298TIP3    H1 3837   4.871   3.974   5.424
 1298TIP3    H2 3838   4.793   3.929   5.302
 1299TIP3   OH2 3839   5.924   3.669   4.786
 1299TIP3    H1 3840   5.894   3.589   4.742
 1299TIP3    H2 3841   5.844   3.713   4.814
 1300TIP3   OH2 3842   5.051   5.869   2.338
 1300TIP3    H1 3843   5.018   5.792   2.291
 1300TIP3    H2 3844   5.122   5.835   2.392
 1301TIP3   OH2 3845   5.817   6.627   2.976
 1301TIP3    H1 3846   5.911   6.615   2.967
 1301TIP3    H2 3847   5.799   6.712   2.935
 1302TIP3   OH2 3848   4.591   4.525   5.601
 1302TIP3    H1 3849   4.498   4.511   5.582
 1302TIP3    H2 3850   4.612   4.607   5.558
 1303TIP3   OH2 3851   7.779   1.887   5.502
 1303TIP3    H1 3852   7.756   1.981   5.505
 1303TIP3    H2 3853   7.803   1.872   5.410
 1304TIP3   OH2 3854   3.350   2.536   6.533
 1304TIP3    H1 3855   3.272   2.581   6.501
 1304TIP3    H2 3856   3.388   2.595   6.597
 1305TIP3   OH2 3857   2.602   4.557   4.528
 1305TIP3    H1 3858   2.586   4.587   4.617
 1305TIP3    H2 3859   2.540   4.485   4.516
 1306TIP3   OH2 3860   1.491   6.543   2.886
 1306TIP3    H1 3861   1.458   6.464   2.929
 1306TIP3    H2 3862   1.493   6.609   2.955
 1307TIP3   OH2 3863   1.626   1.419   4.659
 1307TIP3    H1 3864   1.688   1.434   4.588
 1307TIP3    H2 3865   1.665   1.462   4.735
 1308TIP3   OH2 3866   5.628   7.715   3.821
 1308TIP3    H1 3867   5.618   7.676   3.735
 1308TIP3    H2 3868   5.552   7.686   3.871
 1309TIP3   OH2 3869   1.631   0.569   6.622
 1309TIP3    H1 3870   1.630   0.477   6.647
 1309TIP3    H2 3871   1.718   0.582   6.584
 1310TIP3   OH2 3872   2.264   7.293   5.146
 1310TIP3    H1 3873   2.288   7.380   5.178
 1310TIP3    H2 3874   2.198   7.262   5.209
 1311TIP3   OH2 3875   4.051   2.340   3.729
 1311TIP3    H1 3876   4.037   2.346   3.634
 1311TIP3    H2 3877   4.085   2.426   3.753
 1312TIP3   OH2 3878   5.957   6.031   6.211
 1312TIP3    H1 3879   6.025   6.039   6.144
 1312TIP3    H2 3880   5.894   6.099   6.190
 1313TIP3   OH2 3881   4.096   7.158   2.991
 1313TIP3    H1 3882   4.154   7.093   2.952
 1313TIP3    H2 3883   4.121   7.241   2.950
 1314TIP3   OH2 3884   5.542   2.869   5.163
 1314TIP3    H1 3885   5.528   2.800   5.098
 1314TIP3    H2 3886   5.630   2.852   5.198
 1315TIP3   OH2 3887   3.603   1.562   6.518
 1315TIP3    H1 3888   3.513   1.590   6.534
 1315TIP3    H2 3889   3.650   1.643   6.497
 1316TIP3   OH2 3890   5.711   5.230   4.469
 1316TIP3    H1 3891   5.628   5.202   4.506
 1316TIP3    H2 3892   5.739   5.303   4.525
 1317TIP3   OH2 3893   0.820   1.718   1.079
 1317TIP3    H1 3894   0.804   1.732   1.172
 1317TIP3    H2 3895   0.823   1.622   1.070
 1318TIP3   OH2 3896   6.118   4.047   3.984
 1318TIP3    H1 3897   6.158   4.061   3.899
 1318TIP3    H2 3898   6.163   4.108   4.043
 1319TIP3   OH2 3899   2.417   3.957   2.929
 1319TIP3    H1 3900   2.464   3.877   2.908
 1319TIP3    H2 3901   2.336   3.951   2.878
 1320TIP3   OH2 3902   6.837   2.004   4.703
 1320TIP3    H1 3903   6.841   1.944   4.628
 1320TIP3    H2 3904   6.744   2.027   4.709
 1321TIP3   OH2 3905   1.831   3.878   4.479
 1321TIP3    H1 3906   1.792   3.964   4.496
 1321TIP3    H2 3907   1.875   3.889   4.394
 1322TIP3   OH2 3908   0.741   4.716  -0.006
 1322TIP3    H1 3909   0.786   4.799  -0.021
 1322TIP3    H2 3910   0.786   4.653  -0.063
 1323TIP3   OH2 3911   3.209   4.226   6.290
 1323TIP3    H1 3912   3.138   4.228   6.355
 1323TIP3    H2 3913   3.266   4.155   6.320
 1324TIP3   OH2 3914   3.979   3.051   2.623
 1324TIP3    H1 3915   4.004   3.137   2.659
 1324TIP3    H2 3916   3.894   3.067   2.581
 1325TIP3   OH2 3917   2.546   6.517   3.679
 1325TIP3    H1 3918   2.488   6.571   3.625
 1325TIP3    H2 3919   2.489   6.484   3.749
 1326TIP3   OH2 3920   5.833   6.008   1.938
 1326TIP3    H1 3921   5.779   6.061   1.997
 1326TIP3    H2 3922   5.830   5.920   1.974
 1327TIP3   OH2 3923   5.518   5.499   0.502
 1327TIP3    H1 3924   5.509   5.581   0.454
 1327TIP3    H2 3925   5.473   5.434   0.449
 1328TIP3   OH2 3926   0.082   2.095   0.452
 1328TIP3    H1 3927   0.071   2.105   0.358
 1328TIP3    H2 3928   0.007   2.141   0.490
 1329TIP3   OH2 3929   5.432   4.203   3.760
 1329TIP3    H1 3930   5.348   4.245   3.773
 1329TIP3    H2 3931   5.411   4.112   3.741
 1330TIP3   OH2 3932   6.157   4.138   1.290
 1330TIP3    H1 3933   6.175   4.227   1.320
 1330TIP3    H2 3934   6.152   4.145   1.195
 1331TIP3   OH2 3935   2.971   4.203   0.938
 1331TIP3    H1 3936   2.960   4.293   0.967
 1331TIP3    H2 3937   3.066   4.189   0.937
 1332TIP3   OH2 3938   1.844   7.310   4.634
 1332TIP3    H1 3939   1.879   7.363   4.562
 1332TIP3    H2 3940   1.796   7.240   4.591
 1333TIP3   OH2 3941   2.653   3.649   0.483
 1333TIP3    H1 3942   2.650   3.587   0.556
 1333TIP3    H2 3943   2.656   3.735   0.525
 1334TIP3   OH2 3944   4.132   4.659   5.387
 1334TIP3    H1 3945   4.190   4.628   5.318
 1334TIP3    H2 3946   4.176   4.736   5.424
 1335TIP3   OH2 3947   0.243   3.964   2.621
 1335TIP3    H1 3948   0.230   3.949   2.715
 1335TIP3    H2 3949   0.270   3.878   2.587
 1336TIP3   OH2 3950   6.858   4.388   3.150
 1336TIP3    H1 3951   6.953   4.395   3.147
 1336TIP3    H2 3952   6.832   4.442   3.224
 1337TIP3   OH2 3953   3.360   7.430   4.846
 1337TIP3    H1 3954   3.354   7.390   4.933
 1337TIP3    H2 3955   3.282   7.485   4.840
 1338TIP3   OH2 3956   7.170   6.894   4.846
 1338TIP3    H1 3957   7.130   6.808   4.833
 1338TIP3    H2 3958   7.264   6.877   4.850
 1339TIP3   OH2 3959   3.927   2.163  -0.009
 1339TIP3    H1 3960   3.938   2.091  -0.071
 1339TIP3    H2 3961   3.884   2.123   0.067
 1340TIP3   OH2 3962   3.372   3.593   0.904
 1340TIP3    H1 3963   3.380   3.518   0.844
 1340TIP3    H2 3964   3.279   3.594   0.929
 1341TIP3   OH2 3965   4.231   6.433   3.020
 1341TIP3    H1 3966   4.166   6.377   3.061
 1341TIP3    H2 3967   4.283   6.468   3.093
 1342TIP3   OH2 3968   4.655   6.221   4.258
 1342TIP3    H1 3969   4.701   6.174   4.327
 1342TIP3    H2 3970   4.699   6.196   4.178
 1343TIP3   OH2 3971   6.542   3.999   1.069
 1343TIP3    H1 3972   6.616   4.053   1.040
 1343TIP3    H2 3973   6.500   4.052   1.137
 1344TIP3   OH2 3974   2.799   7.402   3.377
 1344TIP3    H1 3975   2.831   7.483   3.337
 1344TIP3    H2 3976   2.760   7.431   3.460
 1345TIP3   OH2 3977   6.435   3.411   0.345
 1345TIP3    H1 3978   6.483   3.492   0.324
 1345TIP3    H2 3979   6.498   3.358   0.394
 1346TIP3   OH2 3980   5.467   1.611   6.067
 1346TIP3    H1 3981   5.471   1.571   5.980
 1346TIP3    H2 3982   5.548   1.581   6.110
 1347TIP3   OH2 3983   2.918   3.220   1.741
 1347TIP3    H1 3984   2.842   3.167   1.764
 1347TIP3    H2 3985   2.885   3.285   1.679
 1348TIP3   OH2 3986   6.351   2.734   3.913
 1348TIP3    H1 3987   6.370   2.826   3.894
 1348TIP3    H2 3988   6.258   2.725   3.891
 1349TIP3   OH2 3989   2.772   7.681   1.385
 1349TIP3    H1 3990   2.852   7.670   1.333
 1349TIP3    H2 3991   2.708   7.714   1.323
 1350TIP3   OH2 3992   3.767   2.071   4.120
 1350TIP3    H1 3993   3.678   2.103   4.106
 1350TIP3    H2 3994   3.820   2.119   4.056
 1351TIP3   OH2 3995   0.719   6.888   3.328
 1351TIP3    H1 3996   0.779   6.914   3.258
 1351TIP3    H2 3997   0.756   6.806   3.361
 1352TIP3   OH2 3998   1.457   7.278   0.706
 1352TIP3    H1 3999   1.397   7.304   0.776
 1352TIP3    H2 4000   1.414   7.203   0.664
 1353TIP3   OH2 4001   1.838   3.138   5.847
 1353TIP3    H1 4002   1.850   3.232   5.833
 1353TIP3    H2 4003   1.770   3.113   5.786
 1354TIP3   OH2 4004   2.558   3.385   1.772
 1354TIP3    H1 4005   2.498   3.345   1.835
 1354TIP3    H2 4006   2.641   3.391   1.819
 1355TIP3   OH2 4007   1.432   0.014   0.933
 1355TIP3    H1 4008   1.459   0.035   1.022
 1355TIP3    H2 4009   1.368  -0.057   0.943
 1356TIP3   OH2 4010   6.453   4.386   1.541
 1356TIP3    H1 4011   6.488   4.306   1.580
 1356TIP3    H2 4012   6.530   4.438   1.518
 1357TIP3   OH2 4013   4.308   7.243   1.357
 1357TIP3    H1 4014   4.326   7.153   1.331
 1357TIP3    H2 4015   4.225   7.238   1.404
 1358TIP3   OH2 4016   5.464   5.772   6.679
 1358TIP3    H1 4017   5.473   5.680   6.707
 1358TIP3    H2 4018   5.473   5.822   6.760
 1359TIP3   OH2 4019   3.766   0.005   3.771
 1359TIP3    H1 4020   3.837   0.064   3.747
 1359TIP3    H2 4021   3.779  -0.013   3.864
 1360TIP3   OH2 4022   3.473   7.436   6.046
 1360TIP3    H1 4023   3.422   7.437   6.127
 1360TIP3    H2 4024   3.526   7.515   6.050
 1361TIP3   OH2 4025   0.649   3.201   5.905
 1361TIP3    H1 4026   0.632   3.192   5.811
 1361TIP3    H2 4027   0.679   3.291   5.915
 1362TIP3   OH2 4028   2.163   4.693   3.528
 1362TIP3    H1 4029   2.083   4.732   3.564
 1362TIP3    H2 4030   2.156   4.706   3.434
 1363TIP3   OH2 4031   4.938   6.433   0.067
 1363TIP3    H1 4032   5.034   6.437   0.075
 1363TIP3    H2 4033   4.919   6.485  -0.011
 1364TIP3   OH2 4034   7.904   6.807   3.645
 1364TIP3    H1 4035   7.836   6.854   3.597
 1364TIP3    H2 4036   7.870   6.800   3.734
 1365TIP3   OH2 4037   7.205   4.011   2.928
 1365TIP3    H1 4038   7.215   4.087   2.987
 1365TIP3    H2 4039   7.237   3.937   2.979
 1366TIP3   OH2 4040   7.362   1.079   6.135
 1366TIP3    H1 4041   7.360   1.167   6.098
 1366TIP3    H2 4042   7.385   1.092   6.227
 1367TIP3   OH2 4043   5.991   6.281   0.952
 1367TIP3    H1 4044   5.971   6.368   0.987
 1367TIP3    H2 4045   6.032   6.235   1.025
 1368TIP3   OH2 4046   5.276   6.431   4.851
 1368TIP3    H1 4047   5.184   6.441   4.873
 1368TIP3    H2 4048   5.284   6.469   4.763
 1369TIP3   OH2 4049   0.250   2.959   6.196
 1369TIP3    H1 4050   0.281   2.922   6.279
 1369TIP3    H2 4051   0.220   2.884   6.146
 1370TIP3   OH2 4052   2.604   1.747   4.590
 1370TIP3    H1 4053   2.688   1.744   4.636
 1370TIP3    H2 4054   2.571   1.835   4.608
 1371TIP3   OH2 4055   2.648   3.874   0.629
 1371TIP3    H1 4056   2.588   3.934   0.586
 1371TIP3    H2 4057   2.690   3.926   0.697
 1372TIP3   OH2 4058   3.536   2.653   1.406
 1372TIP3    H1 4059   3.630   2.667   1.405
 1372TIP3    H2 4060   3.514   2.639   1.498
 1373TIP3   OH2 4061   1.822   2.301   3.981
 1373TIP3    H1 4062   1.894   2.239   3.970
 1373TIP3    H2 4063   1.796   2.292   4.073
 1374TIP3   OH2 4064   3.899   4.764   6.139
 1374TIP3    H1 4065   3.994   4.770   6.149
 1374TIP3    H2 4066   3.878   4.825   6.068
 1375TIP3   OH2 4067   1.459   1.149   0.172
 1375TIP3    H1 4068   1.508   1.207   0.230
 1375TIP3    H2 4069   1.457   1.065   0.218
 1376TIP3   OH2 4070   4.941   4.532   5.591
 1376TIP3    H1 4071   4.911   4.606   5.643
 1376TIP3    H2 4072   5.009   4.491   5.644
 1377TIP3   OH2 4073   7.345   3.108   5.375
 1377TIP3    H1 4074   7.317   3.168   5.444
 1377TIP3    H2 4075   7.323   3.154   5.293
 1378TIP3   OH2 4076   0.558   1.172   5.191
 1378TIP3    H1 4077   0.580   1.084   5.162
 1378TIP3    H2 4078   0.640   1.221   5.185
 1379TIP3   OH2 4079   3.029   4.932   6.254
 1379TIP3    H1 4080   3.069   4.901   6.172
 1379TIP3    H2 4081   3.102   4.940   6.315
 1380TIP3   OH2 4082   4.788   5.186   0.525
 1380TIP3    H1 4083   4.839   5.105   0.532
 1380TIP3    H2 4084   4.739   5.191   0.607
 1381TIP3   OH2 4085   6.150   3.031   4.671
 1381TIP3    H1 4086   6.086   3.094   4.705
 1381TIP3    H2 4087   6.199   3.003   4.748
 1382TIP3   OH2 4088   8.059   0.213   5.888
 1382TIP3    H1 4089   8.095   0.153   5.822
 1382TIP3    H2 4090   8.089   0.177   5.972
 1383TIP3   OH2 4091   2.824   4.065   6.743
 1383TIP3    H1 4092   2.771   4.068   6.664
 1383TIP3    H2 4093   2.870   4.149   6.745
 1384TIP3   OH2 4094   1.272   7.712   3.727
 1384TIP3    H1 4095   1.197   7.691   3.671
 1384TIP3    H2 4096   1.242   7.694   3.816
 1385TIP3   OH2 4097   3.572   1.867   6.725
 1385TIP3    H1 4098   3.494   1.812   6.739
 1385TIP3    H2 4099   3.584   1.913   6.808
 1386TIP3   OH2 4100   3.907   7.744   2.521
 1386TIP3    H1 4101   3.943   7.720   2.606
 1386TIP3    H2 4102   3.982   7.779   2.472
 1387TIP3   OH2 4103   1.896   2.720   1.486
 1387TIP3    H1 4104   1.905   2.671   1.405
 1387TIP3    H2 4105   1.953   2.796   1.475
 1388TIP3   OH2 4106   0.439   1.831   1.247
 1388TIP3    H1 4107   0.508   1.767   1.229
 1388TIP3    H2 4108   0.358   1.783   1.234
 1389TIP3   OH2 4109   2.409   7.633   4.470
 1389TIP3    H1 4110   2.413   7.625   4.565
 1389TIP3    H2 4111   2.475   7.700   4.449
 1390TIP3   OH2 4112   0.454   4.137   0.592
 1390TIP3    H1 4113   0.453   4.232   0.579
 1390TIP3    H2 4114   0.492   4.102   0.511
 1391TIP3   OH2 4115   8.071   0.596   0.300
 1391TIP3    H1 4116   8.070   0.692   0.297
 1391TIP3    H2 4117   8.051   0.570   0.210
 1392TIP3   OH2 4118   6.941   7.729   3.760
 1392TIP3    H1 4119   6.941   7.824   3.773
 1392TIP3    H2 4120   6.968   7.716   3.669
 1393TIP3   OH2 4121   7.835   3.299   3.068
 1393TIP3    H1 4122   7.740   3.296   3.059
 1393TIP3    H2 4123   7.852   3.271   3.158
 1394TIP3   OH2 4124   7.329   4.461   6.154
 1394TIP3    H1 4125   7.334   4.549   6.116
 1394TIP3    H2 4126   7.319   4.477   6.248
 1395TIP3   OH2 4127   2.135   7.459   4.572
 1395TIP3    H1 4128   2.152   7.378   4.620
 1395TIP3    H2 4129   2.115   7.524   4.640
 1396TIP3   OH2 4130   2.623   3.942   3.768
 1396TIP3    H1 4131   2.628   4.037   3.765
 1396TIP3    H2 4132   2.554   3.920   3.705
 1397TIP3   OH2 4133   2.420   1.110   0.223
 1397TIP3    H1 4134   2.402   1.042   0.288
 1397TIP3    H2 4135   2.461   1.181   0.272
 1398TIP3   OH2 4136   2.173   3.026   1.261
 1398TIP3    H1 4137   2.187   2.932   1.254
 1398TIP3    H2 4138   2.163   3.042   1.355
 1399TIP3   OH2 4139   1.716   4.217   3.699
 1399TIP3    H1 4140   1.705   4.143   3.639
 1399TIP3    H2 4141   1.638   4.270   3.687
 1400TIP3   OH2 4142   7.571   2.890   2.807
 1400TIP3    H1 4143   7.503   2.950   2.839
 1400TIP3    H2 4144   7.552   2.807   2.851
 1401TIP3   OH2 4145   4.275   3.704   1.238
 1401TIP3    H1 4146   4.240   3.621   1.271
 1401TIP3    H2 4147   4.303   3.685   1.148
 1402TIP3   OH2 4148   4.075   3.168   0.378
 1402TIP3    H1 4149   4.071   3.127   0.292
 1402TIP3    H2 4150   4.014   3.116   0.432
 1403TIP3   OH2 4151   8.165   6.740   5.020
 1403TIP3    H1 4152   8.144   6.647   5.014
 1403TIP3    H2 4153   8.081   6.784   5.012
 1404TIP3   OH2 4154   5.527   1.739   0.326
 1404TIP3    H1 4155   5.596   1.737   0.393
 1404TIP3    H2 4156   5.574   1.734   0.243
 1405TIP3   OH2 4157   1.995   2.845   3.500
 1405TIP3    H1 4158   2.085   2.842   3.470
 1405TIP3    H2 4159   1.951   2.774   3.453
 1406TIP3   OH2 4160   7.515   7.490   4.340
 1406TIP3    H1 4161   7.590   7.474   4.283
 1406TIP3    H2 4162   7.459   7.414   4.326
 1407TIP3   OH2 4163   2.871   7.245   0.528
 1407TIP3    H1 4164   2.939   7.312   0.518
 1407TIP3    H2 4165   2.817   7.276   0.601
 1408TIP3   OH2 4166   2.837   7.811   1.922
 1408TIP3    H1 4167   2.791   7.765   1.852
 1408TIP3    H2 4168   2.895   7.873   1.878
 1409TIP3   OH2 4169   3.798   5.726   5.524
 1409TIP3    H1 4170   3.799   5.662   5.596
 1409TIP3    H2 4171   3.807   5.811   5.567
 1410TIP3   OH2 4172   6.617   4.727   4.842
 1410TIP3    H1 4173   6.653   4.771   4.919
 1410TIP3    H2 4174   6.523   4.726   4.857
 1411TIP3   OH2 4175   5.555   2.896   1.507
 1411TIP3    H1 4176   5.646   2.885   1.480
 1411TIP3    H2 4177   5.515   2.946   1.436
 1412TIP3   OH2 4178   4.535   5.974   6.287
 1412TIP3    H1 4179   4.563   5.936   6.370
 1412TIP3    H2 4180   4.493   5.902   6.240
 1413TIP3   OH2 4181   6.440   7.424   5.320
 1413TIP3    H1 4182   6.520   7.477   5.329
 1413TIP3    H2 4183   6.418   7.400   5.410
 1414TIP3   OH2 4184   1.079   3.584   5.841
 1414TIP3    H1 4185   1.064   3.492   5.866
 1414TIP3    H2 4186   1.170   3.601   5.865
 1415TIP3   OH2 4187   2.465   5.829   6.014
 1415TIP3    H1 4188   2.391   5.797   5.962
 1415TIP3    H2 4189   2.440   5.810   6.105
 1416TIP3   OH2 4190   3.312   3.997   2.010
 1416TIP3    H1 4191   3.225   4.036   2.022
 1416TIP3    H2 4192   3.327   4.001   1.915
 1417TIP3   OH2 4193   3.406   7.070   2.034
 1417TIP3    H1 4194   3.485   7.036   2.077
 1417TIP3    H2 4195   3.337   7.059   2.099
 1418TIP3   OH2 4196   2.800   1.536   4.162
 1418TIP3    H1 4197   2.791   1.595   4.237
 1418TIP3    H2 4198   2.878   1.484   4.180
 1419TIP3   OH2 4199   5.048   3.565   0.853
 1419TIP3    H1 4200   5.141   3.545   0.856
 1419TIP3    H2 4201   5.041   3.651   0.893
 1420TIP3   OH2 4202   5.037   6.653   6.352
 1420TIP3    H1 4203   5.055   6.706   6.430
 1420TIP3    H2 4204   4.976   6.585   6.382
 1421TIP3   OH2 4205   1.396   0.412   2.512
 1421TIP3    H1 4206   1.334   0.340   2.511
 1421TIP3    H2 4207   1.398   0.443   2.421
 1422TIP3   OH2 4208   7.726   4.029   3.195
 1422TIP3    H1 4209   7.805   4.068   3.159
 1422TIP3    H2 4210   7.671   4.011   3.119
 1423TIP3   OH2 4211   0.585   6.479   0.772
 1423TIP3    H1 4212   0.518   6.422   0.811
 1423TIP3    H2 4213   0.633   6.424   0.711
 1424TIP3   OH2 4214   7.068   7.376   5.778
 1424TIP3    H1 4215   7.063   7.445   5.845
 1424TIP3    H2 4216   7.083   7.296   5.828
 1425TIP3   OH2 4217   7.854   7.157   0.093
 1425TIP3    H1 4218   7.772   7.157   0.142
 1425TIP3    H2 4219   7.850   7.078   0.039
 1426TIP3   OH2 4220   1.669   4.430   1.239
 1426TIP3    H1 4221   1.624   4.469   1.314
 1426TIP3    H2 4222   1.659   4.335   1.251
 1427TIP3   OH2 4223   5.511   0.778   2.351
 1427TIP3    H1 4224   5.570   0.748   2.282
 1427TIP3    H2 4225   5.493   0.700   2.403
 1428TIP3   OH2 4226   7.739   7.425   1.789
 1428TIP3    H1 4227   7.658   7.376   1.776
 1428TIP3    H2 4228   7.728   7.504   1.735
 1429TIP3   OH2 4229   6.358   5.627   6.770
 1429TIP3    H1 4230   6.428   5.649   6.708
 1429TIP3    H2 4231   6.331   5.538   6.744
 1430TIP3   OH2 4232   6.044   7.675   6.335
 1430TIP3    H1 4233   5.949   7.672   6.326
 1430TIP3    H2 4234   6.076   7.695   6.248
 1431TIP3   OH2 4235   3.344   1.303   2.388
 1431TIP3    H1 4236   3.422   1.259   2.420
 1431TIP3    H2 4237   3.276   1.282   2.452
 1432TIP3   OH2 4238   6.966   4.881   2.848
 1432TIP3    H1 4239   7.016   4.860   2.927
 1432TIP3    H2 4240   6.902   4.811   2.841
 1433TIP3   OH2 4241   3.046   0.138   2.627
 1433TIP3    H1 4242   3.084   0.222   2.653
 1433TIP3    H2 4243   3.089   0.074   2.684
 1434TIP3   OH2 4244   4.109   4.805   4.318
 1434TIP3    H1 4245   4.183   4.803   4.257
 1434TIP3    H2 4246   4.033   4.828   4.264
 1435TIP3   OH2 4247   7.390   6.548   2.019
 1435TIP3    H1 4248   7.471   6.573   1.974
 1435TIP3    H2 4249   7.341   6.630   2.026
 1436TIP3   OH2 4250   7.337   4.252   5.463
 1436TIP3    H1 4251   7.292   4.335   5.475
 1436TIP3    H2 4252   7.284   4.188   5.511
 1437TIP3   OH2 4253   4.248   1.076   3.683
 1437TIP3    H1 4254   4.307   1.111   3.617
 1437TIP3    H2 4255   4.167   1.059   3.636
 1438TIP3   OH2 4256   3.638   2.222   2.620
 1438TIP3    H1 4257   3.643   2.140   2.571
 1438TIP3    H2 4258   3.559   2.213   2.674
 1439TIP3   OH2 4259   3.929   4.439   3.820
 1439TIP3    H1 4260   3.956   4.524   3.856
 1439TIP3    H2 4261   3.971   4.374   3.876
 1440TIP3   OH2 4262   8.001   6.246   4.227
 1440TIP3    H1 4263   8.075   6.230   4.169
 1440TIP3    H2 4264   8.005   6.340   4.245
 1441TIP3   OH2 4265   6.340   1.029   1.540
 1441TIP3    H1 4266   6.409   0.984   1.589
 1441TIP3    H2 4267   6.297   1.084   1.606
 1442TIP3   OH2 4268   6.965   4.893   3.585
 1442TIP3    H1 4269   6.942   4.931   3.670
 1442TIP3    H2 4270   7.054   4.921   3.569
 1443TIP3   OH2 4271   0.988   6.861   5.759
 1443TIP3    H1 4272   0.894   6.844   5.755
 1443TIP3    H2 4273   1.025   6.807   5.689
 1444TIP3   OH2 4274   2.590   4.153   1.953
 1444TIP3    H1 4275   2.495   4.171   1.951
 1444TIP3    H2 4276   2.630   4.238   1.971
 1445TIP3   OH2 4277   7.402   1.028   2.449
 1445TIP3    H1 4278   7.359   1.036   2.364
 1445TIP3    H2 4279   7.386   1.113   2.492
 1446TIP3   OH2 4280   4.637   7.592   3.416
 1446TIP3    H1 4281   4.638   7.649   3.340
 1446TIP3    H2 4282   4.562   7.534   3.402
 1447TIP3   OH2 4283   2.562   5.039   3.770
 1447TIP3    H1 4284   2.491   4.991   3.729
 1447TIP3    H2 4285   2.521   5.084   3.844
 1448TIP3   OH2 4286   0.398   6.199   4.797
 1448TIP3    H1 4287   0.433   6.280   4.759
 1448TIP3    H2 4288   0.303   6.212   4.795
 1449TIP3   OH2 4289   1.863   0.474   4.367
 1449TIP3    H1 4290   1.905   0.493   4.451
 1449TIP3    H2 4291   1.882   0.550   4.312
 1450TIP3   OH2 4292   8.329   4.913   1.831
 1450TIP3    H1 4293   8.314   4.985   1.770
 1450TIP3    H2 4294   8.266   4.927   1.902
 1451TIP3   OH2 4295   3.473   6.014   2.974
 1451TIP3    H1 4296   3.425   5.992   3.054
 1451TIP3    H2 4297   3.436   5.955   2.907
 1452TIP3   OH2 4298   0.725   5.166   6.207
 1452TIP3    H1 4299   0.740   5.071   6.202
 1452TIP3    H2 4300   0.762   5.200   6.126
 1453TIP3   OH2 4301   7.833   5.558   3.934
 1453TIP3    H1 4302   7.809   5.467   3.952
 1453TIP3    H2 4303   7.844   5.562   3.839
 1454TIP3   OH2 4304   5.911   3.526   5.982
 1454TIP3    H1 4305   5.896   3.473   6.061
 1454TIP3    H2 4306   5.824   3.553   5.954
 1455TIP3   OH2 4307   6.738   1.529   4.458
 1455TIP3    H1 4308   6.679   1.462   4.425
 1455TIP3    H2 4309   6.729   1.601   4.396
 1456TIP3   OH2 4310   7.642   1.030   3.019
 1456TIP3    H1 4311   7.721   1.080   2.998
 1456TIP3    H2 4312   7.657   0.996   3.107
 1457TIP3   OH2 4313   6.548   6.211   3.405
 1457TIP3    H1 4314   6.457   6.202   3.433
 1457TIP3    H2 4315   6.599   6.185   3.483
 1458TIP3   OH2 4316   3.765   5.657   1.067
 1458TIP3    H1 4317   3.715   5.598   1.012
 1458TIP3    H2 4318   3.854   5.622   1.065
 1459TIP3   OH2 4319   7.492   5.601   1.502
 1459TIP3    H1 4320   7.477   5.512   1.471
 1459TIP3    H2 4321   7.406   5.633   1.528
 1460TIP3   OH2 4322   1.022   5.373   1.484
 1460TIP3    H1 4323   1.017   5.329   1.569
 1460TIP3    H2 4324   1.059   5.308   1.425
 1461TIP3   OH2 4325   4.357   7.607   4.884
 1461TIP3    H1 4326   4.386   7.587   4.974
 1461TIP3    H2 4327   4.264   7.584   4.883
 1462TIP3   OH2 4328   8.017   2.497   1.919
 1462TIP3    H1 4329   8.033   2.410   1.881
 1462TIP3    H2 4330   8.088   2.551   1.884
 1463TIP3   OH2 4331   4.337   4.925   5.877
 1463TIP3    H1 4332   4.319   4.846   5.826
 1463TIP3    H2 4333   4.303   4.905   5.964
 1464TIP3   OH2 4334   5.600   7.381   0.840
 1464TIP3    H1 4335   5.607   7.455   0.780
 1464TIP3    H2 4336   5.581   7.306   0.784
 1465TIP3   OH2 4337   2.137   4.417   5.037
 1465TIP3    H1 4338   2.058   4.365   5.019
 1465TIP3    H2 4339   2.105   4.506   5.049
 1466TIP3   OH2 4340   2.786   4.594   2.115
 1466TIP3    H1 4341   2.735   4.631   2.043
 1466TIP3    H2 4342   2.760   4.645   2.191
 1467TIP3   OH2 4343   3.654   0.178   4.023
 1467TIP3    H1 4344   3.735   0.139   4.058
 1467TIP3    H2 4345   3.671   0.272   4.025
 1468TIP3   OH2 4346   6.862   1.671   2.509
 1468TIP3    H1 4347   6.917   1.640   2.580
 1468TIP3    H2 4348   6.816   1.593   2.477
 1469TIP3   OH2 4349   1.824   1.504   3.947
 1469TIP3    H1 4350   1.887   1.557   3.898
 1469TIP3    H2 4351   1.772   1.567   3.996
 1470TIP3   OH2 4352   1.139   0.544   3.255
 1470TIP3    H1 4353   1.081   0.573   3.184
 1470TIP3    H2 4354   1.197   0.480   3.213
 1471TIP3   OH2 4355   8.331   6.945   2.769
 1471TIP3    H1 4356   8.263   6.894   2.813
 1471TIP3    H2 4357   8.334   7.027   2.817
 1472TIP3   OH2 4358   5.270   5.962   6.630
 1472TIP3    H1 4359   5.256   5.873   6.600
 1472TIP3    H2 4360   5.310   5.952   6.716
 1473TIP3   OH2 4361   6.339   3.495   0.619
 1473TIP3    H1 4362   6.286   3.575   0.611
 1473TIP3    H2 4363   6.351   3.466   0.528
 1474TIP3   OH2 4364   6.569   1.894   4.958
 1474TIP3    H1 4365   6.496   1.948   4.926
 1474TIP3    H2 4366   6.600   1.846   4.881
 1475TIP3   OH2 4367   6.614   7.746   3.109
 1475TIP3    H1 4368   6.661   7.747   3.026
 1475TIP3    H2 4369   6.652   7.820   3.158
 1476TIP3   OH2 4370   7.492   5.142   3.757
 1476TIP3    H1 4371   7.430   5.215   3.755
 1476TIP3    H2 4372   7.578   5.184   3.752
 1477TIP3   OH2 4373   6.065   1.803   4.567
 1477TIP3    H1 4374   6.147   1.787   4.520
 1477TIP3    H2 4375   6.003   1.827   4.499
 1478TIP3   OH2 4376   7.677   2.974   1.564
 1478TIP3    H1 4377   7.636   2.945   1.645
 1478TIP3    H2 4378   7.767   2.997   1.590
 1479TIP3   OH2 4379   1.284   4.362   0.658
 1479TIP3    H1 4380   1.373   4.396   0.645
 1479TIP3    H2 4381   1.269   4.370   0.752
 1480TIP3   OH2 4382   7.512   3.455   1.030
 1480TIP3    H1 4383   7.515   3.360   1.021
 1480TIP3    H2 4384   7.564   3.473   1.108
 1481TIP3   OH2 4385   7.291   6.294   2.386
 1481TIP3    H1 4386   7.375   6.339   2.394
 1481TIP3    H2 4387   7.254   6.295   2.474
 1482TIP3   OH2 4388   5.079   3.699   1.363
 1482TIP3    H1 4389   5.114   3.661   1.444
 1482TIP3    H2 4390   5.099   3.633   1.296
 1483TIP3   OH2 4391   2.350   0.300   1.171
 1483TIP3    H1 4392   2.426   0.293   1.113
 1483TIP3    H2 4393   2.353   0.390   1.203
 1484TIP3   OH2 4394   3.963   7.454   5.940
 1484TIP3    H1 4395   3.933   7.402   6.015
 1484TIP3    H2 4396   4.045   7.493   5.970
 1485TIP3   OH2 4397   2.766   2.140   4.588
 1485TIP3    H1 4398   2.674   2.125   4.611
 1485TIP3    H2 4399   2.815   2.082   4.647
 1486TIP3   OH2 4400   1.362   6.550   6.192
 1486TIP3    H1 4401   1.324   6.475   6.146
 1486TIP3    H2 4402   1.317   6.550   6.277
 1487TIP3   OH2 4403   2.142   2.010   4.667
 1487TIP3    H1 4404   2.149   1.985   4.759
 1487TIP3    H2 4405   2.135   2.105   4.668
 1488TIP3   OH2 4406   1.056   5.821   0.867
 1488TIP3    H1 4407   1.093   5.805   0.780
 1488TIP3    H2 4408   0.978   5.874   0.851
 1489TIP3   OH2 4409   4.564   3.989   6.250
 1489TIP3    H1 4410   4.627   3.925   6.215
 1489TIP3    H2 4411   4.533   3.949   6.331
 1490TIP3   OH2 4412   8.164   0.606   1.202
 1490TIP3    H1 4413   8.154   0.700   1.217
 1490TIP3    H2 4414   8.195   0.600   1.111
 1491TIP3   OH2 4415   4.055   0.788   2.081
 1491TIP3    H1 4416   4.072   0.750   2.167
 1491TIP3    H2 4417   3.994   0.726   2.039
 1492TIP3   OH2 4418   5.842   0.982   3.779
 1492TIP3    H1 4419   5.879   1.015   3.697
 1492TIP3    H2 4420   5.834   0.888   3.765
 1493TIP3   OH2 4421   3.451   0.887   4.122
 1493TIP3    H1 4422   3.541   0.919   4.114
 1493TIP3    H2 4423   3.431   0.893   4.215
 1494TIP3   OH2 4424   0.484   0.259   4.381
 1494TIP3    H1 4425   0.441   0.224   4.459
 1494TIP3    H2 4426   0.569   0.216   4.379
 1495TIP3   OH2 4427   2.561   0.922   3.400
 1495TIP3    H1 4428   2.535   0.974   3.325
 1495TIP3    H2 4429   2.580   0.835   3.364
 1496TIP3   OH2 4430   2.588   3.509   3.867
 1496TIP3    H1 4431   2.662   3.499   3.808
 1496TIP3    H2 4432   2.617   3.469   3.949
 1497TIP3   OH2 4433   3.781   5.471   5.652
 1497TIP3    H1 4434   3.694   5.477   5.613
 1497TIP3    H2 4435   3.808   5.380   5.640
 1498TIP3   OH2 4436   4.794   2.017   3.221
 1498TIP3    H1 4437   4.833   2.030   3.135
 1498TIP3    H2 4438   4.716   1.964   3.205
 1499TIP3   OH2 4439   3.490   3.497   5.664
 1499TIP3    H1 4440   3.428   3.563   5.632
 1499TIP3    H2 4441   3.526   3.458   5.584
 1500TIP3   OH2 4442   7.534   4.977   0.082
 1500TIP3    H1 4443   7.472   4.909   0.106
 1500TIP3    H2 4444   7.530   5.041   0.153
 1501TIP3   OH2 4445   6.416   3.547   5.622
 1501TIP3    H1 4446   6.466   3.470   5.596
 1501TIP3    H2 4447   6.336   3.542   5.571
 1502TIP3   OH2 4448   4.448   7.468   2.311
 1502TIP3    H1 4449   4.454   7.408   2.385
 1502TIP3    H2 4450   4.505   7.430   2.245
 1503TIP3   OH2 4451   3.858   5.667   3.039
 1503TIP3    H1 4452   3.941   5.697   3.076
 1503TIP3    H2 4453   3.795   5.734   3.064
 1504TIP3   OH2 4454   6.069   0.118   1.068
 1504TIP3    H1 4455   6.055   0.037   1.017
 1504TIP3    H2 4456   6.164   0.123   1.079
 1505TIP3   OH2 4457   7.675   1.193   6.276
 1505TIP3    H1 4458   7.754   1.193   6.329
 1505TIP3    H2 4459   7.604   1.204   6.340
 1506TIP3   OH2 4460   2.107   3.316   6.141
 1506TIP3    H1 4461   2.114   3.278   6.229
 1506TIP3    H2 4462   2.112   3.410   6.156
 1507TIP3   OH2 4463   7.638   7.152   0.815
 1507TIP3    H1 4464   7.610   7.142   0.906
 1507TIP3    H2 4465   7.706   7.219   0.819
 1508TIP3   OH2 4466   4.102   1.733   1.472
 1508TIP3    H1 4467   4.092   1.776   1.387
 1508TIP3    H2 4468   4.084   1.801   1.537
 1509TIP3   OH2 4469   4.770   1.218   3.201
 1509TIP3    H1 4470   4.699   1.280   3.218
 1509TIP3    H2 4471   4.835   1.236   3.268
 1510TIP3   OH2 4472   1.367   6.202   2.838
 1510TIP3    H1 4473   1.404   6.223   2.924
 1510TIP3    H2 4474   1.274   6.186   2.855
 1511TIP3   OH2 4475   6.877   6.225   6.081
 1511TIP3    H1 4476   6.953   6.256   6.031
 1511TIP3    H2 4477   6.857   6.140   6.042
 1512TIP3   OH2 4478   7.152   2.966   2.211
 1512TIP3    H1 4479   7.078   3.021   2.237
 1512TIP3    H2 4480   7.208   3.023   2.158
 1513TIP3   OH2 4481   8.007   1.192   2.701
 1513TIP3    H1 4482   7.948   1.248   2.751
 1513TIP3    H2 4483   8.091   1.200   2.746
 1514TIP3   OH2 4484   3.890   6.041   3.040
 1514TIP3    H1 4485   3.919   5.953   3.062
 1514TIP3    H2 4486   3.965   6.097   3.062
 1515TIP3   OH2 4487   4.092   1.431   5.307
 1515TIP3    H1 4488   4.013   1.452   5.258
 1515TIP3    H2 4489   4.065   1.436   5.399
 1516TIP3   OH2 4490   4.158   0.078   2.931
 1516TIP3    H1 4491   4.172   0.083   3.025
 1516TIP3    H2 4492   4.246   0.070   2.894
 1517TIP3   OH2 4493   1.471   5.809   5.257
 1517TIP3    H1 4494   1.426   5.835   5.177
 1517TIP3    H2 4495   1.518   5.887   5.285
 1518TIP3   OH2 4496   2.261   0.443   5.250
 1518TIP3    H1 4497   2.342   0.438   5.200
 1518TIP3    H2 4498   2.195   0.473   5.188
 1519TIP3   OH2 4499   0.412   3.831   6.156
 1519TIP3    H1 4500   0.495   3.841   6.202
 1519TIP3    H2 4501   0.347   3.874   6.212
 1520TIP3   OH2 4502   2.800   3.621   1.703
 1520TIP3    H1 4503   2.877   3.618   1.759
 1520TIP3    H2 4504   2.778   3.529   1.687
 1521TIP3   OH2 4505   6.487   4.128   6.075
 1521TIP3    H1 4506   6.392   4.138   6.063
 1521TIP3    H2 4507   6.514   4.073   6.001
 1522TIP3   OH2 4508   3.338   1.842   2.446
 1522TIP3    H1 4509   3.287   1.835   2.527
 1522TIP3    H2 4510   3.308   1.769   2.392
 1523TIP3   OH2 4511   4.290   2.494   1.002
 1523TIP3    H1 4512   4.375   2.483   0.957
 1523TIP3    H2 4513   4.239   2.549   0.942
 1524TIP3   OH2 4514   6.479   5.622   1.232
 1524TIP3    H1 4515   6.488   5.634   1.138
 1524TIP3    H2 4516   6.392   5.584   1.243
 1525TIP3   OH2 4517   6.780   2.333   4.270
 1525TIP3    H1 4518   6.823   2.315   4.187
 1525TIP3    H2 4519   6.742   2.250   4.298
 1526TIP3   OH2 4520   1.311   3.197   6.610
 1526TIP3    H1 4521   1.352   3.278   6.579
 1526TIP3    H2 4522   1.342   3.188   6.700
 1527TIP3   OH2 4523   2.934   2.929   5.416
 1527TIP3    H1 4524   3.001   2.869   5.447
 1527TIP3    H2 4525   2.900   2.889   5.336
 1528TIP3   OH2 4526   0.988   5.660   1.102
 1528TIP3    H1 4527   1.054   5.708   1.052
 1528TIP3    H2 4528   0.937   5.613   1.035
 1529TIP3   OH2 4529   6.854   1.629   1.303
 1529TIP3    H1 4530   6.913   1.604   1.231
 1529TIP3    H2 4531   6.797   1.553   1.315
 1530TIP3   OH2 4532   1.822   2.277   1.527
 1530TIP3    H1 4533   1.803   2.203   1.585
 1530TIP3    H2 4534   1.911   2.304   1.551
 1531TIP3   OH2 4535   3.181   0.787   0.697
 1531TIP3    H1 4536   3.168   0.863   0.641
 1531TIP3    H2 4537   3.245   0.816   0.762
 1532TIP3   OH2 4538   3.942   2.096   4.811
 1532TIP3    H1 4539   3.937   2.012   4.766
 1532TIP3    H2 4540   3.850   2.120   4.825
 1533TIP3   OH2 4541   1.410   1.342   2.961
 1533TIP3    H1 4542   1.442   1.374   2.877
 1533TIP3    H2 4543   1.485   1.347   3.020
 1534TIP3   OH2 4544   2.881   6.233   2.133
 1534TIP3    H1 4545   2.893   6.322   2.098
 1534TIP3    H2 4546   2.798   6.238   2.181
 1535TIP3   OH2 4547   6.233   0.908   5.017
 1535TIP3    H1 4548   6.176   0.981   5.040
 1535TIP3    H2 4549   6.200   0.835   5.069
 1536TIP3   OH2 4550   7.055   5.356   4.855
 1536TIP3    H1 4551   7.141   5.397   4.854
 1536TIP3    H2 4552   6.994   5.428   4.866
 1537TIP3   OH2 4553   4.418   5.236   3.008
 1537TIP3    H1 4554   4.390   5.146   2.993
 1537TIP3    H2 4555   4.474   5.231   3.085
 1538TIP3   OH2 4556   0.954   4.004   0.885
 1538TIP3    H1 4557   0.923   4.094   0.894
 1538TIP3    H2 4558   0.998   3.986   0.968
 1539TIP3   OH2 4559   3.905   2.760   0.399
 1539TIP3    H1 4560   3.999   2.741   0.400
 1539TIP3    H2 4561   3.864   2.673   0.398
 1540TIP3   OH2 4562   6.630   2.191   0.623
 1540TIP3    H1 4563   6.575   2.117   0.598
 1540TIP3    H2 4564   6.711   2.151   0.654
 1541TIP3   OH2 4565   7.670   4.320   1.665
 1541TIP3    H1 4566   7.760   4.340   1.689
 1541TIP3    H2 4567   7.666   4.335   1.571
 1542TIP3   OH2 4568   2.429   1.430   3.740
 1542TIP3    H1 4569   2.431   1.518   3.704
 1542TIP3    H2 4570   2.486   1.434   3.817
 1543TIP3   OH2 4571   5.773   1.312   5.049
 1543TIP3    H1 4572   5.681   1.305   5.024
 1543TIP3    H2 4573   5.798   1.401   5.022
 1544TIP3   OH2 4574   8.238   5.015   2.089
 1544TIP3    H1 4575   8.176   4.949   2.122
 1544TIP3    H2 4576   8.271   5.058   2.168
 1545TIP3   OH2 4577   5.649   6.364   4.505
 1545TIP3    H1 4578   5.622   6.298   4.442
 1545TIP3    H2 4579   5.627   6.448   4.464
 1546TIP3   OH2 4580   4.815   2.324   4.623
 1546TIP3    H1 4581   4.855   2.273   4.552
 1546TIP3    H2 4582   4.847   2.282   4.703
 1547TIP3   OH2 4583   5.877   4.974   6.524
 1547TIP3    H1 4584   5.789   5.011   6.521
 1547TIP3    H2 4585   5.885   4.924   6.443
 1548TIP3   OH2 4586   1.238   5.407   5.544
 1548TIP3    H1 4587   1.189   5.427   5.464
 1548TIP3    H2 4588   1.178   5.427   5.615
 1549TIP3   OH2 4589   3.105   1.344   0.653
 1549TIP3    H1 4590   3.156   1.306   0.581
 1549TIP3    H2 4591   3.015   1.317   0.635
 1550TIP3   OH2 4592   5.954   1.553   2.376
 1550TIP3    H1 4593   5.935   1.577   2.286
 1550TIP3    H2 4594   5.883   1.592   2.428
 1551TIP3   OH2 4595   2.083   1.412   4.235
 1551TIP3    H1 4596   2.109   1.387   4.324
 1551TIP3    H2 4597   1.991   1.388   4.229
 1552TIP3   OH2 4598   0.472   6.931   5.836
 1552TIP3    H1 4599   0.429   6.989   5.774
 1552TIP3    H2 4600   0.550   6.899   5.790
 1553TIP3   OH2 4601   4.365   4.240   5.461
 1553TIP3    H1 4602   4.274   4.210   5.457
 1553TIP3    H2 4603   4.409   4.190   5.392
 1554TIP3   OH2 4604   2.577   7.114   2.848
 1554TIP3    H1 4605   2.568   7.020   2.864
 1554TIP3    H2 4606   2.550   7.155   2.930
 1555TIP3   OH2 4607   5.579   7.813   1.962
 1555TIP3    H1 4608   5.607   7.729   1.998
 1555TIP3    H2 4609   5.485   7.801   1.944
 1556TIP3   OH2 4610   6.487   5.197   0.568
 1556TIP3    H1 4611   6.449   5.149   0.495
 1556TIP3    H2 4612   6.563   5.146   0.594
 1557TIP3   OH2 4613   7.307   6.923   1.721
 1557TIP3    H1 4614   7.351   6.934   1.805
 1557TIP3    H2 4615   7.263   6.839   1.727
 1558TIP3   OH2 4616   4.261   7.667   2.642
 1558TIP3    H1 4617   4.346   7.633   2.671
 1558TIP3    H2 4618   4.236   7.608   2.571
 1559TIP3   OH2 4619   7.769   4.854   1.966
 1559TIP3    H1 4620   7.696   4.793   1.956
 1559TIP3    H2 4621   7.728   4.940   1.961
 1560TIP3   OH2 4622   4.361   6.271   3.567
 1560TIP3    H1 4623   4.378   6.363   3.547
 1560TIP3    H2 4624   4.403   6.223   3.496
 1561TIP3   OH2 4625   3.690   4.935   4.815
 1561TIP3    H1 4626   3.635   4.894   4.749
 1561TIP3    H2 4627   3.740   4.863   4.853
 1562TIP3   OH2 4628   6.819   2.620   3.064
 1562TIP3    H1 4629   6.736   2.652   3.028
 1562TIP3    H2 4630   6.815   2.525   3.051
 1563TIP3   OH2 4631   2.811   3.779   5.352
 1563TIP3    H1 4632   2.844   3.851   5.405
 1563TIP3    H2 4633   2.816   3.811   5.262
 1564TIP3   OH2 4634   7.276   2.901   3.832
 1564TIP3    H1 4635   7.217   2.831   3.804
 1564TIP3    H2 4636   7.344   2.856   3.881
 1565TIP3   OH2 4637   6.213   1.530   2.465
 1565TIP3    H1 4638   6.142   1.523   2.401
 1565TIP3    H2 4639   6.290   1.497   2.419
 1566TIP3   OH2 4640   3.348   4.153   4.460
 1566TIP3    H1 4641   3.441   4.169   4.474
 1566TIP3    H2 4642   3.344   4.086   4.392
 1567TIP3   OH2 4643   2.565   3.571   6.501
 1567TIP3    H1 4644   2.603   3.494   6.458
 1567TIP3    H2 4645   2.629   3.594   6.568
 1568TIP3   OH2 4646   1.476   5.633   0.739
 1568TIP3    H1 4647   1.424   5.700   0.695
 1568TIP3    H2 4648   1.425   5.611   0.817
 1569TIP3   OH2 4649   6.440   5.199   0.865
 1569TIP3    H1 4650   6.497   5.183   0.790
 1569TIP3    H2 4651   6.353   5.211   0.828
 1570TIP3   OH2 4652   5.025   4.750   4.589
 1570TIP3    H1 4653   5.083   4.823   4.567
 1570TIP3    H2 4654   4.970   4.784   4.660
 1571TIP3   OH2 4655   4.000   6.245   3.423
 1571TIP3    H1 4656   4.016   6.339   3.411
 1571TIP3    H2 4657   3.916   6.242   3.470
 1572TIP3   OH2 4658   2.757   3.219   0.602
 1572TIP3    H1 4659   2.849   3.243   0.608
 1572TIP3    H2 4660   2.757   3.125   0.590
 1573TIP3   OH2 4661   2.441   3.388   4.454
 1573TIP3    H1 4662   2.409   3.439   4.529
 1573TIP3    H2 4663   2.393   3.305   4.460
 1574TIP3   OH2 4664   1.215   1.641   6.435
 1574TIP3    H1 4665   1.220   1.648   6.340
 1574TIP3    H2 4666   1.129   1.677   6.457
 1575TIP3   OH2 4667   2.794   6.635   3.730
 1575TIP3    H1 4668   2.704   6.608   3.707
 1575TIP3    H2 4669   2.849   6.581   3.673
 1576TIP3   OH2 4670   0.914   6.359   2.535
 1576TIP3    H1 4671   0.974   6.297   2.576
 1576TIP3    H2 4672   0.911   6.434   2.595
 1577TIP3   OH2 4673   0.982   7.376   0.351
 1577TIP3    H1 4674   0.920   7.310   0.380
 1577TIP3    H2 4675   1.053   7.326   0.310
 1578TIP3   OH2 4676   4.039   0.635   4.232
 1578TIP3    H1 4677   4.054   0.730   4.233
 1578TIP3    H2 4678   3.955   0.625   4.189
 1579TIP3   OH2 4679   1.312   7.258   1.729
 1579TIP3    H1 4680   1.260   7.245   1.809
 1579TIP3    H2 4681   1.343   7.348   1.736
 1580TIP3   OH2 4682   4.210   3.308   6.412
 1580TIP3    H1 4683   4.212   3.361   6.492
 1580TIP3    H2 4684   4.144   3.351   6.357
 1581TIP3   OH2 4685   2.680   3.419  -0.002
 1581TIP3    H1 4686   2.749   3.360  -0.032
 1581TIP3    H2 4687   2.601   3.366  -0.002
 1582TIP3   OH2 4688   2.342   7.087   6.379
 1582TIP3    H1 4689   2.332   7.070   6.473
 1582TIP3    H2 4690   2.421   7.039   6.354
 1583TIP3   OH2 4691   7.324   4.863   3.955
 1583TIP3    H1 4692   7.252   4.817   3.998
 1583TIP3    H2 4693   7.359   4.921   4.022
 1584TIP3   OH2 4694   6.635   3.440   6.689
 1584TIP3    H1 4695   6.656   3.421   6.598
 1584TIP3    H2 4696   6.691   3.515   6.711
 1585TIP3   OH2 4697   2.095   6.597   3.774
 1585TIP3    H1 4698   2.123   6.689   3.774
 1585TIP3    H2 4699   2.057   6.583   3.860
 1586TIP3   OH2 4700   4.368   0.508   3.991
 1586TIP3    H1 4701   4.396   0.419   4.014
 1586TIP3    H2 4702   4.448   0.560   3.997
 1587TIP3   OH2 4703   3.215   5.570   3.417
 1587TIP3    H1 4704   3.140   5.629   3.421
 1587TIP3    H2 4705   3.226   5.538   3.506
 1588TIP3   OH2 4706   6.588  -0.013   0.786
 1588TIP3    H1 4707   6.549   0.021   0.705
 1588TIP3    H2 4708   6.514  -0.051   0.833
 1589TIP3   OH2 4709   2.751   1.205   4.110
 1589TIP3    H1 4710   2.815   1.203   4.182
 1589TIP3    H2 4711   2.666   1.210   4.154
 1590TIP3   OH2 4712   7.187   7.542   2.261
 1590TIP3    H1 4713   7.111   7.593   2.288
 1590TIP3    H2 4714   7.172   7.525   2.168
 1591TIP3   OH2 4715   3.972   7.126   0.831
 1591TIP3    H1 4716   3.917   7.102   0.906
 1591TIP3    H2 4717   4.057   7.087   0.850
 1592TIP3   OH2 4718   8.244   2.192   6.630
 1592TIP3    H1 4719   8.159   2.149   6.627
 1592TIP3    H2 4720   8.272   2.197   6.539
 1593TIP3   OH2 4721   3.172   6.522   2.116
 1593TIP3    H1 4722   3.204   6.508   2.027
 1593TIP3    H2 4723   3.078   6.538   2.105
 1594TIP3   OH2 4724   6.865   0.573   5.470
 1594TIP3    H1 4725   6.801   0.526   5.523
 1594TIP3    H2 4726   6.874   0.520   5.391
 1595TIP3   OH2 4727   0.482   0.993   0.285
 1595TIP3    H1 4728   0.416   0.934   0.322
 1595TIP3    H2 4729   0.436   1.039   0.215
 1596TIP3   OH2 4730   5.886   3.414   1.504
 1596TIP3    H1 4731   5.837   3.348   1.457
 1596TIP3    H2 4732   5.895   3.487   1.443
 1597TIP3   OH2 4733   5.280   4.952   2.178
 1597TIP3    H1 4734   5.353   4.898   2.209
 1597TIP3    H2 4735   5.319   5.010   2.112
 1598TIP3   OH2 4736   6.480   4.275   0.604
 1598TIP3    H1 4737   6.562   4.236   0.575
 1598TIP3    H2 4738   6.419   4.259   0.532
 1599TIP3   OH2 4739   6.451   0.253   1.875
 1599TIP3    H1 4740   6.507   0.194   1.825
 1599TIP3    H2 4741   6.366   0.248   1.831
 1600TIP3   OH2 4742   0.827   1.891   4.822
 1600TIP3    H1 4743   0.905   1.873   4.770
 1600TIP3    H2 4744   0.805   1.981   4.802
 1601TIP3   OH2 4745   5.535   7.004   2.446
 1601TIP3    H1 4746   5.529   7.059   2.524
 1601TIP3    H2 4747   5.446   7.002   2.411
 1602TIP3   OH2 4748   5.454   0.976   4.745
 1602TIP3    H1 4749   5.542   0.962   4.781
 1602TIP3    H2 4750   5.400   0.910   4.788
 1603TIP3   OH2 4751   1.570   6.103   1.096
 1603TIP3    H1 4752   1.493   6.101   1.153
 1603TIP3    H2 4753   1.632   6.045   1.139
 1604TIP3   OH2 4754   2.244   3.690   2.716
 1604TIP3    H1 4755   2.249   3.630   2.641
 1604TIP3    H2 4756   2.192   3.764   2.683
 1605TIP3   OH2 4757   5.537   3.585   6.793
 1605TIP3    H1 4758   5.578   3.668   6.770
 1605TIP3    H2 4759   5.538   3.534   6.712
 1606TIP3   OH2 4760   0.493   2.813   6.704
 1606TIP3    H1 4761   0.475   2.805   6.798
 1606TIP3    H2 4762   0.560   2.747   6.687
 1607TIP3   OH2 4763   0.751   2.496   5.027
 1607TIP3    H1 4764   0.660   2.510   5.001
 1607TIP3    H2 4765   0.801   2.506   4.947
 1608TIP3   OH2 4766   2.260   1.594   0.344
 1608TIP3    H1 4767   2.294   1.538   0.414
 1608TIP3    H2 4768   2.164   1.585   0.351
 1609TIP3   OH2 4769   5.103   3.848   3.911
 1609TIP3    H1 4770   5.046   3.910   3.956
 1609TIP3    H2 4771   5.183   3.897   3.893
 1610TIP3   OH2 4772   3.968   0.305   3.786
 1610TIP3    H1 4773   4.063   0.307   3.774
 1610TIP3    H2 4774   3.956   0.276   3.876
 1611TIP3   OH2 4775   3.752   4.112   5.343
 1611TIP3    H1 4776   3.760   4.017   5.351
 1611TIP3    H2 4777   3.694   4.138   5.414
 1612TIP3   OH2 4778   1.727   4.375   3.060
 1612TIP3    H1 4779   1.751   4.330   3.141
 1612TIP3    H2 4780   1.808   4.379   3.009
 1613TIP3   OH2 4781   7.180   3.562   6.366
 1613TIP3    H1 4782   7.116   3.502   6.404
 1613TIP3    H2 4783   7.158   3.648   6.401
 1614TIP3   OH2 4784   7.586   2.666   5.407
 1614TIP3    H1 4785   7.586   2.676   5.312
 1614TIP3    H2 4786   7.652   2.729   5.438
 1615TIP3   OH2 4787   5.493   5.640   6.372
 1615TIP3    H1 4788   5.458   5.587   6.444
 1615TIP3    H2 4789   5.418   5.655   6.315
 1616TIP3   OH2 4790   5.869   3.957   5.706
 1616TIP3    H1 4791   5.868   3.917   5.793
 1616TIP3    H2 4792   5.821   3.895   5.651
 1617TIP3   OH2 4793   2.608   1.751   6.462
 1617TIP3    H1 4794   2.701   1.765   6.481
 1617TIP3    H2 4795   2.577   1.697   6.535
 1618TIP3   OH2 4796   5.989   2.743   1.839
 1618TIP3    H1 4797   5.985   2.831   1.877
 1618TIP3    H2 4798   5.909   2.737   1.786
 1619TIP3   OH2 4799   5.968   6.661   4.556
 1619TIP3    H1 4800   5.942   6.569   4.567
 1619TIP3    H2 4801   6.047   6.671   4.610
 1620TIP3   OH2 4802   4.758   0.350   1.096
 1620TIP3    H1 4803   4.813   0.322   1.023
 1620TIP3    H2 4804   4.760   0.277   1.157
 1621TIP3   OH2 4805   5.409   1.813   1.530
 1621TIP3    H1 4806   5.318   1.800   1.504
 1621TIP3    H2 4807   5.460   1.772   1.460
 1622TIP3   OH2 4808   6.951   7.173   3.670
 1622TIP3    H1 4809   6.880   7.114   3.696
 1622TIP3    H2 4810   6.912   7.233   3.607
 1623TIP3   OH2 4811   6.585   1.809   4.693
 1623TIP3    H1 4812   6.587   1.828   4.600
 1623TIP3    H2 4813   6.516   1.743   4.703
 1624TIP3   OH2 4814   7.965   3.362   3.950
 1624TIP3    H1 4815   8.044   3.407   3.921
 1624TIP3    H2 4816   7.966   3.279   3.902
 1625TIP3   OH2 4817   7.836   6.917   0.737
 1625TIP3    H1 4818   7.869   6.975   0.805
 1625TIP3    H2 4819   7.910   6.905   0.678
 1626TIP3   OH2 4820   2.452   7.612   6.144
 1626TIP3    H1 4821   2.499   7.648   6.219
 1626TIP3    H2 4822   2.474   7.519   6.145
 1627TIP3   OH2 4823   5.701   4.273   3.885
 1627TIP3    H1 4824   5.722   4.194   3.935
 1627TIP3    H2 4825   5.628   4.247   3.828
 1628TIP3   OH2 4826   8.150   6.104   4.475
 1628TIP3    H1 4827   8.147   6.166   4.402
 1628TIP3    H2 4828   8.079   6.132   4.533
 1629TIP3   OH2 4829   0.594   3.052   6.583
 1629TIP3    H1 4830   0.576   3.060   6.489
 1629TIP3    H2 4831   0.565   2.964   6.606
 1630TIP3   OH2 4832   3.433   0.318   3.501
 1630TIP3    H1 4833   3.497   0.248   3.507
 1630TIP3    H2 4834   3.448   0.372   3.579
 1631TIP3   OH2 4835   8.099   6.933   0.965
 1631TIP3    H1 4836   8.024   6.939   1.024
 1631TIP3    H2 4837   8.100   6.842   0.935
 1632TIP3   OH2 4838   5.243   2.364   1.031
 1632TIP3    H1 4839   5.167   2.330   0.984
 1632TIP3    H2 4840   5.304   2.389   0.962
 1633TIP3   OH2 4841   3.562   7.268   1.875
 1633TIP3    H1 4842   3.516   7.217   1.941
 1633TIP3    H2 4843   3.505   7.266   1.798
 1634TIP3   OH2 4844   8.020   6.839   2.652
 1634TIP3    H1 4845   7.991   6.928   2.629
 1634TIP3    H2 4846   8.079   6.814   2.581
 1635TIP3   OH2 4847   1.531   7.758   2.600
 1635TIP3    H1 4848   1.616   7.723   2.626
 1635TIP3    H2 4849   1.523   7.737   2.507
 1636TIP3   OH2 4850   6.438   1.612   0.697
 1636TIP3    H1 4851   6.423   1.645   0.609
 1636TIP3    H2 4852   6.495   1.536   0.685
 1637TIP3   OH2 4853   7.522   5.110   1.838
 1637TIP3    H1 4854   7.440   5.061   1.837
 1637TIP3    H2 4855   7.525   5.151   1.924
 1638TIP3   OH2 4856   7.124   0.515   4.158
 1638TIP3    H1 4857   7.059   0.460   4.116
 1638TIP3    H2 4858   7.073   0.584   4.201
 1639TIP3   OH2 4859   7.984   2.811   5.556
 1639TIP3    H1 4860   8.027   2.834   5.638
 1639TIP3    H2 4861   7.982   2.715   5.556
 1640TIP3   OH2 4862   5.149   3.365   0.252
 1640TIP3    H1 4863   5.228   3.342   0.203
 1640TIP3    H2 4864   5.089   3.398   0.185
 1641TIP3   OH2 4865   0.787   2.076   3.554
 1641TIP3    H1 4866   0.793   2.078   3.649
 1641TIP3    H2 4867   0.844   2.003   3.528
 1642TIP3   OH2 4868   7.319   1.268   5.279
 1642TIP3    H1 4869   7.360   1.274   5.365
 1642TIP3    H2 4870   7.382   1.307   5.219
 1643TIP3   OH2 4871   6.046   4.458   5.691
 1643TIP3    H1 4872   6.067   4.408   5.770
 1643TIP3    H2 4873   5.951   4.472   5.696
 1644TIP3   OH2 4874   3.095   3.609   6.653
 1644TIP3    H1 4875   3.066   3.665   6.581
 1644TIP3    H2 4876   3.173   3.566   6.620
 1645TIP3   OH2 4877   8.124   7.551   3.809
 1645TIP3    H1 4878   8.161   7.505   3.884
 1645TIP3    H2 4879   8.036   7.576   3.837
 1646TIP3   OH2 4880   1.918   2.380   3.374
 1646TIP3    H1 4881   1.989   2.372   3.310
 1646TIP3    H2 4882   1.942   2.319   3.444
 1647TIP3   OH2 4883   3.856   5.485   2.082
 1647TIP3    H1 4884   3.882   5.524   2.166
 1647TIP3    H2 4885   3.790   5.545   2.048
 1648TIP3   OH2 4886   0.028   5.810   6.016
 1648TIP3    H1 4887  -0.013   5.893   6.042
 1648TIP3    H2 4888  -0.025   5.744   6.060
 1649TIP3   OH2 4889   6.597   3.707   2.248
 1649TIP3    H1 4890   6.583   3.779   2.309
 1649TIP3    H2 4891   6.542   3.727   2.173
 1650TIP3   OH2 4892   4.036   0.452   1.909
 1650TIP3    H1 4893   3.971   0.486   1.970
 1650TIP3    H2 4894   4.020   0.500   1.828
 1651TIP3   OH2 4895   3.941   7.795   3.829
 1651TIP3    H1 4896   3.936   7.836   3.916
 1651TIP3    H2 4897   3.990   7.714   3.844
 1652TIP3   OH2 4898   2.213   0.453   4.395
 1652TIP3    H1 4899   2.158   0.507   4.451
 1652TIP3    H2 4900   2.236   0.510   4.322
 1653TIP3   OH2 4901   8.026   7.174   6.256
 1653TIP3    H1 4902   7.942   7.158   6.213
 1653TIP3    H2 4903   8.005   7.234   6.328
 1654TIP3   OH2 4904   3.430   4.208   4.994
 1654TIP3    H1 4905   3.351   4.165   5.027
 1654TIP3    H2 4906   3.423   4.202   4.899
 1655TIP3   OH2 4907   3.133   3.740   0.062
 1655TIP3    H1 4908   3.170   3.784  -0.014
 1655TIP3    H2 4909   3.061   3.797   0.090
 1656TIP3   OH2 4910   2.372   4.450   6.695
 1656TIP3    H1 4911   2.287   4.477   6.730
 1656TIP3    H2 4912   2.367   4.468   6.601
 1657TIP3   OH2 4913   5.968   4.890   0.463
 1657TIP3    H1 4914   6.002   4.970   0.422
 1657TIP3    H2 4915   5.931   4.840   0.390
 1658TIP3   OH2 4916   1.954   0.383   6.719
 1658TIP3    H1 4917   1.957   0.297   6.760
 1658TIP3    H2 4918   1.909   0.438   6.782
 1659TIP3   OH2 4919   1.421   2.424   4.421
 1659TIP3    H1 4920   1.413   2.516   4.399
 1659TIP3    H2 4921   1.441   2.422   4.514
 1660TIP3   OH2 4922   5.252   0.631   1.545
 1660TIP3    H1 4923   5.204   0.689   1.486
 1660TIP3    H2 4924   5.287   0.689   1.613
 1661TIP3   OH2 4925   7.655   6.669   4.656
 1661TIP3    H1 4926   7.583   6.625   4.702
 1661TIP3    H2 4927   7.732   6.615   4.675
 1662TIP3   OH2 4928   5.377   5.334   0.196
 1662TIP3    H1 4929   5.441   5.388   0.149
 1662TIP3    H2 4930   5.300   5.389   0.204
 1663TIP3   OH2 4931   2.992   3.278   2.460
 1663TIP3    H1 4932   2.906   3.320   2.452
 1663TIP3    H2 4933   3.054   3.350   2.452
 1664TIP3   OH2 4934   3.219   2.226   2.324
 1664TIP3    H1 4935   3.141   2.172   2.338
 1664TIP3    H2 4936   3.205   2.302   2.381
 1665TIP3   OH2 4937   2.088   0.295   3.114
 1665TIP3    H1 4938   2.023   0.240   3.158
 1665TIP3    H2 4939   2.042   0.331   3.038
 1666TIP3   OH2 4940   4.937   3.738   1.087
 1666TIP3    H1 4941   5.024   3.769   1.060
 1666TIP3    H2 4942   4.955   3.676   1.158
 1667TIP3   OH2 4943   7.324   4.831   0.150
 1667TIP3    H1 4944   7.390   4.813   0.217
 1667TIP3    H2 4945   7.288   4.745   0.128
 1668TIP3   OH2 4946   7.520   4.134   0.229
 1668TIP3    H1 4947   7.535   4.066   0.163
 1668TIP3    H2 4948   7.606   4.174   0.242
 1669TIP3   OH2 4949   1.424   3.011   0.117
 1669TIP3    H1 4950   1.384   2.948   0.058
 1669TIP3    H2 4951   1.443   3.087   0.062
 1670TIP3   OH2 4952   7.210   7.363   4.709
 1670TIP3    H1 4953   7.190   7.271   4.693
 1670TIP3    H2 4954   7.216   7.371   4.804
 1671TIP3   OH2 4955   4.858   6.806   4.733
 1671TIP3    H1 4956   4.784   6.806   4.794
 1671TIP3    H2 4957   4.818   6.789   4.648
 1672TIP3   OH2 4958   1.337   7.810   0.937
 1672TIP3    H1 4959   1.398   7.735   0.941
 1672TIP3    H2 4960   1.391   7.885   0.961
 1673TIP3   OH2 4961   0.463   2.158   3.471
 1673TIP3    H1 4962   0.477   2.071   3.510
 1673TIP3    H2 4963   0.524   2.215   3.519
 1674TIP3   OH2 4964   2.782   3.439   1.945
 1674TIP3    H1 4965   2.858   3.493   1.925
 1674TIP3    H2 4966   2.818   3.361   1.987
 1675TIP3   OH2 4967   4.405   7.577   3.693
 1675TIP3    H1 4968   4.499   7.557   3.700
 1675TIP3    H2 4969   4.363   7.504   3.738
 1676TIP3   OH2 4970   6.810   3.478   0.855
 1676TIP3    H1 4971   6.731   3.521   0.823
 1676TIP3    H2 4972   6.821   3.402   0.797
 1677TIP3   OH2 4973   7.749   7.685   4.852
 1677TIP3    H1 4974   7.831   7.649   4.819
 1677TIP3    H2 4975   7.739   7.769   4.807
 1678TIP3   OH2 4976   2.500   2.925   5.350
 1678TIP3    H1 4977   2.561   2.948   5.281
 1678TIP3    H2 4978   2.520   2.987   5.421
 1679TIP3   OH2 4979   4.546   2.469   0.384
 1679TIP3    H1 4980   4.550   2.418   0.465
 1679TIP3    H2 4981   4.493   2.416   0.324
 1680TIP3   OH2 4982   2.987   1.998   5.700
 1680TIP3    H1 4983   2.960   2.074   5.751
 1680TIP3    H2 4984   2.949   1.924   5.745
 1681TIP3   OH2 4985   2.318   3.768   1.456
 1681TIP3    H1 4986   2.271   3.745   1.375
 1681TIP3    H2 4987   2.365   3.848   1.434
 1682TIP3   OH2 4988   7.286   4.971   3.717
 1682TIP3    H1 4989   7.286   4.922   3.800
 1682TIP3    H2 4990   7.369   5.019   3.717
 1683TIP3   OH2 4991   0.381   3.530   5.445
 1683TIP3    H1 4992   0.369   3.474   5.522
 1683TIP3    H2 4993   0.476   3.530   5.431
 1684TIP3   OH2 4994   6.555   3.486   1.065
 1684TIP3    H1 4995   6.461   3.497   1.052
 1684TIP3    H2 4996   6.588   3.457   0.980
 1685TIP3   OH2 4997   0.302   3.985   2.934
 1685TIP3    H1 4998   0.213   3.961   2.962
 1685TIP3    H2 4999   0.333   3.910   2.884
 1686TIP3   OH2 5000   6.782   7.491   4.805
 1686TIP3    H1 5001   6.789   7.579   4.767
 1686TIP3    H2 5002   6.824   7.498   4.891
 1687TIP3   OH2 5003   7.665   0.247   4.006
 1687TIP3    H1 5004   7.654   0.342   4.000
 1687TIP3    H2 5005   7.647   0.227   4.098
 1688TIP3   OH2 5006   7.037   5.437   0.324
 1688TIP3    H1 5007   6.950   5.441   0.364
 1688TIP3    H2 5008   7.028   5.486   0.242
 1689TIP3   OH2 5009   5.285   5.682   5.113
 1689TIP3    H1 5010   5.235   5.741   5.170
 1689TIP3    H2 5011   5.377   5.701   5.132
 1690TIP3   OH2 5012   6.564   0.455   2.001
 1690TIP3    H1 5013   6.510   0.386   1.963
 1690TIP3    H2 5014   6.637   0.409   2.041
 1691TIP3   OH2 5015   0.595   5.128   0.369
 1691TIP3    H1 5016   0.552   5.172   0.296
 1691TIP3    H2 5017   0.601   5.036   0.342
 1692TIP3   OH2 5018   0.566   3.450   1.104
 1692TIP3    H1 5019   0.560   3.480   1.013
 1692TIP3    H2 5020   0.538   3.358   1.101
 1693TIP3   OH2 5021   6.214   2.152   1.021
 1693TIP3    H1 5022   6.305   2.159   0.993
 1693TIP3    H2 5023   6.184   2.068   0.987
 1694TIP3   OH2 5024   4.170   3.350   5.995
 1694TIP3    H1 5025   4.266   3.349   6.000
 1694TIP3    H2 5026   4.148   3.268   5.951
 1695TIP3   OH2 5027   2.214   5.228   5.928
 1695TIP3    H1 5028   2.181   5.148   5.888
 1695TIP3    H2 5029   2.298   5.203   5.966
 1696TIP3   OH2 5030   3.991   3.735   3.118
 1696TIP3    H1 5031   4.075   3.691   3.134
 1696TIP3    H2 5032   3.933   3.666   3.086
 1697TIP3   OH2 5033   7.660   6.580   1.050
 1697TIP3    H1 5034   7.655   6.576   1.145
 1697TIP3    H2 5035   7.579   6.540   1.020
 1698TIP3   OH2 5036   2.119   6.125   2.806
 1698TIP3    H1 5037   2.049   6.064   2.786
 1698TIP3    H2 5038   2.198   6.071   2.808
 1699TIP3   OH2 5039   4.788   5.960   1.282
 1699TIP3    H1 5040   4.833   5.939   1.200
 1699TIP3    H2 5041   4.842   6.027   1.322
 1700TIP3   OH2 5042   6.361   6.800   6.290
 1700TIP3    H1 5043   6.362   6.814   6.195
 1700TIP3    H2 5044   6.336   6.885   6.326
 1701TIP3   OH2 5045   5.212   2.279   3.707
 1701TIP3    H1 5046   5.280   2.250   3.647
 1701TIP3    H2 5047   5.216   2.217   3.780
 1702TIP3   OH2 5048   7.415   4.615   4.539
 1702TIP3    H1 5049   7.326   4.651   4.539
 1702TIP3    H2 5050   7.402   4.521   4.547
 1703TIP3   OH2 5051   7.374   6.764   6.109
 1703TIP3    H1 5052   7.392   6.790   6.019
 1703TIP3    H2 5053   7.410   6.676   6.117
 1704TIP3   OH2 5054   3.143   5.288   5.525
 1704TIP3    H1 5055   3.235   5.261   5.526
 1704TIP3    H2 5056   3.103   5.237   5.596
 1705TIP3   OH2 5057   5.609   0.628   2.110
 1705TIP3    H1 5058   5.690   0.577   2.113
 1705TIP3    H2 5059   5.539   0.563   2.118
 1706TIP3   OH2 5060   0.288   2.002   3.889
 1706TIP3    H1 5061   0.278   2.097   3.895
 1706TIP3    H2 5062   0.257   1.980   3.801
 1707TIP3   OH2 5063   6.434   2.471   5.482
 1707TIP3    H1 5064   6.399   2.456   5.394
 1707TIP3    H2 5065   6.384   2.412   5.538
 1708TIP3   OH2 5066   7.914   0.722   1.878
 1708TIP3    H1 5067   7.999   0.687   1.906
 1708TIP3    H2 5068   7.851   0.687   1.942
 1709TIP3   OH2 5069   4.921   6.379   6.567
 1709TIP3    H1 5070   4.868   6.416   6.496
 1709TIP3    H2 5071   4.928   6.286   6.545
 1710TIP3   OH2 5072   1.958   7.467   3.252
 1710TIP3    H1 5073   1.876   7.419   3.263
 1710TIP3    H2 5074   1.998   7.428   3.174
 1711TIP3   OH2 5075   0.403   0.115   5.066
 1711TIP3    H1 5076   0.418   0.177   4.995
 1711TIP3    H2 5077   0.309   0.118   5.081
 1712TIP3   OH2 5078   0.669   7.535   5.426
 1712TIP3    H1 5079   0.655   7.603   5.359
 1712TIP3    H2 5080   0.763   7.518   5.422
 1713TIP3   OH2 5081   3.451   0.315   2.833
 1713TIP3    H1 5082   3.531   0.272   2.802
 1713TIP3    H2 5083   3.384   0.247   2.831
 1714TIP3   OH2 5084   5.819   0.451   2.137
 1714TIP3    H1 5085   5.826   0.381   2.071
 1714TIP3    H2 5086   5.804   0.405   2.219
 1715TIP3   OH2 5087   4.484   2.844   3.525
 1715TIP3    H1 5088   4.546   2.782   3.485
 1715TIP3    H2 5089   4.401   2.828   3.480
 1716TIP3   OH2 5090   6.290   0.622   5.928
 1716TIP3    H1 5091   6.276   0.598   5.836
 1716TIP3    H2 5092   6.362   0.685   5.925
 1717TIP3   OH2 5093   2.591   2.673   2.817
 1717TIP3    H1 5094   2.618   2.613   2.887
 1717TIP3    H2 5095   2.612   2.626   2.736
 1718TIP3   OH2 5096   2.723   0.698   3.294
 1718TIP3    H1 5097   2.759   0.695   3.206
 1718TIP3    H2 5098   2.799   0.696   3.352
 1719TIP3   OH2 5099   8.271   1.221   0.394
 1719TIP3    H1 5100   8.205   1.172   0.345
 1719TIP3    H2 5101   8.328   1.154   0.433
 1720TIP3   OH2 5102   2.025   5.392   3.796
 1720TIP3    H1 5103   2.086   5.352   3.858
 1720TIP3    H2 5104   1.939   5.380   3.837
 1721TIP3   OH2 5105   2.002   5.370   4.175
 1721TIP3    H1 5106   1.994   5.276   4.155
 1721TIP3    H2 5107   2.041   5.373   4.262
 1722TIP3   OH2 5108   2.814   6.522   6.695
 1722TIP3    H1 5109   2.835   6.614   6.681
 1722TIP3    H2 5110   2.720   6.516   6.680
 1723TIP3   OH2 5111   2.782   2.020   3.183
 1723TIP3    H1 5112   2.796   1.928   3.162
 1723TIP3    H2 5113   2.726   2.052   3.112
 1724TIP3   OH2 5114   7.372   1.043   2.978
 1724TIP3    H1 5115   7.458   1.054   3.017
 1724TIP3    H2 5116   7.343   0.956   3.005
 1725TIP3   OH2 5117   7.013   2.801   2.528
 1725TIP3    H1 5118   6.982   2.891   2.532
 1725TIP3    H2 5119   6.933   2.748   2.523
 1726TIP3   OH2 5120   3.914   7.645   5.750
 1726TIP3    H1 5121   3.968   7.573   5.784
 1726TIP3    H2 5122   3.929   7.717   5.812
 1727TIP3   OH2 5123   1.738   3.435   3.069
 1727TIP3    H1 5124   1.824   3.452   3.032
 1727TIP3    H2 5125   1.678   3.489   3.017
 1728TIP3   OH2 5126   7.445   1.621   4.563
 1728TIP3    H1 5127   7.502   1.598   4.490
 1728TIP3    H2 5128   7.394   1.696   4.531
 1729TIP3   OH2 5129   4.432   0.794   1.543
 1729TIP3    H1 5130   4.413   0.714   1.495
 1729TIP3    H2 5131   4.347   0.819   1.580
 1730TIP3   OH2 5132   4.073   0.580   3.709
 1730TIP3    H1 5133   4.015   0.531   3.767
 1730TIP3    H2 5134   4.138   0.619   3.767
 1731TIP3   OH2 5135   0.870   2.022   5.501
 1731TIP3    H1 5136   0.806   2.062   5.560
 1731TIP3    H2 5137   0.820   1.959   5.449
 1732TIP3   OH2 5138   7.033   3.530   4.572
 1732TIP3    H1 5139   7.067   3.617   4.555
 1732TIP3    H2 5140   6.964   3.517   4.507
 1733TIP3   OH2 5141   1.949   4.946   2.506
 1733TIP3    H1 5142   1.955   4.861   2.550
 1733TIP3    H2 5143   2.031   4.953   2.457
 1734TIP3   OH2 5144   7.953   3.646   0.045
 1734TIP3    H1 5145   7.998   3.652  -0.040
 1734TIP3    H2 5146   7.861   3.635   0.022
 1735TIP3   OH2 5147   5.473   5.579   1.416
 1735TIP3    H1 5148   5.430   5.507   1.370
 1735TIP3    H2 5149   5.537   5.536   1.473
 1736TIP3   OH2 5150   4.260   5.386   2.760
 1736TIP3    H1 5151   4.212   5.468   2.771
 1736TIP3    H2 5152   4.284   5.361   2.849
 1737TIP3   OH2 5153   1.807   0.493   5.517
 1737TIP3    H1 5154   1.818   0.541   5.599
 1737TIP3    H2 5155   1.714   0.502   5.496
 1738TIP3   OH2 5156   4.040   7.130   1.119
 1738TIP3    H1 5157   4.105   7.059   1.117
 1738TIP3    H2 5158   4.092   7.210   1.117
 1739TIP3   OH2 5159   6.034   0.451   1.304
 1739TIP3    H1 5160   6.054   0.423   1.215
 1739TIP3    H2 5161   5.940   0.435   1.314
 1740TIP3   OH2 5162   1.523   7.120   4.482
 1740TIP3    H1 5163   1.574   7.170   4.418
 1740TIP3    H2 5164   1.476   7.055   4.430
 1741TIP3   OH2 5165   5.521   6.210   4.047
 1741TIP3    H1 5166   5.446   6.268   4.035
 1741TIP3    H2 5167   5.593   6.255   4.003
 1742TIP3   OH2 5168   2.023   6.764   6.404
 1742TIP3    H1 5169   1.934   6.731   6.417
 1742TIP3    H2 5170   2.079   6.700   6.448
 1743TIP3   OH2 5171   0.430   5.933   3.915
 1743TIP3    H1 5172   0.515   5.929   3.958
 1743TIP3    H2 5173   0.439   5.880   3.836
 1744TIP3   OH2 5174   7.355   0.016   6.546
 1744TIP3    H1 5175   7.366  -0.074   6.577
 1744TIP3    H2 5176   7.261   0.032   6.551
 1745TIP3   OH2 5177   5.327   1.587   5.148
 1745TIP3    H1 5178   5.298   1.526   5.080
 1745TIP3    H2 5179   5.287   1.555   5.228
 1746TIP3   OH2 5180   1.181   1.054   5.724
 1746TIP3    H1 5181   1.146   1.134   5.684
 1746TIP3    H2 5182   1.275   1.060   5.708
 1747TIP3   OH2 5183   3.426   5.952   5.787
 1747TIP3    H1 5184   3.487   5.879   5.775
 1747TIP3    H2 5185   3.425   5.967   5.881
 1748TIP3   OH2 5186   2.604   4.721   5.352
 1748TIP3    H1 5187   2.673   4.786   5.337
 1748TIP3    H2 5188   2.636   4.671   5.427
 1749TIP3   OH2 5189   2.803   4.373   4.874
 1749TIP3    H1 5190   2.858   4.451   4.866
 1749TIP3    H2 5191   2.719   4.405   4.904
 1750TIP3   OH2 5192   3.637   6.810   2.522
 1750TIP3    H1 5193   3.572   6.820   2.452
 1750TIP3    H2 5194   3.654   6.716   2.527
 1751TIP3   OH2 5195   4.594   0.169   3.816
 1751TIP3    H1 5196   4.579   0.079   3.788
 1751TIP3    H2 5197   4.689   0.180   3.813
 1752TIP3   OH2 5198   8.181   6.043   1.960
 1752TIP3    H1 5199   8.087   6.024   1.962
 1752TIP3    H2 5200   8.187   6.135   1.984
 1753TIP3   OH2 5201   5.537   5.629   2.390
 1753TIP3    H1 5202   5.584   5.587   2.462
 1753TIP3    H2 5203   5.446   5.604   2.403
 1754TIP3   OH2 5204   5.993   7.123   1.059
 1754TIP3    H1 5205   5.918   7.064   1.055
 1754TIP3    H2 5206   5.963   7.204   1.017
 1755TIP3   OH2 5207   4.536   4.334   2.155
 1755TIP3    H1 5208   4.522   4.302   2.244
 1755TIP3    H2 5209   4.448   4.347   2.120
 1756TIP3   OH2 5210   5.660   0.066   3.182
 1756TIP3    H1 5211   5.584   0.059   3.239
 1756TIP3    H2 5212   5.625   0.086   3.095
 1757TIP3   OH2 5213   1.640   5.389   0.673
 1757TIP3    H1 5214   1.600   5.470   0.706
 1757TIP3    H2 5215   1.714   5.420   0.620
 1758TIP3   OH2 5216   1.921   4.352   5.318
 1758TIP3    H1 5217   1.885   4.438   5.299
 1758TIP3    H2 5218   1.852   4.307   5.365
 1759TIP3   OH2 5219   1.732   6.276   0.959
 1759TIP3    H1 5220   1.678   6.209   1.000
 1759TIP3    H2 5221   1.726   6.351   1.019
 1760TIP3   OH2 5222   7.148   0.236   5.573
 1760TIP3    H1 5223   7.148   0.243   5.477
 1760TIP3    H2 5224   7.162   0.143   5.590
 1761TIP3   OH2 5225   6.794   7.403   6.238
 1761TIP3    H1 5226   6.753   7.329   6.282
 1761TIP3    H2 5227   6.763   7.396   6.147
 1762TIP3   OH2 5228   0.874   5.672   2.630
 1762TIP3    H1 5229   0.833   5.588   2.648
 1762TIP3    H2 5230   0.819   5.712   2.563
 1763TIP3   OH2 5231   5.506   4.829   2.189
 1763TIP3    H1 5232   5.512   4.742   2.228
 1763TIP3    H2 5233   5.595   4.848   2.159
 1764TIP3   OH2 5234   5.210   2.102   3.915
 1764TIP3    H1 5235   5.174   2.016   3.894
 1764TIP3    H2 5236   5.178   2.121   4.003
 1765TIP3   OH2 5237   5.626   3.046   3.992
 1765TIP3    H1 5238   5.613   3.092   4.075
 1765TIP3    H2 5239   5.654   3.113   3.931
 1766TIP3   OH2 5240   4.637   6.973   2.029
 1766TIP3    H1 5241   4.629   6.992   2.123
 1766TIP3    H2 5242   4.694   7.043   1.996
 1767TIP3   OH2 5243   5.329   2.628   3.614
 1767TIP3    H1 5244   5.320   2.544   3.658
 1767TIP3    H2 5245   5.251   2.678   3.639
 1768TIP3   OH2 5246   6.212   6.390   1.379
 1768TIP3    H1 5247   6.270   6.388   1.456
 1768TIP3    H2 5248   6.251   6.328   1.318
 1769TIP3   OH2 5249   1.973   7.542   0.541
 1769TIP3    H1 5250   2.055   7.493   0.540
 1769TIP3    H2 5251   1.941   7.538   0.450
 1770TIP3   OH2 5252   6.834   5.135   0.241
 1770TIP3    H1 5253   6.773   5.113   0.312
 1770TIP3    H2 5254   6.910   5.173   0.284
 1771TIP3   OH2 5255   3.702   0.579   4.864
 1771TIP3    H1 5256   3.744   0.496   4.842
 1771TIP3    H2 5257   3.680   0.618   4.779
 1772TIP3   OH2 5258   4.877   0.243   4.126
 1772TIP3    H1 5259   4.836   0.156   4.128
 1772TIP3    H2 5260   4.967   0.228   4.154
 1773TIP3   OH2 5261   3.609   4.050   3.334
 1773TIP3    H1 5262   3.525   4.017   3.365
 1773TIP3    H2 5263   3.652   3.975   3.293
 1774TIP3   OH2 5264   5.094   4.042   5.799
 1774TIP3    H1 5265   5.173   4.007   5.758
 1774TIP3    H2 5266   5.063   3.971   5.855
 1775TIP3   OH2 5267   6.397   2.550   6.232
 1775TIP3    H1 5268   6.405   2.643   6.254
 1775TIP3    H2 5269   6.310   2.542   6.193
 1776TIP3   OH2 5270   3.862   5.636   4.330
 1776TIP3    H1 5271   3.827   5.725   4.332
 1776TIP3    H2 5272   3.839   5.598   4.414
 1777TIP3   OH2 5273   3.945   3.432   0.731
 1777TIP3    H1 5274   3.946   3.337   0.728
 1777TIP3    H2 5275   3.906   3.453   0.816
 1778TIP3   OH2 5276   8.147   2.095   6.196
 1778TIP3    H1 5277   8.197   2.086   6.277
 1778TIP3    H2 5278   8.130   2.006   6.168
 1779TIP3   OH2 5279   1.910   2.966   1.245
 1779TIP3    H1 5280   1.839   2.949   1.183
 1779TIP3    H2 5281   1.989   2.933   1.200
 1780TIP3   OH2 5282   3.391   2.831   1.902
 1780TIP3    H1 5283   3.337   2.752   1.916
 1780TIP3    H2 5284   3.354   2.872   1.824
 1781TIP3   OH2 5285   0.040   4.222   5.221
 1781TIP3    H1 5286  -0.035   4.223   5.161
 1781TIP3    H2 5287   0.088   4.143   5.197
 1782TIP3   OH2 5288   3.370   6.078   6.525
 1782TIP3    H1 5289   3.303   6.019   6.559
 1782TIP3    H2 5290   3.336   6.108   6.441
 1783TIP3   OH2 5291   3.671   7.517   6.325
 1783TIP3    H1 5292   3.576   7.530   6.320
 1783TIP3    H2 5293   3.694   7.539   6.415
 1784TIP3   OH2 5294   4.135   5.016   2.138
 1784TIP3    H1 5295   4.127   5.030   2.232
 1784TIP3    H2 5296   4.188   5.089   2.107
 1785TIP3   OH2 5297   5.878   3.009   6.506
 1785TIP3    H1 5298   5.874   3.048   6.594
 1785TIP3    H2 5299   5.851   2.918   6.519
 1786TIP3   OH2 5300   2.903   2.271   5.860
 1786TIP3    H1 5301   2.935   2.361   5.863
 1786TIP3    H2 5302   2.807   2.279   5.861
 1787TIP3   OH2 5303   1.683   4.382   0.528
 1787TIP3    H1 5304   1.752   4.448   0.530
 1787TIP3    H2 5305   1.699   4.329   0.606
 1788TIP3   OH2 5306   0.273   1.820   4.549
 1788TIP3    H1 5307   0.213   1.754   4.584
 1788TIP3    H2 5308   0.257   1.898   4.603
 1789TIP3   OH2 5309   2.841   4.771   5.852
 1789TIP3    H1 5310   2.827   4.840   5.787
 1789TIP3    H2 5311   2.819   4.812   5.936
 1790TIP3   OH2 5312   1.744   2.391   0.899
 1790TIP3    H1 5313   1.719   2.304   0.929
 1790TIP3    H2 5314   1.710   2.450   0.966
 1791TIP3   OH2 5315   1.463   4.542   2.872
 1791TIP3    H1 5316   1.544   4.585   2.900
 1791TIP3    H2 5317   1.394   4.605   2.893
 1792TIP3   OH2 5318   1.518   3.716   3.202
 1792TIP3    H1 5319   1.494   3.641   3.147
 1792TIP3    H2 5320   1.467   3.789   3.166
 1793TIP3   OH2 5321   3.797   6.166   6.417
 1793TIP3    H1 5322   3.874   6.123   6.380
 1793TIP3    H2 5323   3.788   6.129   6.505
 1794TIP3   OH2 5324   1.188   3.274   5.293
 1794TIP3    H1 5325   1.226   3.254   5.208
 1794TIP3    H2 5326   1.240   3.225   5.356
 1795TIP3   OH2 5327   0.589   5.497   4.340
 1795TIP3    H1 5328   0.683   5.481   4.349
 1795TIP3    H2 5329   0.583   5.564   4.271
 1796TIP3   OH2 5330   3.600   0.624   4.624
 1796TIP3    H1 5331   3.593   0.662   4.536
 1796TIP3    H2 5332   3.511   0.629   4.659
 1797TIP3   OH2 5333   1.156   1.063   4.657
 1797TIP3    H1 5334   1.068   1.092   4.677
 1797TIP3    H2 5335   1.165   1.076   4.562
 1798TIP3   OH2 5336   2.329   0.086   5.635
 1798TIP3    H1 5337   2.334  -0.010   5.643
 1798TIP3    H2 5338   2.421   0.114   5.635
 1799TIP3   OH2 5339   6.014   1.731   5.053
 1799TIP3    H1 5340   6.094   1.779   5.075
 1799TIP3    H2 5341   5.957   1.797   5.012
 1800TIP3   OH2 5342   5.812   5.448   6.612
 1800TIP3    H1 5343   5.851   5.364   6.638
 1800TIP3    H2 5344   5.885   5.499   6.578
 1801TIP3   OH2 5345   7.749   3.452   1.234
 1801TIP3    H1 5346   7.819   3.489   1.289
 1801TIP3    H2 5347   7.696   3.400   1.294
 1802TIP3   OH2 5348   4.194   6.863   0.861
 1802TIP3    H1 5349   4.287   6.876   0.841
 1802TIP3    H2 5350   4.165   6.797   0.799
 1803TIP3   OH2 5351   6.108   2.077   0.025
 1803TIP3    H1 5352   6.015   2.100   0.034
 1803TIP3    H2 5353   6.110   2.013  -0.046
 1804TIP3   OH2 5354   1.168   4.952   3.299
 1804TIP3    H1 5355   1.161   5.018   3.367
 1804TIP3    H2 5356   1.171   4.868   3.346
 1805TIP3   OH2 5357   5.231   2.195   2.408
 1805TIP3    H1 5358   5.262   2.286   2.400
 1805TIP3    H2 5359   5.136   2.203   2.421
 1806TIP3   OH2 5360   7.078   5.755   0.818
 1806TIP3    H1 5361   7.160   5.711   0.796
 1806TIP3    H2 5362   7.091   5.845   0.787
 1807TIP3   OH2 5363   0.325   6.802   6.456
 1807TIP3    H1 5364   0.374   6.723   6.479
 1807TIP3    H2 5365   0.256   6.807   6.522
 1808TIP3   OH2 5366   2.939   4.677   1.217
 1808TIP3    H1 5367   3.025   4.720   1.215
 1808TIP3    H2 5368   2.878   4.746   1.240
 1809TIP3   OH2 5369   7.766   4.650   4.382
 1809TIP3    H1 5370   7.775   4.740   4.415
 1809TIP3    H2 5371   7.751   4.660   4.289
 1810TIP3   OH2 5372   8.203   0.875   4.493
 1810TIP3    H1 5373   8.247   0.807   4.443
 1810TIP3    H2 5374   8.152   0.828   4.559
 1811TIP3   OH2 5375   5.763   6.418   3.174
 1811TIP3    H1 5376   5.679   6.441   3.215
 1811TIP3    H2 5377   5.785   6.495   3.122
 1812TIP3   OH2 5378   3.150   2.077   1.162
 1812TIP3    H1 5379   3.154   2.171   1.180
 1812TIP3    H2 5380   3.168   2.070   1.068
 1813TIP3   OH2 5381   1.496   6.435   1.257
 1813TIP3    H1 5382   1.559   6.419   1.326
 1813TIP3    H2 5383   1.548   6.432   1.176
 1814TIP3   OH2 5384   3.280   6.467   3.308
 1814TIP3    H1 5385   3.202   6.524   3.310
 1814TIP3    H2 5386   3.294   6.443   3.400
 1815TIP3   OH2 5387   7.720   1.268   3.688
 1815TIP3    H1 5388   7.745   1.358   3.665
 1815TIP3    H2 5389   7.654   1.279   3.756
 1816TIP3   OH2 5390   2.152   1.451   4.748
 1816TIP3    H1 5391   2.198   1.514   4.803
 1816TIP3    H2 5392   2.087   1.412   4.806
 1817TIP3   OH2 5393   3.481   2.783   3.188
 1817TIP3    H1 5394   3.474   2.819   3.277
 1817TIP3    H2 5395   3.426   2.705   3.190
 1818TIP3   OH2 5396   7.370   5.810   3.108
 1818TIP3    H1 5397   7.344   5.900   3.092
 1818TIP3    H2 5398   7.446   5.817   3.166
 1819TIP3   OH2 5399   2.715   5.596   5.707
 1819TIP3    H1 5400   2.681   5.605   5.796
 1819TIP3    H2 5401   2.638   5.609   5.651
 1820TIP3   OH2 5402   1.929   7.575   5.690
 1820TIP3    H1 5403   1.914   7.665   5.659
 1820TIP3    H2 5404   2.014   7.578   5.733
 1821TIP3   OH2 5405   2.224   2.117   3.339
 1821TIP3    H1 5406   2.249   2.085   3.426
 1821TIP3    H2 5407   2.139   2.077   3.323
 1822TIP3   OH2 5408   1.782   0.196   0.668
 1822TIP3    H1 5409   1.798   0.288   0.689
 1822TIP3    H2 5410   1.790   0.150   0.752
 1823TIP3   OH2 5411   0.998   0.121   2.781
 1823TIP3    H1 5412   0.945   0.130   2.860
 1823TIP3    H2 5413   1.074   0.176   2.796
 1824TIP3   OH2 5414   3.500   6.444   1.168
 1824TIP3    H1 5415   3.553   6.456   1.089
 1824TIP3    H2 5416   3.543   6.373   1.216
 1825TIP3   OH2 5417   4.255   0.637   6.224
 1825TIP3    H1 5418   4.309   0.682   6.159
 1825TIP3    H2 5419   4.270   0.685   6.305
 1826TIP3   OH2 5420   1.864   7.717   4.785
 1826TIP3    H1 5421   1.832   7.627   4.771
 1826TIP3    H2 5422   1.852   7.732   4.878
 1827TIP3   OH2 5423   3.079   5.853   3.983
 1827TIP3    H1 5424   3.163   5.890   3.954
 1827TIP3    H2 5425   3.086   5.760   3.962
 1828TIP3   OH2 5426   5.040   7.462   4.478
 1828TIP3    H1 5427   5.032   7.372   4.446
 1828TIP3    H2 5428   4.972   7.470   4.545
 1829TIP3   OH2 5429   2.054   0.580   3.986
 1829TIP3    H1 5430   2.000   0.590   4.065
 1829TIP3    H2 5431   2.140   0.555   4.019
 1830TIP3   OH2 5432   1.862   5.131   1.620
 1830TIP3    H1 5433   1.953   5.153   1.634
 1830TIP3    H2 5434   1.850   5.048   1.666
 1831TIP3   OH2 5435   6.808   1.843   4.131
 1831TIP3    H1 5436   6.856   1.771   4.090
 1831TIP3    H2 5437   6.877   1.903   4.161
 1832TIP3   OH2 5438   8.149   0.960   0.515
 1832TIP3    H1 5439   8.104   0.902   0.454
 1832TIP3    H2 5440   8.089   0.968   0.589
 1833TIP3   OH2 5441   4.121   0.679   6.651
 1833TIP3    H1 5442   4.162   0.742   6.592
 1833TIP3    H2 5443   4.100   0.604   6.595
 1834TIP3   OH2 5444   1.934   3.383   0.220
 1834TIP3    H1 5445   2.012   3.429   0.189
 1834TIP3    H2 5446   1.890   3.353   0.141
 1835TIP3   OH2 5447   4.291   3.869   2.793
 1835TIP3    H1 5448   4.277   3.964   2.789
 1835TIP3    H2 5449   4.239   3.841   2.868
 1836TIP3   OH2 5450   2.458   6.182   3.008
 1836TIP3    H1 5451   2.422   6.112   2.953
 1836TIP3    H2 5452   2.534   6.142   3.051
 1837TIP3   OH2 5453   3.053   0.780   2.528
 1837TIP3    H1 5454   3.095   0.708   2.576
 1837TIP3    H2 5455   3.073   0.858   2.579
 1838TIP3   OH2 5456   2.716   6.908   3.699
 1838TIP3    H1 5457   2.763   6.962   3.763
 1838TIP3    H2 5458   2.739   6.818   3.722
 1839TIP3   OH2 5459   3.719   1.042   6.543
 1839TIP3    H1 5460   3.786   1.013   6.482
 1839TIP3    H2 5461   3.699   1.132   6.516
 1840TIP3   OH2 5462   1.405   7.114   4.087
 1840TIP3    H1 5463   1.378   7.206   4.086
 1840TIP3    H2 5464   1.500   7.117   4.081
 1841TIP3   OH2 5465   2.062   6.972   0.782
 1841TIP3    H1 5466   2.099   6.937   0.701
 1841TIP3    H2 5467   2.139   6.993   0.836
 1842TIP3   OH2 5468   8.220   6.430   5.597
 1842TIP3    H1 5469   8.279   6.372   5.644
 1842TIP3    H2 5470   8.152   6.453   5.661
 1843TIP3   OH2 5471   5.131   0.577   3.482
 1843TIP3    H1 5472   5.043   0.612   3.465
 1843TIP3    H2 5473   5.187   0.655   3.482
 1844TIP3   OH2 5474   0.990   5.220   1.239
 1844TIP3    H1 5475   0.899   5.241   1.219
 1844TIP3    H2 5476   0.996   5.126   1.223
 1845TIP3   OH2 5477   4.323   7.437   1.588
 1845TIP3    H1 5478   4.362   7.435   1.501
 1845TIP3    H2 5479   4.242   7.387   1.579
 1846TIP3   OH2 5480   6.884   4.450   3.998
 1846TIP3    H1 5481   6.978   4.436   3.991
 1846TIP3    H2 5482   6.857   4.396   4.073
 1847TIP3   OH2 5483   7.794   2.332   2.400
 1847TIP3    H1 5484   7.826   2.415   2.362
 1847TIP3    H2 5485   7.772   2.354   2.490
 1848TIP3   OH2 5486   0.624   6.392   3.753
 1848TIP3    H1 5487   0.540   6.355   3.725
 1848TIP3    H2 5488   0.685   6.369   3.682
 1849TIP3   OH2 5489   3.665   5.269   0.719
 1849TIP3    H1 5490   3.590   5.227   0.677
 1849TIP3    H2 5491   3.726   5.197   0.736
 1850TIP3   OH2 5492   5.579   4.288   3.434
 1850TIP3    H1 5493   5.577   4.373   3.478
 1850TIP3    H2 5494   5.614   4.228   3.499
 1851TIP3   OH2 5495   8.044   6.748   3.427
 1851TIP3    H1 5496   7.986   6.809   3.472
 1851TIP3    H2 5497   8.036   6.666   3.477
 1852TIP3   OH2 5498   8.035   5.412   3.297
 1852TIP3    H1 5499   8.131   5.412   3.294
 1852TIP3    H2 5500   8.011   5.321   3.309
 1853TIP3   OH2 5501   0.279   3.410   2.989
 1853TIP3    H1 5502   0.334   3.350   3.040
 1853TIP3    H2 5503   0.255   3.479   3.051
 1854TIP3   OH2 5504   6.387   7.471   1.103
 1854TIP3    H1 5505   6.347   7.386   1.119
 1854TIP3    H2 5506   6.384   7.516   1.188
 1855TIP3   OH2 5507   0.717   6.256   0.671
 1855TIP3    H1 5508   0.755   6.243   0.584
 1855TIP3    H2 5509   0.661   6.180   0.685
 1856TIP3   OH2 5510   3.915   0.275   2.715
 1856TIP3    H1 5511   3.995   0.270   2.662
 1856TIP3    H2 5512   3.894   0.368   2.718
 1857TIP3   OH2 5513   0.119   3.081   5.868
 1857TIP3    H1 5514   0.107   3.143   5.797
 1857TIP3    H2 5515   0.031   3.068   5.905
 1858TIP3   OH2 5516   7.072   1.708   5.979
 1858TIP3    H1 5517   7.021   1.715   5.898
 1858TIP3    H2 5518   7.154   1.754   5.959
 1859TIP3   OH2 5519   8.222   4.111   2.885
 1859TIP3    H1 5520   8.203   4.049   2.955
 1859TIP3    H2 5521   8.233   4.058   2.807
 1860TIP3   OH2 5522   0.214   1.130   0.765
 1860TIP3    H1 5523   0.150   1.190   0.803
 1860TIP3    H2 5524   0.285   1.186   0.736
 1861TIP3   OH2 5525   6.798   2.574   4.992
 1861TIP3    H1 5526   6.718   2.621   5.012
 1861TIP3    H2 5527   6.855   2.639   4.950
 1862TIP3   OH2 5528   5.719   2.542   2.828
 1862TIP3    H1 5529   5.727   2.488   2.749
 1862TIP3    H2 5530   5.794   2.516   2.882
 1863TIP3   OH2 5531   0.835   5.722   2.988
 1863TIP3    H1 5532   0.858   5.791   2.926
 1863TIP3    H2 5533   0.774   5.764   3.049
 1864TIP3   OH2 5534   2.771   5.077   2.535
 1864TIP3    H1 5535   2.838   5.133   2.497
 1864TIP3    H2 5536   2.778   4.995   2.486
 1865TIP3   OH2 5537   3.910   5.209   1.068
 1865TIP3    H1 5538   3.854   5.231   1.142
 1865TIP3    H2 5539   3.943   5.293   1.036
 1866TIP3   OH2 5540   5.640   4.549   0.206
 1866TIP3    H1 5541   5.560   4.518   0.249
 1866TIP3    H2 5542   5.647   4.495   0.127
 1867TIP3   OH2 5543   4.104   6.352   6.757
 1867TIP3    H1 5544   4.026   6.297   6.754
 1867TIP3    H2 5545   4.115   6.382   6.667
 1868TIP3   OH2 5546   8.190   4.326   6.591
 1868TIP3    H1 5547   8.150   4.321   6.677
 1868TIP3    H2 5548   8.118   4.313   6.530
 1869TIP3   OH2 5549   4.720   7.315   6.709
 1869TIP3    H1 5550   4.712   7.410   6.720
 1869TIP3    H2 5551   4.814   7.300   6.699
 1870TIP3   OH2 5552   0.637   4.475   6.263
 1870TIP3    H1 5553   0.543   4.466   6.276
 1870TIP3    H2 5554   0.667   4.526   6.338
 1871TIP3   OH2 5555   0.218   3.435   2.274
 1871TIP3    H1 5556   0.247   3.346   2.253
 1871TIP3    H2 5557   0.188   3.430   2.364
 1872TIP3   OH2 5558   3.913   2.542   2.379
 1872TIP3    H1 5559   3.909   2.537   2.474
 1872TIP3    H2 5560   3.892   2.633   2.358
 1873TIP3   OH2 5561   0.509   2.571   4.543
 1873TIP3    H1 5562   0.532   2.648   4.595
 1873TIP3    H2 5563   0.415   2.559   4.557
 1874TIP3   OH2 5564   4.626   4.967   6.077
 1874TIP3    H1 5565   4.619   4.972   6.172
 1874TIP3    H2 5566   4.568   5.037   6.045
 1875TIP3   OH2 5567   7.843   4.415   4.061
 1875TIP3    H1 5568   7.817   4.506   4.044
 1875TIP3    H2 5569   7.853   4.410   4.156
 1876TIP3   OH2 5570   5.538   3.904   2.504
 1876TIP3    H1 5571   5.619   3.939   2.469
 1876TIP3    H2 5572   5.538   3.812   2.476
 1877TIP3   OH2 5573   5.582   6.111   0.914
 1877TIP3    H1 5574   5.665   6.148   0.887
 1877TIP3    H2 5575   5.569   6.036   0.856
 1878TIP3   OH2 5576   1.249   7.436   5.362
 1878TIP3    H1 5577   1.303   7.403   5.290
 1878TIP3    H2 5578   1.305   7.498   5.408
 1879TIP3   OH2 5579   0.235   7.270   1.422
 1879TIP3    H1 5580   0.156   7.304   1.463
 1879TIP3    H2 5581   0.301   7.269   1.492
 1880TIP3   OH2 5582   3.357   0.823   1.577
 1880TIP3    H1 5583   3.302   0.881   1.629
 1880TIP3    H2 5584   3.307   0.741   1.570
 1881TIP3   OH2 5585   2.050   1.582   1.560
 1881TIP3    H1 5586   2.050   1.534   1.643
 1881TIP3    H2 5587   1.988   1.653   1.573
 1882TIP3   OH2 5588   6.345   6.584   3.290
 1882TIP3    H1 5589   6.393   6.517   3.337
 1882TIP3    H2 5590   6.403   6.611   3.219
 1883TIP3   OH2 5591   7.118   4.047   1.984
 1883TIP3    H1 5592   7.096   4.085   2.069
 1883TIP3    H2 5593   7.048   4.075   1.926
 1884TIP3   OH2 5594   6.911   6.460   3.470
 1884TIP3    H1 5595   6.930   6.376   3.513
 1884TIP3    H2 5596   6.850   6.504   3.530
 1885TIP3   OH2 5597   4.929   3.087   5.455
 1885TIP3    H1 5598   4.882   3.044   5.526
 1885TIP3    H2 5599   4.956   3.016   5.397
 1886TIP3   OH2 5600   1.997   0.659   3.095
 1886TIP3    H1 5601   2.057   0.595   3.134
 1886TIP3    H2 5602   2.004   0.643   3.001
 1887TIP3   OH2 5603   1.465   1.515   1.889
 1887TIP3    H1 5604   1.465   1.457   1.813
 1887TIP3    H2 5605   1.482   1.602   1.852
 1888TIP3   OH2 5606   6.911   3.415   4.125
 1888TIP3    H1 5607   7.000   3.441   4.151
 1888TIP3    H2 5608   6.861   3.496   4.128
 1889TIP3   OH2 5609   7.744   3.699   4.114
 1889TIP3    H1 5610   7.798   3.759   4.165
 1889TIP3    H2 5611   7.779   3.613   4.134
 1890TIP3   OH2 5612   5.666   3.403   5.521
 1890TIP3    H1 5613   5.641   3.326   5.572
 1890TIP3    H2 5614   5.648   3.377   5.430
 1891TIP3   OH2 5615   1.193   7.099   1.923
 1891TIP3    H1 5616   1.106   7.062   1.936
 1891TIP3    H2 5617   1.251   7.048   1.979
 1892TIP3   OH2 5618   6.859   2.258   2.433
 1892TIP3    H1 5619   6.815   2.298   2.358
 1892TIP3    H2 5620   6.908   2.184   2.395
 1893TIP3   OH2 5621   3.471   3.448   0.273
 1893TIP3    H1 5622   3.539   3.499   0.316
 1893TIP3    H2 5623   3.413   3.419   0.344
 1894TIP3   OH2 5624   3.511   2.550   1.699
 1894TIP3    H1 5625   3.558   2.470   1.675
 1894TIP3    H2 5626   3.478   2.533   1.787
 1895TIP3   OH2 5627   0.482   2.526   4.990
 1895TIP3    H1 5628   0.435   2.458   4.941
 1895TIP3    H2 5629   0.443   2.608   4.960
 1896TIP3   OH2 5630   5.639   5.711   3.042
 1896TIP3    H1 5631   5.673   5.634   3.088
 1896TIP3    H2 5632   5.670   5.700   2.951
 1897TIP3   OH2 5633   4.390   4.428   1.647
 1897TIP3    H1 5634   4.454   4.360   1.631
 1897TIP3    H2 5635   4.334   4.393   1.717
 1898TIP3   OH2 5636   7.949   5.897   6.793
 1898TIP3    H1 5637   7.924   5.975   6.742
 1898TIP3    H2 5638   7.956   5.827   6.729
 1899TIP3   OH2 5639   5.593   3.630   0.402
 1899TIP3    H1 5640   5.533   3.636   0.476
 1899TIP3    H2 5641   5.646   3.710   0.408
 1900TIP3   OH2 5642   5.496   6.435   5.838
 1900TIP3    H1 5643   5.574   6.475   5.799
 1900TIP3    H2 5644   5.485   6.480   5.921
 1901TIP3   OH2 5645   6.545   7.322   4.811
 1901TIP3    H1 5646   6.633   7.360   4.814
 1901TIP3    H2 5647   6.500   7.360   4.886
 1902TIP3   OH2 5648   2.546   6.716   2.599
 1902TIP3    H1 5649   2.591   6.663   2.533
 1902TIP3    H2 5650   2.589   6.694   2.681
 1903TIP3   OH2 5651   0.625   4.850   1.808
 1903TIP3    H1 5652   0.550   4.846   1.867
 1903TIP3    H2 5653   0.648   4.758   1.792
 1904TIP3   OH2 5654   6.845   5.009   5.334
 1904TIP3    H1 5655   6.888   4.939   5.384
 1904TIP3    H2 5656   6.821   5.074   5.400
 1905TIP3   OH2 5657   2.984   4.125   3.728
 1905TIP3    H1 5658   3.038   4.098   3.803
 1905TIP3    H2 5659   3.036   4.191   3.683
 1906TIP3   OH2 5660   6.226   6.763   0.676
 1906TIP3    H1 5661   6.219   6.830   0.743
 1906TIP3    H2 5662   6.263   6.687   0.722
 1907TIP3   OH2 5663   7.346   4.490   3.101
 1907TIP3    H1 5664   7.396   4.572   3.091
 1907TIP3    H2 5665   7.335   4.458   3.012
 1908TIP3   OH2 5666   0.968   7.113   1.090
 1908TIP3    H1 5667   1.004   7.199   1.066
 1908TIP3    H2 5668   1.019   7.086   1.166
 1909TIP3   OH2 5669   3.944   7.035   1.402
 1909TIP3    H1 5670   3.926   7.119   1.359
 1909TIP3    H2 5671   3.953   7.058   1.494
 1910TIP3   OH2 5672   4.928   2.185   5.759
 1910TIP3    H1 5673   4.950   2.239   5.835
 1910TIP3    H2 5674   4.841   2.150   5.779
 1911TIP3   OH2 5675   6.191   1.909   6.293
 1911TIP3    H1 5676   6.107   1.871   6.267
 1911TIP3    H2 5677   6.194   1.899   6.388
 1912TIP3   OH2 5678   2.275   5.233   2.567
 1912TIP3    H1 5679   2.197   5.267   2.523
 1912TIP3    H2 5680   2.348   5.257   2.510
 1913TIP3   OH2 5681   2.243   5.995   2.173
 1913TIP3    H1 5682   2.274   6.058   2.108
 1913TIP3    H2 5683   2.323   5.960   2.212
 1914TIP3   OH2 5684   6.707   6.540   0.048
 1914TIP3    H1 5685   6.713   6.630   0.080
 1914TIP3    H2 5686   6.787   6.528  -0.004
 1915TIP3   OH2 5687   6.944   2.754   3.375
 1915TIP3    H1 5688   6.960   2.670   3.332
 1915TIP3    H2 5689   6.952   2.736   3.468
 1916TIP3   OH2 5690   7.653   5.187   3.174
 1916TIP3    H1 5691   7.652   5.267   3.227
 1916TIP3    H2 5692   7.684   5.215   3.088
 1917TIP3   OH2 5693   7.401   2.480   0.779
 1917TIP3    H1 5694   7.316   2.524   0.782
 1917TIP3    H2 5695   7.464   2.550   0.758
 1918TIP3   OH2 5696   3.734   2.861   6.226
 1918TIP3    H1 5697   3.799   2.858   6.296
 1918TIP3    H2 5698   3.710   2.769   6.212
 1919TIP3   OH2 5699   6.936   0.453   5.183
 1919TIP3    H1 5700   6.969   0.543   5.190
 1919TIP3    H2 5701   6.996   0.411   5.121
 1920TIP3   OH2 5702   3.243   2.396   4.361
 1920TIP3    H1 5703   3.284   2.310   4.367
 1920TIP3    H2 5704   3.241   2.414   4.267
 1921TIP3   OH2 5705   0.101   4.392   1.517
 1921TIP3    H1 5706   0.019   4.386   1.468
 1921TIP3    H2 5707   0.111   4.306   1.558
 1922TIP3   OH2 5708   2.888   0.141   0.934
 1922TIP3    H1 5709   2.826   0.075   0.965
 1922TIP3    H2 5710   2.848   0.176   0.854
 1923TIP3   OH2 5711   6.746   5.943   5.553
 1923TIP3    H1 5712   6.663   5.989   5.543
 1923TIP3    H2 5713   6.746   5.877   5.484
 1924TIP3   OH2 5714   6.123   5.850   1.183
 1924TIP3    H1 5715   6.146   5.779   1.122
 1924TIP3    H2 5716   6.034   5.830   1.210
 1925TIP3   OH2 5717   1.007   2.259   6.385
 1925TIP3    H1 5718   1.081   2.295   6.336
 1925TIP3    H2 5719   1.048   2.216   6.461
 1926TIP3   OH2 5720   5.285   5.680   0.389
 1926TIP3    H1 5721   5.250   5.695   0.302
 1926TIP3    H2 5722   5.274   5.763   0.434
 1927TIP3   OH2 5723   1.341   4.491   5.667
 1927TIP3    H1 5724   1.367   4.529   5.751
 1927TIP3    H2 5725   1.418   4.442   5.638
 1928TIP3   OH2 5726   7.489   5.838   0.692
 1928TIP3    H1 5727   7.438   5.758   0.692
 1928TIP3    H2 5728   7.538   5.836   0.610
 1929TIP3   OH2 5729   1.046   3.818   6.062
 1929TIP3    H1 5730   1.096   3.750   6.017
 1929TIP3    H2 5731   1.065   3.898   6.012
 1930TIP3   OH2 5732   1.739   6.867   6.703
 1930TIP3    H1 5733   1.733   6.960   6.724
 1930TIP3    H2 5734   1.655   6.831   6.732
 1931TIP3   OH2 5735   0.313   7.107   0.891
 1931TIP3    H1 5736   0.222   7.083   0.909
 1931TIP3    H2 5737   0.350   7.126   0.977
 1932TIP3   OH2 5738   1.327   4.558   3.284
 1932TIP3    H1 5739   1.338   4.498   3.357
 1932TIP3    H2 5740   1.232   4.565   3.272
 1933TIP3   OH2 5741   1.312   7.301   0.931
 1933TIP3    H1 5742   1.233   7.338   0.971
 1933TIP3    H2 5743   1.336   7.229   0.988
 1934TIP3   OH2 5744   7.160   7.117   1.566
 1934TIP3    H1 5745   7.206   7.044   1.607
 1934TIP3    H2 5746   7.187   7.114   1.475
 1935TIP3   OH2 5747   3.441   3.918   2.873
 1935TIP3    H1 5748   3.496   3.877   2.807
 1935TIP3    H2 5749   3.356   3.874   2.864
 1936TIP3   OH2 5750   3.191   2.068   0.876
 1936TIP3    H1 5751   3.120   2.111   0.828
 1936TIP3    H2 5752   3.230   2.007   0.814
 1937TIP3   OH2 5753   6.845   3.885   0.964
 1937TIP3    H1 5754   6.797   3.967   0.969
 1937TIP3    H2 5755   6.916   3.902   0.903
 1938TIP3   OH2 5756   7.631   5.033   1.039
 1938TIP3    H1 5757   7.558   4.985   1.079
 1938TIP3    H2 5758   7.678   5.071   1.113
 1939TIP3   OH2 5759   1.621   6.005   6.637
 1939TIP3    H1 5760   1.530   5.984   6.617
 1939TIP3    H2 5761   1.618   6.092   6.677
 1940TIP3   OH2 5762   7.749   3.098   3.723
 1940TIP3    H1 5763   7.669   3.150   3.730
 1940TIP3    H2 5764   7.723   3.022   3.670
 1941TIP3   OH2 5765   7.038   3.770   6.502
 1941TIP3    H1 5766   6.943   3.780   6.507
 1941TIP3    H2 5767   7.070   3.853   6.467
 1942TIP3   OH2 5768   3.726   6.673   1.732
 1942TIP3    H1 5769   3.725   6.708   1.643
 1942TIP3    H2 5770   3.762   6.744   1.785
 1943TIP3   OH2 5771   7.128   1.710   0.428
 1943TIP3    H1 5772   7.135   1.746   0.516
 1943TIP3    H2 5773   7.037   1.679   0.422
 1944TIP3   OH2 5774   1.524   1.283   3.258
 1944TIP3    H1 5775   1.515   1.259   3.350
 1944TIP3    H2 5776   1.485   1.371   3.252
 1945TIP3   OH2 5777   0.880   0.414   5.255
 1945TIP3    H1 5778   0.901   0.482   5.320
 1945TIP3    H2 5779   0.902   0.332   5.299
 1946TIP3   OH2 5780   1.070   7.847   6.269
 1946TIP3    H1 5781   1.050   7.850   6.175
 1946TIP3    H2 5782   1.053   7.756   6.294
 1947TIP3   OH2 5783   4.510   6.837   0.096
 1947TIP3    H1 5784   4.469   6.883   0.169
 1947TIP3    H2 5785   4.472   6.749   0.098
 1948TIP3   OH2 5786   3.954   7.354   4.196
 1948TIP3    H1 5787   4.020   7.419   4.222
 1948TIP3    H2 5788   3.998   7.300   4.131
 1949TIP3   OH2 5789   6.996   1.289   1.497
 1949TIP3    H1 5790   7.028   1.332   1.418
 1949TIP3    H2 5791   7.048   1.327   1.567
 1950TIP3   OH2 5792   1.520   3.160   2.815
 1950TIP3    H1 5793   1.557   3.153   2.903
 1950TIP3    H2 5794   1.521   3.070   2.782
 1951TIP3   OH2 5795   6.693   5.811   0.763
 1951TIP3    H1 5796   6.724   5.807   0.672
 1951TIP3    H2 5797   6.749   5.876   0.805
 1952TIP3   OH2 5798   4.050   6.955   4.828
 1952TIP3    H1 5799   4.012   6.868   4.840
 1952TIP3    H2 5800   3.976   7.012   4.806
 1953TIP3   OH2 5801   4.204   4.067   5.707
 1953TIP3    H1 5802   4.258   4.009   5.653
 1953TIP3    H2 5803   4.162   4.009   5.771
 1954TIP3   OH2 5804   0.839   3.491   2.846
 1954TIP3    H1 5805   0.922   3.481   2.800
 1954TIP3    H2 5806   0.809   3.402   2.862
 1955TIP3   OH2 5807   7.558   4.300   5.321
 1955TIP3    H1 5808   7.489   4.273   5.382
 1955TIP3    H2 5809   7.594   4.380   5.360
 1956TIP3   OH2 5810   6.737   2.922   4.218
 1956TIP3    H1 5811   6.831   2.912   4.207
 1956TIP3    H2 5812   6.701   2.905   4.131
 1957TIP3   OH2 5813   8.259   5.774   5.551
 1957TIP3    H1 5814   8.327   5.803   5.612
 1957TIP3    H2 5815   8.240   5.684   5.578
 1958TIP3   OH2 5816   7.515   7.169   4.410
 1958TIP3    H1 5817   7.426   7.160   4.376
 1958TIP3    H2 5818   7.521   7.102   4.478
 1959TIP3   OH2 5819   5.275   5.842   1.670
 1959TIP3    H1 5820   5.332   5.842   1.594
 1959TIP3    H2 5821   5.334   5.849   1.745
 1960TIP3   OH2 5822   4.580   7.724   4.618
 1960TIP3    H1 5823   4.562   7.747   4.709
 1960TIP3    H2 5824   4.609   7.633   4.621
 1961TIP3   OH2 5825   4.315   3.508   1.045
 1961TIP3    H1 5826   4.346   3.418   1.058
 1961TIP3    H2 5827   4.350   3.533   0.959
 1962TIP3   OH2 5828   6.865   0.537   1.469
 1962TIP3    H1 5829   6.843   0.449   1.438
 1962TIP3    H2 5830   6.799   0.594   1.430
 1963TIP3   OH2 5831   0.134   7.549   1.506
 1963TIP3    H1 5832   0.149   7.617   1.441
 1963TIP3    H2 5833   0.063   7.582   1.561
 1964TIP3   OH2 5834   4.290   0.097   4.778
 1964TIP3    H1 5835   4.361   0.097   4.842
 1964TIP3    H2 5836   4.286   0.007   4.745
 1965TIP3   OH2 5837   8.183   4.654   3.586
 1965TIP3    H1 5838   8.175   4.574   3.534
 1965TIP3    H2 5839   8.276   4.660   3.606
 1966TIP3   OH2 5840   4.219   1.893   1.017
 1966TIP3    H1 5841   4.288   1.952   0.987
 1966TIP3    H2 5842   4.255   1.854   1.097
 1967TIP3   OH2 5843   2.251   6.644   0.406
 1967TIP3    H1 5844   2.343   6.646   0.433
 1967TIP3    H2 5845   2.209   6.712   0.459
 1968TIP3   OH2 5846   7.027   4.000   1.630
 1968TIP3    H1 5847   7.072   3.921   1.660
 1968TIP3    H2 5848   7.096   4.053   1.590
 1969TIP3   OH2 5849   5.053   0.274   5.811
 1969TIP3    H1 5850   5.032   0.313   5.726
 1969TIP3    H2 5851   5.118   0.207   5.792
 1970TIP3   OH2 5852   8.170   2.527   5.016
 1970TIP3    H1 5853   8.265   2.536   5.008
 1970TIP3    H2 5854   8.149   2.453   4.960
 1971TIP3   OH2 5855   0.652   1.089   3.462
 1971TIP3    H1 5856   0.706   1.106   3.384
 1971TIP3    H2 5857   0.704   1.122   3.535
 1972TIP3   OH2 5858   2.899   2.016   5.117
 1972TIP3    H1 5859   2.893   2.099   5.163
 1972TIP3    H2 5860   2.964   2.030   5.049
 1973TIP3   OH2 5861   1.751   4.609   4.954
 1973TIP3    H1 5862   1.700   4.558   5.017
 1973TIP3    H2 5863   1.687   4.665   4.911
 1974TIP3   OH2 5864   2.420   4.016   4.259
 1974TIP3    H1 5865   2.329   4.043   4.262
 1974TIP3    H2 5866   2.446   4.028   4.167
 1975TIP3   OH2 5867   5.487   5.822   1.849
 1975TIP3    H1 5868   5.520   5.907   1.819
 1975TIP3    H2 5869   5.561   5.784   1.897
 1976TIP3   OH2 5870   4.272   1.396   3.534
 1976TIP3    H1 5871   4.359   1.373   3.500
 1976TIP3    H2 5872   4.287   1.474   3.587
 1977TIP3   OH2 5873   7.281   5.210   5.833
 1977TIP3    H1 5874   7.215   5.242   5.894
 1977TIP3    H2 5875   7.309   5.288   5.785
 1978TIP3   OH2 5876   3.010   6.124   4.775
 1978TIP3    H1 5877   3.022   6.199   4.718
 1978TIP3    H2 5878   2.922   6.135   4.812
 1979TIP3   OH2 5879   2.421   0.655   1.084
 1979TIP3    H1 5880   2.472   0.588   1.130
 1979TIP3    H2 5881   2.406   0.618   0.997
 1980TIP3   OH2 5882   3.774   0.565   2.699
 1980TIP3    H1 5883   3.834   0.611   2.639
 1980TIP3    H2 5884   3.778   0.616   2.780
 1981TIP3   OH2 5885   0.457   1.918   6.216
 1981TIP3    H1 5886   0.478   1.960   6.133
 1981TIP3    H2 5887   0.519   1.956   6.279
 1982TIP3   OH2 5888   7.925   0.991   2.909
 1982TIP3    H1 5889   7.999   0.952   2.955
 1982TIP3    H2 5890   7.920   1.080   2.943
 1983TIP3   OH2 5891   2.917   6.384   4.628
 1983TIP3    H1 5892   2.892   6.475   4.641
 1983TIP3    H2 5893   2.846   6.347   4.575
 1984TIP3   OH2 5894   6.888   0.537   4.882
 1984TIP3    H1 5895   6.833   0.491   4.819
 1984TIP3    H2 5896   6.827   0.588   4.935
 1985TIP3   OH2 5897   4.406   4.709   0.545
 1985TIP3    H1 5898   4.343   4.749   0.485
 1985TIP3    H2 5899   4.352   4.662   0.608
 1986TIP3   OH2 5900   2.984   0.218   5.408
 1986TIP3    H1 5901   2.947   0.245   5.492
 1986TIP3    H2 5902   3.077   0.239   5.415
 1987TIP3   OH2 5903   5.137   7.869   3.711
 1987TIP3    H1 5904   5.117   7.828   3.627
 1987TIP3    H2 5905   5.132   7.798   3.774
 1988TIP3   OH2 5906   4.767   6.207   2.364
 1988TIP3    H1 5907   4.829   6.226   2.294
 1988TIP3    H2 5908   4.761   6.111   2.365
 1989TIP3   OH2 5909   2.740   3.475   0.697
 1989TIP3    H1 5910   2.742   3.380   0.709
 1989TIP3    H2 5911   2.706   3.509   0.779
 1990TIP3   OH2 5912   1.366   5.404   3.548
 1990TIP3    H1 5913   1.327   5.353   3.477
 1990TIP3    H2 5914   1.428   5.463   3.505
 1991TIP3   OH2 5915   7.884   6.506   0.500
 1991TIP3    H1 5916   7.868   6.502   0.595
 1991TIP3    H2 5917   7.845   6.589   0.473
 1992TIP3   OH2 5918   3.171   4.454   2.097
 1992TIP3    H1 5919   3.125   4.467   2.014
 1992TIP3    H2 5920   3.245   4.515   2.093
 1993TIP3   OH2 5921   6.657   1.697   3.865
 1993TIP3    H1 5922   6.746   1.669   3.847
 1993TIP3    H2 5923   6.607   1.670   3.788
 1994TIP3   OH2 5924   8.262   5.439   0.409
 1994TIP3    H1 5925   8.204   5.365   0.388
 1994TIP3    H2 5926   8.331   5.435   0.342
 1995TIP3   OH2 5927   6.861   4.168   1.232
 1995TIP3    H1 5928   6.948   4.170   1.192
 1995TIP3    H2 5929   6.853   4.080   1.268
 1996TIP3   OH2 5930   0.207   6.117   2.150
 1996TIP3    H1 5931   0.177   6.074   2.070
 1996TIP3    H2 5932   0.130   6.163   2.183
 1997TIP3   OH2 5933   1.012   0.867   1.211
 1997TIP3    H1 5934   1.016   0.863   1.307
 1997TIP3    H2 5935   1.080   0.930   1.187
 1998TIP3   OH2 5936   2.815   5.540   6.150
 1998TIP3    H1 5937   2.860   5.546   6.234
 1998TIP3    H2 5938   2.816   5.446   6.129
 1999TIP3   OH2 5939   2.652   6.401   5.879
 1999TIP3    H1 5940   2.744   6.400   5.851
 1999TIP3    H2 5941   2.636   6.312   5.912
 2000TIP3   OH2 5942   4.500   2.379   4.035
 2000TIP3    H1 5943   4.554   2.417   4.104
 2000TIP3    H2 5944   4.561   2.330   3.980
 2001TIP3   OH2 5945   4.389   1.156   1.662
 2001TIP3    H1 5946   4.338   1.134   1.740
 2001TIP3    H2 5947   4.389   1.252   1.660
 2002TIP3   OH2 5948   3.986   1.159   2.501
 2002TIP3    H1 5949   4.023   1.229   2.555
 2002TIP3    H2 5950   4.019   1.178   2.413
 2003TIP3   OH2 5951   3.825   5.961   0.587
 2003TIP3    H1 5952   3.860   5.875   0.565
 2003TIP3    H2 5953   3.786   5.950   0.674
 2004TIP3   OH2 5954   1.691   4.313   1.908
 2004TIP3    H1 5955   1.616   4.327   1.850
 2004TIP3    H2 5956   1.661   4.344   1.994
 2005TIP3   OH2 5957   4.415   1.271   5.095
 2005TIP3    H1 5958   4.396   1.295   5.185
 2005TIP3    H2 5959   4.474   1.340   5.064
 2006TIP3   OH2 5960   1.709   6.911   2.350
 2006TIP3    H1 5961   1.675   6.826   2.379
 2006TIP3    H2 5962   1.747   6.949   2.429
 2007TIP3   OH2 5963   6.352   3.611   5.896
 2007TIP3    H1 5964   6.375   3.567   5.814
 2007TIP3    H2 5965   6.257   3.619   5.894
 2008TIP3   OH2 5966   5.268   5.205   6.746
 2008TIP3    H1 5967   5.285   5.127   6.799
 2008TIP3    H2 5968   5.354   5.228   6.710
 2009TIP3   OH2 5969   4.973   2.037   2.691
 2009TIP3    H1 5970   4.959   1.990   2.609
 2009TIP3    H2 5971   5.026   1.978   2.744
 2010TIP3   OH2 5972   2.052   1.542   5.259
 2010TIP3    H1 5973   2.032   1.476   5.325
 2010TIP3    H2 5974   2.124   1.593   5.297
 2011TIP3   OH2 5975   4.261   0.465   0.565
 2011TIP3    H1 5976   4.188   0.485   0.624
 2011TIP3    H2 5977   4.325   0.534   0.582
 2012TIP3   OH2 5978   2.953   7.059   6.166
 2012TIP3    H1 5979   2.983   7.059   6.257
 2012TIP3    H2 5980   2.936   6.967   6.146
 2013TIP3   OH2 5981   0.128   5.074   5.122
 2013TIP3    H1 5982   0.087   5.104   5.041
 2013TIP3    H2 5983   0.058   5.027   5.168
 2014TIP3   OH2 5984   3.629   7.616   1.145
 2014TIP3    H1 5985   3.720   7.645   1.152
 2014TIP3    H2 5986   3.630   7.524   1.169
 2015TIP3   OH2 5987   4.790   1.154   1.102
 2015TIP3    H1 5988   4.773   1.086   1.037
 2015TIP3    H2 5989   4.793   1.108   1.186
 2016TIP3   OH2 5990   1.737   3.730   3.925
 2016TIP3    H1 5991   1.643   3.716   3.915
 2016TIP3    H2 5992   1.777   3.653   3.883
 2017TIP3   OH2 5993   0.294   4.643   5.559
 2017TIP3    H1 5994   0.240   4.670   5.484
 2017TIP3    H2 5995   0.309   4.549   5.544
 2018TIP3   OH2 5996   1.828   5.974   0.620
 2018TIP3    H1 5997   1.789   5.896   0.581
 2018TIP3    H2 5998   1.869   5.942   0.700
 2019TIP3   OH2 5999   4.552   6.492   5.559
 2019TIP3    H1 6000   4.591   6.575   5.589
 2019TIP3    H2 6001   4.504   6.516   5.479
 2020TIP3   OH2 6002   6.619   1.016   1.369
 2020TIP3    H1 6003   6.640   1.097   1.417
 2020TIP3    H2 6004   6.539   0.984   1.410
 2021TIP3   OH2 6005   1.648   0.413   2.913
 2021TIP3    H1 6006   1.611   0.468   2.844
 2021TIP3    H2 6007   1.607   0.445   2.994
 2022TIP3   OH2 6008   4.509   2.491   0.806
 2022TIP3    H1 6009   4.499   2.495   0.711
 2022TIP3    H2 6010   4.542   2.577   0.831
 2023TIP3   OH2 6011   6.166   4.948   6.397
 2023TIP3    H1 6012   6.240   4.890   6.384
 2023TIP3    H2 6013   6.106   4.927   6.325
 2024TIP3   OH2 6014   4.350   3.232   1.093
 2024TIP3    H1 6015   4.410   3.179   1.042
 2024TIP3    H2 6016   4.321   3.175   1.164
 2025TIP3   OH2 6017   0.432   1.658   4.427
 2025TIP3    H1 6018   0.368   1.711   4.475
 2025TIP3    H2 6019   0.398   1.569   4.433
 2026TIP3   OH2 6020   0.301   2.380   2.871
 2026TIP3    H1 6021   0.375   2.328   2.903
 2026TIP3    H2 6022   0.279   2.439   2.944
 2027TIP3   OH2 6023   4.953   7.471   1.363
 2027TIP3    H1 6024   4.931   7.564   1.366
 2027TIP3    H2 6025   5.046   7.470   1.337
 2028TIP3   OH2 6026   0.453   3.845   4.693
 2028TIP3    H1 6027   0.487   3.756   4.704
 2028TIP3    H2 6028   0.418   3.846   4.604
 2029TIP3   OH2 6029   3.479   1.176   6.305
 2029TIP3    H1 6030   3.527   1.228   6.370
 2029TIP3    H2 6031   3.546   1.143   6.246
 2030TIP3   OH2 6032   5.059   3.837   0.730
 2030TIP3    H1 6033   5.107   3.850   0.811
 2030TIP3    H2 6034   4.972   3.875   0.747
 2031TIP3   OH2 6035   7.497   2.800   3.971
 2031TIP3    H1 6036   7.486   2.728   4.033
 2031TIP3    H2 6037   7.524   2.874   4.026
 2032TIP3   OH2 6038   4.140   2.093   5.597
 2032TIP3    H1 6039   4.170   2.171   5.643
 2032TIP3    H2 6040   4.061   2.065   5.645
 2033TIP3   OH2 6041   2.749   5.608   0.938
 2033TIP3    H1 6042   2.729   5.520   0.971
 2033TIP3    H2 6043   2.806   5.594   0.863
 2034TIP3   OH2 6044   1.162   3.024   2.890
 2034TIP3    H1 6045   1.220   2.949   2.902
 2034TIP3    H2 6046   1.176   3.050   2.799
 2035TIP3   OH2 6047   0.611   6.140   5.925
 2035TIP3    H1 6048   0.636   6.226   5.959
 2035TIP3    H2 6049   0.693   6.091   5.923
 2036TIP3   OH2 6050   6.283   2.043   3.576
 2036TIP3    H1 6051   6.320   1.993   3.648
 2036TIP3    H2 6052   6.292   1.986   3.500
 2037TIP3   OH2 6053   7.844   5.963   5.979
 2037TIP3    H1 6054   7.788   6.026   6.025
 2037TIP3    H2 6055   7.814   5.878   6.010
 2038TIP3   OH2 6056   5.539   5.860   5.680
 2038TIP3    H1 6057   5.468   5.850   5.743
 2038TIP3    H2 6058   5.526   5.947   5.642
 2039TIP3   OH2 6059   2.197   2.717   6.670
 2039TIP3    H1 6060   2.159   2.805   6.670
 2039TIP3    H2 6061   2.273   2.724   6.613
 2040TIP3   OH2 6062   2.610   0.532   6.052
 2040TIP3    H1 6063   2.643   0.520   5.963
 2040TIP3    H2 6064   2.538   0.469   6.060
 2041TIP3   OH2 6065   1.463   3.891   5.113
 2041TIP3    H1 6066   1.519   3.818   5.139
 2041TIP3    H2 6067   1.418   3.916   5.194
 2042TIP3   OH2 6068   0.205   2.118   1.164
 2042TIP3    H1 6069   0.187   2.184   1.098
 2042TIP3    H2 6070   0.194   2.034   1.118
 2043TIP3   OH2 6071   1.385   5.592   5.825
 2043TIP3    H1 6072   1.435   5.521   5.784
 2043TIP3    H2 6073   1.379   5.659   5.756
 2044TIP3   OH2 6074   0.157   2.748   5.998
 2044TIP3    H1 6075   0.072   2.704   5.994
 2044TIP3    H2 6076   0.171   2.781   5.909
 2045TIP3   OH2 6077   0.110   4.407   2.605
 2045TIP3    H1 6078   0.190   4.370   2.641
 2045TIP3    H2 6079   0.057   4.430   2.681
 2046TIP3   OH2 6080   4.055   1.074   5.323
 2046TIP3    H1 6081   4.047   1.041   5.234
 2046TIP3    H2 6082   3.968   1.059   5.362
 2047TIP3   OH2 6083   7.224   5.911   0.509
 2047TIP3    H1 6084   7.262   5.985   0.461
 2047TIP3    H2 6085   7.263   5.834   0.467
 2048TIP3   OH2 6086   5.309   6.142   3.590
 2048TIP3    H1 6087   5.254   6.186   3.525
 2048TIP3    H2 6088   5.336   6.212   3.649
 2049TIP3   OH2 6089   1.754   6.707   3.842
 2049TIP3    H1 6090   1.847   6.701   3.821
 2049TIP3    H2 6091   1.740   6.640   3.908
 2050TIP3   OH2 6092   5.708   0.643   4.036
 2050TIP3    H1 6093   5.661   0.724   4.015
 2050TIP3    H2 6094   5.724   0.649   4.130
 2051TIP3   OH2 6095   1.715   0.989   5.149
 2051TIP3    H1 6096   1.794   0.960   5.105
 2051TIP3    H2 6097   1.645   0.936   5.111
 2052TIP3   OH2 6098   1.121   5.608   3.621
 2052TIP3    H1 6099   1.159   5.546   3.684
 2052TIP3    H2 6100   1.125   5.561   3.537
 2053TIP3   OH2 6101   5.631   5.832   0.387
 2053TIP3    H1 6102   5.722   5.862   0.378
 2053TIP3    H2 6103   5.595   5.837   0.299
 2054TIP3   OH2 6104   3.812   6.985   1.100
 2054TIP3    H1 6105   3.817   6.890   1.090
 2054TIP3    H2 6106   3.901   7.011   1.124
 2055TIP3   OH2 6107   1.469   4.127   6.237
 2055TIP3    H1 6108   1.431   4.042   6.262
 2055TIP3    H2 6109   1.496   4.166   6.319
 2056TIP3   OH2 6110   0.310   3.244   4.292
 2056TIP3    H1 6111   0.386   3.229   4.236
 2056TIP3    H2 6112   0.320   3.334   4.322
 2057TIP3   OH2 6113   6.648   3.186   4.323
 2057TIP3    H1 6114   6.622   3.156   4.410
 2057TIP3    H2 6115   6.674   3.106   4.277
 2058TIP3   OH2 6116   3.474   6.893   0.903
 2058TIP3    H1 6117   3.558   6.907   0.860
 2058TIP3    H2 6118   3.414   6.868   0.832
 2059TIP3   OH2 6119   1.322   5.881   5.028
 2059TIP3    H1 6120   1.303   5.797   4.985
 2059TIP3    H2 6121   1.250   5.892   5.090
 2060TIP3   OH2 6122   3.033   0.534   6.720
 2060TIP3    H1 6123   3.058   0.519   6.629
 2060TIP3    H2 6124   2.955   0.480   6.733
 2061TIP3   OH2 6125   2.948   3.502   4.256
 2061TIP3    H1 6126   2.857   3.476   4.269
 2061TIP3    H2 6127   2.999   3.421   4.270
 2062TIP3   OH2 6128   5.792   4.491   2.274
 2062TIP3    H1 6129   5.743   4.415   2.243
 2062TIP3    H2 6130   5.878   4.482   2.231
 2063TIP3   OH2 6131   3.939   7.692   5.098
 2063TIP3    H1 6132   3.848   7.662   5.104
 2063TIP3    H2 6133   3.989   7.621   5.138
 2064TIP3   OH2 6134   4.124   1.174   4.200
 2064TIP3    H1 6135   4.053   1.238   4.206
 2064TIP3    H2 6136   4.166   1.192   4.116
 2065TIP3   OH2 6137   7.726   6.090   3.825
 2065TIP3    H1 6138   7.709   6.179   3.854
 2065TIP3    H2 6139   7.735   6.039   3.906
 2066TIP3   OH2 6140   0.411   0.503   2.713
 2066TIP3    H1 6141   0.343   0.525   2.650
 2066TIP3    H2 6142   0.447   0.419   2.682
 2067TIP3   OH2 6143   7.452   2.260   6.078
 2067TIP3    H1 6144   7.547   2.268   6.089
 2067TIP3    H2 6145   7.416   2.321   6.142
 2068TIP3   OH2 6146   3.597   2.981   1.522
 2068TIP3    H1 6147   3.688   3.003   1.544
 2068TIP3    H2 6148   3.578   3.033   1.444
 2069TIP3   OH2 6149   2.989   6.198   0.633
 2069TIP3    H1 6150   2.983   6.106   0.609
 2069TIP3    H2 6151   2.941   6.244   0.563
 2070TIP3   OH2 6152   3.014   6.356   0.367
 2070TIP3    H1 6153   2.991   6.294   0.297
 2070TIP3    H2 6154   3.020   6.441   0.323
 2071TIP3   OH2 6155   4.874   0.997   2.256
 2071TIP3    H1 6156   4.845   1.013   2.346
 2071TIP3    H2 6157   4.867   0.902   2.245
 2072TIP3   OH2 6158   6.933   5.424   5.590
 2072TIP3    H1 6159   6.970   5.492   5.533
 2072TIP3    H2 6160   6.839   5.444   5.592
 2073TIP3   OH2 6161   2.891   4.416   2.816
 2073TIP3    H1 6162   2.889   4.490   2.877
 2073TIP3    H2 6163   2.862   4.453   2.733
 2074TIP3   OH2 6164   8.217   2.758   1.917
 2074TIP3    H1 6165   8.176   2.765   1.831
 2074TIP3    H2 6166   8.252   2.845   1.935
 2075TIP3   OH2 6167   4.564   0.717   2.871
 2075TIP3    H1 6168   4.522   0.711   2.785
 2075TIP3    H2 6169   4.610   0.801   2.870
 2076TIP3   OH2 6170   6.391   6.475   6.113
 2076TIP3    H1 6171   6.465   6.528   6.084
 2076TIP3    H2 6172   6.331   6.475   6.038
 2077TIP3   OH2 6173   0.581   2.262   4.250
 2077TIP3    H1 6174   0.649   2.295   4.191
 2077TIP3    H2 6175   0.612   2.284   4.337
 2078TIP3   OH2 6176   0.715   2.576   0.068
 2078TIP3    H1 6177   0.620   2.571   0.064
 2078TIP3    H2 6178   0.735   2.670   0.068
 2079TIP3   OH2 6179   8.096   0.290   2.176
 2079TIP3    H1 6180   8.060   0.203   2.159
 2079TIP3    H2 6181   8.020   0.347   2.184
 2080TIP3   OH2 6182   5.993   2.636   5.823
 2080TIP3    H1 6183   6.019   2.559   5.773
 2080TIP3    H2 6184   5.899   2.625   5.839
 2081TIP3   OH2 6185   2.817   6.974   3.032
 2081TIP3    H1 6186   2.848   6.963   2.941
 2081TIP3    H2 6187   2.882   7.031   3.073
 2082TIP3   OH2 6188   7.870   3.836   1.245
 2082TIP3    H1 6189   7.946   3.781   1.227
 2082TIP3    H2 6190   7.860   3.832   1.341
 2083TIP3   OH2 6191   5.390   2.117   1.730
 2083TIP3    H1 6192   5.340   2.036   1.744
 2083TIP3    H2 6193   5.328   2.175   1.686
 2084TIP3   OH2 6194   6.967   4.242   3.394
 2084TIP3    H1 6195   6.890   4.245   3.338
 2084TIP3    H2 6196   7.030   4.302   3.353
 2085TIP3   OH2 6197   7.396   4.552   5.252
 2085TIP3    H1 6198   7.376   4.564   5.345
 2085TIP3    H2 6199   7.487   4.580   5.243
 2086TIP3   OH2 6200   3.045   2.595   6.197
 2086TIP3    H1 6201   3.074   2.627   6.283
 2086TIP3    H2 6202   2.952   2.579   6.207
 2087TIP3   OH2 6203   3.891   6.020   5.110
 2087TIP3    H1 6204   3.819   5.976   5.156
 2087TIP3    H2 6205   3.931   6.076   5.177
 2088TIP3   OH2 6206   7.198   3.871   4.906
 2088TIP3    H1 6207   7.192   3.783   4.942
 2088TIP3    H2 6208   7.107   3.898   4.894
 2089TIP3   OH2 6209   6.322   6.209   5.518
 2089TIP3    H1 6210   6.344   6.194   5.426
 2089TIP3    H2 6211   6.392   6.167   5.567
 2090TIP3   OH2 6212   7.663   3.691   5.806
 2090TIP3    H1 6213   7.693   3.600   5.794
 2090TIP3    H2 6214   7.584   3.697   5.751
 2091TIP3   OH2 6215   8.029   2.565   6.715
 2091TIP3    H1 6216   8.013   2.471   6.722
 2091TIP3    H2 6217   8.056   2.591   6.804
 2092TIP3   OH2 6218   5.486   3.982   1.938
 2092TIP3    H1 6219   5.489   4.043   1.864
 2092TIP3    H2 6220   5.411   3.925   1.918
 2093TIP3   OH2 6221   5.687   4.893   2.446
 2093TIP3    H1 6222   5.626   4.952   2.401
 2093TIP3    H2 6223   5.662   4.897   2.538
 2094TIP3   OH2 6224   0.843   7.235   4.670
 2094TIP3    H1 6225   0.762   7.258   4.717
 2094TIP3    H2 6226   0.839   7.287   4.590
 2095TIP3   OH2 6227   1.881   5.246   0.997
 2095TIP3    H1 6228   1.861   5.171   0.941
 2095TIP3    H2 6229   1.841   5.223   1.082
 2096TIP3   OH2 6230   6.162   0.070   4.538
 2096TIP3    H1 6231   6.133   0.097   4.625
 2096TIP3    H2 6232   6.252   0.101   4.531
 2097TIP3   OH2 6233   1.585   7.620   1.185
 2097TIP3    H1 6234   1.564   7.634   1.092
 2097TIP3    H2 6235   1.575   7.706   1.225
 2098TIP3   OH2 6236   0.886   7.409   6.035
 2098TIP3    H1 6237   0.943   7.417   5.959
 2098TIP3    H2 6238   0.901   7.320   6.066
 2099TIP3   OH2 6239   6.699   4.405   6.196
 2099TIP3    H1 6240   6.698   4.427   6.103
 2099TIP3    H2 6241   6.621   4.351   6.209
 2100TIP3   OH2 6242   1.973   7.014   3.386
 2100TIP3    H1 6243   1.916   7.060   3.324
 2100TIP3    H2 6244   2.057   7.060   3.380
 2101TIP3   OH2 6245   1.356   2.758   4.175
 2101TIP3    H1 6246   1.404   2.768   4.257
 2101TIP3    H2 6247   1.270   2.796   4.193
 2102TIP3   OH2 6248   1.766   3.359   4.523
 2102TIP3    H1 6249   1.736   3.332   4.610
 2102TIP3    H2 6250   1.828   3.429   4.540
 2103TIP3   OH2 6251   3.880   1.721   3.557
 2103TIP3    H1 6252   3.881   1.666   3.635
 2103TIP3    H2 6253   3.802   1.775   3.566
 2104TIP3   OH2 6254   7.646   2.707   5.122
 2104TIP3    H1 6255   7.678   2.793   5.148
 2104TIP3    H2 6256   7.717   2.669   5.071
 2105TIP3   OH2 6257   7.296   3.294   1.723
 2105TIP3    H1 6258   7.228   3.307   1.657
 2105TIP3    H2 6259   7.261   3.225   1.780
 2106TIP3   OH2 6260   1.164   0.684   4.417
 2106TIP3    H1 6261   1.204   0.735   4.347
 2106TIP3    H2 6262   1.123   0.610   4.373
 2107TIP3   OH2 6263   7.593   4.417   4.937
 2107TIP3    H1 6264   7.519   4.423   4.998
 2107TIP3    H2 6265   7.609   4.323   4.928
 2108TIP3   OH2 6266   4.558   2.365   2.307
 2108TIP3    H1 6267   4.469   2.337   2.328
 2108TIP3    H2 6268   4.606   2.355   2.389
 2109TIP3   OH2 6269   1.898   7.700   1.171
 2109TIP3    H1 6270   1.845   7.740   1.102
 2109TIP3    H2 6271   1.836   7.644   1.218
 2110TIP3   OH2 6272   6.695   5.276   3.993
 2110TIP3    H1 6273   6.735   5.269   4.080
 2110TIP3    H2 6274   6.637   5.200   3.987
 2111TIP3   OH2 6275   1.068   2.593   0.532
 2111TIP3    H1 6276   1.110   2.602   0.618
 2111TIP3    H2 6277   1.107   2.662   0.479
 2112TIP3   OH2 6278   0.077   5.155   5.837
 2112TIP3    H1 6279   0.165   5.131   5.866
 2112TIP3    H2 6280   0.091   5.213   5.762
 2113TIP3   OH2 6281   5.178   5.295   1.721
 2113TIP3    H1 6282   5.092   5.268   1.752
 2113TIP3    H2 6283   5.177   5.390   1.727
 2114TIP3   OH2 6284   2.723   7.686   5.208
 2114TIP3    H1 6285   2.752   7.772   5.179
 2114TIP3    H2 6286   2.666   7.704   5.283
 2115TIP3   OH2 6287   7.354   2.039   4.144
 2115TIP3    H1 6288   7.349   1.993   4.227
 2115TIP3    H2 6289   7.418   1.990   4.093
 2116TIP3   OH2 6290   7.086   6.504   0.333
 2116TIP3    H1 6291   7.054   6.574   0.390
 2116TIP3    H2 6292   7.061   6.423   0.378
 2117TIP3   OH2 6293   3.977   1.453   0.365
 2117TIP3    H1 6294   4.065   1.457   0.329
 2117TIP3    H2 6295   3.953   1.360   0.362
 2118TIP3   OH2 6296   0.495   0.128   1.350
 2118TIP3    H1 6297   0.437   0.052   1.357
 2118TIP3    H2 6298   0.452   0.185   1.285
 2119TIP3   OH2 6299   7.798   7.412   3.762
 2119TIP3    H1 6300   7.829   7.330   3.723
 2119TIP3    H2 6301   7.771   7.466   3.688
 2120TIP3   OH2 6302   1.890   3.849   6.156
 2120TIP3    H1 6303   1.824   3.872   6.222
 2120TIP3    H2 6304   1.875   3.756   6.139
 2121TIP3   OH2 6305   0.595   6.407   5.986
 2121TIP3    H1 6306   0.514   6.437   5.944
 2121TIP3    H2 6307   0.653   6.483   5.982
 2122TIP3   OH2 6308   0.738   6.508   2.874
 2122TIP3    H1 6309   0.649   6.534   2.850
 2122TIP3    H2 6310   0.790   6.587   2.861
 2123TIP3   OH2 6311   3.013   1.148   2.348
 2123TIP3    H1 6312   2.920   1.172   2.343
 2123TIP3    H2 6313   3.044   1.154   2.257
 2124TIP3   OH2 6314   7.691   5.867   5.222
 2124TIP3    H1 6315   7.635   5.942   5.202
 2124TIP3    H2 6316   7.683   5.855   5.316
 2125TIP3   OH2 6317   5.283   2.152   0.755
 2125TIP3    H1 6318   5.298   2.150   0.661
 2125TIP3    H2 6319   5.208   2.212   0.766
 2126TIP3   OH2 6320   0.348   2.925   3.361
 2126TIP3    H1 6321   0.328   2.835   3.386
 2126TIP3    H2 6322   0.361   2.970   3.444
 2127TIP3   OH2 6323   7.032   5.182   0.447
 2127TIP3    H1 6324   7.047   5.267   0.405
 2127TIP3    H2 6325   7.047   5.199   0.540
 2128TIP3   OH2 6326   5.411   0.203   3.681
 2128TIP3    H1 6327   5.336   0.197   3.622
 2128TIP3    H2 6328   5.462   0.125   3.662
 2129TIP3   OH2 6329   5.633   4.925   4.782
 2129TIP3    H1 6330   5.628   4.980   4.704
 2129TIP3    H2 6331   5.649   4.986   4.854
 2130TIP3   OH2 6332   4.694   3.476   5.542
 2130TIP3    H1 6333   4.773   3.459   5.593
 2130TIP3    H2 6334   4.652   3.391   5.533
 2131TIP3   OH2 6335   6.877   5.477   3.949
 2131TIP3    H1 6336   6.840   5.564   3.959
 2131TIP3    H2 6337   6.813   5.418   3.988
 2132TIP3   OH2 6338   2.217   2.333   2.962
 2132TIP3    H1 6339   2.211   2.244   2.995
 2132TIP3    H2 6340   2.308   2.343   2.934
 2133TIP3   OH2 6341   7.779   4.269   0.229
 2133TIP3    H1 6342   7.809   4.335   0.291
 2133TIP3    H2 6343   7.826   4.189   0.255
 2134TIP3   OH2 6344   4.130   4.878   0.016
 2134TIP3    H1 6345   4.098   4.919   0.096
 2134TIP3    H2 6346   4.219   4.913   0.005
 2135TIP3   OH2 6347   6.977   6.918   6.785
 2135TIP3    H1 6348   7.069   6.922   6.812
 2135TIP3    H2 6349   6.981   6.918   6.689
 2136TIP3   OH2 6350   3.749   3.825   3.251
 2136TIP3    H1 6351   3.833   3.806   3.211
 2136TIP3    H2 6352   3.719   3.741   3.286
 2137TIP3   OH2 6353   1.643   3.602   1.205
 2137TIP3    H1 6354   1.656   3.516   1.166
 2137TIP3    H2 6355   1.587   3.586   1.281
 2138TIP3   OH2 6356   2.911   6.393   1.430
 2138TIP3    H1 6357   2.861   6.359   1.355
 2138TIP3    H2 6358   2.847   6.441   1.482
 2139TIP3   OH2 6359   5.656   2.007   6.768
 2139TIP3    H1 6360   5.661   2.084   6.824
 2139TIP3    H2 6361   5.635   1.935   6.827
 2140TIP3   OH2 6362   3.216   0.224   6.061
 2140TIP3    H1 6363   3.228   0.148   6.005
 2140TIP3    H2 6364   3.301   0.269   6.059
 2141TIP3   OH2 6365   2.080   5.949   2.530
 2141TIP3    H1 6366   2.066   5.910   2.617
 2141TIP3    H2 6367   2.043   5.885   2.469
 2142TIP3   OH2 6368   5.766   3.857   0.430
 2142TIP3    H1 6369   5.830   3.896   0.370
 2142TIP3    H2 6370   5.704   3.927   0.448
 2143TIP3   OH2 6371   2.890   5.607   4.951
 2143TIP3    H1 6372   2.861   5.679   4.895
 2143TIP3    H2 6373   2.858   5.630   5.038
 2144TIP3   OH2 6374   4.739   0.284   1.858
 2144TIP3    H1 6375   4.726   0.351   1.791
 2144TIP3    H2 6376   4.653   0.243   1.867
 2145TIP3   OH2 6377   5.746   2.401   6.072
 2145TIP3    H1 6378   5.762   2.467   6.005
 2145TIP3    H2 6379   5.655   2.376   6.061
 2146TIP3   OH2 6380   5.204   5.448   0.818
 2146TIP3    H1 6381   5.259   5.486   0.750
 2146TIP3    H2 6382   5.225   5.498   0.897
 2147TIP3   OH2 6383   5.321   0.566   6.365
 2147TIP3    H1 6384   5.297   0.628   6.433
 2147TIP3    H2 6385   5.250   0.571   6.301
 2148TIP3   OH2 6386   4.123   5.340   5.222
 2148TIP3    H1 6387   4.156   5.317   5.135
 2148TIP3    H2 6388   4.081   5.260   5.254
 2149TIP3   OH2 6389   3.934   0.888   1.197
 2149TIP3    H1 6390   3.906   0.801   1.170
 2149TIP3    H2 6391   3.859   0.945   1.179
 2150TIP3   OH2 6392   6.574   5.947   2.784
 2150TIP3    H1 6393   6.494   5.957   2.734
 2150TIP3    H2 6394   6.589   6.034   2.823
 2151TIP3   OH2 6395   4.548   2.301   4.944
 2151TIP3    H1 6396   4.561   2.396   4.946
 2151TIP3    H2 6397   4.455   2.290   4.925
 2152TIP3   OH2 6398   8.264   0.155   0.225
 2152TIP3    H1 6399   8.248   0.129   0.134
 2152TIP3    H2 6400   8.179   0.190   0.255
 2153TIP3   OH2 6401   5.826   2.742   4.277
 2153TIP3    H1 6402   5.818   2.706   4.189
 2153TIP3    H2 6403   5.864   2.829   4.265
 2154TIP3   OH2 6404   1.997   3.558   4.744
 2154TIP3    H1 6405   2.055   3.599   4.679
 2154TIP3    H2 6406   1.910   3.589   4.721
 2155TIP3   OH2 6407   7.497   1.784   3.519
 2155TIP3    H1 6408   7.431   1.750   3.580
 2155TIP3    H2 6409   7.451   1.790   3.435
 2156TIP3   OH2 6410   0.856   4.813   3.242
 2156TIP3    H1 6411   0.885   4.837   3.154
 2156TIP3    H2 6412   0.931   4.766   3.280
 2157TIP3   OH2 6413   1.498   1.814   0.141
 2157TIP3    H1 6414   1.411   1.853   0.133
 2157TIP3    H2 6415   1.532   1.846   0.224
 2158TIP3   OH2 6416   5.441   1.448   5.848
 2158TIP3    H1 6417   5.361   1.396   5.842
 2158TIP3    H2 6418   5.433   1.513   5.778
 2159TIP3   OH2 6419   5.610   3.801   1.104
 2159TIP3    H1 6420   5.528   3.789   1.152
 2159TIP3    H2 6421   5.649   3.880   1.143
 2160TIP3   OH2 6422   5.198   3.095   3.038
 2160TIP3    H1 6423   5.193   3.169   2.978
 2160TIP3    H2 6424   5.290   3.090   3.064
 2161TIP3   OH2 6425   4.981   1.426   0.764
 2161TIP3    H1 6426   5.036   1.380   0.700
 2161TIP3    H2 6427   5.014   1.516   0.763
 2162TIP3   OH2 6428   3.401   1.414   3.114
 2162TIP3    H1 6429   3.435   1.417   3.203
 2162TIP3    H2 6430   3.389   1.505   3.089
 2163TIP3   OH2 6431   2.484   0.420   3.516
 2163TIP3    H1 6432   2.570   0.445   3.483
 2163TIP3    H2 6433   2.461   0.488   3.579
 2164TIP3   OH2 6434   7.961   3.072   2.750
 2164TIP3    H1 6435   7.922   2.985   2.743
 2164TIP3    H2 6436   7.969   3.087   2.844
 2165TIP3   OH2 6437   4.567   3.949   2.778
 2165TIP3    H1 6438   4.557   4.025   2.835
 2165TIP3    H2 6439   4.478   3.921   2.759
 2166TIP3   OH2 6440   6.891   7.129   1.529
 2166TIP3    H1 6441   6.983   7.125   1.555
 2166TIP3    H2 6442   6.848   7.177   1.600
 2167TIP3   OH2 6443   7.473   3.361   3.329
 2167TIP3    H1 6444   7.419   3.315   3.265
 2167TIP3    H2 6445   7.492   3.295   3.396
 2168TIP3   OH2 6446   4.655   0.319   6.610
 2168TIP3    H1 6447   4.646   0.295   6.518
 2168TIP3    H2 6448   4.728   0.266   6.642
 2169TIP3   OH2 6449   0.630   5.332   2.043
 2169TIP3    H1 6450   0.563   5.307   1.980
 2169TIP3    H2 6451   0.701   5.268   2.028
 2170TIP3   OH2 6452   5.721   1.693   4.678
 2170TIP3    H1 6453   5.785   1.668   4.612
 2170TIP3    H2 6454   5.767   1.755   4.734
 2171TIP3   OH2 6455   2.624   6.406   2.018
 2171TIP3    H1 6456   2.614   6.348   1.942
 2171TIP3    H2 6457   2.605   6.493   1.984
 2172TIP3   OH2 6458   0.617   3.676   1.238
 2172TIP3    H1 6459   0.593   3.598   1.188
 2172TIP3    H2 6460   0.596   3.654   1.328
 2173TIP3   OH2 6461   4.457   5.741   2.403
 2173TIP3    H1 6462   4.495   5.723   2.489
 2173TIP3    H2 6463   4.371   5.700   2.406
 2174TIP3   OH2 6464   3.357   2.982   5.223
 2174TIP3    H1 6465   3.328   2.930   5.298
 2174TIP3    H2 6466   3.448   2.956   5.210
 2175TIP3   OH2 6467   4.325   5.094   6.223
 2175TIP3    H1 6468   4.256   5.111   6.159
 2175TIP3    H2 6469   4.294   5.018   6.273
 2176TIP3   OH2 6470   1.060   4.462   5.693
 2176TIP3    H1 6471   1.061   4.374   5.732
 2176TIP3    H2 6472   1.153   4.484   5.683
 2177TIP3   OH2 6473   2.885   2.013   5.429
 2177TIP3    H1 6474   2.826   1.938   5.421
 2177TIP3    H2 6475   2.893   2.026   5.524
 2178TIP3   OH2 6476   7.062   6.205   0.708
 2178TIP3    H1 6477   7.019   6.249   0.781
 2178TIP3    H2 6478   7.120   6.140   0.749
 2179TIP3   OH2 6479   6.387   5.952   2.601
 2179TIP3    H1 6480   6.321   5.895   2.562
 2179TIP3    H2 6481   6.337   6.027   2.634
 2180TIP3   OH2 6482   1.508   7.002   6.023
 2180TIP3    H1 6483   1.595   6.985   6.059
 2180TIP3    H2 6484   1.487   7.091   6.052
 2181TIP3   OH2 6485   5.524   0.480   3.916
 2181TIP3    H1 6486   5.589   0.534   3.961
 2181TIP3    H2 6487   5.564   0.393   3.912
 2182TIP3   OH2 6488   0.107   6.945   1.158
 2182TIP3    H1 6489   0.057   6.878   1.205
 2182TIP3    H2 6490   0.158   6.989   1.225
 2183TIP3   OH2 6491   1.769   5.313   3.272
 2183TIP3    H1 6492   1.737   5.225   3.295
 2183TIP3    H2 6493   1.827   5.336   3.345
 2184TIP3   OH2 6494   8.176   3.820   4.938
 2184TIP3    H1 6495   8.176   3.834   4.843
 2184TIP3    H2 6496   8.245   3.756   4.952
 2185TIP3   OH2 6497   2.455   6.058   3.775
 2185TIP3    H1 6498   2.437   5.967   3.753
 2185TIP3    H2 6499   2.500   6.055   3.859
 2186TIP3   OH2 6500   7.688   5.417   3.289
 2186TIP3    H1 6501   7.754   5.479   3.258
 2186TIP3    H2 6502   7.610   5.471   3.305
 2187TIP3   OH2 6503   0.235   5.361   4.062
 2187TIP3    H1 6504   0.312   5.337   4.012
 2187TIP3    H2 6505   0.175   5.399   3.998
 2188TIP3   OH2 6506   6.231   5.589   5.442
 2188TIP3    H1 6507   6.295   5.538   5.392
 2188TIP3    H2 6508   6.147   5.569   5.401
 2189TIP3   OH2 6509   1.588   6.425   2.329
 2189TIP3    H1 6510   1.596   6.346   2.384
 2189TIP3    H2 6511   1.589   6.392   2.239
 2190TIP3   OH2 6512   3.919   1.728   4.358
 2190TIP3    H1 6513   3.963   1.674   4.292
 2190TIP3    H2 6514   3.941   1.686   4.441
 2191TIP3   OH2 6515   2.721   2.959   6.221
 2191TIP3    H1 6516   2.763   3.026   6.275
 2191TIP3    H2 6517   2.627   2.980   6.225
 2192TIP3   OH2 6518   4.657   7.253   5.432
 2192TIP3    H1 6519   4.599   7.307   5.485
 2192TIP3    H2 6520   4.719   7.315   5.394
 2193TIP3   OH2 6521   7.142   6.841   0.169
 2193TIP3    H1 6522   7.069   6.827   0.109
 2193TIP3    H2 6523   7.124   6.782   0.243
 2194TIP3   OH2 6524   1.958   6.562   4.016
 2194TIP3    H1 6525   2.010   6.493   4.058
 2194TIP3    H2 6526   1.869   6.549   4.051
 2195TIP3   OH2 6527   5.202   0.741   2.343
 2195TIP3    H1 6528   5.185   0.793   2.264
 2195TIP3    H2 6529   5.159   0.789   2.413
 2196TIP3   OH2 6530   1.198   6.919   1.391
 2196TIP3    H1 6531   1.197   6.913   1.296
 2196TIP3    H2 6532   1.281   6.879   1.417
 2197TIP3   OH2 6533   1.990   1.805   4.948
 2197TIP3    H1 6534   1.932   1.740   4.986
 2197TIP3    H2 6535   1.976   1.884   5.000
 2198TIP3   OH2 6536   1.910   1.198   4.392
 2198TIP3    H1 6537   1.871   1.122   4.349
 2198TIP3    H2 6538   1.960   1.161   4.465
 2199TIP3   OH2 6539   4.662   1.391   5.386
 2199TIP3    H1 6540   4.570   1.371   5.367
 2199TIP3    H2 6541   4.667   1.486   5.381
 2200TIP3   OH2 6542   0.123   1.366   3.271
 2200TIP3    H1 6543   0.171   1.448   3.266
 2200TIP3    H2 6544   0.162   1.319   3.345
 2201TIP3   OH2 6545   6.640   6.750   1.966
 2201TIP3    H1 6546   6.647   6.844   1.952
 2201TIP3    H2 6547   6.723   6.725   2.005
 2202TIP3   OH2 6548   3.264   0.228   5.381
 2202TIP3    H1 6549   3.336   0.202   5.439
 2202TIP3    H2 6550   3.296   0.208   5.293
 2203TIP3   OH2 6551   2.389   3.411   3.684
 2203TIP3    H1 6552   2.439   3.463   3.746
 2203TIP3    H2 6553   2.366   3.332   3.733
 2204TIP3   OH2 6554   0.306   0.609   5.588
 2204TIP3    H1 6555   0.376   0.660   5.548
 2204TIP3    H2 6556   0.326   0.518   5.566
 2205TIP3   OH2 6557   3.954   2.638   6.317
 2205TIP3    H1 6558   4.041   2.613   6.285
 2205TIP3    H2 6559   3.964   2.729   6.346
 2206TIP3   OH2 6560   4.381   5.102   1.893
 2206TIP3    H1 6561   4.341   5.121   1.808
 2206TIP3    H2 6562   4.348   5.171   1.951
 2207TIP3   OH2 6563   0.214   4.093   5.046
 2207TIP3    H1 6564   0.206   4.006   5.007
 2207TIP3    H2 6565   0.275   4.140   4.990
 2208TIP3   OH2 6566   7.226   5.798   1.939
 2208TIP3    H1 6567   7.234   5.870   1.876
 2208TIP3    H2 6568   7.132   5.781   1.945
 2209TIP3   OH2 6569   3.781   4.201   2.832
 2209TIP3    H1 6570   3.692   4.169   2.821
 2209TIP3    H2 6571   3.802   4.182   2.924
 2210TIP3   OH2 6572   0.443   2.363   6.727
 2210TIP3    H1 6573   0.527   2.345   6.770
 2210TIP3    H2 6574   0.462   2.439   6.672
 2211TIP3   OH2 6575   2.424   3.512   5.496
 2211TIP3    H1 6576   2.476   3.542   5.571
 2211TIP3    H2 6577   2.487   3.506   5.424
 2212TIP3   OH2 6578   7.648   5.246   1.342
 2212TIP3    H1 6579   7.573   5.304   1.326
 2212TIP3    H2 6580   7.654   5.239   1.437
 2213TIP3   OH2 6581   6.307   7.837   0.782
 2213TIP3    H1 6582   6.364   7.772   0.822
 2213TIP3    H2 6583   6.360   7.916   0.778
 2214TIP3   OH2 6584   0.207   5.595   5.646
 2214TIP3    H1 6585   0.196   5.668   5.706
 2214TIP3    H2 6586   0.124   5.547   5.650
 2215TIP3   OH2 6587   7.450   5.419   6.300
 2215TIP3    H1 6588   7.507   5.490   6.330
 2215TIP3    H2 6589   7.409   5.453   6.221
 2216TIP3   OH2 6590   0.429   4.848   6.002
 2216TIP3    H1 6591   0.478   4.901   5.940
 2216TIP3    H2 6592   0.385   4.782   5.948
 2217TIP3   OH2 6593   1.189   7.562   1.679
 2217TIP3    H1 6594   1.227   7.631   1.624
 2217TIP3    H2 6595   1.227   7.577   1.765
 2218TIP3   OH2 6596   5.281   0.566   3.781
 2218TIP3    H1 6597   5.348   0.524   3.834
 2218TIP3    H2 6598   5.327   0.591   3.701
 2219TIP3   OH2 6599   2.197   4.012   3.222
 2219TIP3    H1 6600   2.277   3.963   3.243
 2219TIP3    H2 6601   2.220   4.103   3.238
 2220TIP3   OH2 6602   7.908   0.031   0.401
 2220TIP3    H1 6603   7.834   0.013   0.458
 2220TIP3    H2 6604   7.878   0.101   0.343
 2221TIP3   OH2 6605   5.913   0.106  -0.015
 2221TIP3    H1 6606   5.828   0.150  -0.007
 2221TIP3    H2 6607   5.974   0.166   0.028
 2222TIP3   OH2 6608   0.476   3.497   1.676
 2222TIP3    H1 6609   0.493   3.584   1.713
 2222TIP3    H2 6610   0.439   3.447   1.749
 2223TIP3   OH2 6611   5.143   5.147  -0.017
 2223TIP3    H1 6612   5.159   5.208   0.055
 2223TIP3    H2 6613   5.156   5.061   0.022
 2224TIP3   OH2 6614   4.555   2.961   5.945
 2224TIP3    H1 6615   4.484   3.013   5.907
 2224TIP3    H2 6616   4.587   2.907   5.873
 2225TIP3   OH2 6617   2.940   2.901   6.396
 2225TIP3    H1 6618   2.943   2.975   6.457
 2225TIP3    H2 6619   2.850   2.870   6.401
 2226TIP3   OH2 6620   7.639   5.809   0.440
 2226TIP3    H1 6621   7.633   5.860   0.359
 2226TIP3    H2 6622   7.685   5.729   0.415
 2227TIP3   OH2 6623   4.919   2.824   4.407
 2227TIP3    H1 6624   4.949   2.911   4.434
 2227TIP3    H2 6625   4.874   2.840   4.324
 2228TIP3   OH2 6626   5.302   4.434   3.436
 2228TIP3    H1 6627   5.361   4.379   3.488
 2228TIP3    H2 6628   5.352   4.455   3.357
 2229TIP3   OH2 6629   8.195   2.822   2.294
 2229TIP3    H1 6630   8.251   2.754   2.332
 2229TIP3    H2 6631   8.114   2.777   2.272
 2230TIP3   OH2 6632   5.313   1.039   1.970
 2230TIP3    H1 6633   5.376   0.972   1.996
 2230TIP3    H2 6634   5.244   1.034   2.037
 2231TIP3   OH2 6635   2.135   6.860   2.014
 2231TIP3    H1 6636   2.084   6.885   1.937
 2231TIP3    H2 6637   2.149   6.766   2.005
 2232TIP3   OH2 6638   5.493   3.622   5.272
 2232TIP3    H1 6639   5.556   3.647   5.204
 2232TIP3    H2 6640   5.512   3.530   5.289
 2233TIP3   OH2 6641   6.131   4.498   0.311
 2233TIP3    H1 6642   6.173   4.583   0.297
 2233TIP3    H2 6643   6.100   4.473   0.224
 2234TIP3   OH2 6644   3.400   1.181   3.519
 2234TIP3    H1 6645   3.365   1.130   3.446
 2234TIP3    H2 6646   3.490   1.148   3.531
 2235TIP3   OH2 6647   1.371   4.387   6.274
 2235TIP3    H1 6648   1.301   4.372   6.338
 2235TIP3    H2 6649   1.406   4.300   6.256
 2236TIP3   OH2 6650   6.750   5.905   0.220
 2236TIP3    H1 6651   6.748   5.817   0.181
 2236TIP3    H2 6652   6.829   5.945   0.185
 2237TIP3   OH2 6653   6.730   7.531   3.372
 2237TIP3    H1 6654   6.732   7.458   3.310
 2237TIP3    H2 6655   6.760   7.606   3.322
 2238TIP3   OH2 6656   7.898   6.067   4.682
 2238TIP3    H1 6657   7.852   6.032   4.606
 2238TIP3    H2 6658   7.885   6.002   4.751
 2239TIP3   OH2 6659   2.137   5.285   4.420
 2239TIP3    H1 6660   2.099   5.277   4.508
 2239TIP3    H2 6661   2.116   5.202   4.377
 2240TIP3   OH2 6662   4.664   6.933   5.731
 2240TIP3    H1 6663   4.573   6.960   5.746
 2240TIP3    H2 6664   4.714   7.015   5.737
 2241TIP3   OH2 6665   6.843   1.472   5.263
 2241TIP3    H1 6666   6.884   1.516   5.338
 2241TIP3    H2 6667   6.754   1.507   5.260
 2242TIP3   OH2 6668   2.435   5.072   0.710
 2242TIP3    H1 6669   2.436   5.096   0.803
 2242TIP3    H2 6670   2.375   5.134   0.670
 2243TIP3   OH2 6671   5.850   6.686   2.415
 2243TIP3    H1 6672   5.824   6.594   2.423
 2243TIP3    H2 6673   5.788   6.733   2.470
 2244TIP3   OH2 6674   2.866   3.664   1.393
 2244TIP3    H1 6675   2.779   3.648   1.356
 2244TIP3    H2 6676   2.867   3.612   1.474
 2245TIP3   OH2 6677   6.781   2.952   0.635
 2245TIP3    H1 6678   6.689   2.933   0.616
 2245TIP3    H2 6679   6.830   2.897   0.574
 2246TIP3   OH2 6680   2.811   7.340   1.488
 2246TIP3    H1 6681   2.848   7.254   1.511
 2246TIP3    H2 6682   2.786   7.378   1.572
 2247TIP3   OH2 6683   3.858   1.178   5.550
 2247TIP3    H1 6684   3.832   1.091   5.519
 2247TIP3    H2 6685   3.780   1.212   5.594
 2248TIP3   OH2 6686   0.435   6.858   3.289
 2248TIP3    H1 6687   0.528   6.877   3.274
 2248TIP3    H2 6688   0.437   6.774   3.337
 2249TIP3   OH2 6689   0.459   2.286   0.248
 2249TIP3    H1 6690   0.473   2.304   0.155
 2249TIP3    H2 6691   0.544   2.255   0.279
 2250TIP3   OH2 6692   7.745   3.626   6.201
 2250TIP3    H1 6693   7.693   3.706   6.190
 2250TIP3    H2 6694   7.681   3.560   6.227
 2251TIP3   OH2 6695   4.977   7.690   6.052
 2251TIP3    H1 6696   5.070   7.713   6.045
 2251TIP3    H2 6697   4.972   7.601   6.018
 2252TIP3   OH2 6698   4.155   0.811   5.572
 2252TIP3    H1 6699   4.115   0.880   5.626
 2252TIP3    H2 6700   4.086   0.787   5.510
 2253TIP3   OH2 6701   6.754   4.376   0.349
 2253TIP3    H1 6702   6.834   4.356   0.301
 2253TIP3    H2 6703   6.732   4.295   0.394
 2254TIP3   OH2 6704   0.296   0.379   0.887
 2254TIP3    H1 6705   0.208   0.382   0.850
 2254TIP3    H2 6706   0.351   0.352   0.814
 2255TIP3   OH2 6707   7.276   7.716   0.513
 2255TIP3    H1 6708   7.314   7.715   0.425
 2255TIP3    H2 6709   7.232   7.800   0.520
 2256TIP3   OH2 6710   1.975   4.909   3.497
 2256TIP3    H1 6711   2.040   4.934   3.432
 2256TIP3    H2 6712   1.982   4.975   3.566
 2257TIP3   OH2 6713   7.519   1.930   1.303
 2257TIP3    H1 6714   7.423   1.923   1.303
 2257TIP3    H2 6715   7.547   1.876   1.377
 2258TIP3   OH2 6716   2.935   6.787   6.660
 2258TIP3    H1 6717   3.001   6.808   6.594
 2258TIP3    H2 6718   2.966   6.831   6.740
 2259TIP3   OH2 6719   1.235   1.493   4.413
 2259TIP3    H1 6720   1.210   1.551   4.485
 2259TIP3    H2 6721   1.288   1.547   4.355
 2260TIP3   OH2 6722   0.896   6.283   4.263
 2260TIP3    H1 6723   0.909   6.291   4.169
 2260TIP3    H2 6724   0.900   6.189   4.280
 2261TIP3   OH2 6725   1.972   1.064   4.716
 2261TIP3    H1 6726   1.948   1.087   4.806
 2261TIP3    H2 6727   2.067   1.079   4.712
 2262TIP3   OH2 6728   2.649   4.783   1.962
 2262TIP3    H1 6729   2.588   4.803   2.034
 2262TIP3    H2 6730   2.655   4.865   1.913
 2263TIP3   OH2 6731   5.024   1.251   5.123
 2263TIP3    H1 6732   5.053   1.336   5.156
 2263TIP3    H2 6733   4.928   1.256   5.122
 2264TIP3   OH2 6734   5.814   0.382   3.036
 2264TIP3    H1 6735   5.764   0.433   3.101
 2264TIP3    H2 6736   5.805   0.432   2.955
 2265TIP3   OH2 6737   0.772   3.596   3.577
 2265TIP3    H1 6738   0.766   3.674   3.632
 2265TIP3    H2 6739   0.707   3.610   3.508
 2266TIP3   OH2 6740   0.625   6.728   5.433
 2266TIP3    H1 6741   0.624   6.650   5.488
 2266TIP3    H2 6742   0.550   6.716   5.373
 2267TIP3   OH2 6743   6.216   6.743   0.185
 2267TIP3    H1 6744   6.187   6.833   0.198
 2267TIP3    H2 6745   6.166   6.692   0.248
 2268TIP3   OH2 6746   1.100   7.478   4.165
 2268TIP3    H1 6747   1.022   7.441   4.123
 2268TIP3    H2 6748   1.170   7.417   4.144
 2269TIP3   OH2 6749   2.316   7.499   3.189
 2269TIP3    H1 6750   2.401   7.540   3.206
 2269TIP3    H2 6751   2.260   7.572   3.162
 2270TIP3   OH2 6752   6.533   2.150   3.690
 2270TIP3    H1 6753   6.485   2.187   3.615
 2270TIP3    H2 6754   6.487   2.184   3.766
 2271TIP3   OH2 6755   6.365   3.289   4.708
 2271TIP3    H1 6756   6.324   3.202   4.713
 2271TIP3    H2 6757   6.457   3.271   4.689
 2272TIP3   OH2 6758   7.046   4.834   0.013
 2272TIP3    H1 6759   6.963   4.789   0.000
 2272TIP3    H2 6760   7.107   4.766   0.042
 2273TIP3   OH2 6761   4.574   3.804   0.400
 2273TIP3    H1 6762   4.509   3.733   0.393
 2273TIP3    H2 6763   4.658   3.759   0.401
 2274TIP3   OH2 6764   1.240   5.980   5.332
 2274TIP3    H1 6765   1.318   6.004   5.281
 2274TIP3    H2 6766   1.251   6.025   5.415
 2275TIP3   OH2 6767   2.544   3.933   6.798
 2275TIP3    H1 6768   2.491   3.854   6.813
 2275TIP3    H2 6769   2.565   3.930   6.704
 2276TIP3   OH2 6770   7.868   6.025   2.679
 2276TIP3    H1 6771   7.957   6.037   2.649
 2276TIP3    H2 6772   7.871   5.945   2.732
 2277TIP3   OH2 6773   7.763   1.393   5.398
 2277TIP3    H1 6774   7.707   1.335   5.449
 2277TIP3    H2 6775   7.741   1.373   5.306
 2278TIP3   OH2 6776   2.587   5.826   6.673
 2278TIP3    H1 6777   2.567   5.738   6.705
 2278TIP3    H2 6778   2.606   5.877   6.752
 2279TIP3   OH2 6779   5.527   2.922   4.736
 2279TIP3    H1 6780   5.459   2.895   4.674
 2279TIP3    H2 6781   5.608   2.917   4.685
 2280TIP3   OH2 6782   0.351   0.540   2.295
 2280TIP3    H1 6783   0.303   0.548   2.377
 2280TIP3    H2 6784   0.394   0.625   2.284
 2281TIP3   OH2 6785   1.880   3.755   1.141
 2281TIP3    H1 6786   1.791   3.740   1.172
 2281TIP3    H2 6787   1.890   3.697   1.065
 2282TIP3   OH2 6788   0.077   4.808   2.728
 2282TIP3    H1 6789   0.053   4.834   2.817
 2282TIP3    H2 6790   0.109   4.888   2.688
 2283TIP3   OH2 6791   2.609   3.398   2.261
 2283TIP3    H1 6792   2.577   3.485   2.284
 2283TIP3    H2 6793   2.626   3.403   2.167
 2284TIP3   OH2 6794   0.530   1.905   4.336
 2284TIP3    H1 6795   0.492   1.829   4.381
 2284TIP3    H2 6796   0.621   1.880   4.320
 2285TIP3   OH2 6797   0.767   3.176   4.836
 2285TIP3    H1 6798   0.789   3.120   4.910
 2285TIP3    H2 6799   0.840   3.164   4.774
 2286TIP3   OH2 6800   3.064   0.992   6.047
 2286TIP3    H1 6801   2.974   0.965   6.028
 2286TIP3    H2 6802   3.071   1.080   6.009
 2287TIP3   OH2 6803   0.865   4.519   0.683
 2287TIP3    H1 6804   0.947   4.493   0.642
 2287TIP3    H2 6805   0.810   4.547   0.610
 2288TIP3   OH2 6806   7.773   4.255   3.843
 2288TIP3    H1 6807   7.799   4.304   3.921
 2288TIP3    H2 6808   7.680   4.238   3.854
 2289TIP3   OH2 6809   0.083   6.203   0.547
 2289TIP3    H1 6810   0.097   6.221   0.454
 2289TIP3    H2 6811  -0.010   6.223   0.561
 2290TIP3   OH2 6812   4.097   1.248   5.710
 2290TIP3    H1 6813   4.187   1.271   5.687
 2290TIP3    H2 6814   4.044   1.281   5.637
 2291TIP3   OH2 6815   4.946   2.189   2.386
 2291TIP3    H1 6816   4.963   2.212   2.294
 2291TIP3    H2 6817   4.916   2.098   2.383
 2292TIP3   OH2 6818   5.513   5.095   2.387
 2292TIP3    H1 6819   5.465   5.145   2.322
 2292TIP3    H2 6820   5.583   5.154   2.416
 2293TIP3   OH2 6821   5.117   3.174   3.276
 2293TIP3    H1 6822   5.104   3.114   3.202
 2293TIP3    H2 6823   5.197   3.144   3.318
 2294TIP3   OH2 6824   7.371   0.483   2.946
 2294TIP3    H1 6825   7.318   0.531   2.883
 2294TIP3    H2 6826   7.461   0.491   2.914
 2295TIP3   OH2 6827   3.299   3.431   1.333
 2295TIP3    H1 6828   3.285   3.482   1.254
 2295TIP3    H2 6829   3.270   3.488   1.404
 2296TIP3   OH2 6830   1.173   2.067   1.097
 2296TIP3    H1 6831   1.266   2.086   1.109
 2296TIP3    H2 6832   1.134   2.083   1.182
 2297TIP3   OH2 6833   4.839   3.364   0.970
 2297TIP3    H1 6834   4.930   3.337   0.984
 2297TIP3    H2 6835   4.846   3.445   0.918
 2298TIP3   OH2 6836   1.552   3.310   1.719
 2298TIP3    H1 6837   1.499   3.230   1.725
 2298TIP3    H2 6838   1.643   3.279   1.719
 2299TIP3   OH2 6839   1.204   1.377   2.350
 2299TIP3    H1 6840   1.245   1.303   2.304
 2299TIP3    H2 6841   1.111   1.372   2.324
 2300TIP3   OH2 6842   4.259   0.923   4.473
 2300TIP3    H1 6843   4.185   0.912   4.414
 2300TIP3    H2 6844   4.247   0.857   4.541
 2301TIP3   OH2 6845   1.338   4.241   0.430
 2301TIP3    H1 6846   1.322   4.257   0.523
 2301TIP3    H2 6847   1.293   4.313   0.386
 2302TIP3   OH2 6848   4.938   5.423   2.792
 2302TIP3    H1 6849   4.896   5.503   2.824
 2302TIP3    H2 6850   4.895   5.352   2.839
 2303TIP3   OH2 6851   7.195   7.604   0.023
 2303TIP3    H1 6852   7.141   7.667   0.070
 2303TIP3    H2 6853   7.213   7.536   0.089
 2304TIP3   OH2 6854   3.472   0.719   1.981
 2304TIP3    H1 6855   3.461   0.644   1.923
 2304TIP3    H2 6856   3.558   0.704   2.022
 2305TIP3   OH2 6857   4.768   2.297   2.132
 2305TIP3    H1 6858   4.700   2.339   2.185
 2305TIP3    H2 6859   4.720   2.232   2.080
 2306TIP3   OH2 6860   6.878   6.857   2.714
 2306TIP3    H1 6861   6.802   6.818   2.758
 2306TIP3    H2 6862   6.846   6.941   2.681
 2307TIP3   OH2 6863   6.709   7.357   4.435
 2307TIP3    H1 6864   6.676   7.344   4.346
 2307TIP3    H2 6865   6.697   7.450   4.453
 2308TIP3   OH2 6866   0.031   5.491   4.357
 2308TIP3    H1 6867   0.032   5.438   4.277
 2308TIP3    H2 6868   0.101   5.555   4.345
 2309TIP3   OH2 6869   3.178   4.400   4.871
 2309TIP3    H1 6870   3.116   4.327   4.863
 2309TIP3    H2 6871   3.162   4.434   4.959
 2310TIP3   OH2 6872   7.259   6.897   3.101
 2310TIP3    H1 6873   7.266   6.943   3.185
 2310TIP3    H2 6874   7.218   6.961   3.043
 2311TIP3   OH2 6875   5.355   4.142   6.004
 2311TIP3    H1 6876   5.278   4.085   6.002
 2311TIP3    H2 6877   5.323   4.223   6.044
 2312TIP3   OH2 6878   5.268   4.124   1.192
 2312TIP3    H1 6879   5.299   4.041   1.230
 2312TIP3    H2 6880   5.316   4.131   1.109
 2313TIP3   OH2 6881   0.114   1.282   5.534
 2313TIP3    H1 6882   0.077   1.250   5.451
 2313TIP3    H2 6883   0.074   1.227   5.601
 2314TIP3   OH2 6884   7.677   1.043   0.476
 2314TIP3    H1 6885   7.668   0.965   0.532
 2314TIP3    H2 6886   7.707   1.112   0.535
 2315TIP3   OH2 6887   7.640   0.254   4.293
 2315TIP3    H1 6888   7.576   0.212   4.350
 2315TIP3    H2 6889   7.638   0.346   4.319
 2316TIP3   OH2 6890   3.493   1.479   4.029
 2316TIP3    H1 6891   3.438   1.556   4.043
 2316TIP3    H2 6892   3.437   1.419   3.979
 2317TIP3   OH2 6893   6.344   0.465   3.827
 2317TIP3    H1 6894   6.416   0.403   3.830
 2317TIP3    H2 6895   6.287   0.432   3.757
 2318TIP3   OH2 6896   0.742   6.617   1.955
 2318TIP3    H1 6897   0.824   6.572   1.934
 2318TIP3    H2 6898   0.705   6.641   1.870
 2319TIP3   OH2 6899   1.186   3.050   3.841
 2319TIP3    H1 6900   1.097   3.086   3.843
 2319TIP3    H2 6901   1.215   3.052   3.933
 2320TIP3   OH2 6902   6.053   6.564   1.051
 2320TIP3    H1 6903   6.044   6.605   1.137
 2320TIP3    H2 6904   5.999   6.617   0.993
 2321TIP3   OH2 6905   3.186   0.528   0.595
 2321TIP3    H1 6906   3.259   0.532   0.533
 2321TIP3    H2 6907   3.197   0.607   0.649
 2322TIP3   OH2 6908   0.433   6.918   6.225
 2322TIP3    H1 6909   0.425   6.894   6.317
 2322TIP3    H2 6910   0.421   7.013   6.224
 2323TIP3   OH2 6911   3.850   0.335   5.248
 2323TIP3    H1 6912   3.816   0.315   5.335
 2323TIP3    H2 6913   3.816   0.423   5.229
 2324TIP3   OH2 6914   6.836   6.602   5.484
 2324TIP3    H1 6915   6.795   6.636   5.404
 2324TIP3    H2 6916   6.821   6.508   5.481
 2325TIP3   OH2 6917   1.365   1.879   5.843
 2325TIP3    H1 6918   1.279   1.855   5.879
 2325TIP3    H2 6919   1.377   1.822   5.767
 2326TIP3   OH2 6920   6.460   0.663   5.282
 2326TIP3    H1 6921   6.498   0.575   5.280
 2326TIP3    H2 6922   6.463   0.688   5.374
 2327TIP3   OH2 6923   8.056   6.185   5.030
 2327TIP3    H1 6924   8.038   6.158   5.120
 2327TIP3    H2 6925   8.106   6.112   4.993
 2328TIP3   OH2 6926   8.347   6.611   3.590
 2328TIP3    H1 6927   8.290   6.687   3.603
 2328TIP3    H2 6928   8.298   6.555   3.529
 2329TIP3   OH2 6929   2.661   3.635   4.449
 2329TIP3    H1 6930   2.756   3.629   4.463
 2329TIP3    H2 6931   2.637   3.553   4.406
 2330TIP3   OH2 6932   5.882   3.354   6.262
 2330TIP3    H1 6933   5.919   3.277   6.218
 2330TIP3    H2 6934   5.801   3.321   6.302
 2331TIP3   OH2 6935   5.944   7.381   6.047
 2331TIP3    H1 6936   5.974   7.349   6.132
 2331TIP3    H2 6937   6.014   7.438   6.016
 2332TIP3   OH2 6938   2.463   4.774   4.405
 2332TIP3    H1 6939   2.458   4.686   4.442
 2332TIP3    H2 6940   2.473   4.760   4.311
 2333TIP3   OH2 6941   5.719   4.138   0.062
 2333TIP3    H1 6942   5.799   4.158   0.013
 2333TIP3    H2 6943   5.688   4.056   0.024
 2334TIP3   OH2 6944   7.401   1.322   4.719
 2334TIP3    H1 6945   7.373   1.232   4.731
 2334TIP3    H2 6946   7.473   1.317   4.656
 2335TIP3   OH2 6947   2.179   6.829   1.490
 2335TIP3    H1 6948   2.231   6.905   1.517
 2335TIP3    H2 6949   2.243   6.760   1.474
 2336TIP3   OH2 6950   0.658   2.158   1.483
 2336TIP3    H1 6951   0.630   2.212   1.409
 2336TIP3    H2 6952   0.727   2.103   1.446
 2337TIP3   OH2 6953   6.179   7.367   5.184
 2337TIP3    H1 6954   6.243   7.370   5.256
 2337TIP3    H2 6955   6.166   7.459   5.160
 2338TIP3   OH2 6956   2.039   5.727   0.347
 2338TIP3    H1 6957   2.032   5.720   0.252
 2338TIP3    H2 6958   1.974   5.664   0.380
 2339TIP3   OH2 6959   5.552   4.571   2.781
 2339TIP3    H1 6960   5.602   4.524   2.714
 2339TIP3    H2 6961   5.461   4.548   2.764
 2340TIP3   OH2 6962   8.050   3.503   3.456
 2340TIP3    H1 6963   8.014   3.558   3.526
 2340TIP3    H2 6964   8.010   3.417   3.471
 2341TIP3   OH2 6965   1.261  -0.009   5.089
 2341TIP3    H1 6966   1.238   0.084   5.098
 2341TIP3    H2 6967   1.182  -0.049   5.052
 2342TIP3   OH2 6968   7.845   2.947   4.121
 2342TIP3    H1 6969   7.839   2.852   4.123
 2342TIP3    H2 6970   7.754   2.976   4.111
 2343TIP3   OH2 6971   2.450   3.075   3.634
 2343TIP3    H1 6972   2.539   3.110   3.643
 2343TIP3    H2 6973   2.454   3.020   3.556
 2344TIP3   OH2 6974   4.136   2.592   3.753
 2344TIP3    H1 6975   4.188   2.577   3.832
 2344TIP3    H2 6976   4.155   2.683   3.730
 2345TIP3   OH2 6977   1.859   0.700   3.344
 2345TIP3    H1 6978   1.880   0.663   3.258
 2345TIP3    H2 6979   1.944   0.718   3.384
 2346TIP3   OH2 6980   0.104   2.848   2.975
 2346TIP3    H1 6981   0.190   2.807   2.989
 2346TIP3    H2 6982   0.051   2.778   2.936
 2347TIP3   OH2 6983   3.058   6.031   1.496
 2347TIP3    H1 6984   3.017   5.955   1.454
 2347TIP3    H2 6985   3.051   6.101   1.431
 2348TIP3   OH2 6986   5.087   4.651   4.918
 2348TIP3    H1 6987   5.123   4.653   5.006
 2348TIP3    H2 6988   5.164   4.645   4.861
 2349TIP3   OH2 6989   3.465   3.879   6.584
 2349TIP3    H1 6990   3.524   3.807   6.560
 2349TIP3    H2 6991   3.440   3.860   6.674
 2350TIP3   OH2 6992   6.919   0.558   6.071
 2350TIP3    H1 6993   7.007   0.580   6.043
 2350TIP3    H2 6994   6.921   0.566   6.166
 2351TIP3   OH2 6995   8.088   7.529   0.239
 2351TIP3    H1 6996   8.151   7.588   0.282
 2351TIP3    H2 6997   8.137   7.494   0.164
 2352TIP3   OH2 6998   3.041   4.061   3.004
 2352TIP3    H1 6999   3.052   4.102   2.919
 2352TIP3    H2 7000   3.121   4.083   3.052
 2353TIP3   OH2 7001   5.622   1.630   2.220
 2353TIP3    H1 7002   5.670   1.702   2.260
 2353TIP3    H2 7003   5.585   1.581   2.294
 2354TIP3   OH2 7004   2.438   2.912   4.367
 2354TIP3    H1 7005   2.405   2.859   4.294
 2354TIP3    H2 7006   2.531   2.889   4.372
 2355TIP3   OH2 7007   2.601   5.703   2.115
 2355TIP3    H1 7008   2.573   5.708   2.024
 2355TIP3    H2 7009   2.695   5.684   2.111
 2356TIP3   OH2 7010   3.007   0.592   5.588
 2356TIP3    H1 7011   3.044   0.556   5.668
 2356TIP3    H2 7012   2.935   0.533   5.566
 2357TIP3   OH2 7013   5.138   7.305   0.887
 2357TIP3    H1 7014   5.074   7.361   0.929
 2357TIP3    H2 7015   5.178   7.360   0.819
 2358TIP3   OH2 7016   8.019   4.525   4.711
 2358TIP3    H1 7017   8.089   4.484   4.763
 2358TIP3    H2 7018   7.938   4.492   4.751
 2359TIP3   OH2 7019   8.120   4.132   4.460
 2359TIP3    H1 7020   8.115   4.226   4.471
 2359TIP3    H2 7021   8.209   4.115   4.431
 2360TIP3   OH2 7022   0.881   2.112   0.554
 2360TIP3    H1 7023   0.942   2.181   0.526
 2360TIP3    H2 7024   0.914   2.084   0.639
 2361TIP3   OH2 7025   2.659   6.215   0.190
 2361TIP3    H1 7026   2.719   6.147   0.161
 2361TIP3    H2 7027   2.707   6.297   0.177
 2362TIP3   OH2 7028   7.711   4.660   3.193
 2362TIP3    H1 7029   7.645   4.605   3.237
 2362TIP3    H2 7030   7.663   4.738   3.167
 2363TIP3   OH2 7031   3.993   4.415   2.221
 2363TIP3    H1 7032   3.997   4.323   2.249
 2363TIP3    H2 7033   3.904   4.443   2.243
 2364TIP3   OH2 7034   7.179   6.831   2.432
 2364TIP3    H1 7035   7.260   6.781   2.431
 2364TIP3    H2 7036   7.161   6.845   2.525
 2365TIP3   OH2 7037   5.275   1.861   5.631
 2365TIP3    H1 7038   5.252   1.911   5.553
 2365TIP3    H2 7039   5.200   1.871   5.690
 2366TIP3   OH2 7040   2.391   6.046   6.625
 2366TIP3    H1 7041   2.313   6.013   6.581
 2366TIP3    H2 7042   2.459   6.041   6.557
 2367TIP3   OH2 7043   3.350   7.459   5.471
 2367TIP3    H1 7044   3.339   7.413   5.554
 2367TIP3    H2 7045   3.344   7.391   5.405
 2368TIP3   OH2 7046   1.224   2.223   0.617
 2368TIP3    H1 7047   1.315   2.251   0.604
 2368TIP3    H2 7048   1.178   2.255   0.539
 2369TIP3   OH2 7049   4.436   4.974   3.272
 2369TIP3    H1 7050   4.352   5.005   3.237
 2369TIP3    H2 7051   4.483   5.055   3.294
 2370TIP3   OH2 7052   4.675   4.107   5.944
 2370TIP3    H1 7053   4.654   4.199   5.933
 2370TIP3    H2 7054   4.724   4.103   6.026
 2371TIP3   OH2 7055   4.942   3.506   5.248
 2371TIP3    H1 7056   4.854   3.545   5.241
 2371TIP3    H2 7057   4.943   3.466   5.335
 2372TIP3   OH2 7058   6.651   0.096   5.844
 2372TIP3    H1 7059   6.682   0.143   5.766
 2372TIP3    H2 7060   6.555   0.100   5.838
 2373TIP3   OH2 7061   5.639   1.055   3.379
 2373TIP3    H1 7062   5.649   0.960   3.376
 2373TIP3    H2 7063   5.714   1.089   3.332
 2374TIP3   OH2 7064   1.289   1.409   5.633
 2374TIP3    H1 7065   1.318   1.496   5.660
 2374TIP3    H2 7066   1.351   1.383   5.565
 2375TIP3   OH2 7067   5.891   3.268   1.089
 2375TIP3    H1 7068   5.916   3.327   1.019
 2375TIP3    H2 7069   5.974   3.237   1.125
 2376TIP3   OH2 7070   0.899   4.189   3.368
 2376TIP3    H1 7071   0.870   4.150   3.450
 2376TIP3    H2 7072   0.865   4.130   3.300
 2377TIP3   OH2 7073   8.143   3.091   0.242
 2377TIP3    H1 7074   8.223   3.099   0.190
 2377TIP3    H2 7075   8.079   3.145   0.197
 2378TIP3   OH2 7076   3.312   0.061   2.450
 2378TIP3    H1 7077   3.347   0.039   2.363
 2378TIP3    H2 7078   3.312  -0.023   2.497
 2379TIP3   OH2 7079   4.700   1.957   1.416
 2379TIP3    H1 7080   4.677   1.922   1.502
 2379TIP3    H2 7081   4.641   1.912   1.355
 2380TIP3   OH2 7082   7.972   0.072   4.018
 2380TIP3    H1 7083   7.885   0.033   4.010
 2380TIP3    H2 7084   8.028   0.001   4.049
 2381TIP3   OH2 7085   3.556   2.392   6.373
 2381TIP3    H1 7086   3.484   2.444   6.408
 2381TIP3    H2 7087   3.525   2.302   6.378
 2382TIP3   OH2 7088   4.370   6.332   2.820
 2382TIP3    H1 7089   4.314   6.266   2.780
 2382TIP3    H2 7090   4.313   6.380   2.879
 2383TIP3   OH2 7091   2.970   5.773   4.682
 2383TIP3    H1 7092   2.979   5.677   4.681
 2383TIP3    H2 7093   3.017   5.802   4.604
 2384TIP3   OH2 7094   4.579   6.666   5.310
 2384TIP3    H1 7095   4.554   6.693   5.222
 2384TIP3    H2 7096   4.559   6.742   5.365
 2385TIP3   OH2 7097   2.494   0.850   6.382
 2385TIP3    H1 7098   2.407   0.844   6.423
 2385TIP3    H2 7099   2.479   0.829   6.290
 2386TIP3   OH2 7100   3.779   1.857   4.711
 2386TIP3    H1 7101   3.687   1.849   4.736
 2386TIP3    H2 7102   3.776   1.884   4.619
 2387TIP3   OH2 7103   7.292   1.283   0.179
 2387TIP3    H1 7104   7.267   1.357   0.234
 2387TIP3    H2 7105   7.358   1.236   0.230
 2388TIP3   OH2 7106   0.760   3.291   5.666
 2388TIP3    H1 7107   0.851   3.263   5.662
 2388TIP3    H2 7108   0.764   3.387   5.660
 2389TIP3   OH2 7109   1.257   6.131   3.888
 2389TIP3    H1 7110   1.346   6.167   3.884
 2389TIP3    H2 7111   1.262   6.063   3.955
 2390TIP3   OH2 7112   6.255   3.171   2.948
 2390TIP3    H1 7113   6.304   3.123   2.881
 2390TIP3    H2 7114   6.302   3.152   3.029
 2391TIP3   OH2 7115   2.769   3.544   2.738
 2391TIP3    H1 7116   2.698   3.606   2.755
 2391TIP3    H2 7117   2.749   3.508   2.652
 2392TIP3   OH2 7118   1.694   6.117   4.684
 2392TIP3    H1 7119   1.744   6.059   4.742
 2392TIP3    H2 7120   1.746   6.197   4.678
 2393TIP3   OH2 7121   2.676   5.956   1.289
 2393TIP3    H1 7122   2.730   5.885   1.255
 2393TIP3    H2 7123   2.736   6.008   1.343
 2394TIP3   OH2 7124   6.472   0.947   5.255
 2394TIP3    H1 7125   6.551   0.927   5.205
 2394TIP3    H2 7126   6.429   0.862   5.266
 2395TIP3   OH2 7127   8.150   0.166   6.422
 2395TIP3    H1 7128   8.172   0.153   6.329
 2395TIP3    H2 7129   8.065   0.124   6.432
 2396TIP3   OH2 7130   5.207   3.060   2.385
 2396TIP3    H1 7131   5.296   3.024   2.380
 2396TIP3    H2 7132   5.197   3.087   2.476
 2397TIP3   OH2 7133   2.569   6.007   5.247
 2397TIP3    H1 7134   2.525   6.075   5.299
 2397TIP3    H2 7135   2.619   5.957   5.311
 2398TIP3   OH2 7136   1.094   3.879   6.720
 2398TIP3    H1 7137   1.099   3.817   6.647
 2398TIP3    H2 7138   1.000   3.891   6.733
 2399TIP3   OH2 7139   0.298   4.150   3.921
 2399TIP3    H1 7140   0.376   4.188   3.880
 2399TIP3    H2 7141   0.295   4.060   3.887
 2400TIP3   OH2 7142   2.534   3.006   5.814
 2400TIP3    H1 7143   2.588   2.933   5.783
 2400TIP3    H2 7144   2.579   3.084   5.782
 2401TIP3   OH2 7145   1.169   6.955   2.349
 2401TIP3    H1 7146   1.121   6.874   2.337
 2401TIP3    H2 7147   1.257   6.927   2.377
 2402TIP3   OH2 7148   0.749   1.318   1.891
 2402TIP3    H1 7149   0.736   1.387   1.827
 2402TIP3    H2 7150   0.660   1.295   1.920
 2403TIP3   OH2 7151   3.087   4.967   5.555
 2403TIP3    H1 7152   3.062   4.875   5.559
 2403TIP3    H2 7153   3.108   4.990   5.645
 2404TIP3   OH2 7154   2.789   4.807   6.128
 2404TIP3    H1 7155   2.703   4.805   6.172
 2404TIP3    H2 7156   2.852   4.793   6.199
 2405TIP3   OH2 7157   5.191   3.371   5.272
 2405TIP3    H1 7158   5.171   3.351   5.364
 2405TIP3    H2 7159   5.123   3.434   5.246
 2406TIP3   OH2 7160   6.137   0.869   0.858
 2406TIP3    H1 7161   6.045   0.862   0.882
 2406TIP3    H2 7162   6.180   0.801   0.910
 2407TIP3   OH2 7163   7.991   2.826   6.462
 2407TIP3    H1 7164   7.946   2.906   6.490
 2407TIP3    H2 7165   7.935   2.789   6.393
 2408TIP3   OH2 7166   6.956   2.620   3.890
 2408TIP3    H1 7167   7.003   2.540   3.868
 2408TIP3    H2 7168   6.918   2.649   3.806
 2409TIP3   OH2 7169   3.837   7.762   5.464
 2409TIP3    H1 7170   3.868   7.702   5.532
 2409TIP3    H2 7171   3.917   7.794   5.423
 2410TIP3   OH2 7172   5.580   7.549   0.574
 2410TIP3    H1 7173   5.530   7.588   0.502
 2410TIP3    H2 7174   5.589   7.457   0.551
 2411TIP3   OH2 7175   7.330   1.545   2.940
 2411TIP3    H1 7176   7.321   1.521   2.848
 2411TIP3    H2 7177   7.271   1.620   2.951
 2412TIP3   OH2 7178   6.949   1.533   0.097
 2412TIP3    H1 7179   7.003   1.454   0.091
 2412TIP3    H2 7180   6.862   1.501   0.120
 2413TIP3   OH2 7181   6.711   2.979   0.985
 2413TIP3    H1 7182   6.726   3.001   1.077
 2413TIP3    H2 7183   6.796   2.950   0.953
 2414TIP3   OH2 7184   5.923   3.286   4.175
 2414TIP3    H1 7185   5.949   3.360   4.121
 2414TIP3    H2 7186   5.930   3.318   4.265
 2415TIP3   OH2 7187   7.541   5.029   4.071
 2415TIP3    H1 7188   7.602   5.090   4.030
 2415TIP3    H2 7189   7.569   5.024   4.162
 2416TIP3   OH2 7190   0.500   2.865   4.963
 2416TIP3    H1 7191   0.470   2.862   5.054
 2416TIP3    H2 7192   0.433   2.916   4.918
 2417TIP3   OH2 7193   3.737   2.513   0.415
 2417TIP3    H1 7194   3.713   2.489   0.326
 2417TIP3    H2 7195   3.804   2.449   0.440
 2418TIP3   OH2 7196   4.905   5.733   0.736
 2418TIP3    H1 7197   4.973   5.799   0.724
 2418TIP3    H2 7198   4.827   5.772   0.695
 2419TIP3   OH2 7199   1.530   0.026   1.772
 2419TIP3    H1 7200   1.542  -0.058   1.727
 2419TIP3    H2 7201   1.554   0.092   1.707
 2420TIP3   OH2 7202   7.066   0.116   2.689
 2420TIP3    H1 7203   6.980   0.152   2.712
 2420TIP3    H2 7204   7.047   0.025   2.667
 2421TIP3   OH2 7205   5.231   6.217   1.383
 2421TIP3    H1 7206   5.314   6.187   1.346
 2421TIP3    H2 7207   5.250   6.233   1.475
 2422TIP3   OH2 7208   0.483   3.627   5.951
 2422TIP3    H1 7209   0.488   3.677   6.032
 2422TIP3    H2 7210   0.556   3.565   5.956
 2423TIP3   OH2 7211   0.564   1.153   2.257
 2423TIP3    H1 7212   0.477   1.120   2.277
 2423TIP3    H2 7213   0.572   1.234   2.307
 2424TIP3   OH2 7214   5.383   4.329   2.434
 2424TIP3    H1 7215   5.320   4.362   2.371
 2424TIP3    H2 7216   5.468   4.360   2.402
 2425TIP3   OH2 7217   0.961   7.025   3.177
 2425TIP3    H1 7218   0.892   7.076   3.135
 2425TIP3    H2 7219   1.033   7.088   3.188
 2426TIP3   OH2 7220   1.504   4.475   0.947
 2426TIP3    H1 7221   1.542   4.445   1.030
 2426TIP3    H2 7222   1.426   4.421   0.936
 2427TIP3   OH2 7223   0.731   2.481   0.346
 2427TIP3    H1 7224   0.716   2.388   0.362
 2427TIP3    H2 7225   0.726   2.490   0.251
 2428TIP3   OH2 7226   7.569   7.207   3.289
 2428TIP3    H1 7227   7.591   7.299   3.273
 2428TIP3    H2 7228   7.535   7.206   3.379
 2429TIP3   OH2 7229   0.471   4.438   0.846
 2429TIP3    H1 7230   0.400   4.441   0.782
 2429TIP3    H2 7231   0.498   4.346   0.848
 2430TIP3   OH2 7232   0.208   3.852   0.774
 2430TIP3    H1 7233   0.175   3.911   0.841
 2430TIP3    H2 7234   0.258   3.786   0.822
 2431TIP3   OH2 7235   4.284   6.464   5.691
 2431TIP3    H1 7236   4.250   6.425   5.771
 2431TIP3    H2 7237   4.341   6.396   5.654
 2432TIP3   OH2 7238   0.397   1.919   5.023
 2432TIP3    H1 7239   0.346   1.989   4.981
 2432TIP3    H2 7240   0.370   1.839   4.978
 2433TIP3   OH2 7241   1.279   0.066   5.579
 2433TIP3    H1 7242   1.196   0.039   5.618
 2433TIP3    H2 7243   1.323  -0.017   5.558
 2434TIP3   OH2 7244   7.256   2.958   1.188
 2434TIP3    H1 7245   7.253   2.963   1.284
 2434TIP3    H2 7246   7.317   2.888   1.169
 2435TIP3   OH2 7247   1.236   7.128   0.064
 2435TIP3    H1 7248   1.206   7.190  -0.002
 2435TIP3    H2 7249   1.165   7.064   0.070
 2436TIP3   OH2 7250   6.457   6.813   1.600
 2436TIP3    H1 7251   6.371   6.772   1.594
 2436TIP3    H2 7252   6.446   6.899   1.559
 2437TIP3   OH2 7253   0.896   2.651   5.203
 2437TIP3    H1 7254   0.862   2.733   5.167
 2437TIP3    H2 7255   0.843   2.583   5.161
 2438TIP3   OH2 7256   5.141   1.786   1.439
 2438TIP3    H1 7257   5.080   1.714   1.451
 2438TIP3    H2 7258   5.095   1.863   1.472
 2439TIP3   OH2 7259   0.357   7.046   2.952
 2439TIP3    H1 7260   0.310   7.116   2.907
 2439TIP3    H2 7261   0.346   6.970   2.895
 2440TIP3   OH2 7262   8.198   6.696   0.877
 2440TIP3    H1 7263   8.241   6.615   0.906
 2440TIP3    H2 7264   8.178   6.680   0.785
 2441TIP3   OH2 7265   4.575   1.431   3.246
 2441TIP3    H1 7266   4.543   1.406   3.332
 2441TIP3    H2 7267   4.503   1.479   3.206
 2442TIP3   OH2 7268   2.515   4.628   4.757
 2442TIP3    H1 7269   2.430   4.587   4.773
 2442TIP3    H2 7270   2.572   4.594   4.826
 2443TIP3   OH2 7271   4.585   7.328   3.515
 2443TIP3    H1 7272   4.647   7.352   3.584
 2443TIP3    H2 7273   4.639   7.299   3.442
 2444TIP3   OH2 7274   7.610   1.542   4.362
 2444TIP3    H1 7275   7.698   1.548   4.398
 2444TIP3    H2 7276   7.620   1.569   4.270
 2445TIP3   OH2 7277   5.725   0.703   4.323
 2445TIP3    H1 7278   5.655   0.759   4.357
 2445TIP3    H2 7279   5.692   0.614   4.332
 2446TIP3   OH2 7280   2.697   5.337   0.858
 2446TIP3    H1 7281   2.790   5.319   0.852
 2446TIP3    H2 7282   2.670   5.357   0.768
 2447TIP3   OH2 7283   0.678   6.953   0.036
 2447TIP3    H1 7284   0.702   6.862   0.053
 2447TIP3    H2 7285   0.727   6.977  -0.042
 2448TIP3   OH2 7286   5.815   6.274   2.693
 2448TIP3    H1 7287   5.834   6.339   2.762
 2448TIP3    H2 7288   5.745   6.220   2.729
 2449TIP3   OH2 7289   7.987   5.844   1.433
 2449TIP3    H1 7290   7.985   5.837   1.529
 2449TIP3    H2 7291   8.057   5.785   1.407
 2450TIP3   OH2 7292   7.392   7.146   1.957
 2450TIP3    H1 7293   7.322   7.124   2.019
 2450TIP3    H2 7294   7.471   7.108   1.996
 2451TIP3   OH2 7295   1.831   1.729   6.649
 2451TIP3    H1 7296   1.828   1.825   6.654
 2451TIP3    H2 7297   1.924   1.708   6.645
 2452TIP3   OH2 7298   3.809   3.979   2.042
 2452TIP3    H1 7299   3.825   3.951   2.132
 2452TIP3    H2 7300   3.887   4.029   2.018
 2453TIP3   OH2 7301   1.920   7.053   2.557
 2453TIP3    H1 7302   2.000   7.101   2.577
 2453TIP3    H2 7303   1.888   7.023   2.642
 2454TIP3   OH2 7304   3.995  -0.004   0.673
 2454TIP3    H1 7305   4.027   0.014   0.761
 2454TIP3    H2 7306   3.909   0.038   0.670
 2455TIP3   OH2 7307   6.160   1.142   2.594
 2455TIP3    H1 7308   6.210   1.060   2.586
 2455TIP3    H2 7309   6.183   1.192   2.516
 2456TIP3   OH2 7310   0.109   6.818   6.705
 2456TIP3    H1 7311   0.050   6.885   6.670
 2456TIP3    H2 7312   0.095   6.821   6.800
 2457TIP3   OH2 7313   5.077   7.555   5.134
 2457TIP3    H1 7314   5.156   7.573   5.083
 2457TIP3    H2 7315   5.055   7.640   5.174
 2458TIP3   OH2 7316   3.447   7.401   3.086
 2458TIP3    H1 7317   3.450   7.328   3.148
 2458TIP3    H2 7318   3.537   7.432   3.080
 2459TIP3   OH2 7319   3.926   6.563   4.489
 2459TIP3    H1 7320   3.940   6.480   4.534
 2459TIP3    H2 7321   3.857   6.544   4.425
 2460TIP3   OH2 7322   4.020   6.664   1.461
 2460TIP3    H1 7323   3.944   6.717   1.484
 2460TIP3    H2 7324   4.023   6.666   1.365
 2461TIP3   OH2 7325   1.705   7.465   3.786
 2461TIP3    H1 7326   1.780   7.506   3.743
 2461TIP3    H2 7327   1.632   7.481   3.727
 2462TIP3   OH2 7328   3.039   6.198   0.136
 2462TIP3    H1 7329   3.011   6.107   0.119
 2462TIP3    H2 7330   3.115   6.210   0.079
 2463TIP3   OH2 7331   7.992   5.017   2.782
 2463TIP3    H1 7332   7.920   4.979   2.732
 2463TIP3    H2 7333   7.993   4.966   2.864
 2464TIP3   OH2 7334   5.843   5.369   1.896
 2464TIP3    H1 7335   5.810   5.282   1.918
 2464TIP3    H2 7336   5.767   5.426   1.906
 2465TIP3   OH2 7337   1.049   3.159   0.137
 2465TIP3    H1 7338   1.095   3.097   0.080
 2465TIP3    H2 7339   1.089   3.147   0.223
 2466TIP3   OH2 7340   1.356   2.574   5.904
 2466TIP3    H1 7341   1.315   2.635   5.843
 2466TIP3    H2 7342   1.409   2.517   5.848
 2467TIP3   OH2 7343   7.484   0.799   5.919
 2467TIP3    H1 7344   7.576   0.826   5.914
 2467TIP3    H2 7345   7.475   0.730   5.854
 2468TIP3   OH2 7346   7.805   1.495   6.263
 2468TIP3    H1 7347   7.868   1.547   6.312
 2468TIP3    H2 7348   7.765   1.438   6.329
 2469TIP3   OH2 7349   3.514   2.220   3.612
 2469TIP3    H1 7350   3.461   2.190   3.686
 2469TIP3    H2 7351   3.466   2.192   3.534
 2470TIP3   OH2 7352   5.924   5.089   0.090
 2470TIP3    H1 7353   5.911   5.052   0.002
 2470TIP3    H2 7354   5.919   5.183   0.078
 2471TIP3   OH2 7355   5.102   5.442   2.203
 2471TIP3    H1 7356   5.122   5.438   2.109
 2471TIP3    H2 7357   5.093   5.350   2.230
 2472TIP3   OH2 7358   0.098   5.108   1.579
 2472TIP3    H1 7359   0.083   5.170   1.508
 2472TIP3    H2 7360   0.185   5.072   1.562
 2473TIP3   OH2 7361   5.659   4.411   1.661
 2473TIP3    H1 7362   5.710   4.483   1.623
 2473TIP3    H2 7363   5.702   4.393   1.745
 2474TIP3   OH2 7364   0.359   7.447   1.731
 2474TIP3    H1 7365   0.374   7.479   1.819
 2474TIP3    H2 7366   0.326   7.523   1.682
 2475TIP3   OH2 7367   7.871   1.655   1.174
 2475TIP3    H1 7368   7.820   1.631   1.096
 2475TIP3    H2 7369   7.851   1.747   1.189
 2476TIP3   OH2 7370   1.685   7.583   6.657
 2476TIP3    H1 7371   1.745   7.584   6.732
 2476TIP3    H2 7372   1.732   7.533   6.590
 2477TIP3   OH2 7373   3.090   1.559   0.127
 2477TIP3    H1 7374   3.075   1.592   0.038
 2477TIP3    H2 7375   3.134   1.632   0.172
 2478TIP3   OH2 7376   0.097   1.816   3.110
 2478TIP3    H1 7377   0.131   1.734   3.076
 2478TIP3    H2 7378   0.018   1.792   3.158
 2479TIP3   OH2 7379   3.426   0.985   5.473
 2479TIP3    H1 7380   3.460   1.020   5.556
 2479TIP3    H2 7381   3.475   1.031   5.405
 2480TIP3   OH2 7382   3.764   2.970   0.909
 2480TIP3    H1 7383   3.788   2.894   0.856
 2480TIP3    H2 7384   3.671   2.983   0.891
 2481TIP3   OH2 7385   6.498   1.033   6.164
 2481TIP3    H1 7386   6.427   1.061   6.221
 2481TIP3    H2 7387   6.554   1.111   6.155
 2482TIP3   OH2 7388   5.674   2.839   5.748
 2482TIP3    H1 7389   5.673   2.788   5.667
 2482TIP3    H2 7390   5.599   2.807   5.798
 2483TIP3   OH2 7391   5.190   1.042   1.086
 2483TIP3    H1 7392   5.101   1.077   1.086
 2483TIP3    H2 7393   5.205   1.012   0.997
 2484TIP3   OH2 7394   4.399   3.115   5.771
 2484TIP3    H1 7395   4.434   3.108   5.682
 2484TIP3    H2 7396   4.319   3.062   5.769
 2485TIP3   OH2 7397   7.352   3.713   1.588
 2485TIP3    H1 7398   7.283   3.716   1.654
 2485TIP3    H2 7399   7.363   3.805   1.561
 2486TIP3   OH2 7400   1.719   2.565   4.220
 2486TIP3    H1 7401   1.781   2.601   4.156
 2486TIP3    H2 7402   1.740   2.611   4.302
 2487TIP3   OH2 7403   5.842   6.319   0.729
 2487TIP3    H1 7404   5.870   6.299   0.818
 2487TIP3    H2 7405   5.924   6.331   0.680
 2488TIP3   OH2 7406   8.282   2.664   0.187
 2488TIP3    H1 7407   8.247   2.597   0.130
 2488TIP3    H2 7408   8.320   2.616   0.260
 2489TIP3   OH2 7409   3.765   1.071   4.800
 2489TIP3    H1 7410   3.817   0.995   4.777
 2489TIP3    H2 7411   3.829   1.138   4.826
 2490TIP3   OH2 7412   3.266   1.264   0.396
 2490TIP3    H1 7413   3.256   1.169   0.390
 2490TIP3    H2 7414   3.327   1.286   0.327
 2491TIP3   OH2 7415   4.056   7.420   3.503
 2491TIP3    H1 7416   4.064   7.378   3.417
 2491TIP3    H2 7417   4.131   7.479   3.507
 2492TIP3   OH2 7418   5.193   4.401   1.322
 2492TIP3    H1 7419   5.196   4.307   1.302
 2492TIP3    H2 7420   5.276   4.419   1.367
 2493TIP3   OH2 7421   3.178   5.450   2.800
 2493TIP3    H1 7422   3.187   5.355   2.802
 2493TIP3    H2 7423   3.086   5.466   2.779
 2494TIP3   OH2 7424   5.367   6.505   6.130
 2494TIP3    H1 7425   5.324   6.438   6.183
 2494TIP3    H2 7426   5.406   6.566   6.194
 2495TIP3   OH2 7427   4.394   3.565   3.362
 2495TIP3    H1 7428   4.462   3.514   3.318
 2495TIP3    H2 7429   4.426   3.655   3.359
 2496TIP3   OH2 7430   7.381   2.213   0.727
 2496TIP3    H1 7431   7.409   2.304   0.733
 2496TIP3    H2 7432   7.318   2.213   0.654
 2497TIP3   OH2 7433   7.562   0.581   5.740
 2497TIP3    H1 7434   7.655   0.601   5.733
 2497TIP3    H2 7435   7.541   0.535   5.659
 2498TIP3   OH2 7436   6.267   4.970   0.744
 2498TIP3    H1 7437   6.283   5.064   0.749
 2498TIP3    H2 7438   6.223   4.949   0.826
 2499TIP3   OH2 7439   0.039   1.244   1.404
 2499TIP3    H1 7440  -0.022   1.171   1.402
 2499TIP3    H2 7441   0.119   1.211   1.363
 2500TIP3   OH2 7442   7.218   1.793   5.499
 2500TIP3    H1 7443   7.286   1.797   5.566
 2500TIP3    H2 7444   7.191   1.884   5.487
 2501TIP3   OH2 7445   5.463   0.498   1.757
 2501TIP3    H1 7446   5.433   0.585   1.783
 2501TIP3    H2 7447   5.385   0.457   1.719
 2502TIP3   OH2 7448   6.277   7.319   5.828
 2502TIP3    H1 7449   6.221   7.243   5.841
 2502TIP3    H2 7450   6.262   7.374   5.905
 2503TIP3   OH2 7451   5.906   2.771   5.057
 2503TIP3    H1 7452   5.862   2.744   5.138
 2503TIP3    H2 7453   5.998   2.779   5.081
 2504TIP3   OH2 7454   7.227   5.016   0.345
 2504TIP3    H1 7455   7.227   4.960   0.267
 2504TIP3    H2 7456   7.140   5.002   0.384
 2505TIP3   OH2 7457   1.709   1.819   6.376
 2505TIP3    H1 7458   1.718   1.725   6.388
 2505TIP3    H2 7459   1.619   1.839   6.403
 2506TIP3   OH2 7460   4.192   1.288   3.181
 2506TIP3    H1 7461   4.265   1.241   3.141
 2506TIP3    H2 7462   4.142   1.220   3.226
 2507TIP3   OH2 7463   1.080   2.203   5.351
 2507TIP3    H1 7464   1.012   2.158   5.401
 2507TIP3    H2 7465   1.052   2.195   5.260
 2508TIP3   OH2 7466   0.436   4.685   0.218
 2508TIP3    H1 7467   0.514   4.629   0.216
 2508TIP3    H2 7468   0.370   4.633   0.263
 2509TIP3   OH2 7469   1.043   1.563   2.903
 2509TIP3    H1 7470   1.077   1.475   2.918
 2509TIP3    H2 7471   1.089   1.617   2.968
 2510TIP3   OH2 7472   3.547   3.234   6.266
 2510TIP3    H1 7473   3.593   3.271   6.190
 2510TIP3    H2 7474   3.608   3.170   6.301
 2511TIP3   OH2 7475   7.391   0.748   5.572
 2511TIP3    H1 7476   7.303   0.717   5.550
 2511TIP3    H2 7477   7.418   0.693   5.645
 2512TIP3   OH2 7478   5.400   6.450   5.081
 2512TIP3    H1 7479   5.367   6.463   4.992
 2512TIP3    H2 7480   5.329   6.404   5.126
 2513TIP3   OH2 7481   1.327   3.941   4.842
 2513TIP3    H1 7482   1.365   3.926   4.928
 2513TIP3    H2 7483   1.402   3.937   4.782
 2514TIP3   OH2 7484   5.370   3.839   4.281
 2514TIP3    H1 7485   5.387   3.811   4.371
 2514TIP3    H2 7486   5.359   3.933   4.287
 2515TIP3   OH2 7487   8.189   2.427   4.323
 2515TIP3    H1 7488   8.150   2.440   4.236
 2515TIP3    H2 7489   8.281   2.448   4.311
 2516TIP3   OH2 7490   1.020   3.154   1.723
 2516TIP3    H1 7491   0.965   3.117   1.654
 2516TIP3    H2 7492   1.041   3.079   1.779
 2517TIP3   OH2 7493   6.050   2.432   3.199
 2517TIP3    H1 7494   6.023   2.341   3.183
 2517TIP3    H2 7495   5.997   2.484   3.139
 2518TIP3   OH2 7496   4.663   1.678   6.622
 2518TIP3    H1 7497   4.721   1.719   6.557
 2518TIP3    H2 7498   4.713   1.682   6.704
 2519TIP3   OH2 7499   6.289   4.449   5.532
 2519TIP3    H1 7500   6.336   4.532   5.534
 2519TIP3    H2 7501   6.207   4.467   5.578
 2520TIP3   OH2 7502   5.283   6.911   1.282
 2520TIP3    H1 7503   5.365   6.956   1.266
 2520TIP3    H2 7504   5.219   6.957   1.228
 2521TIP3   OH2 7505   3.653   4.022   5.069
 2521TIP3    H1 7506   3.703   4.103   5.082
 2521TIP3    H2 7507   3.670   3.999   4.977
 2522TIP3   OH2 7508   3.348   5.531   4.985
 2522TIP3    H1 7509   3.398   5.455   4.952
 2522TIP3    H2 7510   3.258   5.511   4.961
 2523TIP3   OH2 7511   2.127   4.201   5.297
 2523TIP3    H1 7512   2.052   4.258   5.314
 2523TIP3    H2 7513   2.203   4.259   5.297
 2524TIP3   OH2 7514   1.096   4.026   5.903
 2524TIP3    H1 7515   1.150   4.105   5.911
 2524TIP3    H2 7516   1.029   4.050   5.838
 2525TIP3   OH2 7517   0.062   2.088   3.237
 2525TIP3    H1 7518   0.041   2.177   3.267
 2525TIP3    H2 7519   0.084   2.041   3.318
 2526TIP3   OH2 7520   1.628   1.924   6.142
 2526TIP3    H1 7521   1.657   1.891   6.227
 2526TIP3    H2 7522   1.574   2.000   6.164
 2527TIP3   OH2 7523   3.879   2.619   0.087
 2527TIP3    H1 7524   3.909   2.674   0.015
 2527TIP3    H2 7525   3.824   2.676   0.140
 2528TIP3   OH2 7526   7.549   4.313   6.710
 2528TIP3    H1 7527   7.542   4.397   6.666
 2528TIP3    H2 7528   7.531   4.333   6.802
 2529TIP3   OH2 7529  -0.001   4.968   5.517
 2529TIP3    H1 7530   0.087   4.988   5.550
 2529TIP3    H2 7531  -0.059   5.001   5.586
 2530TIP3   OH2 7532   3.150   0.295   5.670
 2530TIP3    H1 7533   3.225   0.236   5.680
 2530TIP3    H2 7534   3.177   0.375   5.715
 2531TIP3   OH2 7535   6.710   6.992   1.761
 2531TIP3    H1 7536   6.695   6.948   1.677
 2531TIP3    H2 7537   6.805   7.000   1.768
 2532TIP3   OH2 7538   0.411   0.801   2.264
 2532TIP3    H1 7539   0.362   0.882   2.250
 2532TIP3    H2 7540   0.482   0.805   2.200
 2533TIP3   OH2 7541   2.526   7.043   1.984
 2533TIP3    H1 7542   2.492   6.983   2.050
 2533TIP3    H2 7543   2.508   7.000   1.901
 2534TIP3   OH2 7544   5.985   3.366   1.946
 2534TIP3    H1 7545   5.918   3.401   1.888
 2534TIP3    H2 7546   5.954   3.279   1.970
 2535TIP3   OH2 7547   5.794   2.008   2.839
 2535TIP3    H1 7548   5.811   1.948   2.911
 2535TIP3    H2 7549   5.837   1.967   2.764
 2536TIP3   OH2 7550   2.943   1.317   3.600
 2536TIP3    H1 7551   2.922   1.264   3.676
 2536TIP3    H2 7552   2.951   1.406   3.635
 2537TIP3   OH2 7553   3.687   0.327   0.330
 2537TIP3    H1 7554   3.722   0.260   0.271
 2537TIP3    H2 7555   3.760   0.347   0.389
 2538TIP3   OH2 7556   2.653   3.091   5.137
 2538TIP3    H1 7557   2.606   3.125   5.061
 2538TIP3    H2 7558   2.687   3.006   5.107
 2539TIP3   OH2 7559   1.809   5.455   2.871
 2539TIP3    H1 7560   1.900   5.475   2.847
 2539TIP3    H2 7561   1.795   5.365   2.842
 2540TIP3   OH2 7562   0.485   2.686   5.391
 2540TIP3    H1 7563   0.487   2.746   5.465
 2540TIP3    H2 7564   0.487   2.743   5.314
 2541TIP3   OH2 7565   1.588   1.339   5.630
 2541TIP3    H1 7566   1.577   1.333   5.725
 2541TIP3    H2 7567   1.681   1.323   5.616
 2542TIP3   OH2 7568   4.482   2.973   0.504
 2542TIP3    H1 7569   4.567   3.015   0.517
 2542TIP3    H2 7570   4.424   3.043   0.475
 2543TIP3   OH2 7571   5.892   5.625   4.205
 2543TIP3    H1 7572   5.799   5.647   4.202
 2543TIP3    H2 7573   5.905   5.562   4.134
 2544TIP3   OH2 7574   5.871   2.402   0.422
 2544TIP3    H1 7575   5.848   2.432   0.510
 2544TIP3    H2 7576   5.787   2.384   0.381
 2545TIP3   OH2 7577   2.398   3.729   0.376
 2545TIP3    H1 7578   2.492   3.715   0.384
 2545TIP3    H2 7579   2.365   3.648   0.335
 2546TIP3   OH2 7580   1.436   0.386   3.391
 2546TIP3    H1 7581   1.395   0.426   3.314
 2546TIP3    H2 7582   1.363   0.368   3.451
 2547TIP3   OH2 7583   6.532   3.229   3.117
 2547TIP3    H1 7584   6.573   3.143   3.125
 2547TIP3    H2 7585   6.465   3.231   3.186
 2548TIP3   OH2 7586   7.123   3.844   3.608
 2548TIP3    H1 7587   7.107   3.936   3.586
 2548TIP3    H2 7588   7.057   3.824   3.674
 2549TIP3   OH2 7589   5.578   4.880   5.460
 2549TIP3    H1 7590   5.542   4.823   5.392
 2549TIP3    H2 7591   5.668   4.849   5.471
 2550TIP3   OH2 7592   2.764   2.246   1.714
 2550TIP3    H1 7593   2.798   2.206   1.794
 2550TIP3    H2 7594   2.827   2.221   1.647
 2551TIP3   OH2 7595   0.539   5.614   2.233
 2551TIP3    H1 7596   0.524   5.561   2.311
 2551TIP3    H2 7597   0.497   5.566   2.162
 2552TIP3   OH2 7598   6.438   5.475   1.611
 2552TIP3    H1 7599   6.500   5.512   1.549
 2552TIP3    H2 7600   6.423   5.544   1.675
 2553TIP3   OH2 7601   1.621   1.010   6.730
 2553TIP3    H1 7602   1.680   0.982   6.800
 2553TIP3    H2 7603   1.677   1.054   6.667
 2554TIP3   OH2 7604   6.995   1.630   3.315
 2554TIP3    H1 7605   7.036   1.714   3.336
 2554TIP3    H2 7606   7.001   1.579   3.396
 2555TIP3   OH2 7607   6.086   5.662   1.486
 2555TIP3    H1 7608   6.067   5.731   1.550
 2555TIP3    H2 7609   6.085   5.581   1.538
 2556TIP3   OH2 7610   2.024   4.671   5.060
 2556TIP3    H1 7611   2.057   4.740   5.002
 2556TIP3    H2 7612   1.930   4.669   5.044
 2557TIP3   OH2 7613   1.832   0.176   4.350
 2557TIP3    H1 7614   1.838   0.271   4.362
 2557TIP3    H2 7615   1.900   0.156   4.285
 2558TIP3   OH2 7616   6.276   4.175   2.722
 2558TIP3    H1 7617   6.363   4.197   2.690
 2558TIP3    H2 7618   6.216   4.215   2.659
 2559TIP3   OH2 7619   3.275   0.848   5.282
 2559TIP3    H1 7620   3.223   0.848   5.362
 2559TIP3    H2 7621   3.351   0.903   5.303
 2560TIP3   OH2 7622   2.857   6.654   4.644
 2560TIP3    H1 7623   2.822   6.716   4.580
 2560TIP3    H2 7624   2.929   6.701   4.686
 2561TIP3   OH2 7625   0.772   2.750   1.161
 2561TIP3    H1 7626   0.784   2.660   1.131
 2561TIP3    H2 7627   0.684   2.752   1.199
 2562TIP3   OH2 7628   7.719   5.311   3.554
 2562TIP3    H1 7629   7.720   5.345   3.464
 2562TIP3    H2 7630   7.697   5.218   3.544
 2563TIP3   OH2 7631   1.019   3.297   4.131
 2563TIP3    H1 7632   0.937   3.269   4.091
 2563TIP3    H2 7633   0.992   3.358   4.201
 2564TIP3   OH2 7634   8.064   0.589   0.569
 2564TIP3    H1 7635   8.091   0.594   0.477
 2564TIP3    H2 7636   8.082   0.499   0.595
 2565TIP3   OH2 7637   4.535   3.510   3.841
 2565TIP3    H1 7638   4.585   3.524   3.761
 2565TIP3    H2 7639   4.580   3.562   3.907
 2566TIP3   OH2 7640   7.287   0.800   6.116
 2566TIP3    H1 7641   7.336   0.796   6.033
 2566TIP3    H2 7642   7.265   0.893   6.126
 2567TIP3   OH2 7643   4.742   2.755   5.230
 2567TIP3    H1 7644   4.751   2.803   5.312
 2567TIP3    H2 7645   4.650   2.767   5.205
 2568TIP3   OH2 7646   1.784   1.698   1.915
 2568TIP3    H1 7647   1.805   1.605   1.917
 2568TIP3    H2 7648   1.745   1.716   2.001
 2569TIP3   OH2 7649   7.061   3.654   6.107
 2569TIP3    H1 7650   7.130   3.645   6.041
 2569TIP3    H2 7651   7.094   3.605   6.183
 2570TIP3   OH2 7652   4.379   5.199   4.885
 2570TIP3    H1 7653   4.421   5.143   4.819
 2570TIP3    H2 7654   4.357   5.279   4.838
 2571TIP3   OH2 7655   2.279   7.578   0.234
 2571TIP3    H1 7656   2.251   7.560   0.324
 2571TIP3    H2 7657   2.370   7.547   0.231
 2572TIP3   OH2 7658   3.000   4.559   2.308
 2572TIP3    H1 7659   3.053   4.500   2.254
 2572TIP3    H2 7660   2.924   4.579   2.254
 2573TIP3   OH2 7661   2.811   3.295   6.161
 2573TIP3    H1 7662   2.895   3.289   6.207
 2573TIP3    H2 7663   2.821   3.236   6.086
 2574TIP3   OH2 7664   3.910   0.124   2.197
 2574TIP3    H1 7665   3.919   0.155   2.108
 2574TIP3    H2 7666   3.871   0.197   2.245
 2575TIP3   OH2 7667   0.747   7.629   2.008
 2575TIP3    H1 7668   0.708   7.557   1.957
 2575TIP3    H2 7669   0.818   7.587   2.057
 2576TIP3   OH2 7670   1.501   5.455   2.362
 2576TIP3    H1 7671   1.501   5.541   2.319
 2576TIP3    H2 7672   1.554   5.400   2.306
 2577TIP3   OH2 7673   6.752   2.140   6.790
 2577TIP3    H1 7674   6.800   2.219   6.764
 2577TIP3    H2 7675   6.700   2.117   6.713
 2578TIP3   OH2 7676   1.055   6.605   3.008
 2578TIP3    H1 7677   1.015   6.647   2.932
 2578TIP3    H2 7678   1.023   6.656   3.083
 2579TIP3   OH2 7679   6.978   4.998   1.399
 2579TIP3    H1 7680   6.976   4.960   1.311
 2579TIP3    H2 7681   6.888   5.024   1.417
 2580TIP3   OH2 7682   7.016   7.414   0.471
 2580TIP3    H1 7683   6.944   7.466   0.434
 2580TIP3    H2 7684   7.072   7.478   0.514
 2581TIP3   OH2 7685   3.051   7.752   2.357
 2581TIP3    H1 7686   2.996   7.809   2.302
 2581TIP3    H2 7687   2.996   7.729   2.431
 2582TIP3   OH2 7688   4.969   2.873   4.746
 2582TIP3    H1 7689   5.020   2.845   4.822
 2582TIP3    H2 7690   5.019   2.839   4.671
 2583TIP3   OH2 7691   5.025   0.230   4.771
 2583TIP3    H1 7692   4.935   0.199   4.771
 2583TIP3    H2 7693   5.052   0.227   4.863
 2584TIP3   OH2 7694   1.922   4.671   5.302
 2584TIP3    H1 7695   1.883   4.759   5.308
 2584TIP3    H2 7696   1.964   4.670   5.216
 2585TIP3   OH2 7697   3.483   5.509   5.267
 2585TIP3    H1 7698   3.475   5.602   5.286
 2585TIP3    H2 7699   3.569   5.501   5.226
 2586TIP3   OH2 7700   2.018   6.283   3.002
 2586TIP3    H1 7701   2.076   6.272   3.077
 2586TIP3    H2 7702   2.060   6.235   2.931
 2587TIP3   OH2 7703   4.233   6.431   1.336
 2587TIP3    H1 7704   4.185   6.348   1.338
 2587TIP3    H2 7705   4.296   6.421   1.265
 2588TIP3   OH2 7706   0.822   3.625   4.262
 2588TIP3    H1 7707   0.898   3.611   4.318
 2588TIP3    H2 7708   0.809   3.542   4.217
 2589TIP3   OH2 7709   2.924   4.233   2.335
 2589TIP3    H1 7710   2.967   4.204   2.255
 2589TIP3    H2 7711   2.831   4.214   2.320
 2590TIP3   OH2 7712   0.841   0.251   6.035
 2590TIP3    H1 7713   0.905   0.319   6.057
 2590TIP3    H2 7714   0.759   0.283   6.073
 2591TIP3   OH2 7715   5.311   3.591   3.383
 2591TIP3    H1 7716   5.239   3.562   3.327
 2591TIP3    H2 7717   5.288   3.680   3.408
 2592TIP3   OH2 7718   6.676   0.534   5.658
 2592TIP3    H1 7719   6.686   0.563   5.748
 2592TIP3    H2 7720   6.633   0.448   5.664
 2593TIP3   OH2 7721   4.587   7.331   2.096
 2593TIP3    H1 7722   4.542   7.290   2.022
 2593TIP3    H2 7723   4.640   7.401   2.057
 2594TIP3   OH2 7724   2.342   4.494   0.741
 2594TIP3    H1 7725   2.346   4.533   0.653
 2594TIP3    H2 7726   2.280   4.422   0.733
 2595TIP3   OH2 7727   4.842   0.089   2.881
 2595TIP3    H1 7728   4.788   0.043   2.817
 2595TIP3    H2 7729   4.789   0.090   2.961
 2596TIP3   OH2 7730   5.901   1.131   5.989
 2596TIP3    H1 7731   5.936   1.120   5.900
 2596TIP3    H2 7732   5.808   1.146   5.976
 2597TIP3   OH2 7733   3.033   3.555   1.852
 2597TIP3    H1 7734   3.087   3.508   1.916
 2597TIP3    H2 7735   3.089   3.561   1.774
 2598TIP3   OH2 7736   7.537   6.254   0.284
 2598TIP3    H1 7737   7.510   6.166   0.257
 2598TIP3    H2 7738   7.620   6.241   0.329
 2599TIP3   OH2 7739   0.740   2.506   5.840
 2599TIP3    H1 7740   0.743   2.521   5.934
 2599TIP3    H2 7741   0.713   2.591   5.803
 2600TIP3   OH2 7742   0.181   3.286   6.568
 2600TIP3    H1 7743   0.125   3.210   6.586
 2600TIP3    H2 7744   0.126   3.362   6.586
 2601TIP3   OH2 7745   0.475   7.087   3.977
 2601TIP3    H1 7746   0.453   7.058   3.888
 2601TIP3    H2 7747   0.571   7.084   3.979
 2602TIP3   OH2 7748   4.194   2.951   1.920
 2602TIP3    H1 7749   4.253   3.000   1.864
 2602TIP3    H2 7750   4.223   2.860   1.912
 2603TIP3   OH2 7751   6.133   7.149   3.545
 2603TIP3    H1 7752   6.184   7.094   3.603
 2603TIP3    H2 7753   6.175   7.141   3.459
 2604TIP3   OH2 7754   6.806   3.329   5.067
 2604TIP3    H1 7755   6.890   3.359   5.033
 2604TIP3    H2 7756   6.783   3.392   5.134
 2605TIP3   OH2 7757   0.543   7.001   0.862
 2605TIP3    H1 7758   0.566   7.093   0.847
 2605TIP3    H2 7759   0.448   6.998   0.847
 2606TIP3   OH2 7760   3.691   2.345   1.604
 2606TIP3    H1 7761   3.674   2.281   1.536
 2606TIP3    H2 7762   3.735   2.296   1.674
 2607TIP3   OH2 7763   1.318   0.997   1.742
 2607TIP3    H1 7764   1.377   0.991   1.816
 2607TIP3    H2 7765   1.314   0.909   1.706
 2608TIP3   OH2 7766   5.742   4.430   2.618
 2608TIP3    H1 7767   5.788   4.347   2.627
 2608TIP3    H2 7768   5.799   4.484   2.564
 2609TIP3   OH2 7769   2.302   5.554   1.951
 2609TIP3    H1 7770   2.241   5.498   1.903
 2609TIP3    H2 7771   2.249   5.626   1.983
 2610TIP3   OH2 7772   7.750   4.416   6.268
 2610TIP3    H1 7773   7.720   4.480   6.203
 2610TIP3    H2 7774   7.742   4.462   6.352
 2611TIP3   OH2 7775   4.284   5.960   4.329
 2611TIP3    H1 7776   4.321   6.026   4.387
 2611TIP3    H2 7777   4.191   5.981   4.324
 2612TIP3   OH2 7778   0.743   1.225   6.262
 2612TIP3    H1 7779   0.755   1.234   6.168
 2612TIP3    H2 7780   0.814   1.276   6.301
 2613TIP3   OH2 7781   2.398   4.149   5.125
 2613TIP3    H1 7782   2.363   4.177   5.210
 2613TIP3    H2 7783   2.337   4.186   5.061
 2614TIP3   OH2 7784   0.267   5.237   2.537
 2614TIP3    H1 7785   0.249   5.193   2.620
 2614TIP3    H2 7786   0.356   5.210   2.515
 2615TIP3   OH2 7787   0.053   7.645   2.727
 2615TIP3    H1 7788   0.116   7.626   2.658
 2615TIP3    H2 7789   0.096   7.709   2.783
 2616TIP3   OH2 7790   6.897   5.885   3.599
 2616TIP3    H1 7791   6.912   5.792   3.616
 2616TIP3    H2 7792   6.978   5.927   3.625
 2617TIP3   OH2 7793   7.040   0.551   6.344
 2617TIP3    H1 7794   7.122   0.503   6.327
 2617TIP3    H2 7795   7.015   0.525   6.432
 2618TIP3   OH2 7796   4.677   5.112   1.854
 2618TIP3    H1 7797   4.586   5.103   1.885
 2618TIP3    H2 7798   4.718   5.029   1.877
 2619TIP3   OH2 7799   0.780   1.513   1.549
 2619TIP3    H1 7800   0.720   1.517   1.624
 2619TIP3    H2 7801   0.753   1.435   1.501
 2620TIP3   OH2 7802   4.410   0.640   5.395
 2620TIP3    H1 7803   4.414   0.628   5.490
 2620TIP3    H2 7804   4.347   0.711   5.382
 2621TIP3   OH2 7805   7.389   0.248   3.117
 2621TIP3    H1 7806   7.363   0.185   3.050
 2621TIP3    H2 7807   7.371   0.334   3.078
 2622TIP3   OH2 7808   1.157   1.754   0.827
 2622TIP3    H1 7809   1.178   1.769   0.919
 2622TIP3    H2 7810   1.232   1.790   0.779
 2623TIP3   OH2 7811   6.655   2.836   3.960
 2623TIP3    H1 7812   6.649   2.761   3.901
 2623TIP3    H2 7813   6.613   2.908   3.913
 2624TIP3   OH2 7814   3.063   5.251   6.651
 2624TIP3    H1 7815   3.093   5.342   6.643
 2624TIP3    H2 7816   2.999   5.253   6.722
 2625TIP3   OH2 7817   7.267   5.619   0.428
 2625TIP3    H1 7818   7.288   5.611   0.521
 2625TIP3    H2 7819   7.193   5.560   0.414
 2626TIP3   OH2 7820   3.683   0.779   2.924
 2626TIP3    H1 7821   3.641   0.810   3.004
 2626TIP3    H2 7822   3.623   0.803   2.854
 2627TIP3   OH2 7823   3.802   7.006   5.308
 2627TIP3    H1 7824   3.735   6.981   5.245
 2627TIP3    H2 7825   3.766   6.983   5.393
 2628TIP3   OH2 7826   6.249   3.311   1.370
 2628TIP3    H1 7827   6.230   3.291   1.462
 2628TIP3    H2 7828   6.180   3.371   1.344
 2629TIP3   OH2 7829   1.124   3.982   3.075
 2629TIP3    H1 7830   1.165   4.012   3.156
 2629TIP3    H2 7831   1.030   3.981   3.095
 2630TIP3   OH2 7832   0.040   1.840   6.634
 2630TIP3    H1 7833   0.084   1.900   6.575
 2630TIP3    H2 7834   0.106   1.817   6.699
 2631TIP3   OH2 7835   4.546   4.685   2.305
 2631TIP3    H1 7836   4.609   4.671   2.234
 2631TIP3    H2 7837   4.466   4.713   2.261
 2632TIP3   OH2 7838   6.864   3.480   0.070
 2632TIP3    H1 7839   6.791   3.538   0.049
 2632TIP3    H2 7840   6.872   3.423  -0.006
 2633TIP3   OH2 7841   1.961   5.939   0.857
 2633TIP3    H1 7842   2.012   5.861   0.878
 2633TIP3    H2 7843   2.018   6.012   0.882
 2634TIP3   OH2 7844   4.508   0.474   5.894
 2634TIP3    H1 7845   4.488   0.542   5.959
 2634TIP3    H2 7846   4.509   0.393   5.943
 2635TIP3   OH2 7847   6.260   1.105   5.856
 2635TIP3    H1 7848   6.348   1.084   5.825
 2635TIP3    H2 7849   6.239   1.188   5.813
 2636TIP3   OH2 7850   1.755   2.455   4.778
 2636TIP3    H1 7851   1.838   2.491   4.809
 2636TIP3    H2 7852   1.688   2.498   4.831
 2637TIP3   OH2 7853   6.974   0.664   4.499
 2637TIP3    H1 7854   6.917   0.684   4.574
 2637TIP3    H2 7855   7.044   0.729   4.504
 2638TIP3   OH2 7856   7.985   4.466   3.111
 2638TIP3    H1 7857   7.987   4.429   3.023
 2638TIP3    H2 7858   7.895   4.452   3.141
 2639TIP3   OH2 7859   3.604   0.071   6.413
 2639TIP3    H1 7860   3.611   0.166   6.420
 2639TIP3    H2 7861   3.686   0.043   6.373
 2640TIP3   OH2 7862   6.485   1.808   1.615
 2640TIP3    H1 7863   6.408   1.862   1.598
 2640TIP3    H2 7864   6.538   1.815   1.536
 2641TIP3   OH2 7865   3.250   3.669   3.557
 2641TIP3    H1 7866   3.251   3.720   3.476
 2641TIP3    H2 7867   3.159   3.637   3.563
 2642TIP3   OH2 7868   5.437   0.002   3.353
 2642TIP3    H1 7869   5.427   0.097   3.350
 2642TIP3    H2 7870   5.479  -0.015   3.437
 2643TIP3   OH2 7871   0.503   4.799   5.681
 2643TIP3    H1 7872   0.565   4.836   5.618
 2643TIP3    H2 7873   0.453   4.735   5.630
 2644TIP3   OH2 7874   0.608   3.579   0.611
 2644TIP3    H1 7875   0.697   3.543   0.620
 2644TIP3    H2 7876   0.551   3.504   0.623
 2645TIP3   OH2 7877   4.656   2.936   6.212
 2645TIP3    H1 7878   4.615   2.949   6.126
 2645TIP3    H2 7879   4.594   2.974   6.274
 2646TIP3   OH2 7880   2.658   5.682   3.103
 2646TIP3    H1 7881   2.640   5.597   3.143
 2646TIP3    H2 7882   2.581   5.735   3.124
 2647TIP3   OH2 7883   0.692   0.395   0.037
 2647TIP3    H1 7884   0.612   0.443   0.017
 2647TIP3    H2 7885   0.707   0.410   0.130
 2648TIP3   OH2 7886   1.134   7.516   2.824
 2648TIP3    H1 7887   1.101   7.452   2.887
 2648TIP3    H2 7888   1.145   7.596   2.874
 2649TIP3   OH2 7889   4.105   1.275   2.763
 2649TIP3    H1 7890   4.055   1.293   2.842
 2649TIP3    H2 7891   4.170   1.210   2.789
 2650TIP3   OH2 7892   0.677   2.060   4.090
 2650TIP3    H1 7893   0.620   2.098   4.157
 2650TIP3    H2 7894   0.723   1.990   4.134
 2651TIP3   OH2 7895   1.360   2.219   5.082
 2651TIP3    H1 7896   1.321   2.199   5.167
 2651TIP3    H2 7897   1.443   2.173   5.081
 2652TIP3   OH2 7898   2.033   3.189   5.406
 2652TIP3    H1 7899   1.966   3.160   5.345
 2652TIP3    H2 7900   2.111   3.203   5.352
 2653TIP3   OH2 7901   0.358   4.275   5.797
 2653TIP3    H1 7902   0.416   4.322   5.857
 2653TIP3    H2 7903   0.282   4.332   5.787
 2654TIP3   OH2 7904   5.449   2.158   2.012
 2654TIP3    H1 7905   5.521   2.221   2.011
 2654TIP3    H2 7906   5.424   2.148   1.920
 2655TIP3   OH2 7907   2.967   3.969   1.289
 2655TIP3    H1 7908   2.890   3.936   1.334
 2655TIP3    H2 7909   2.988   4.051   1.333
 2656TIP3   OH2 7910   0.270   7.447   4.658
 2656TIP3    H1 7911   0.255   7.356   4.635
 2656TIP3    H2 7912   0.314   7.444   4.743
 2657TIP3   OH2 7913   8.256   6.638   6.557
 2657TIP3    H1 7914   8.279   6.633   6.464
 2657TIP3    H2 7915   8.332   6.679   6.599
 2658TIP3   OH2 7916   1.660   0.577   2.016
 2658TIP3    H1 7917   1.741   0.589   1.966
 2658TIP3    H2 7918   1.615   0.661   2.009
 2659TIP3   OH2 7919   3.840   4.652   5.273
 2659TIP3    H1 7920   3.839   4.557   5.283
 2659TIP3    H2 7921   3.926   4.678   5.306
 2660TIP3   OH2 7922   1.594   0.717   0.061
 2660TIP3    H1 7923   1.553   0.724  -0.025
 2660TIP3    H2 7924   1.534   0.765   0.119
 2661TIP3   OH2 7925   5.870   7.094   1.367
 2661TIP3    H1 7926   5.852   7.010   1.325
 2661TIP3    H2 7927   5.964   7.107   1.356
 2662TIP3   OH2 7928   3.080   5.442   5.325
 2662TIP3    H1 7929   3.084   5.390   5.405
 2662TIP3    H2 7930   2.987   5.444   5.301
 2663TIP3   OH2 7931   2.492   7.378   5.365
 2663TIP3    H1 7932   2.586   7.383   5.346
 2663TIP3    H2 7933   2.474   7.284   5.373
 2664TIP3   OH2 7934   6.570   1.603   2.066
 2664TIP3    H1 7935   6.659   1.611   2.030
 2664TIP3    H2 7936   6.512   1.620   1.992
 2665TIP3   OH2 7937   6.742   7.759   4.753
 2665TIP3    H1 7938   6.695   7.765   4.836
 2665TIP3    H2 7939   6.715   7.837   4.704
 2666TIP3   OH2 7940   0.997   5.255   0.203
 2666TIP3    H1 7941   1.078   5.286   0.245
 2666TIP3    H2 7942   1.002   5.289   0.114
 2667TIP3   OH2 7943   3.104   0.578   6.078
 2667TIP3    H1 7944   3.026   0.579   6.133
 2667TIP3    H2 7945   3.162   0.642   6.118
 2668TIP3   OH2 7946   4.870   0.307   2.110
 2668TIP3    H1 7947   4.806   0.348   2.169
 2668TIP3    H2 7948   4.823   0.298   2.027
 2669TIP3   OH2 7949   6.652   3.221   1.523
 2669TIP3    H1 7950   6.648   3.282   1.449
 2669TIP3    H2 7951   6.697   3.144   1.488
 2670TIP3   OH2 7952   5.815   2.815   0.524
 2670TIP3    H1 7953   5.877   2.767   0.470
 2670TIP3    H2 7954   5.815   2.767   0.608
 2671TIP3   OH2 7955   3.412   0.059   5.975
 2671TIP3    H1 7956   3.380   0.002   6.046
 2671TIP3    H2 7957   3.469   0.122   6.019
 2672TIP3   OH2 7958   6.984   6.127   1.980
 2672TIP3    H1 7959   7.032   6.196   2.027
 2672TIP3    H2 7960   6.902   6.118   2.028
 2673TIP3   OH2 7961   5.957   0.672   3.023
 2673TIP3    H1 7962   5.987   0.613   2.954
 2673TIP3    H2 7963   5.996   0.638   3.103
 2674TIP3   OH2 7964   4.756   2.611   2.626
 2674TIP3    H1 7965   4.675   2.662   2.632
 2674TIP3    H2 7966   4.822   2.665   2.670
 2675TIP3   OH2 7967   2.369   5.778   5.366
 2675TIP3    H1 7968   2.303   5.833   5.325
 2675TIP3    H2 7969   2.434   5.763   5.297
 2676TIP3   OH2 7970   3.232   5.553   6.340
 2676TIP3    H1 7971   3.248   5.547   6.435
 2676TIP3    H2 7972   3.316   5.578   6.303
 2677TIP3   OH2 7973   6.681   1.930   1.439
 2677TIP3    H1 7974   6.765   1.912   1.396
 2677TIP3    H2 7975   6.673   2.025   1.436
 2678TIP3   OH2 7976   2.641   6.741   0.607
 2678TIP3    H1 7977   2.678   6.829   0.603
 2678TIP3    H2 7978   2.614   6.722   0.517
 2679TIP3   OH2 7979   0.234   6.181   3.557
 2679TIP3    H1 7980   0.302   6.186   3.490
 2679TIP3    H2 7981   0.282   6.181   3.640
 2680TIP3   OH2 7982   0.879   7.594   2.964
 2680TIP3    H1 7983   0.838   7.508   2.953
 2680TIP3    H2 7984   0.907   7.596   3.055
 2681TIP3   OH2 7985   1.778   6.136   5.833
 2681TIP3    H1 7986   1.780   6.172   5.922
 2681TIP3    H2 7987   1.858   6.085   5.827
 2682TIP3   OH2 7988   4.710   3.943   1.401
 2682TIP3    H1 7989   4.622   3.909   1.382
 2682TIP3    H2 7990   4.757   3.934   1.318
 2683TIP3   OH2 7991   6.130   0.793   1.922
 2683TIP3    H1 7992   6.061   0.726   1.914
 2683TIP3    H2 7993   6.183   0.781   1.843
 2684TIP3   OH2 7994   3.018   1.410   5.021
 2684TIP3    H1 7995   2.955   1.355   5.069
 2684TIP3    H2 7996   2.970   1.489   5.001
 2685TIP3   OH2 7997   8.177   5.783   3.438
 2685TIP3    H1 7998   8.217   5.866   3.465
 2685TIP3    H2 7999   8.207   5.719   3.502
 2686TIP3   OH2 8000   1.701   5.880   2.517
 2686TIP3    H1 8001   1.774   5.922   2.473
 2686TIP3    H2 8002   1.629   5.943   2.511
 2687TIP3   OH2 8003   7.911   2.870   3.472
 2687TIP3    H1 8004   7.889   2.779   3.456
 2687TIP3    H2 8005   7.962   2.869   3.553
 2688TIP3   OH2 8006   5.786   6.012   4.003
 2688TIP3    H1 8007   5.823   5.926   3.983
 2688TIP3    H2 8008   5.696   5.994   4.029
 2689TIP3   OH2 8009   2.795   7.713   5.576
 2689TIP3    H1 8010   2.708   7.717   5.536
 2689TIP3    H2 8011   2.780   7.683   5.665
 2690TIP3   OH2 8012   6.089   3.122   3.210
 2690TIP3    H1 8013   6.030   3.086   3.275
 2690TIP3    H2 8014   6.047   3.103   3.126
 2691TIP3   OH2 8015   3.353   1.933   6.539
 2691TIP3    H1 8016   3.329   2.018   6.574
 2691TIP3    H2 8017   3.448   1.936   6.532
 2692TIP3   OH2 8018   2.467   3.996   0.477
 2692TIP3    H1 8019   2.407   4.051   0.528
 2692TIP3    H2 8020   2.450   4.021   0.386
 2693TIP3   OH2 8021   0.094   7.234   3.373
 2693TIP3    H1 8022   0.141   7.289   3.436
 2693TIP3    H2 8023   0.162   7.197   3.317
 2694TIP3   OH2 8024   1.149   1.946   2.915
 2694TIP3    H1 8025   1.082   1.916   2.854
 2694TIP3    H2 8026   1.191   2.020   2.870
 2695TIP3   OH2 8027   5.019   2.404   2.133
 2695TIP3    H1 8028   4.941   2.358   2.103
 2695TIP3    H2 8029   4.995   2.497   2.129
 2696TIP3   OH2 8030   3.434   6.271   2.170
 2696TIP3    H1 8031   3.500   6.312   2.225
 2696TIP3    H2 8032   3.381   6.219   2.231
 2697TIP3   OH2 8033   4.348   4.817   0.794
 2697TIP3    H1 8034   4.414   4.756   0.828
 2697TIP3    H2 8035   4.386   4.849   0.712
 2698TIP3   OH2 8036   6.808   5.310   1.530
 2698TIP3    H1 8037   6.871   5.372   1.492
 2698TIP3    H2 8038   6.745   5.295   1.460
 2699TIP3   OH2 8039   3.680   7.463   1.668
 2699TIP3    H1 8040   3.600   7.411   1.677
 2699TIP3    H2 8041   3.751   7.402   1.686
 2700TIP3   OH2 8042   0.703   4.675   1.455
 2700TIP3    H1 8043   0.759   4.624   1.397
 2700TIP3    H2 8044   0.700   4.625   1.536
 2701TIP3   OH2 8045   7.172   0.581   2.731
 2701TIP3    H1 8046   7.218   0.618   2.655
 2701TIP3    H2 8047   7.094   0.635   2.740
 2702TIP3   OH2 8048   6.651   7.301   3.728
 2702TIP3    H1 8049   6.687   7.384   3.759
 2702TIP3    H2 8050   6.641   7.314   3.633
 2703TIP3   OH2 8051   0.560   2.477   1.738
 2703TIP3    H1 8052   0.467   2.466   1.716
 2703TIP3    H2 8053   0.577   2.411   1.804
 2704TIP3   OH2 8054   0.741   3.408   5.110
 2704TIP3    H1 8055   0.723   3.315   5.126
 2704TIP3    H2 8056   0.834   3.411   5.089
 2705TIP3   OH2 8057   8.276   3.464   2.115
 2705TIP3    H1 8058   8.342   3.449   2.182
 2705TIP3    H2 8059   8.225   3.538   2.147
 2706TIP3   OH2 8060   7.336  -0.040   6.174
 2706TIP3    H1 8061   7.317   0.053   6.180
 2706TIP3    H2 8062   7.350  -0.056   6.080
 2707TIP3   OH2 8063   6.147   4.872   5.154
 2707TIP3    H1 8064   6.098   4.792   5.170
 2707TIP3    H2 8065   6.160   4.910   5.241
 2708TIP3   OH2 8066   4.052   4.608   6.392
 2708TIP3    H1 8067   4.022   4.629   6.481
 2708TIP3    H2 8068   4.006   4.671   6.336
 2709TIP3   OH2 8069   3.299   3.350   2.462
 2709TIP3    H1 8070   3.313   3.285   2.532
 2709TIP3    H2 8071   3.287   3.433   2.508
 2710TIP3   OH2 8072   1.232   3.312   3.570
 2710TIP3    H1 8073   1.163   3.379   3.572
 2710TIP3    H2 8074   1.186   3.229   3.578
 2711TIP3   OH2 8075   5.994   4.754   2.853
 2711TIP3    H1 8076   6.001   4.685   2.919
 2711TIP3    H2 8077   5.923   4.810   2.885
 2712TIP3   OH2 8078   7.082   7.508   4.194
 2712TIP3    H1 8079   7.081   7.552   4.279
 2712TIP3    H2 8080   6.994   7.521   4.159
 2713TIP3   OH2 8081   1.410   3.263   1.427
 2713TIP3    H1 8082   1.456   3.224   1.501
 2713TIP3    H2 8083   1.472   3.259   1.355
 2714TIP3   OH2 8084   1.507   6.722   4.157
 2714TIP3    H1 8085   1.412   6.728   4.157
 2714TIP3    H2 8086   1.528   6.665   4.230
 2715TIP3   OH2 8087   3.707   5.269   1.250
 2715TIP3    H1 8088   3.674   5.228   1.330
 2715TIP3    H2 8089   3.662   5.353   1.245
 2716TIP3   OH2 8090   7.129   0.922   5.025
 2716TIP3    H1 8091   7.107   1.014   5.011
 2716TIP3    H2 8092   7.108   0.880   4.941
 2717TIP3   OH2 8093   1.688   7.076   1.322
 2717TIP3    H1 8094   1.608   7.099   1.276
 2717TIP3    H2 8095   1.758   7.106   1.265
 2718TIP3   OH2 8096   2.808   2.463   6.313
 2718TIP3    H1 8097   2.720   2.442   6.282
 2718TIP3    H2 8098   2.794   2.523   6.386
 2719TIP3   OH2 8099   0.955   7.206   2.647
 2719TIP3    H1 8100   1.016   7.273   2.616
 2719TIP3    H2 8101   0.909   7.179   2.568
 2720TIP3   OH2 8102   2.078   4.461   0.863
 2720TIP3    H1 8103   2.108   4.551   0.876
 2720TIP3    H2 8104   2.135   4.408   0.918
 2721TIP3   OH2 8105   2.623   4.005   4.035
 2721TIP3    H1 8106   2.607   3.927   4.088
 2721TIP3    H2 8107   2.626   3.974   3.945
 2722TIP3   OH2 8108   7.157   4.030   6.422
 2722TIP3    H1 8109   7.189   4.101   6.365
 2722TIP3    H2 8110   7.205   4.042   6.504
 2723TIP3   OH2 8111   1.185   2.657   2.830
 2723TIP3    H1 8112   1.149   2.719   2.767
 2723TIP3    H2 8113   1.244   2.709   2.885
 2724TIP3   OH2 8114   8.254   6.874   0.231
 2724TIP3    H1 8115   8.323   6.926   0.190
 2724TIP3    H2 8116   8.297   6.792   0.255
 2725TIP3   OH2 8117   7.124   7.134   0.234
 2725TIP3    H1 8118   7.155   7.052   0.196
 2725TIP3    H2 8119   7.051   7.109   0.290
 2726TIP3   OH2 8120   7.497   1.119   1.668
 2726TIP3    H1 8121   7.433   1.074   1.613
 2726TIP3    H2 8122   7.565   1.147   1.607
 2727TIP3   OH2 8123   8.043   2.041   5.436
 2727TIP3    H1 8124   7.999   2.095   5.501
 2727TIP3    H2 8125   8.024   2.084   5.352
 2728TIP3   OH2 8126   1.533   4.728   4.868
 2728TIP3    H1 8127   1.482   4.650   4.847
 2728TIP3    H2 8128   1.495   4.797   4.813
 2729TIP3   OH2 8129   3.796   1.629   1.353
 2729TIP3    H1 8130   3.723   1.576   1.320
 2729TIP3    H2 8131   3.874   1.578   1.331
 2730TIP3   OH2 8132   6.562   2.442   3.868
 2730TIP3    H1 8133   6.531   2.457   3.957
 2730TIP3    H2 8134   6.623   2.369   3.875
 2731TIP3   OH2 8135   5.102   7.861   3.256
 2731TIP3    H1 8136   5.008   7.843   3.249
 2731TIP3    H2 8137   5.132   7.865   3.165
 2732TIP3   OH2 8138   4.067   6.901   6.448
 2732TIP3    H1 8139   3.994   6.920   6.507
 2732TIP3    H2 8140   4.052   6.810   6.421
 2733TIP3   OH2 8141   5.515   3.502   4.458
 2733TIP3    H1 8142   5.590   3.484   4.401
 2733TIP3    H2 8143   5.526   3.594   4.484
 2734TIP3   OH2 8144   0.973   7.259   6.350
 2734TIP3    H1 8145   0.914   7.334   6.357
 2734TIP3    H2 8146   0.917   7.186   6.323
 2735TIP3   OH2 8147   6.032   2.163   5.515
 2735TIP3    H1 8148   5.980   2.212   5.452
 2735TIP3    H2 8149   5.999   2.073   5.508
 2736TIP3   OH2 8150   5.768   0.061   6.615
 2736TIP3    H1 8151   5.841   0.120   6.602
 2736TIP3    H2 8152   5.719   0.098   6.689
 2737TIP3   OH2 8153   0.845   1.918   6.107
 2737TIP3    H1 8154   0.784   1.939   6.036
 2737TIP3    H2 8155   0.831   1.825   6.123
 2738TIP3   OH2 8156   6.147   2.158   5.052
 2738TIP3    H1 8157   6.139   2.251   5.029
 2738TIP3    H2 8158   6.057   2.125   5.052
 2739TIP3   OH2 8159   6.985   6.154   2.299
 2739TIP3    H1 8160   7.079   6.147   2.279
 2739TIP3    H2 8161   6.972   6.097   2.374
 2740TIP3   OH2 8162   4.143   1.975   4.436
 2740TIP3    H1 8163   4.102   1.910   4.492
 2740TIP3    H2 8164   4.224   1.999   4.480
 2741TIP3   OH2 8165   7.800   4.995   0.749
 2741TIP3    H1 8166   7.748   5.034   0.819
 2741TIP3    H2 8167   7.842   4.919   0.790
 2742TIP3   OH2 8168   5.848   2.458   6.612
 2742TIP3    H1 8169   5.802   2.398   6.670
 2742TIP3    H2 8170   5.828   2.427   6.524
 2743TIP3   OH2 8171   1.740   4.741   4.056
 2743TIP3    H1 8172   1.649   4.714   4.070
 2743TIP3    H2 8173   1.762   4.708   3.969
 2744TIP3   OH2 8174   6.392   2.297   1.895
 2744TIP3    H1 8175   6.439   2.325   1.974
 2744TIP3    H2 8176   6.408   2.202   1.891
 2745TIP3   OH2 8177   5.624   6.177   6.410
 2745TIP3    H1 8178   5.674   6.166   6.329
 2745TIP3    H2 8179   5.614   6.088   6.444
 2746TIP3   OH2 8180   6.914   4.460   1.732
 2746TIP3    H1 8181   6.912   4.526   1.663
 2746TIP3    H2 8182   6.866   4.500   1.805
 2747TIP3   OH2 8183   6.000   4.374   0.504
 2747TIP3    H1 8184   6.060   4.423   0.448
 2747TIP3    H2 8185   5.915   4.382   0.462
 2748TIP3   OH2 8186   0.395   5.230   6.457
 2748TIP3    H1 8187   0.384   5.315   6.414
 2748TIP3    H2 8188   0.370   5.166   6.390
 2749TIP3   OH2 8189   2.760   0.789   6.505
 2749TIP3    H1 8190   2.676   0.834   6.491
 2749TIP3    H2 8191   2.818   0.858   6.536
 2750TIP3   OH2 8192   7.781   0.514   4.681
 2750TIP3    H1 8193   7.732   0.448   4.729
 2750TIP3    H2 8194   7.724   0.591   4.683
 2751TIP3   OH2 8195   6.157   2.580   3.410
 2751TIP3    H1 8196   6.083   2.605   3.465
 2751TIP3    H2 8197   6.116   2.540   3.333
 2752TIP3   OH2 8198   4.013   4.379   5.218
 2752TIP3    H1 8199   4.047   4.444   5.279
 2752TIP3    H2 8200   4.048   4.404   5.133
 2753TIP3   OH2 8201   8.048   2.022   5.893
 2753TIP3    H1 8202   8.009   2.070   5.966
 2753TIP3    H2 8203   8.054   1.932   5.925
 2754TIP3   OH2 8204   4.150   5.893   2.600
 2754TIP3    H1 8205   4.153   5.977   2.555
 2754TIP3    H2 8206   4.236   5.883   2.640
 2755TIP3   OH2 8207   6.892   6.612   4.281
 2755TIP3    H1 8208   6.857   6.628   4.193
 2755TIP3    H2 8209   6.977   6.571   4.267
 2756TIP3   OH2 8210   4.216   4.876   2.604
 2756TIP3    H1 8211   4.303   4.915   2.607
 2756TIP3    H2 8212   4.170   4.925   2.536
 2757TIP3   OH2 8213   3.588   2.381   5.955
 2757TIP3    H1 8214   3.559   2.459   6.002
 2757TIP3    H2 8215   3.537   2.383   5.873
 2758TIP3   OH2 8216   2.690   3.213   2.771
 2758TIP3    H1 8217   2.704   3.118   2.770
 2758TIP3    H2 8218   2.673   3.235   2.679
 2759TIP3   OH2 8219   6.148   1.525   5.170
 2759TIP3    H1 8220   6.074   1.578   5.140
 2759TIP3    H2 8221   6.206   1.520   5.093
 2760TIP3   OH2 8222   5.282   0.091   1.929
 2760TIP3    H1 8223   5.228   0.140   1.990
 2760TIP3    H2 8224   5.363   0.074   1.977
 2761TIP3   OH2 8225   6.308   0.645   2.890
 2761TIP3    H1 8226   6.269   0.728   2.917
 2761TIP3    H2 8227   6.239   0.601   2.841
 2762TIP3   OH2 8228   7.753   2.101   4.136
 2762TIP3    H1 8229   7.733   2.171   4.198
 2762TIP3    H2 8230   7.792   2.032   4.189
 2763TIP3   OH2 8231   8.190   3.589   0.231
 2763TIP3    H1 8232   8.107   3.609   0.187
 2763TIP3    H2 8233   8.238   3.535   0.168
 2764TIP3   OH2 8234   1.161   1.849   2.476
 2764TIP3    H1 8235   1.221   1.809   2.412
 2764TIP3    H2 8236   1.077   1.806   2.459
 2765TIP3   OH2 8237   0.771   4.597   1.939
 2765TIP3    H1 8238   0.845   4.588   1.999
 2765TIP3    H2 8239   0.697   4.618   1.996
 2766TIP3   OH2 8240   1.296   0.399   6.508
 2766TIP3    H1 8241   1.346   0.325   6.474
 2766TIP3    H2 8242   1.321   0.472   6.452
 2767TIP3   OH2 8243   1.495   7.571   0.933
 2767TIP3    H1 8244   1.515   7.479   0.955
 2767TIP3    H2 8245   1.437   7.565   0.857
 2768TIP3   OH2 8246   6.095   7.568   0.235
 2768TIP3    H1 8247   6.147   7.518   0.299
 2768TIP3    H2 8248   6.018   7.596   0.284
 2769TIP3   OH2 8249   3.550   2.262   0.511
 2769TIP3    H1 8250   3.627   2.318   0.505
 2769TIP3    H2 8251   3.585   2.175   0.527
 2770TIP3   OH2 8252   6.821   5.642   5.927
 2770TIP3    H1 8253   6.854   5.557   5.955
 2770TIP3    H2 8254   6.864   5.705   5.986
 2771TIP3   OH2 8255   6.095   5.003   3.521
 2771TIP3    H1 8256   6.017   5.044   3.556
 2771TIP3    H2 8257   6.101   4.918   3.566
 2772TIP3   OH2 8258   7.778   6.136   1.751
 2772TIP3    H1 8259   7.805   6.061   1.803
 2772TIP3    H2 8260   7.838   6.206   1.776
 2773TIP3   OH2 8261   0.113   1.855   5.203
 2773TIP3    H1 8262   0.079   1.827   5.117
 2773TIP3    H2 8263   0.166   1.932   5.183
 2774TIP3   OH2 8264   7.691   4.978   3.369
 2774TIP3    H1 8265   7.730   4.944   3.449
 2774TIP3    H2 8266   7.597   4.986   3.389
 2775TIP3   OH2 8267   0.982   2.228   2.797
 2775TIP3    H1 8268   1.015   2.315   2.777
 2775TIP3    H2 8269   1.007   2.213   2.889
 2776TIP3   OH2 8270   5.976   7.501   1.371
 2776TIP3    H1 8271   5.914   7.433   1.342
 2776TIP3    H2 8272   5.920   7.575   1.395
 2777TIP3   OH2 8273   5.515   1.954   0.940
 2777TIP3    H1 8274   5.466   1.872   0.948
 2777TIP3    H2 8275   5.521   1.969   0.846
 2778TIP3   OH2 8276   1.645   2.122   5.107
 2778TIP3    H1 8277   1.622   2.076   5.026
 2778TIP3    H2 8278   1.714   2.068   5.146
 2779TIP3   OH2 8279   7.908   1.233   2.257
 2779TIP3    H1 8280   7.832   1.176   2.249
 2779TIP3    H2 8281   7.927   1.235   2.351
 2780TIP3   OH2 8282   6.399   1.197   1.866
 2780TIP3    H1 8283   6.344   1.149   1.804
 2780TIP3    H2 8284   6.397   1.145   1.946
 2781TIP3   OH2 8285   4.130   4.944   3.456
 2781TIP3    H1 8286   4.133   4.982   3.369
 2781TIP3    H2 8287   4.044   4.970   3.491
 2782TIP3   OH2 8288   7.668   4.623   5.190
 2782TIP3    H1 8289   7.670   4.716   5.166
 2782TIP3    H2 8290   7.748   4.587   5.151
 2783TIP3   OH2 8291   7.332   3.342   4.372
 2783TIP3    H1 8292   7.289   3.360   4.456
 2783TIP3    H2 8293   7.425   3.349   4.392
 2784TIP3   OH2 8294   6.553   0.118   4.052
 2784TIP3    H1 8295   6.474   0.159   4.087
 2784TIP3    H2 8296   6.534   0.025   4.052
 2785TIP3   OH2 8297   5.565   5.017   5.683
 2785TIP3    H1 8298   5.579   4.958   5.609
 2785TIP3    H2 8299   5.528   5.096   5.644
 2786TIP3   OH2 8300   7.644   2.159   1.226
 2786TIP3    H1 8301   7.683   2.144   1.140
 2786TIP3    H2 8302   7.598   2.078   1.246
 2787TIP3   OH2 8303   4.262   4.552   5.184
 2787TIP3    H1 8304   4.259   4.493   5.109
 2787TIP3    H2 8305   4.354   4.577   5.191
 2788TIP3   OH2 8306   3.620   4.656   0.473
 2788TIP3    H1 8307   3.655   4.693   0.554
 2788TIP3    H2 8308   3.586   4.570   0.499
 2789TIP3   OH2 8309   3.697   2.539   4.968
 2789TIP3    H1 8310   3.784   2.512   4.995
 2789TIP3    H2 8311   3.637   2.485   5.019
 2790TIP3   OH2 8312   1.405   6.809   2.449
 2790TIP3    H1 8313   1.403   6.743   2.518
 2790TIP3    H2 8314   1.426   6.759   2.370
 2791TIP3   OH2 8315   5.424   7.407   3.458
 2791TIP3    H1 8316   5.361   7.409   3.386
 2791TIP3    H2 8317   5.509   7.414   3.414
 2792TIP3   OH2 8318   2.682   6.975   1.446
 2792TIP3    H1 8319   2.763   7.021   1.471
 2792TIP3    H2 8320   2.710   6.910   1.382
 2793TIP3   OH2 8321   4.439   2.821   1.650
 2793TIP3    H1 8322   4.531   2.810   1.675
 2793TIP3    H2 8323   4.432   2.775   1.566
 2794TIP3   OH2 8324   6.037   0.422   2.391
 2794TIP3    H1 8325   6.015   0.496   2.448
 2794TIP3    H2 8326   5.993   0.348   2.431
 2795TIP3   OH2 8327   2.938   5.659   6.359
 2795TIP3    H1 8328   3.030   5.641   6.340
 2795TIP3    H2 8329   2.914   5.597   6.428
 2796TIP3   OH2 8330   5.645   0.181   0.068
 2796TIP3    H1 8331   5.609   0.147  -0.014
 2796TIP3    H2 8332   5.618   0.273   0.070
 2797TIP3   OH2 8333   5.037   2.380   0.447
 2797TIP3    H1 8334   5.036   2.303   0.390
 2797TIP3    H2 8335   4.958   2.429   0.421
 2798TIP3   OH2 8336   2.213   6.357   2.696
 2798TIP3    H1 8337   2.171   6.276   2.725
 2798TIP3    H2 8338   2.253   6.394   2.774
 2799TIP3   OH2 8339   7.371   1.620   1.155
 2799TIP3    H1 8340   7.312   1.557   1.113
 2799TIP3    H2 8341   7.452   1.615   1.104
 2800TIP3   OH2 8342   5.917   4.398   4.576
 2800TIP3    H1 8343   5.953   4.442   4.498
 2800TIP3    H2 8344   5.951   4.309   4.570
 2801TIP3   OH2 8345   6.695   4.666   4.063
 2801TIP3    H1 8346   6.615   4.622   4.033
 2801TIP3    H2 8347   6.766   4.618   4.021
 2802TIP3   OH2 8348   4.368   5.801   0.900
 2802TIP3    H1 8349   4.307   5.863   0.861
 2802TIP3    H2 8350   4.313   5.731   0.935
 2803TIP3   OH2 8351   1.407   1.856   2.625
 2803TIP3    H1 8352   1.392   1.910   2.703
 2803TIP3    H2 8353   1.345   1.889   2.561
 2804TIP3   OH2 8354   1.490   5.317   2.640
 2804TIP3    H1 8355   1.532   5.375   2.577
 2804TIP3    H2 8356   1.510   5.355   2.725
 2805TIP3   OH2 8357   1.123   6.112   2.482
 2805TIP3    H1 8358   1.163   6.030   2.511
 2805TIP3    H2 8359   1.071   6.087   2.406
 2806TIP3   OH2 8360   5.154   0.732   4.375
 2806TIP3    H1 8361   5.120   0.739   4.464
 2806TIP3    H2 8362   5.174   0.639   4.364
 2807TIP3   OH2 8363   1.973   3.312   3.419
 2807TIP3    H1 8364   2.006   3.376   3.483
 2807TIP3    H2 8365   2.034   3.318   3.346
 2808TIP3   OH2 8366   5.658   0.661   5.817
 2808TIP3    H1 8367   5.658   0.565   5.818
 2808TIP3    H2 8368   5.600   0.686   5.889
 2809TIP3   OH2 8369   4.202   5.149   5.534
 2809TIP3    H1 8370   4.138   5.218   5.519
 2809TIP3    H2 8371   4.277   5.174   5.480
 2810TIP3   OH2 8372   6.407   5.466   3.291
 2810TIP3    H1 8373   6.436   5.513   3.213
 2810TIP3    H2 8374   6.483   5.414   3.318
 2811TIP3   OH2 8375   6.383   1.615   4.658
 2811TIP3    H1 8376   6.331   1.611   4.738
 2811TIP3    H2 8377   6.346   1.546   4.602
 2812TIP3   OH2 8378   7.632   0.805   1.336
 2812TIP3    H1 8379   7.687   0.752   1.279
 2812TIP3    H2 8380   7.693   0.850   1.394
 2813TIP3   OH2 8381   0.647   0.981   6.114
 2813TIP3    H1 8382   0.597   0.950   6.189
 2813TIP3    H2 8383   0.711   0.911   6.097
 2814TIP3   OH2 8384   7.168   6.689   1.725
 2814TIP3    H1 8385   7.138   6.668   1.636
 2814TIP3    H2 8386   7.088   6.715   1.771
 2815TIP3   OH2 8387   0.169   6.507   6.377
 2815TIP3    H1 8388   0.198   6.539   6.462
 2815TIP3    H2 8389   0.246   6.461   6.342
 2816TIP3   OH2 8390   2.888   1.632   4.910
 2816TIP3    H1 8391   2.817   1.578   4.876
 2816TIP3    H2 8392   2.895   1.705   4.848
 2817TIP3   OH2 8393   0.385   4.981   6.757
 2817TIP3    H1 8394   0.433   4.988   6.674
 2817TIP3    H2 8395   0.451   5.000   6.824
 2818TIP3   OH2 8396   3.053   3.277   6.310
 2818TIP3    H1 8397   3.129   3.230   6.276
 2818TIP3    H2 8398   3.066   3.368   6.282
 2819TIP3   OH2 8399   3.096   4.566   0.877
 2819TIP3    H1 8400   3.018   4.607   0.840
 2819TIP3    H2 8401   3.062   4.497   0.934
 2820TIP3   OH2 8402   6.337   1.109   6.802
 2820TIP3    H1 8403   6.321   1.202   6.787
 2820TIP3    H2 8404   6.374   1.078   6.719
 2821TIP3   OH2 8405   6.161   3.251   5.719
 2821TIP3    H1 8406   6.150   3.344   5.699
 2821TIP3    H2 8407   6.071   3.218   5.729
 2822TIP3   OH2 8408   3.453   1.055   5.742
 2822TIP3    H1 8409   3.422   1.100   5.821
 2822TIP3    H2 8410   3.505   0.982   5.775
 2823TIP3   OH2 8411   2.598   3.545   5.298
 2823TIP3    H1 8412   2.658   3.473   5.279
 2823TIP3    H2 8413   2.654   3.618   5.324
 2824TIP3   OH2 8414   6.803   5.021   2.229
 2824TIP3    H1 8415   6.804   5.101   2.178
 2824TIP3    H2 8416   6.763   5.045   2.312
 2825TIP3   OH2 8417   0.111   4.249   5.494
 2825TIP3    H1 8418   0.073   4.297   5.420
 2825TIP3    H2 8419   0.202   4.278   5.497
 2826TIP3   OH2 8420   3.636   1.636   2.364
 2826TIP3    H1 8421   3.620   1.689   2.286
 2826TIP3    H2 8422   3.721   1.666   2.396
 2827TIP3   OH2 8423   7.389   4.046   1.860
 2827TIP3    H1 8424   7.312   4.040   1.917
 2827TIP3    H2 8425   7.460   4.072   1.919
 2828TIP3   OH2 8426   0.749   0.188   1.094
 2828TIP3    H1 8427   0.718   0.217   1.008
 2828TIP3    H2 8428   0.790   0.103   1.077
 2829TIP3   OH2 8429   2.650   2.021   4.914
 2829TIP3    H1 8430   2.739   2.037   4.945
 2829TIP3    H2 8431   2.628   1.934   4.947
 2830TIP3   OH2 8432   2.144   6.794   5.258
 2830TIP3    H1 8433   2.051   6.817   5.266
 2830TIP3    H2 8434   2.154   6.766   5.167
 2831TIP3   OH2 8435   7.090   3.429   2.905
 2831TIP3    H1 8436   7.064   3.505   2.958
 2831TIP3    H2 8437   7.075   3.457   2.815
 2832TIP3   OH2 8438   5.620   3.831   1.526
 2832TIP3    H1 8439   5.670   3.912   1.519
 2832TIP3    H2 8440   5.641   3.797   1.613
 2833TIP3   OH2 8441   0.505   6.704   2.241
 2833TIP3    H1 8442   0.492   6.642   2.169
 2833TIP3    H2 8443   0.560   6.773   2.203
 2834TIP3   OH2 8444   0.145   4.818   0.381
 2834TIP3    H1 8445   0.225   4.871   0.381
 2834TIP3    H2 8446   0.155   4.759   0.455
 2835TIP3   OH2 8447   8.210   1.967   0.189
 2835TIP3    H1 8448   8.222   2.061   0.201
 2835TIP3    H2 8449   8.115   1.956   0.177
 2836TIP3   OH2 8450   1.035   7.252   2.280
 2836TIP3    H1 8451   1.073   7.164   2.280
 2836TIP3    H2 8452   1.028   7.276   2.372
 2837TIP3   OH2 8453   0.536   2.562   4.063
 2837TIP3    H1 8454   0.612   2.531   4.013
 2837TIP3    H2 8455   0.460   2.536   4.010
 2838TIP3   OH2 8456   7.684   6.927   4.982
 2838TIP3    H1 8457   7.664   7.016   4.952
 2838TIP3    H2 8458   7.678   6.932   5.077
 2839TIP3   OH2 8459   8.173   5.661   1.812
 2839TIP3    H1 8460   8.131   5.575   1.800
 2839TIP3    H2 8461   8.109   5.723   1.778
 2840TIP3   OH2 8462   8.027   5.184   2.002
 2840TIP3    H1 8463   8.098   5.132   2.038
 2840TIP3    H2 8464   7.952   5.164   2.058
 2841TIP3   OH2 8465   2.355   2.192   6.276
 2841TIP3    H1 8466   2.412   2.129   6.321
 2841TIP3    H2 8467   2.271   2.185   6.322
 2842TIP3   OH2 8468   7.887   6.623   5.837
 2842TIP3    H1 8469   7.829   6.681   5.886
 2842TIP3    H2 8470   7.908   6.672   5.757
 2843TIP3   OH2 8471   1.631   5.682   2.957
 2843TIP3    H1 8472   1.665   5.597   2.927
 2843TIP3    H2 8473   1.677   5.746   2.903
 2844TIP3   OH2 8474   5.711   1.105   3.993
 2844TIP3    H1 8475   5.638   1.043   3.993
 2844TIP3    H2 8476   5.772   1.069   3.928
 2845TIP3   OH2 8477   5.003   1.555   1.413
 2845TIP3    H1 8478   4.999   1.553   1.509
 2845TIP3    H2 8479   4.956   1.477   1.385
 2846TIP3   OH2 8480   7.172   0.299   5.070
 2846TIP3    H1 8481   7.232   0.261   5.135
 2846TIP3    H2 8482   7.228   0.315   4.994
 2847TIP3   OH2 8483   1.655   4.384   4.170
 2847TIP3    H1 8484   1.706   4.313   4.130
 2847TIP3    H2 8485   1.721   4.450   4.195
 2848TIP3   OH2 8486   2.725   7.386   6.482
 2848TIP3    H1 8487   2.742   7.409   6.391
 2848TIP3    H2 8488   2.812   7.369   6.519
 2849TIP3   OH2 8489   8.226   2.929   0.659
 2849TIP3    H1 8490   8.137   2.902   0.636
 2849TIP3    H2 8491   8.249   2.995   0.593
 2850TIP3   OH2 8492   1.111   6.344   0.562
 2850TIP3    H1 8493   1.192   6.345   0.612
 2850TIP3    H2 8494   1.128   6.282   0.491
 2851TIP3   OH2 8495   0.134   6.535   4.498
 2851TIP3    H1 8496   0.039   6.541   4.502
 2851TIP3    H2 8497   0.152   6.441   4.497
 2852TIP3   OH2 8498   7.935   0.857   3.777
 2852TIP3    H1 8499   8.025   0.889   3.784
 2852TIP3    H2 8500   7.935   0.799   3.701
 2853TIP3   OH2 8501   4.573   6.891   5.493
 2853TIP3    H1 8502   4.624   6.897   5.573
 2853TIP3    H2 8503   4.482   6.883   5.523
 2854TIP3   OH2 8504   1.889   4.023   3.266
 2854TIP3    H1 8505   1.967   4.011   3.212
 2854TIP3    H2 8506   1.845   3.939   3.264
 2855TIP3   OH2 8507   5.712   7.233   2.997
 2855TIP3    H1 8508   5.773   7.160   2.986
 2855TIP3    H2 8509   5.639   7.196   3.047
 2856TIP3   OH2 8510   8.047   7.105   2.893
 2856TIP3    H1 8511   7.982   7.170   2.919
 2856TIP3    H2 8512   8.100   7.150   2.827
 2857TIP3   OH2 8513   5.459   1.796   4.385
 2857TIP3    H1 8514   5.538   1.805   4.332
 2857TIP3    H2 8515   5.416   1.718   4.351
 2858TIP3   OH2 8516   2.617   1.076   1.063
 2858TIP3    H1 8517   2.531   1.034   1.057
 2858TIP3    H2 8518   2.663   1.026   1.130
 2859TIP3   OH2 8519   3.894   4.914   4.223
 2859TIP3    H1 8520   3.823   4.871   4.271
 2859TIP3    H2 8521   3.850   4.958   4.150
 2860TIP3   OH2 8522   4.400   0.386   1.706
 2860TIP3    H1 8523   4.378   0.375   1.799
 2860TIP3    H2 8524   4.334   0.447   1.673
 2861TIP3   OH2 8525   4.202   3.372   2.478
 2861TIP3    H1 8526   4.159   3.348   2.560
 2861TIP3    H2 8527   4.132   3.410   2.424
 2862TIP3   OH2 8528   2.962   6.455   2.792
 2862TIP3    H1 8529   2.960   6.361   2.808
 2862TIP3    H2 8530   2.946   6.464   2.698
 2863TIP3   OH2 8531   0.445   0.860   2.949
 2863TIP3    H1 8532   0.425   0.925   2.882
 2863TIP3    H2 8533   0.513   0.900   3.003
 2864TIP3   OH2 8534   6.105   7.088   5.896
 2864TIP3    H1 8535   6.085   7.000   5.866
 2864TIP3    H2 8536   6.023   7.136   5.885
 2865TIP3   OH2 8537   2.312   0.286   4.584
 2865TIP3    H1 8538   2.359   0.347   4.641
 2865TIP3    H2 8539   2.268   0.343   4.520
 2866TIP3   OH2 8540   1.473   2.977   0.390
 2866TIP3    H1 8541   1.480   2.999   0.297
 2866TIP3    H2 8542   1.545   2.916   0.405
 2867TIP3   OH2 8543   7.873   6.098   6.619
 2867TIP3    H1 8544   7.950   6.149   6.594
 2867TIP3    H2 8545   7.862   6.036   6.547
 2868TIP3   OH2 8546   2.052   0.341   1.615
 2868TIP3    H1 8547   2.038   0.354   1.521
 2868TIP3    H2 8548   2.056   0.246   1.627
 2869TIP3   OH2 8549   4.584   4.249   2.856
 2869TIP3    H1 8550   4.553   4.300   2.782
 2869TIP3    H2 8551   4.679   4.259   2.854
 2870TIP3   OH2 8552   2.510   0.429   5.099
 2870TIP3    H1 8553   2.572   0.405   5.030
 2870TIP3    H2 8554   2.518   0.524   5.105
 2871TIP3   OH2 8555   4.642   5.578   5.503
 2871TIP3    H1 8556   4.603   5.581   5.591
 2871TIP3    H2 8557   4.640   5.669   5.473
 2872TIP3   OH2 8558   3.846   1.993   0.204
 2872TIP3    H1 8559   3.755   2.010   0.228
 2872TIP3    H2 8560   3.853   1.898   0.199
 2873TIP3   OH2 8561   3.772   6.948   6.519
 2873TIP3    H1 8562   3.722   7.030   6.515
 2873TIP3    H2 8563   3.712   6.882   6.486
 2874TIP3   OH2 8564   2.669   6.304   2.840
 2874TIP3    H1 8565   2.734   6.327   2.906
 2874TIP3    H2 8566   2.595   6.269   2.891
 2875TIP3   OH2 8567   8.024   3.673   2.114
 2875TIP3    H1 8568   8.009   3.581   2.137
 2875TIP3    H2 8569   7.962   3.690   2.043
 2876TIP3   OH2 8570   5.946   2.694   0.300
 2876TIP3    H1 8571   6.030   2.738   0.287
 2876TIP3    H2 8572   5.941   2.629   0.230
 2877TIP3   OH2 8573   6.475   0.246   3.342
 2877TIP3    H1 8574   6.476   0.229   3.436
 2877TIP3    H2 8575   6.412   0.184   3.307
 2878TIP3   OH2 8576   6.688   3.431   5.305
 2878TIP3    H1 8577   6.617   3.419   5.368
 2878TIP3    H2 8578   6.664   3.509   5.256
 2879TIP3   OH2 8579   3.575   5.628   4.161
 2879TIP3    H1 8580   3.558   5.718   4.134
 2879TIP3    H2 8581   3.566   5.629   4.256
 2880TIP3   OH2 8582   0.632   3.173   0.261
 2880TIP3    H1 8583   0.643   3.264   0.290
 2880TIP3    H2 8584   0.682   3.122   0.326
 2881TIP3   OH2 8585   0.327   1.255   3.453
 2881TIP3    H1 8586   0.382   1.329   3.477
 2881TIP3    H2 8587   0.317   1.206   3.535
 2882TIP3   OH2 8588   5.545   2.452   2.192
 2882TIP3    H1 8589   5.559   2.399   2.271
 2882TIP3    H2 8590   5.463   2.499   2.210
 2883TIP3   OH2 8591   2.785   3.471   1.122
 2883TIP3    H1 8592   2.747   3.556   1.100
 2883TIP3    H2 8593   2.723   3.408   1.085
 2884TIP3   OH2 8594   3.529   1.495   4.874
 2884TIP3    H1 8595   3.452   1.440   4.864
 2884TIP3    H2 8596   3.594   1.437   4.914
 2885TIP3   OH2 8597   3.395   7.204   5.352
 2885TIP3    H1 8598   3.328   7.139   5.331
 2885TIP3    H2 8599   3.453   7.160   5.414
 2886TIP3   OH2 8600   4.966   3.740   2.069
 2886TIP3    H1 8601   4.901   3.774   2.008
 2886TIP3    H2 8602   4.928   3.756   2.155
 2887TIP3   OH2 8603   8.174   7.057   5.383
 2887TIP3    H1 8604   8.236   6.990   5.412
 2887TIP3    H2 8605   8.119   7.012   5.318
 2888TIP3   OH2 8606   8.272   6.468   6.805
 2888TIP3    H1 8607   8.193   6.459   6.858
 2888TIP3    H2 8608   8.243   6.518   6.729
 2889TIP3   OH2 8609   0.021   2.501   2.269
 2889TIP3    H1 8610   0.042   2.523   2.178
 2889TIP3    H2 8611   0.096   2.449   2.299
 2890TIP3   OH2 8612   6.319   7.492   1.954
 2890TIP3    H1 8613   6.307   7.452   2.041
 2890TIP3    H2 8614   6.372   7.570   1.971
 2891TIP3   OH2 8615   6.541   1.400   4.777
 2891TIP3    H1 8616   6.500   1.462   4.718
 2891TIP3    H2 8617   6.592   1.454   4.837
 2892TIP3   OH2 8618   5.799   3.198   5.167
 2892TIP3    H1 8619   5.840   3.284   5.165
 2892TIP3    H2 8620   5.799   3.173   5.260
 2893TIP3   OH2 8621   1.660   4.883   2.622
 2893TIP3    H1 8622   1.728   4.943   2.650
 2893TIP3    H2 8623   1.586   4.939   2.598
 2894TIP3   OH2 8624   0.391   0.749   1.787
 2894TIP3    H1 8625   0.333   0.824   1.799
 2894TIP3    H2 8626   0.478   0.787   1.778
 2895TIP3   OH2 8627   0.654   7.192   6.256
 2895TIP3    H1 8628   0.562   7.219   6.259
 2895TIP3    H2 8629   0.664   7.150   6.171
 2896TIP3   OH2 8630   2.310   0.697   1.651
 2896TIP3    H1 8631   2.359   0.631   1.700
 2896TIP3    H2 8632   2.354   0.701   1.566
 2897TIP3   OH2 8633   7.089   6.505   5.261
 2897TIP3    H1 8634   7.137   6.585   5.243
 2897TIP3    H2 8635   7.056   6.476   5.176
 2898TIP3   OH2 8636   1.723   1.916   2.990
 2898TIP3    H1 8637   1.801   1.869   3.019
 2898TIP3    H2 8638   1.661   1.847   2.965
 2899TIP3   OH2 8639   0.634   1.882   0.752
 2899TIP3    H1 8640   0.670   1.893   0.840
 2899TIP3    H2 8641   0.709   1.855   0.699
 2900TIP3   OH2 8642   5.020   5.750   5.900
 2900TIP3    H1 8643   5.114   5.766   5.899
 2900TIP3    H2 8644   5.011   5.657   5.880
 2901TIP3   OH2 8645   4.014   2.904   5.596
 2901TIP3    H1 8646   4.040   2.817   5.627
 2901TIP3    H2 8647   3.920   2.910   5.617
 2902TIP3   OH2 8648   5.438   3.031   0.069
 2902TIP3    H1 8649   5.350   3.018   0.035
 2902TIP3    H2 8650   5.428   3.029   0.164
 2903TIP3   OH2 8651   2.296   7.024   4.429
 2903TIP3    H1 8652   2.295   6.934   4.462
 2903TIP3    H2 8653   2.248   7.075   4.495
 2904TIP3   OH2 8654   7.849   7.551   3.357
 2904TIP3    H1 8655   7.911   7.513   3.420
 2904TIP3    H2 8656   7.788   7.601   3.411
 2905TIP3   OH2 8657   2.922   3.637   3.329
 2905TIP3    H1 8658   2.935   3.548   3.296
 2905TIP3    H2 8659   2.904   3.689   3.251
 2906TIP3   OH2 8660   3.754   3.980   0.796
 2906TIP3    H1 8661   3.704   4.010   0.872
 2906TIP3    H2 8662   3.827   3.931   0.832
 2907TIP3   OH2 8663   7.657   3.898   0.170
 2907TIP3    H1 8664   7.749   3.909   0.143
 2907TIP3    H2 8665   7.661   3.884   0.264
 2908TIP3   OH2 8666   7.262   0.023   4.864
 2908TIP3    H1 8667   7.194  -0.029   4.822
 2908TIP3    H2 8668   7.238   0.114   4.843
 2909TIP3   OH2 8669   3.438   2.125   6.304
 2909TIP3    H1 8670   3.390   2.182   6.244
 2909TIP3    H2 8671   3.386   2.127   6.385
 2910TIP3   OH2 8672   4.748   6.135   5.277
 2910TIP3    H1 8673   4.675   6.160   5.220
 2910TIP3    H2 8674   4.805   6.083   5.221
 2911TIP3   OH2 8675   2.188   7.789   3.138
 2911TIP3    H1 8676   2.094   7.805   3.142
 2911TIP3    H2 8677   2.216   7.790   3.230
 2912TIP3   OH2 8678   1.714   7.727   5.468
 2912TIP3    H1 8679   1.731   7.815   5.502
 2912TIP3    H2 8680   1.620   7.715   5.481
 2913TIP3   OH2 8681   5.370   7.357   1.570
 2913TIP3    H1 8682   5.356   7.291   1.638
 2913TIP3    H2 8683   5.422   7.311   1.503
 2914TIP3   OH2 8684   0.946   4.743   3.739
 2914TIP3    H1 8685   0.981   4.662   3.775
 2914TIP3    H2 8686   0.996   4.812   3.781
 2915TIP3   OH2 8687   1.233   1.349   0.404
 2915TIP3    H1 8688   1.320   1.359   0.367
 2915TIP3    H2 8689   1.188   1.431   0.384
 2916TIP3   OH2 8690   3.005   2.476   1.503
 2916TIP3    H1 8691   3.000   2.572   1.509
 2916TIP3    H2 8692   3.052   2.450   1.583
 2917TIP3   OH2 8693   2.804   6.803   1.206
 2917TIP3    H1 8694   2.841   6.884   1.173
 2917TIP3    H2 8695   2.877   6.740   1.203
 2918TIP3   OH2 8696   7.412   7.340   5.903
 2918TIP3    H1 8697   7.458   7.417   5.937
 2918TIP3    H2 8698   7.349   7.318   5.972
 2919TIP3   OH2 8699   0.466   7.131   6.650
 2919TIP3    H1 8700   0.506   7.123   6.737
 2919TIP3    H2 8701   0.532   7.176   6.598
 2920TIP3   OH2 8702   6.452   4.078   3.029
 2920TIP3    H1 8703   6.421   4.160   3.066
 2920TIP3    H2 8704   6.383   4.050   2.969
 2921TIP3   OH2 8705   2.549   5.864   0.910
 2921TIP3    H1 8706   2.538   5.871   0.815
 2921TIP3    H2 8707   2.532   5.771   0.928
 2922TIP3   OH2 8708   1.845   4.248   2.613
 2922TIP3    H1 8709   1.826   4.165   2.656
 2922TIP3    H2 8710   1.940   4.259   2.622
 2923TIP3   OH2 8711   5.147   5.068   6.160
 2923TIP3    H1 8712   5.082   5.024   6.106
 2923TIP3    H2 8713   5.151   5.157   6.126
 2924TIP3   OH2 8714   2.497   3.890   5.383
 2924TIP3    H1 8715   2.425   3.923   5.435
 2924TIP3    H2 8716   2.456   3.859   5.302
 2925TIP3   OH2 8717   5.349   0.878   5.486
 2925TIP3    H1 8718   5.345   0.953   5.427
 2925TIP3    H2 8719   5.428   0.831   5.461
 2926TIP3   OH2 8720   2.824   1.666   1.880
 2926TIP3    H1 8721   2.777   1.749   1.869
 2926TIP3    H2 8722   2.763   1.600   1.847
 2927TIP3   OH2 8723   2.856   4.106   6.357
 2927TIP3    H1 8724   2.892   4.051   6.287
 2927TIP3    H2 8725   2.932   4.137   6.406
 2928TIP3   OH2 8726   3.771   2.826   4.231
 2928TIP3    H1 8727   3.761   2.747   4.283
 2928TIP3    H2 8728   3.832   2.880   4.281
 2929TIP3   OH2 8729   5.974   4.317   5.095
 2929TIP3    H1 8730   5.942   4.407   5.102
 2929TIP3    H2 8731   5.993   4.305   5.002
 2930TIP3   OH2 8732   2.347   3.672   6.672
 2930TIP3    H1 8733   2.417   3.659   6.608
 2930TIP3    H2 8734   2.336   3.587   6.713
 2931TIP3   OH2 8735   1.244   3.400   4.499
 2931TIP3    H1 8736   1.295   3.379   4.421
 2931TIP3    H2 8737   1.308   3.439   4.559
 2932TIP3   OH2 8738   7.818   6.287   4.917
 2932TIP3    H1 8739   7.900   6.283   4.967
 2932TIP3    H2 8740   7.756   6.236   4.969
 2933TIP3   OH2 8741   6.438   6.141   5.267
 2933TIP3    H1 8742   6.404   6.052   5.264
 2933TIP3    H2 8743   6.412   6.180   5.184
 2934TIP3   OH2 8744   0.890   0.948   4.462
 2934TIP3    H1 8745   0.844   0.872   4.498
 2934TIP3    H2 8746   0.904   1.006   4.537
 2935TIP3   OH2 8747   4.228   3.173   2.804
 2935TIP3    H1 8748   4.163   3.238   2.776
 2935TIP3    H2 8749   4.240   3.189   2.897
 2936TIP3   OH2 8750   7.927   7.654   3.988
 2936TIP3    H1 8751   7.839   7.681   3.962
 2936TIP3    H2 8752   7.914   7.577   4.043
 2937TIP3   OH2 8753   2.360   7.804   3.648
 2937TIP3    H1 8754   2.425   7.741   3.678
 2937TIP3    H2 8755   2.323   7.841   3.728
 2938TIP3   OH2 8756   7.550   4.462   0.672
 2938TIP3    H1 8757   7.500   4.395   0.625
 2938TIP3    H2 8758   7.508   4.545   0.648
 2939TIP3   OH2 8759   3.765   4.704   1.046
 2939TIP3    H1 8760   3.834   4.656   1.091
 2939TIP3    H2 8761   3.713   4.636   1.002
 2940TIP3   OH2 8762   0.785   2.861   5.058
 2940TIP3    H1 8763   0.820   2.886   4.973
 2940TIP3    H2 8764   0.690   2.853   5.044
 2941TIP3   OH2 8765   0.655   3.964   0.735
 2941TIP3    H1 8766   0.671   4.032   0.670
 2941TIP3    H2 8767   0.682   4.003   0.818
 2942TIP3   OH2 8768   1.841   3.439   2.811
 2942TIP3    H1 8769   1.771   3.389   2.769
 2942TIP3    H2 8770   1.824   3.530   2.786
 2943TIP3   OH2 8771   2.292   0.568   6.333
 2943TIP3    H1 8772   2.260   0.627   6.401
 2943TIP3    H2 8773   2.217   0.510   6.314
 2944TIP3   OH2 8774   2.867   0.501   4.829
 2944TIP3    H1 8775   2.828   0.418   4.801
 2944TIP3    H2 8776   2.961   0.487   4.823
 2945TIP3   OH2 8777   5.652   5.735   4.206
 2945TIP3    H1 8778   5.601   5.709   4.283
 2945TIP3    H2 8779   5.608   5.813   4.174
 2946TIP3   OH2 8780   3.760   5.664   5.042
 2946TIP3    H1 8781   3.677   5.691   5.003
 2946TIP3    H2 8782   3.780   5.580   5.002
 2947TIP3   OH2 8783   4.813   6.208   3.436
 2947TIP3    H1 8784   4.864   6.286   3.458
 2947TIP3    H2 8785   4.780   6.176   3.520
 2948TIP3   OH2 8786   6.920   5.499   1.335
 2948TIP3    H1 8787   6.867   5.468   1.262
 2948TIP3    H2 8788   6.933   5.592   1.317
 2949TIP3   OH2 8789   3.661   3.006   1.808
 2949TIP3    H1 8790   3.695   2.917   1.820
 2949TIP3    H2 8791   3.570   2.993   1.782
 2950TIP3   OH2 8792   7.280   6.446   5.478
 2950TIP3    H1 8793   7.248   6.430   5.567
 2950TIP3    H2 8794   7.202   6.440   5.423
 2951TIP3   OH2 8795   7.150   2.367   1.246
 2951TIP3    H1 8796   7.121   2.293   1.299
 2951TIP3    H2 8797   7.244   2.351   1.232
 2952TIP3   OH2 8798   3.186   0.422   2.947
 2952TIP3    H1 8799   3.279   0.417   2.970
 2952TIP3    H2 8800   3.141   0.437   3.031
 2953TIP3   OH2 8801   2.377   6.336   2.452
 2953TIP3    H1 8802   2.443   6.287   2.500
 2953TIP3    H2 8803   2.321   6.374   2.520
 2954TIP3   OH2 8804   4.184   0.844   3.437
 2954TIP3    H1 8805   4.200   0.757   3.474
 2954TIP3    H2 8806   4.109   0.878   3.486
 2955TIP3   OH2 8807   4.380   5.204   5.328
 2955TIP3    H1 8808   4.389   5.184   5.234
 2955TIP3    H2 8809   4.360   5.298   5.330
 2956TIP3   OH2 8810   0.157   3.832   4.210
 2956TIP3    H1 8811   0.219   3.768   4.174
 2956TIP3    H2 8812   0.203   3.870   4.285
 2957TIP3   OH2 8813   7.833   6.222   2.079
 2957TIP3    H1 8814   7.744   6.254   2.067
 2957TIP3    H2 8815   7.885   6.270   2.015
 2958TIP3   OH2 8816   6.241   4.693   1.933
 2958TIP3    H1 8817   6.246   4.633   1.858
 2958TIP3    H2 8818   6.326   4.686   1.976
 2959TIP3   OH2 8819   1.392   0.443   3.130
 2959TIP3    H1 8820   1.381   0.400   3.045
 2959TIP3    H2 8821   1.480   0.481   3.126
 2960TIP3   OH2 8822   3.635   1.270   3.138
 2960TIP3    H1 8823   3.650   1.201   3.074
 2960TIP3    H2 8824   3.562   1.320   3.102
 2961TIP3   OH2 8825   4.813   0.592   1.217
 2961TIP3    H1 8826   4.753   0.656   1.179
 2961TIP3    H2 8827   4.795   0.511   1.171
 2962TIP3   OH2 8828   3.013   7.030   6.438
 2962TIP3    H1 8829   2.992   7.021   6.531
 2962TIP3    H2 8830   3.072   6.957   6.420
 2963TIP3   OH2 8831   8.173   3.873   5.763
 2963TIP3    H1 8832   8.149   3.787   5.729
 2963TIP3    H2 8833   8.241   3.904   5.703
 2964TIP3   OH2 8834   7.431   6.440   3.848
 2964TIP3    H1 8835   7.369   6.398   3.789
 2964TIP3    H2 8836   7.461   6.370   3.906
 2965TIP3   OH2 8837   5.173   5.888   5.274
 2965TIP3    H1 8838   5.095   5.840   5.301
 2965TIP3    H2 8839   5.230   5.887   5.352
 2966TIP3   OH2 8840   4.378   5.626   6.686
 2966TIP3    H1 8841   4.336   5.678   6.619
 2966TIP3    H2 8842   4.355   5.670   6.768
 2967TIP3   OH2 8843   1.364   0.276   5.741
 2967TIP3    H1 8844   1.339   0.202   5.684
 2967TIP3    H2 8845   1.332   0.353   5.695
 2968TIP3   OH2 8846   3.670   4.450   6.755
 2968TIP3    H1 8847   3.607   4.379   6.754
 2968TIP3    H2 8848   3.641   4.508   6.826
 2969TIP3   OH2 8849   2.127   3.678   3.777
 2969TIP3    H1 8850   2.067   3.683   3.703
 2969TIP3    H2 8851   2.090   3.610   3.833
 2970TIP3   OH2 8852   5.615   0.928   2.767
 2970TIP3    H1 8853   5.655   0.850   2.808
 2970TIP3    H2 8854   5.690   0.978   2.735
 2971TIP3   OH2 8855   6.867   0.820   3.952
 2971TIP3    H1 8856   6.816   0.850   3.876
 2971TIP3    H2 8857   6.818   0.744   3.984
 2972TIP3   OH2 8858   7.507   2.947   0.642
 2972TIP3    H1 8859   7.598   2.974   0.628
 2972TIP3    H2 8860   7.461   3.028   0.665
 2973TIP3   OH2 8861   1.426   3.240   2.292
 2973TIP3    H1 8862   1.350   3.199   2.252
 2973TIP3    H2 8863   1.440   3.192   2.374
 2974TIP3   OH2 8864   5.953   5.157   0.623
 2974TIP3    H1 8865   5.990   5.133   0.537
 2974TIP3    H2 8866   5.873   5.205   0.602
 2975TIP3   OH2 8867   2.198   7.014   3.998
 2975TIP3    H1 8868   2.286   7.031   3.965
 2975TIP3    H2 8869   2.189   7.070   4.075
 2976TIP3   OH2 8870   0.932   0.111   0.429
 2976TIP3    H1 8871   0.900   0.201   0.435
 2976TIP3    H2 8872   0.965   0.091   0.517
 2977TIP3   OH2 8873   0.778   6.461   5.306
 2977TIP3    H1 8874   0.790   6.463   5.401
 2977TIP3    H2 8875   0.776   6.367   5.285
 2978TIP3   OH2 8876   6.526   5.461   2.869
 2978TIP3    H1 8877   6.609   5.444   2.823
 2978TIP3    H2 8878   6.496   5.544   2.832
 2979TIP3   OH2 8879   4.208   7.036   1.750
 2979TIP3    H1 8880   4.290   7.054   1.704
 2979TIP3    H2 8881   4.232   6.977   1.821
 2980TIP3   OH2 8882   4.609   7.345   0.896
 2980TIP3    H1 8883   4.543   7.282   0.868
 2980TIP3    H2 8884   4.661   7.363   0.818
 2981TIP3   OH2 8885   3.504   5.315   4.914
 2981TIP3    H1 8886   3.463   5.275   4.837
 2981TIP3    H2 8887   3.495   5.249   4.983
 2982TIP3   OH2 8888   6.412   4.065   0.300
 2982TIP3    H1 8889   6.423   4.031   0.388
 2982TIP3    H2 8890   6.359   4.143   0.310
 2983TIP3   OH2 8891   2.103   3.719   4.160
 2983TIP3    H1 8892   2.191   3.755   4.170
 2983TIP3    H2 8893   2.086   3.674   4.242
 2984TIP3   OH2 8894   4.129   4.899   3.947
 2984TIP3    H1 8895   4.123   4.807   3.973
 2984TIP3    H2 8896   4.215   4.907   3.904
 2985TIP3   OH2 8897   1.995   1.491   0.114
 2985TIP3    H1 8898   1.971   1.583   0.102
 2985TIP3    H2 8899   2.091   1.492   0.119
 2986TIP3   OH2 8900   2.933   5.895   4.224
 2986TIP3    H1 8901   2.981   5.904   4.142
 2986TIP3    H2 8902   2.962   5.968   4.278
 2987TIP3   OH2 8903   6.346   3.792   3.303
 2987TIP3    H1 8904   6.430   3.768   3.266
 2987TIP3    H2 8905   6.289   3.805   3.227
 2988TIP3   OH2 8906   3.612   6.323   1.377
 2988TIP3    H1 8907   3.628   6.320   1.472
 2988TIP3    H2 8908   3.630   6.234   1.347
 2989TIP3   OH2 8909   4.466   2.674   3.775
 2989TIP3    H1 8910   4.414   2.735   3.828
 2989TIP3    H2 8911   4.465   2.711   3.687
 2990TIP3   OH2 8912   2.184   1.823   5.267
 2990TIP3    H1 8913   2.109   1.805   5.210
 2990TIP3    H2 8914   2.151   1.883   5.333
 2991TIP3   OH2 8915   1.284   2.699   6.159
 2991TIP3    H1 8916   1.312   2.644   6.086
 2991TIP3    H2 8917   1.352   2.766   6.165
 2992TIP3   OH2 8918   6.939   4.444   4.563
 2992TIP3    H1 8919   6.879   4.517   4.579
 2992TIP3    H2 8920   7.000   4.477   4.498
 2993TIP3   OH2 8921   4.906   3.248   2.875
 2993TIP3    H1 8922   4.885   3.326   2.823
 2993TIP3    H2 8923   4.924   3.181   2.809
 2994TIP3   OH2 8924   6.815   1.777   5.219
 2994TIP3    H1 8925   6.739   1.719   5.212
 2994TIP3    H2 8926   6.800   1.826   5.300
 2995TIP3   OH2 8927   7.366   4.442   4.106
 2995TIP3    H1 8928   7.362   4.526   4.151
 2995TIP3    H2 8929   7.346   4.377   4.174
 2996TIP3   OH2 8930   5.509   1.277   4.925
 2996TIP3    H1 8931   5.496   1.194   4.971
 2996TIP3    H2 8932   5.440   1.280   4.859
 2997TIP3   OH2 8933   6.999   1.511   1.107
 2997TIP3    H1 8934   7.031   1.580   1.048
 2997TIP3    H2 8935   7.065   1.442   1.100
 2998TIP3   OH2 8936   3.139   4.494   5.153
 2998TIP3    H1 8937   3.113   4.408   5.187
 2998TIP3    H2 8938   3.101   4.557   5.215
 2999TIP3   OH2 8939   6.765   5.047   3.237
 2999TIP3    H1 8940   6.738   5.106   3.167
 2999TIP3    H2 8941   6.779   5.103   3.313
 3000TIP3   OH2 8942   6.243   3.072   0.590
 3000TIP3    H1 8943   6.291   3.138   0.640
 3000TIP3    H2 8944   6.170   3.047   0.647
 3001TIP3   OH2 8945   7.524   6.174   2.613
 3001TIP3    H1 8946   7.500   6.094   2.660
 3001TIP3    H2 8947   7.605   6.203   2.654
 3002TIP3   OH2 8948   1.558   2.844   2.355
 3002TIP3    H1 8949   1.539   2.785   2.282
 3002TIP3    H2 8950   1.651   2.864   2.346
 3003TIP3   OH2 8951   2.981   6.078   1.760
 3003TIP3    H1 8952   3.013   6.059   1.672
 3003TIP3    H2 8953   2.904   6.022   1.770
 3004TIP3   OH2 8954   3.335   1.380   5.899
 3004TIP3    H1 8955   3.291   1.329   5.966
 3004TIP3    H2 8956   3.363   1.460   5.944
 3005TIP3   OH2 8957   1.133   2.898   5.185
 3005TIP3    H1 8958   1.075   2.933   5.116
 3005TIP3    H2 8959   1.099   2.937   5.266
 3006TIP3   OH2 8960   6.643   7.557   1.332
 3006TIP3    H1 8961   6.668   7.490   1.269
 3006TIP3    H2 8962   6.726   7.590   1.366
 3007TIP3   OH2 8963   0.355   1.042   2.752
 3007TIP3    H1 8964   0.266   1.009   2.740
 3007TIP3    H2 8965   0.402   1.012   2.674
 3008TIP3   OH2 8966   3.942   0.806   5.029
 3008TIP3    H1 8967   3.910   0.817   4.940
 3008TIP3    H2 8968   4.038   0.803   5.020
 3009TIP3   OH2 8969   7.570   3.875   0.424
 3009TIP3    H1 8970   7.484   3.916   0.415
 3009TIP3    H2 8971   7.557   3.806   0.488
 3010TIP3   OH2 8972   0.057   1.711   6.298
 3010TIP3    H1 8973   0.148   1.724   6.325
 3010TIP3    H2 8974   0.050   1.617   6.282
 3011TIP3   OH2 8975   4.524   3.405   3.159
 3011TIP3    H1 8976   4.564   3.446   3.083
 3011TIP3    H2 8977   4.591   3.347   3.194
 3012TIP3   OH2 8978   8.144   3.092   5.910
 3012TIP3    H1 8979   8.131   3.159   5.842
 3012TIP3    H2 8980   8.148   3.142   5.992
 3013TIP3   OH2 8981   5.387   7.258   5.456
 3013TIP3    H1 8982   5.472   7.252   5.414
 3013TIP3    H2 8983   5.325   7.269   5.384
 3014TIP3   OH2 8984   4.628   4.603   1.420
 3014TIP3    H1 8985   4.684   4.538   1.461
 3014TIP3    H2 8986   4.584   4.647   1.494
 3015TIP3   OH2 8987   6.792   3.931   6.743
 3015TIP3    H1 8988   6.797   4.004   6.681
 3015TIP3    H2 8989   6.863   3.947   6.805
 3016TIP3   OH2 8990   2.090   2.468   4.466
 3016TIP3    H1 8991   2.114   2.555   4.433
 3016TIP3    H2 8992   2.093   2.477   4.561
 3017TIP3   OH2 8993   5.269   2.227   4.269
 3017TIP3    H1 8994   5.338   2.224   4.203
 3017TIP3    H2 8995   5.189   2.245   4.219
 3018TIP3   OH2 8996   3.927   4.519   1.174
 3018TIP3    H1 8997   4.008   4.514   1.123
 3018TIP3    H2 8998   3.914   4.431   1.208
 3019TIP3   OH2 8999   7.875   2.684   0.056
 3019TIP3    H1 9000   7.829   2.695   0.139
 3019TIP3    H2 9001   7.860   2.593   0.032
 3020TIP3   OH2 9002   2.826   5.887   0.889
 3020TIP3    H1 9003   2.737   5.921   0.900
 3020TIP3    H2 9004   2.814   5.796   0.864
 3021TIP3   OH2 9005   3.448   1.767   0.296
 3021TIP3    H1 9006   3.467   1.780   0.389
 3021TIP3    H2 9007   3.472   1.675   0.280
 3022TIP3   OH2 9008   3.915   5.937   5.721
 3022TIP3    H1 9009   3.951   5.941   5.809
 3022TIP3    H2 9010   3.991   5.950   5.663
 3023TIP3   OH2 9011   2.533   2.938   6.659
 3023TIP3    H1 9012   2.464   2.936   6.593
 3023TIP3    H2 9013   2.490   2.970   6.738
 3024TIP3   OH2 9014   1.833   4.222   3.935
 3024TIP3    H1 9015   1.779   4.253   3.862
 3024TIP3    H2 9016   1.789   4.142   3.965
 3025TIP3   OH2 9017   4.614   7.389   1.610
 3025TIP3    H1 9018   4.628   7.457   1.675
 3025TIP3    H2 9019   4.590   7.436   1.531
 3026TIP3   OH2 9020   3.079   6.165   2.796
 3026TIP3    H1 9021   3.097   6.182   2.888
 3026TIP3    H2 9022   3.038   6.079   2.795
 3027TIP3   OH2 9023   0.060   4.061   6.246
 3027TIP3    H1 9024   0.106   3.998   6.302
 3027TIP3    H2 9025   0.130   4.114   6.208
 3028TIP3   OH2 9026   1.939   6.890   0.340
 3028TIP3    H1 9027   1.943   6.823   0.272
 3028TIP3    H2 9028   1.856   6.875   0.385
 3029TIP3   OH2 9029   1.073   7.428   6.632
 3029TIP3    H1 9030   1.019   7.372   6.688
 3029TIP3    H2 9031   1.031   7.514   6.636
 3030TIP3   OH2 9032   5.279   7.201   0.553
 3030TIP3    H1 9033   5.234   7.116   0.548
 3030TIP3    H2 9034   5.263   7.242   0.468
 3031TIP3   OH2 9035   5.507   2.994   6.229
 3031TIP3    H1 9036   5.428   3.004   6.281
 3031TIP3    H2 9037   5.520   2.899   6.221
 3032TIP3   OH2 9038   5.920   2.119   1.747
 3032TIP3    H1 9039   5.927   2.102   1.841
 3032TIP3    H2 9040   5.831   2.150   1.734
 3033TIP3   OH2 9041   0.277   2.670   3.409
 3033TIP3    H1 9042   0.325   2.591   3.387
 3033TIP3    H2 9043   0.185   2.643   3.410
 3034TIP3   OH2 9044   8.327   0.172   4.567
 3034TIP3    H1 9045   8.288   0.116   4.500
 3034TIP3    H2 9046   8.258   0.233   4.591
 3035TIP3   OH2 9047   0.786   5.832   1.004
 3035TIP3    H1 9048   0.860   5.788   1.045
 3035TIP3    H2 9049   0.709   5.785   1.037
 3036TIP3   OH2 9050   2.847   7.408   1.994
 3036TIP3    H1 9051   2.900   7.480   2.029
 3036TIP3    H2 9052   2.905   7.332   1.995
 3037TIP3   OH2 9053   3.419   6.973   2.380
 3037TIP3    H1 9054   3.369   7.045   2.341
 3037TIP3    H2 9055   3.376   6.957   2.464
 3038TIP3   OH2 9056   5.141   6.946   0.544
 3038TIP3    H1 9057   5.073   6.945   0.611
 3038TIP3    H2 9058   5.097   6.974   0.464
 3039TIP3   OH2 9059   1.380   2.437   6.592
 3039TIP3    H1 9060   1.467   2.399   6.589
 3039TIP3    H2 9061   1.322   2.363   6.608
 3040TIP3   OH2 9062   0.796   4.238   0.633
 3040TIP3    H1 9063   0.862   4.284   0.581
 3040TIP3    H2 9064   0.776   4.298   0.705
 3041TIP3   OH2 9065   1.264   0.910   3.004
 3041TIP3    H1 9066   1.355   0.926   3.029
 3041TIP3    H2 9067   1.213   0.943   3.077
 3042TIP3   OH2 9068   1.524   3.414   5.121
 3042TIP3    H1 9069   1.576   3.345   5.162
 3042TIP3    H2 9070   1.441   3.371   5.100
 3043TIP3   OH2 9071   3.809   5.325   4.550
 3043TIP3    H1 9072   3.769   5.243   4.521
 3043TIP3    H2 9073   3.883   5.338   4.490
 3044TIP3   OH2 9074   0.314   4.322   5.172
 3044TIP3    H1 9075   0.236   4.267   5.179
 3044TIP3    H2 9076   0.376   4.270   5.120
 3045TIP3   OH2 9077   7.238   6.481   0.787
 3045TIP3    H1 9078   7.145   6.489   0.766
 3045TIP3    H2 9079   7.244   6.401   0.840
 3046TIP3   OH2 9080   8.096   3.816   0.646
 3046TIP3    H1 9081   8.184   3.840   0.617
 3046TIP3    H2 9082   8.101   3.817   0.741
 3047TIP3   OH2 9083   4.104   3.790   4.705
 3047TIP3    H1 9084   4.069   3.833   4.783
 3047TIP3    H2 9085   4.197   3.777   4.724
 3048TIP3   OH2 9086   7.727   5.632   5.106
 3048TIP3    H1 9087   7.809   5.655   5.062
 3048TIP3    H2 9088   7.701   5.713   5.151
 3049TIP3   OH2 9089   2.256   5.049   5.163
 3049TIP3    H1 9090   2.337   5.047   5.216
 3049TIP3    H2 9091   2.278   4.999   5.084
 3050TIP3   OH2 9092   6.600   6.181   1.056
 3050TIP3    H1 9093   6.524   6.127   1.078
 3050TIP3    H2 9094   6.656   6.124   1.004
 3051TIP3   OH2 9095   7.995   4.377   2.054
 3051TIP3    H1 9096   8.082   4.337   2.060
 3051TIP3    H2 9097   8.008   4.454   1.999
 3052TIP3   OH2 9098   7.051   1.510   3.552
 3052TIP3    H1 9099   7.134   1.465   3.568
 3052TIP3    H2 9100   7.038   1.565   3.629
 3053TIP3   OH2 9101   4.988   6.935   4.364
 3053TIP3    H1 9102   4.923   6.865   4.368
 3053TIP3    H2 9103   5.066   6.898   4.405
 3054TIP3   OH2 9104   3.592   4.562   1.956
 3054TIP3    H1 9105   3.513   4.542   2.007
 3054TIP3    H2 9106   3.560   4.609   1.879
 3055TIP3   OH2 9107   6.519   6.630   1.342
 3055TIP3    H1 9108   6.539   6.578   1.420
 3055TIP3    H2 9109   6.436   6.673   1.364
 3056TIP3   OH2 9110   5.765   0.201   4.889
 3056TIP3    H1 9111   5.836   0.190   4.826
 3056TIP3    H2 9112   5.779   0.289   4.925
 3057TIP3   OH2 9113   3.910   5.683   1.666
 3057TIP3    H1 9114   3.924   5.760   1.612
 3057TIP3    H2 9115   3.993   5.636   1.666
 3058TIP3   OH2 9116   1.806   1.972   5.649
 3058TIP3    H1 9117   1.784   1.994   5.739
 3058TIP3    H2 9118   1.721   1.963   5.605
 3059TIP3   OH2 9119   0.963   4.881   0.195
 3059TIP3    H1 9120   1.056   4.903   0.188
 3059TIP3    H2 9121   0.919   4.945   0.138
 3060TIP3   OH2 9122   3.055   2.023   6.469
 3060TIP3    H1 9123   3.077   2.004   6.377
 3060TIP3    H2 9124   3.019   1.941   6.502
 3061TIP3   OH2 9125   5.718   6.023   6.715
 3061TIP3    H1 9126   5.688   6.047   6.627
 3061TIP3    H2 9127   5.767   5.942   6.702
 3062TIP3   OH2 9128   4.340   4.020   0.899
 3062TIP3    H1 9129   4.292   4.058   0.825
 3062TIP3    H2 9130   4.287   4.040   0.976
 3063TIP3   OH2 9131   5.782   6.869   2.882
 3063TIP3    H1 9132   5.795   6.894   2.790
 3063TIP3    H2 9133   5.858   6.906   2.928
 3064TIP3   OH2 9134   3.588   4.778   0.028
 3064TIP3    H1 9135   3.645   4.776  -0.049
 3064TIP3    H2 9136   3.641   4.819   0.096
 3065TIP3   OH2 9137   5.787   6.366   1.683
 3065TIP3    H1 9138   5.717   6.330   1.629
 3065TIP3    H2 9139   5.858   6.385   1.621
 3066TIP3   OH2 9140   6.150   2.237   4.352
 3066TIP3    H1 9141   6.086   2.244   4.282
 3066TIP3    H2 9142   6.141   2.319   4.401
 3067TIP3   OH2 9143   1.680   2.605   1.071
 3067TIP3    H1 9144   1.710   2.694   1.087
 3067TIP3    H2 9145   1.590   2.603   1.105
 3068TIP3   OH2 9146   5.999   4.313   6.430
 3068TIP3    H1 9147   5.926   4.313   6.368
 3068TIP3    H2 9148   6.021   4.406   6.440
 3069TIP3   OH2 9149   1.667   7.824   6.503
 3069TIP3    H1 9150   1.677   7.898   6.562
 3069TIP3    H2 9151   1.653   7.749   6.561
 3070TIP3   OH2 9152   7.574   6.308   2.069
 3070TIP3    H1 9153   7.507   6.241   2.055
 3070TIP3    H2 9154   7.524   6.386   2.094
 3071TIP3   OH2 9155   3.566   1.827   2.728
 3071TIP3    H1 9156   3.634   1.872   2.778
 3071TIP3    H2 9157   3.593   1.735   2.727
 3072TIP3   OH2 9158   2.114   4.402   2.671
 3072TIP3    H1 9159   2.174   4.404   2.596
 3072TIP3    H2 9160   2.147   4.330   2.726
 3073TIP3   OH2 9161   6.497   1.611   1.799
 3073TIP3    H1 9162   6.494   1.687   1.741
 3073TIP3    H2 9163   6.581   1.569   1.780
 3074TIP3   OH2 9164   2.643   6.935   4.808
 3074TIP3    H1 9165   2.677   6.890   4.885
 3074TIP3    H2 9166   2.646   7.028   4.831
 3075TIP3   OH2 9167   4.054   5.613   0.673
 3075TIP3    H1 9168   4.051   5.517   0.674
 3075TIP3    H2 9169   4.112   5.635   0.600
 3076TIP3   OH2 9170   0.259   7.699   4.519
 3076TIP3    H1 9171   0.224   7.768   4.575
 3076TIP3    H2 9172   0.270   7.624   4.577
 3077TIP3   OH2 9173   4.694   0.416   4.009
 3077TIP3    H1 9174   4.759   0.361   4.053
 3077TIP3    H2 9175   4.700   0.391   3.917
 3078TIP3   OH2 9176   7.299   2.740   4.442
 3078TIP3    H1 9177   7.363   2.677   4.409
 3078TIP3    H2 9178   7.317   2.746   4.536
 3079TIP3   OH2 9179   2.728   5.433   0.318
 3079TIP3    H1 9180   2.738   5.418   0.224
 3079TIP3    H2 9181   2.783   5.367   0.360
 3080TIP3   OH2 9182   5.557   5.561   4.463
 3080TIP3    H1 9183   5.468   5.534   4.489
 3080TIP3    H2 9184   5.570   5.645   4.506
 3081TIP3   OH2 9185  -0.004   0.919   3.430
 3081TIP3    H1 9186   0.086   0.889   3.431
 3081TIP3    H2 9187  -0.032   0.917   3.522
 3082TIP3   OH2 9188   6.675   0.837   4.184
 3082TIP3    H1 9189   6.600   0.816   4.129
 3082TIP3    H2 9190   6.720   0.754   4.198
 3083TIP3   OH2 9191   6.354   5.355   2.425
 3083TIP3    H1 9192   6.438   5.377   2.466
 3083TIP3    H2 9193   6.374   5.354   2.331
 3084TIP3   OH2 9194   4.626   5.736   1.229
 3084TIP3    H1 9195   4.660   5.808   1.282
 3084TIP3    H2 9196   4.533   5.734   1.248
 3085TIP3   OH2 9197   0.152   4.148   0.613
 3085TIP3    H1 9198   0.233   4.097   0.618
 3085TIP3    H2 9199   0.170   4.227   0.664
 3086TIP3   OH2 9200   2.590   7.464   4.357
 3086TIP3    H1 9201   2.526   7.394   4.347
 3086TIP3    H2 9202   2.543   7.533   4.404
 3087TIP3   OH2 9203   1.653   7.193   1.571
 3087TIP3    H1 9204   1.654   7.153   1.484
 3087TIP3    H2 9205   1.744   7.218   1.587
 3088TIP3   OH2 9206   5.255   5.621   2.357
 3088TIP3    H1 9207   5.255   5.660   2.270
 3088TIP3    H2 9208   5.215   5.535   2.344
 3089TIP3   OH2 9209   0.918   0.853   0.744
 3089TIP3    H1 9210   0.851   0.920   0.749
 3089TIP3    H2 9211   0.987   0.891   0.690
 3090TIP3   OH2 9212   0.594   1.192   0.080
 3090TIP3    H1 9213   0.519   1.160   0.030
 3090TIP3    H2 9214   0.630   1.114   0.122
 3091TIP3   OH2 9215   1.447   3.552   1.406
 3091TIP3    H1 9216   1.371   3.596   1.444
 3091TIP3    H2 9217   1.443   3.463   1.440
 3092TIP3   OH2 9218   1.600   6.619   6.045
 3092TIP3    H1 9219   1.530   6.613   6.109
 3092TIP3    H2 9220   1.671   6.664   6.091
 3093TIP3   OH2 9221   1.666   2.774   4.739
 3093TIP3    H1 9222   1.692   2.793   4.830
 3093TIP3    H2 9223   1.747   2.781   4.689
 3094TIP3   OH2 9224   1.549   1.459   2.692
 3094TIP3    H1 9225   1.459   1.473   2.663
 3094TIP3    H2 9226   1.593   1.423   2.614
 3095TIP3   OH2 9227   0.198   4.965   3.444
 3095TIP3    H1 9228   0.192   4.881   3.398
 3095TIP3    H2 9229   0.162   5.029   3.382
 3096TIP3   OH2 9230   6.463   7.419   6.525
 3096TIP3    H1 9231   6.458   7.397   6.432
 3096TIP3    H2 9232   6.372   7.431   6.551
 3097TIP3   OH2 9233   4.478   0.923   2.378
 3097TIP3    H1 9234   4.407   0.867   2.346
 3097TIP3    H2 9235   4.457   0.939   2.470
 3098TIP3   OH2 9236   4.605   5.034   0.108
 3098TIP3    H1 9237   4.655   5.069   0.181
 3098TIP3    H2 9238   4.609   5.102   0.041
 3099TIP3   OH2 9239   6.244   3.564   3.628
 3099TIP3    H1 9240   6.288   3.625   3.686
 3099TIP3    H2 9241   6.223   3.488   3.683
 3100TIP3   OH2 9242   5.845   6.434   5.999
 3100TIP3    H1 9243   5.939   6.448   6.002
 3100TIP3    H2 9244   5.833   6.361   5.938
 3101TIP3   OH2 9245   4.619   2.026   4.408
 3101TIP3    H1 9246   4.695   2.012   4.464
 3101TIP3    H2 9247   4.589   1.938   4.386
 3102TIP3   OH2 9248   3.541   0.741   0.440
 3102TIP3    H1 9249   3.496   0.683   0.502
 3102TIP3    H2 9250   3.585   0.681   0.380
 3103TIP3   OH2 9251   2.942   5.205   2.362
 3103TIP3    H1 9252   2.961   5.232   2.272
 3103TIP3    H2 9253   2.953   5.110   2.362
 3104TIP3   OH2 9254   5.124   4.723   4.147
 3104TIP3    H1 9255   5.219   4.717   4.147
 3104TIP3    H2 9256   5.104   4.794   4.086
 3105TIP3   OH2 9257   3.913   5.076   6.329
 3105TIP3    H1 9258   3.988   5.118   6.371
 3105TIP3    H2 9259   3.910   4.988   6.366
 3106TIP3   OH2 9260   3.720   5.142   0.339
 3106TIP3    H1 9261   3.766   5.066   0.375
 3106TIP3    H2 9262   3.731   5.210   0.405
 3107TIP3   OH2 9263   1.921   2.928   2.027
 3107TIP3    H1 9264   1.831   2.943   1.998
 3107TIP3    H2 9265   1.933   2.987   2.102
 3108TIP3   OH2 9266   3.218   6.468   4.540
 3108TIP3    H1 9267   3.161   6.475   4.616
 3108TIP3    H2 9268   3.291   6.528   4.559
 3109TIP3   OH2 9269   3.607   1.772   5.456
 3109TIP3    H1 9270   3.579   1.802   5.542
 3109TIP3    H2 9271   3.556   1.826   5.394
 3110TIP3   OH2 9272   1.311   2.962   1.224
 3110TIP3    H1 9273   1.225   2.970   1.183
 3110TIP3    H2 9274   1.345   3.051   1.226
 3111TIP3   OH2 9275   0.427   4.885   2.825
 3111TIP3    H1 9276   0.354   4.905   2.883
 3111TIP3    H2 9277   0.501   4.872   2.884
 3112TIP3   OH2 9278   4.408   5.465   6.067
 3112TIP3    H1 9279   4.453   5.389   6.104
 3112TIP3    H2 9280   4.415   5.454   5.973
 3113TIP3   OH2 9281   7.316   1.776   3.268
 3113TIP3    H1 9282   7.373   1.707   3.235
 3113TIP3    H2 9283   7.246   1.783   3.202
 3114TIP3   OH2 9284   4.506   0.657   0.169
 3114TIP3    H1 9285   4.575   0.598   0.139
 3114TIP3    H2 9286   4.470   0.615   0.247
 3115TIP3   OH2 9287   3.779   6.993   3.132
 3115TIP3    H1 9288   3.815   7.000   3.044
 3115TIP3    H2 9289   3.767   7.084   3.160
 3116TIP3   OH2 9290   3.076   1.040   2.605
 3116TIP3    H1 9291   3.072   1.064   2.512
 3116TIP3    H2 9292   3.146   1.095   2.641
 3117TIP3   OH2 9293   4.021   0.117   5.118
 3117TIP3    H1 9294   4.075   0.187   5.081
 3117TIP3    H2 9295   3.931   0.149   5.109
 3118TIP3   OH2 9296   1.247   0.954   3.857
 3118TIP3    H1 9297   1.186   0.881   3.865
 3118TIP3    H2 9298   1.293   0.939   3.774
 3119TIP3   OH2 9299   8.102   1.534   5.403
 3119TIP3    H1 9300   8.111   1.627   5.383
 3119TIP3    H2 9301   8.027   1.505   5.352
 3120TIP3   OH2 9302   3.452   5.516   2.849
 3120TIP3    H1 9303   3.363   5.548   2.863
 3120TIP3    H2 9304   3.475   5.473   2.931
 3121TIP3   OH2 9305   7.870   1.608   2.359
 3121TIP3    H1 9306   7.819   1.528   2.368
 3121TIP3    H2 9307   7.823   1.659   2.293
 3122TIP3   OH2 9308   8.073   6.397   5.838
 3122TIP3    H1 9309   8.077   6.377   5.932
 3122TIP3    H2 9310   7.997   6.455   5.829
 3123TIP3   OH2 9311   0.392   4.644   1.766
 3123TIP3    H1 9312   0.392   4.620   1.673
 3123TIP3    H2 9313   0.327   4.586   1.805
 3124TIP3   OH2 9314   7.703   5.609   5.737
 3124TIP3    H1 9315   7.781   5.567   5.700
 3124TIP3    H2 9316   7.703   5.697   5.699
 3125TIP3   OH2 9317   5.315   4.061   2.501
 3125TIP3    H1 9318   5.345   4.147   2.471
 3125TIP3    H2 9319   5.391   4.004   2.492
 3126TIP3   OH2 9320   2.762   0.407   3.458
 3126TIP3    H1 9321   2.789   0.437   3.371
 3126TIP3    H2 9322   2.843   0.388   3.504
 3127TIP3   OH2 9323   6.134   4.149   1.660
 3127TIP3    H1 9324   6.128   4.126   1.753
 3127TIP3    H2 9325   6.066   4.215   1.648
 3128TIP3   OH2 9326   1.458   1.011   3.174
 3128TIP3    H1 9327   1.514   1.088   3.175
 3128TIP3    H2 9328   1.508   0.944   3.220
 3129TIP3   OH2 9329   0.134   4.402   0.718
 3129TIP3    H1 9330   0.134   4.449   0.802
 3129TIP3    H2 9331   0.120   4.470   0.652
 3130TIP3   OH2 9332   0.674   0.646   5.213
 3130TIP3    H1 9333   0.610   0.659   5.283
 3130TIP3    H2 9334   0.668   0.553   5.192
 3131TIP3   OH2 9335   6.433   7.310   1.778
 3131TIP3    H1 9336   6.375   7.367   1.827
 3131TIP3    H2 9337   6.418   7.222   1.814
 3132TIP3   OH2 9338   1.932   2.099   4.187
 3132TIP3    H1 9339   1.874   2.168   4.219
 3132TIP3    H2 9340   1.931   2.033   4.255
 3133TIP3   OH2 9341   1.051   2.119   6.090
 3133TIP3    H1 9342   1.060   2.056   6.018
 3133TIP3    H2 9343   1.094   2.198   6.058
 3134TIP3   OH2 9344   2.353   6.425   2.918
 3134TIP3    H1 9345   2.385   6.488   2.982
 3134TIP3    H2 9346   2.385   6.340   2.950
 3135TIP3   OH2 9347   5.338   7.315   4.249
 3135TIP3    H1 9348   5.366   7.389   4.304
 3135TIP3    H2 9349   5.252   7.291   4.283
 3136TIP3   OH2 9350   6.353   3.629   1.503
 3136TIP3    H1 9351   6.390   3.673   1.426
 3136TIP3    H2 9352   6.263   3.609   1.478
 3137TIP3   OH2 9353   0.247   3.631   3.276
 3137TIP3    H1 9354   0.164   3.669   3.249
 3137TIP3    H2 9355   0.312   3.671   3.218
 3138TIP3   OH2 9356   5.829   0.966   6.276
 3138TIP3    H1 9357   5.923   0.958   6.291
 3138TIP3    H2 9358   5.799   0.875   6.265
 3139TIP3   OH2 9359   3.805   3.218   1.088
 3139TIP3    H1 9360   3.726   3.165   1.099
 3139TIP3    H2 9361   3.809   3.235   0.994
 3140TIP3   OH2 9362   1.051   2.807   2.616
 3140TIP3    H1 9363   0.974   2.797   2.560
 3140TIP3    H2 9364   1.108   2.868   2.569
 3141TIP3   OH2 9365   6.622   1.200   3.389
 3141TIP3    H1 9366   6.540   1.244   3.409
 3141TIP3    H2 9367   6.602   1.145   3.313
 3142TIP3   OH2 9368   5.176   4.228   0.716
 3142TIP3    H1 9369   5.186   4.197   0.626
 3142TIP3    H2 9370   5.227   4.166   0.768
 3143TIP3   OH2 9371   6.125   4.195   2.316
 3143TIP3    H1 9372   6.206   4.192   2.266
 3143TIP3    H2 9373   6.076   4.117   2.289
 3144TIP3   OH2 9374   2.070   2.718   0.346
 3144TIP3    H1 9375   2.094   2.694   0.257
 3144TIP3    H2 9376   2.069   2.635   0.394
 3145TIP3   OH2 9377   7.893   1.457   4.558
 3145TIP3    H1 9378   7.883   1.542   4.603
 3145TIP3    H2 9379   7.971   1.467   4.504
 3146TIP3   OH2 9380   2.792   5.756   4.005
 3146TIP3    H1 9381   2.875   5.774   4.048
 3146TIP3    H2 9382   2.747   5.695   4.064
 3147TIP3   OH2 9383   1.585   7.429   5.179
 3147TIP3    H1 9384   1.585   7.521   5.202
 3147TIP3    H2 9385   1.666   7.417   5.129
 3148TIP3   OH2 9386   5.153   0.397   3.126
 3148TIP3    H1 9387   5.188   0.308   3.125
 3148TIP3    H2 9388   5.148   0.422   3.034
 3149TIP3   OH2 9389   7.902   3.321   3.663
 3149TIP3    H1 9390   7.839   3.256   3.695
 3149TIP3    H2 9391   7.904   3.388   3.732
 3150TIP3   OH2 9392   1.336   3.212   5.029
 3150TIP3    H1 9393   1.290   3.237   4.948
 3150TIP3    H2 9394   1.389   3.137   5.004
 3151TIP3   OH2 9395   0.633   2.250   1.026
 3151TIP3    H1 9396   0.716   2.278   0.987
 3151TIP3    H2 9397   0.568   2.267   0.957
 3152TIP3   OH2 9398   1.136   1.465   0.863
 3152TIP3    H1 9399   1.163   1.552   0.833
 3152TIP3    H2 9400   1.175   1.405   0.800
 3153TIP3   OH2 9401   6.922   6.771   3.643
 3153TIP3    H1 9402   6.908   6.849   3.591
 3153TIP3    H2 9403   6.834   6.744   3.670
 3154TIP3   OH2 9404   4.213   2.377   5.168
 3154TIP3    H1 9405   4.266   2.359   5.090
 3154TIP3    H2 9406   4.133   2.327   5.154
 3155TIP3   OH2 9407   3.344   1.653   1.443
 3155TIP3    H1 9408   3.412   1.675   1.507
 3155TIP3    H2 9409   3.335   1.733   1.391
 3156TIP3   OH2 9410   4.458   3.823   1.391
 3156TIP3    H1 9411   4.388   3.791   1.335
 3156TIP3    H2 9412   4.512   3.746   1.408
 3157TIP3   OH2 9413   7.267   5.884   6.319
 3157TIP3    H1 9414   7.197   5.824   6.346
 3157TIP3    H2 9415   7.346   5.849   6.362
 3158TIP3   OH2 9416   4.654   4.572   2.082
 3158TIP3    H1 9417   4.607   4.572   1.998
 3158TIP3    H2 9418   4.611   4.504   2.133
 3159TIP3   OH2 9419   6.131   7.626   4.804
 3159TIP3    H1 9420   6.044   7.596   4.829
 3159TIP3    H2 9421   6.163   7.560   4.743
 3160TIP3   OH2 9422   1.570   3.752   4.527
 3160TIP3    H1 9423   1.565   3.792   4.614
 3160TIP3    H2 9424   1.652   3.786   4.490
 3161TIP3   OH2 9425   7.279   3.951   1.058
 3161TIP3    H1 9426   7.224   3.874   1.069
 3161TIP3    H2 9427   7.365   3.923   1.090
 3162TIP3   OH2 9428   6.230   2.848   0.407
 3162TIP3    H1 9429   6.226   2.813   0.495
 3162TIP3    H2 9430   6.189   2.935   0.413
 3163TIP3   OH2 9431   3.254   1.460   4.309
 3163TIP3    H1 9432   3.199   1.459   4.387
 3163TIP3    H2 9433   3.327   1.401   4.330
 3164TIP3   OH2 9434   1.711   2.561   3.388
 3164TIP3    H1 9435   1.774   2.489   3.395
 3164TIP3    H2 9436   1.690   2.583   3.478
 3165TIP3   OH2 9437   5.916   0.121   1.539
 3165TIP3    H1 9438   5.919   0.122   1.635
 3165TIP3    H2 9439   5.941   0.032   1.515
 3166TIP3   OH2 9440   0.304   6.510   0.212
 3166TIP3    H1 9441   0.216   6.541   0.236
 3166TIP3    H2 9442   0.337   6.576   0.151
 3167TIP3   OH2 9443   5.935   3.155   6.076
 3167TIP3    H1 9444   5.842   3.141   6.060
 3167TIP3    H2 9445   5.965   3.203   5.999
 3168TIP3   OH2 9446   4.426   5.177   6.647
 3168TIP3    H1 9447   4.346   5.124   6.649
 3168TIP3    H2 9448   4.430   5.219   6.733
 3169TIP3   OH2 9449   4.011   3.828   5.186
 3169TIP3    H1 9450   3.934   3.839   5.242
 3169TIP3    H2 9451   4.053   3.749   5.219
 3170TIP3   OH2 9452   3.761   0.984   0.061
 3170TIP3    H1 9453   3.812   0.928   0.120
 3170TIP3    H2 9454   3.670   0.966   0.086
 3171TIP3   OH2 9455   2.416   3.512   6.237
 3171TIP3    H1 9456   2.448   3.434   6.282
 3171TIP3    H2 9457   2.480   3.580   6.257
 3172TIP3   OH2 9458   7.705   3.303   6.400
 3172TIP3    H1 9459   7.655   3.294   6.481
 3172TIP3    H2 9460   7.641   3.290   6.330
 3173TIP3   OH2 9461   1.933   3.834   0.793
 3173TIP3    H1 9462   1.847   3.824   0.835
 3173TIP3    H2 9463   1.915   3.825   0.700
 3174TIP3   OH2 9464   5.897   5.248   1.493
 3174TIP3    H1 9465   5.947   5.308   1.548
 3174TIP3    H2 9466   5.963   5.187   1.459
 3175TIP3   OH2 9467   2.302   2.189   0.395
 3175TIP3    H1 9468   2.265   2.217   0.478
 3175TIP3    H2 9469   2.252   2.112   0.370
 3176TIP3   OH2 9470   7.377   4.004   3.282
 3176TIP3    H1 9471   7.430   4.015   3.361
 3176TIP3    H2 9472   7.397   4.082   3.230
 3177TIP3   OH2 9473   3.066   0.108   4.987
 3177TIP3    H1 9474   3.033   0.061   5.064
 3177TIP3    H2 9475   3.141   0.158   5.020
 3178TIP3   OH2 9476   1.680   3.861   3.590
 3178TIP3    H1 9477   1.765   3.829   3.560
 3178TIP3    H2 9478   1.617   3.805   3.546
 3179TIP3   OH2 9479   0.657   6.632   4.161
 3179TIP3    H1 9480   0.708   6.609   4.239
 3179TIP3    H2 9481   0.577   6.671   4.195
 3180TIP3   OH2 9482   5.685   0.210   2.837
 3180TIP3    H1 9483   5.705   0.247   2.923
 3180TIP3    H2 9484   5.694   0.283   2.776
 3181TIP3   OH2 9485   5.289   3.453   4.252
 3181TIP3    H1 9486   5.341   3.483   4.326
 3181TIP3    H2 9487   5.299   3.522   4.186
 3182TIP3   OH2 9488   6.733   2.194   1.127
 3182TIP3    H1 9489   6.660   2.154   1.080
 3182TIP3    H2 9490   6.697   2.219   1.212
 3183TIP3   OH2 9491   4.552   0.061   1.924
 3183TIP3    H1 9492   4.607   0.012   1.985
 3183TIP3    H2 9493   4.532  -0.002   1.854
 3184TIP3   OH2 9494   1.105   6.665   1.971
 3184TIP3    H1 9495   1.168   6.684   1.901
 3184TIP3    H2 9496   1.098   6.570   1.972
 3185TIP3   OH2 9497   0.345   4.424   2.994
 3185TIP3    H1 9498   0.305   4.510   3.009
 3185TIP3    H2 9499   0.360   4.421   2.899
 3186TIP3   OH2 9500   6.561   2.861   2.081
 3186TIP3    H1 9501   6.498   2.927   2.111
 3186TIP3    H2 9502   6.583   2.888   1.992
 3187TIP3   OH2 9503   0.342   7.671   6.690
 3187TIP3    H1 9504   0.429   7.689   6.727
 3187TIP3    H2 9505   0.320   7.584   6.723
 3188TIP3   OH2 9506   5.254   1.492   4.889
 3188TIP3    H1 9507   5.322   1.545   4.848
 3188TIP3    H2 9508   5.249   1.414   4.835
 3189TIP3   OH2 9509   0.255   6.403   6.040
 3189TIP3    H1 9510   0.171   6.370   6.070
 3189TIP3    H2 9511   0.310   6.404   6.118
 3190TIP3   OH2 9512   0.179   0.481   3.823
 3190TIP3    H1 9513   0.271   0.474   3.797
 3190TIP3    H2 9514   0.179   0.454   3.916
 3191TIP3   OH2 9515   3.088   2.616   0.226
 3191TIP3    H1 9516   3.136   2.699   0.222
 3191TIP3    H2 9517   3.085   2.586   0.135
 3192TIP3   OH2 9518   6.893   1.200   3.844
 3192TIP3    H1 9519   6.962   1.181   3.908
 3192TIP3    H2 9520   6.884   1.120   3.793
 3193TIP3   OH2 9521   2.062   1.485   1.817
 3193TIP3    H1 9522   2.135   1.455   1.873
 3193TIP3    H2 9523   1.986   1.481   1.874
 3194TIP3   OH2 9524   3.699   3.800   2.506
 3194TIP3    H1 9525   3.696   3.749   2.426
 3194TIP3    H2 9526   3.638   3.755   2.566
 3195TIP3   OH2 9527   2.852   3.779   6.765
 3195TIP3    H1 9528   2.947   3.783   6.777
 3195TIP3    H2 9529   2.823   3.870   6.776
 3196TIP3   OH2 9530   1.998   3.127   2.220
 3196TIP3    H1 9531   2.090   3.153   2.223
 3196TIP3    H2 9532   1.972   3.115   2.311
 3197TIP3   OH2 9533   6.994   4.220   4.736
 3197TIP3    H1 9534   7.039   4.260   4.810
 3197TIP3    H2 9535   6.982   4.292   4.674
 3198TIP3   OH2 9536   0.772   6.465   4.868
 3198TIP3    H1 9537   0.848   6.522   4.876
 3198TIP3    H2 9538   0.705   6.507   4.921
 3199TIP3   OH2 9539   0.805   2.887   4.342
 3199TIP3    H1 9540   0.745   2.815   4.320
 3199TIP3    H2 9541   0.776   2.917   4.428
 3200TIP3   OH2 9542   1.028   3.657   1.941
 3200TIP3    H1 9543   1.076   3.738   1.929
 3200TIP3    H2 9544   1.019   3.649   2.036
 3201TIP3   OH2 9545   8.208   6.048   0.883
 3201TIP3    H1 9546   8.124   6.016   0.851
 3201TIP3    H2 9547   8.186   6.099   0.961
 3202TIP3   OH2 9548   4.751   2.102   0.659
 3202TIP3    H1 9549   4.671   2.069   0.700
 3202TIP3    H2 9550   4.822   2.071   0.715
 3203TIP3   OH2 9551   2.144   2.256   1.582
 3203TIP3    H1 9552   2.172   2.173   1.620
 3203TIP3    H2 9553   2.173   2.252   1.491
 3204TIP3   OH2 9554   6.180   3.833   4.691
 3204TIP3    H1 9555   6.274   3.818   4.695
 3204TIP3    H2 9556   6.164   3.862   4.601
 3205TIP3   OH2 9557   7.250   2.671   6.285
 3205TIP3    H1 9558   7.160   2.698   6.267
 3205TIP3    H2 9559   7.295   2.752   6.308
 3206TIP3   OH2 9560   8.140   3.333   1.109
 3206TIP3    H1 9561   8.175   3.315   1.022
 3206TIP3    H2 9562   8.063   3.388   1.093
 3207TIP3   OH2 9563   7.378   5.433   1.993
 3207TIP3    H1 9564   7.386   5.467   1.903
 3207TIP3    H2 9565   7.319   5.494   2.037
 3208TIP3   OH2 9566   2.589   1.108   5.948
 3208TIP3    H1 9567   2.637   1.191   5.941
 3208TIP3    H2 9568   2.514   1.128   6.004
 3209TIP3   OH2 9569   8.273   1.159   1.078
 3209TIP3    H1 9570   8.358   1.195   1.053
 3209TIP3    H2 9571   8.211   1.200   1.018
 3210TIP3   OH2 9572   5.272   3.985   2.785
 3210TIP3    H1 9573   5.282   4.014   2.695
 3210TIP3    H2 9574   5.250   4.065   2.834
 3211TIP3   OH2 9575   4.438   5.697   6.229
 3211TIP3    H1 9576   4.531   5.698   6.250
 3211TIP3    H2 9577   4.429   5.636   6.156
 3212TIP3   OH2 9578   0.695   0.243   2.002
 3212TIP3    H1 9579   0.681   0.236   2.096
 3212TIP3    H2 9580   0.631   0.183   1.964
 3213TIP3   OH2 9581   8.283   3.151   5.174
 3213TIP3    H1 9582   8.263   3.244   5.179
 3213TIP3    H2 9583   8.210   3.112   5.126
 3214TIP3   OH2 9584   0.676   7.105   1.181
 3214TIP3    H1 9585   0.655   7.012   1.180
 3214TIP3    H2 9586   0.752   7.114   1.124
 3215TIP3   OH2 9587   5.292   0.975   0.315
 3215TIP3    H1 9588   5.343   0.940   0.242
 3215TIP3    H2 9589   5.250   1.053   0.279
 3216TIP3   OH2 9590   8.205   6.015   6.537
 3216TIP3    H1 9591   8.136   6.079   6.519
 3216TIP3    H2 9592   8.256   6.012   6.455
 3217TIP3   OH2 9593   3.261   4.923   6.409
 3217TIP3    H1 9594   3.208   4.876   6.474
 3217TIP3    H2 9595   3.332   4.863   6.389
 3218TIP3   OH2 9596   1.042   7.735   4.020
 3218TIP3    H1 9597   0.981   7.666   4.046
 3218TIP3    H2 9598   1.121   7.719   4.072
 3219TIP3   OH2 9599   7.110   7.702   3.239
 3219TIP3    H1 9600   7.037   7.733   3.292
 3219TIP3    H2 9601   7.141   7.780   3.193
 3220TIP3   OH2 9602   3.198   0.897   3.452
 3220TIP3    H1 9603   3.195   0.978   3.400
 3220TIP3    H2 9604   3.287   0.865   3.442
 3221TIP3   OH2 9605   2.498   2.576   2.261
 3221TIP3    H1 9606   2.539   2.569   2.175
 3221TIP3    H2 9607   2.472   2.486   2.283
 3222TIP3   OH2 9608   4.492   1.098   1.076
 3222TIP3    H1 9609   4.550   1.172   1.091
 3222TIP3    H2 9610   4.502   1.043   1.153
 3223TIP3   OH2 9611   7.406   2.247   1.405
 3223TIP3    H1 9612   7.432   2.333   1.439
 3223TIP3    H2 9613   7.456   2.237   1.324
 3224TIP3   OH2 9614   3.319   7.708   2.288
 3224TIP3    H1 9615   3.314   7.619   2.322
 3224TIP3    H2 9616   3.238   7.750   2.316
 3225TIP3   OH2 9617   8.119   4.759   1.103
 3225TIP3    H1 9618   8.142   4.670   1.132
 3225TIP3    H2 9619   8.093   4.804   1.184
 3226TIP3   OH2 9620   5.599   1.284   0.377
 3226TIP3    H1 9621   5.694   1.299   0.375
 3226TIP3    H2 9622   5.561   1.364   0.342
 3227TIP3   OH2 9623   2.464   1.072   1.432
 3227TIP3    H1 9624   2.521   1.147   1.414
 3227TIP3    H2 9625   2.451   1.031   1.346
 3228TIP3   OH2 9626   1.184   1.202   3.630
 3228TIP3    H1 9627   1.244   1.172   3.697
 3228TIP3    H2 9628   1.098   1.167   3.657
 3229TIP3   OH2 9629   4.149   7.402   1.077
 3229TIP3    H1 9630   4.174   7.382   0.986
 3229TIP3    H2 9631   4.190   7.486   1.095
 3230TIP3   OH2 9632   1.090   7.438   2.554
 3230TIP3    H1 9633   1.127   7.470   2.636
 3230TIP3    H2 9634   1.057   7.516   2.509
 3231TIP3   OH2 9635   2.318   7.723   1.798
 3231TIP3    H1 9636   2.381   7.780   1.842
 3231TIP3    H2 9637   2.233   7.763   1.815
 3232TIP3   OH2 9638   2.479   4.367   2.642
 3232TIP3    H1 9639   2.430   4.371   2.560
 3232TIP3    H2 9640   2.567   4.338   2.617
 3233TIP3   OH2 9641   6.177   0.666   3.514
 3233TIP3    H1 9642   6.256   0.632   3.472
 3233TIP3    H2 9643   6.145   0.592   3.566
 3234TIP3   OH2 9644   3.161   4.129   4.702
 3234TIP3    H1 9645   3.127   4.187   4.634
 3234TIP3    H2 9646   3.101   4.142   4.776
 3235TIP3   OH2 9647   5.630   3.985   4.486
 3235TIP3    H1 9648   5.594   4.067   4.452
 3235TIP3    H2 9649   5.715   4.009   4.523
 3236TIP3   OH2 9650   4.107   0.289   4.628
 3236TIP3    H1 9651   4.163   0.217   4.659
 3236TIP3    H2 9652   4.143   0.314   4.543
 3237TIP3   OH2 9653   5.915   7.402   6.657
 3237TIP3    H1 9654   5.880   7.320   6.691
 3237TIP3    H2 9655   5.915   7.461   6.732
 3238TIP3   OH2 9656   3.385   3.966   1.181
 3238TIP3    H1 9657   3.443   3.974   1.257
 3238TIP3    H2 9658   3.338   4.050   1.177
 3239TIP3   OH2 9659   7.089   5.653   3.877
 3239TIP3    H1 9660   7.035   5.599   3.935
 3239TIP3    H2 9661   7.060   5.630   3.789
 3240TIP3   OH2 9662   1.956   1.955   1.524
 3240TIP3    H1 9663   2.047   1.925   1.525
 3240TIP3    H2 9664   1.947   2.003   1.442
 3241TIP3   OH2 9665   3.499   7.791   0.472
 3241TIP3    H1 9666   3.446   7.839   0.535
 3241TIP3    H2 9667   3.457   7.705   0.466
 3242TIP3   OH2 9668   0.473   3.250   4.926
 3242TIP3    H1 9669   0.565   3.264   4.948
 3242TIP3    H2 9670   0.426   3.322   4.969
 3243TIP3   OH2 9671   1.063   1.868   5.930
 3243TIP3    H1 9672   1.066   1.933   5.860
 3243TIP3    H2 9673   1.047   1.785   5.884
 3244TIP3   OH2 9674   5.050   1.523   5.154
 3244TIP3    H1 9675   5.087   1.589   5.095
 3244TIP3    H2 9676   5.002   1.574   5.219
 3245TIP3   OH2 9677   0.701   1.287   6.001
 3245TIP3    H1 9678   0.630   1.227   5.976
 3245TIP3    H2 9679   0.657   1.372   6.010
 3246TIP3   OH2 9680   7.228   0.224   1.292
 3246TIP3    H1 9681   7.197   0.306   1.330
 3246TIP3    H2 9682   7.259   0.248   1.204
 3247TIP3   OH2 9683   4.751   7.854   5.521
 3247TIP3    H1 9684   4.768   7.777   5.467
 3247TIP3    H2 9685   4.661   7.841   5.553
 3248TIP3   OH2 9686   5.204   4.336   6.131
 3248TIP3    H1 9687   5.186   4.340   6.224
 3248TIP3    H2 9688   5.118   4.326   6.090
 3249TIP3   OH2 9689   8.165   2.243   0.338
 3249TIP3    H1 9690   8.170   2.208   0.249
 3249TIP3    H2 9691   8.203   2.331   0.331
 3250TIP3   OH2 9692   1.826   7.105   6.207
 3250TIP3    H1 9693   1.913   7.064   6.214
 3250TIP3    H2 9694   1.809   7.140   6.294
 3251TIP3   OH2 9695   0.509   2.914   5.585
 3251TIP3    H1 9696   0.442   2.946   5.644
 3251TIP3    H2 9697   0.518   2.982   5.519
 3252TIP3   OH2 9698   1.756   4.769   0.863
 3252TIP3    H1 9699   1.777   4.694   0.919
 3252TIP3    H2 9700   1.671   4.799   0.893
 3253TIP3   OH2 9701   7.742   1.302   5.125
 3253TIP3    H1 9702   7.647   1.286   5.119
 3253TIP3    H2 9703   7.774   1.284   5.036
 3254TIP3   OH2 9704   3.201   5.522   0.013
 3254TIP3    H1 9705   3.290   5.521  -0.023
 3254TIP3    H2 9706   3.192   5.437   0.057
 3255TIP3   OH2 9707   6.581   7.022   5.116
 3255TIP3    H1 9708   6.531   6.951   5.077
 3255TIP3    H2 9709   6.516   7.081   5.153
 3256TIP3   OH2 9710   7.109   3.628   5.013
 3256TIP3    H1 9711   7.074   3.548   4.974
 3256TIP3    H2 9712   7.173   3.597   5.077
 3257TIP3   OH2 9713   7.309   3.536   5.514
 3257TIP3    H1 9714   7.394   3.491   5.513
 3257TIP3    H2 9715   7.284   3.542   5.422
 3258TIP3   OH2 9716   7.383   2.688   0.403
 3258TIP3    H1 9717   7.440   2.765   0.404
 3258TIP3    H2 9718   7.442   2.615   0.381
 3259TIP3   OH2 9719   7.278   1.267   4.045
 3259TIP3    H1 9720   7.235   1.184   4.022
 3259TIP3    H2 9721   7.288   1.262   4.140
 3260TIP3   OH2 9722   3.862   7.738   3.396
 3260TIP3    H1 9723   3.837   7.684   3.470
 3260TIP3    H2 9724   3.779   7.768   3.360
 3261TIP3   OH2 9725   5.043   2.610   6.386
 3261TIP3    H1 9726   5.046   2.615   6.481
 3261TIP3    H2 9727   4.964   2.658   6.361
 3262TIP3   OH2 9728   0.919   1.392   4.156
 3262TIP3    H1 9729   0.919   1.382   4.251
 3262TIP3    H2 9730   0.834   1.359   4.129
 3263TIP3   OH2 9731   3.097   5.844   0.842
 3263TIP3    H1 9732   3.161   5.866   0.909
 3263TIP3    H2 9733   3.013   5.873   0.878
 3264TIP3   OH2 9734   1.404   0.990   4.693
 3264TIP3    H1 9735   1.394   0.934   4.770
 3264TIP3    H2 9736   1.317   1.027   4.678
 3265TIP3   OH2 9737   1.363   2.506   1.452
 3265TIP3    H1 9738   1.443   2.464   1.483
 3265TIP3    H2 9739   1.380   2.527   1.360
 3266TIP3   OH2 9740   8.140   7.130   0.153
 3266TIP3    H1 9741   8.056   7.120   0.109
 3266TIP3    H2 9742   8.162   7.043   0.185
 3267TIP3   OH2 9743   0.954   7.055   1.528
 3267TIP3    H1 9744   1.043   7.037   1.499
 3267TIP3    H2 9745   0.960   7.060   1.624
 3268TIP3   OH2 9746   4.214   5.596   3.264
 3268TIP3    H1 9747   4.190   5.545   3.186
 3268TIP3    H2 9748   4.131   5.630   3.296
 3269TIP3   OH2 9749   4.363   1.835   2.497
 3269TIP3    H1 9750   4.387   1.783   2.421
 3269TIP3    H2 9751   4.267   1.838   2.495
 3270TIP3   OH2 9752   8.273   1.035   6.117
 3270TIP3    H1 9753   8.185   1.073   6.118
 3270TIP3    H2 9754   8.294   1.025   6.024
 3271TIP3   OH2 9755   5.800   3.684   3.162
 3271TIP3    H1 9756   5.838   3.662   3.077
 3271TIP3    H2 9757   5.760   3.602   3.193
 3272TIP3   OH2 9758   6.506   5.043   3.999
 3272TIP3    H1 9759   6.524   4.992   4.078
 3272TIP3    H2 9760   6.427   5.092   4.019
 3273TIP3   OH2 9761   4.056   6.128   2.463
 3273TIP3    H1 9762   4.106   6.199   2.422
 3273TIP3    H2 9763   4.069   6.141   2.557
 3274TIP3   OH2 9764   7.579   4.830   4.966
 3274TIP3    H1 9765   7.555   4.920   4.948
 3274TIP3    H2 9766   7.602   4.793   4.881
 3275TIP3   OH2 9767   3.601   6.892   2.874
 3275TIP3    H1 9768   3.687   6.932   2.883
 3275TIP3    H2 9769   3.546   6.960   2.835
 3276TIP3   OH2 9770   7.053   7.668   2.002
 3276TIP3    H1 9771   7.087   7.581   1.981
 3276TIP3    H2 9772   7.086   7.724   1.931
 3277TIP3   OH2 9773   0.076   3.262   4.154
 3277TIP3    H1 9774   0.156   3.242   4.204
 3277TIP3    H2 9775   0.089   3.219   4.070
 3278TIP3   OH2 9776   5.521   4.507   5.772
 3278TIP3    H1 9777   5.444   4.523   5.717
 3278TIP3    H2 9778   5.494   4.535   5.860
 3279TIP3   OH2 9779   6.106   1.185   4.389
 3279TIP3    H1 9780   6.120   1.280   4.388
 3279TIP3    H2 9781   6.020   1.173   4.349
 3280TIP3   OH2 9782   3.864   3.603   3.902
 3280TIP3    H1 9783   3.882   3.510   3.889
 3280TIP3    H2 9784   3.951   3.642   3.917
 3281TIP3   OH2 9785   4.976   6.514   5.418
 3281TIP3    H1 9786   5.046   6.579   5.426
 3281TIP3    H2 9787   4.919   6.529   5.493
 3282TIP3   OH2 9788   3.600   1.202   4.071
 3282TIP3    H1 9789   3.677   1.147   4.064
 3282TIP3    H2 9790   3.617   1.259   4.146
 3283TIP3   OH2 9791   0.359   7.866   4.174
 3283TIP3    H1 9792   0.289   7.930   4.161
 3283TIP3    H2 9793   0.374   7.829   4.088
 3284TIP3   OH2 9794   1.430   2.145   6.264
 3284TIP3    H1 9795   1.345   2.103   6.250
 3284TIP3    H2 9796   1.436   2.212   6.196
 3285TIP3   OH2 9797   1.191   5.090   5.285
 3285TIP3    H1 9798   1.217   5.037   5.209
 3285TIP3    H2 9799   1.103   5.059   5.306
 3286TIP3   OH2 9800   7.439   1.005   5.213
 3286TIP3    H1 9801   7.367   0.989   5.274
 3286TIP3    H2 9802   7.417   1.089   5.172
 3287TIP3   OH2 9803   1.605   2.156   3.838
 3287TIP3    H1 9804   1.689   2.177   3.879
 3287TIP3    H2 9805   1.589   2.227   3.776
 3288TIP3   OH2 9806   1.074   2.429   4.965
 3288TIP3    H1 9807   1.117   2.487   5.027
 3288TIP3    H2 9808   1.013   2.486   4.917
 3289TIP3   OH2 9809   2.156   2.064   6.650
 3289TIP3    H1 9810   2.148   2.091   6.559
 3289TIP3    H2 9811   2.250   2.059   6.666
 3290TIP3   OH2 9812   0.250   7.311   1.130
 3290TIP3    H1 9813   0.252   7.293   1.224
 3290TIP3    H2 9814   0.324   7.369   1.115
 3291TIP3   OH2 9815   7.317   3.545   5.923
 3291TIP3    H1 9816   7.352   3.563   6.010
 3291TIP3    H2 9817   7.363   3.466   5.895
 3292TIP3   OH2 9818   7.934   4.694   3.712
 3292TIP3    H1 9819   8.026   4.717   3.695
 3292TIP3    H2 9820   7.927   4.603   3.684
 3293TIP3   OH2 9821   2.566   1.275   4.660
 3293TIP3    H1 9822   2.495   1.226   4.621
 3293TIP3    H2 9823   2.540   1.367   4.652
 3294TIP3   OH2 9824   3.615   0.376   5.399
 3294TIP3    H1 9825   3.570   0.312   5.454
 3294TIP3    H2 9826   3.559   0.385   5.322
 3295TIP3   OH2 9827   4.253   0.030   1.237
 3295TIP3    H1 9828   4.261   0.101   1.173
 3295TIP3    H2 9829   4.161   0.030   1.262
 3296TIP3   OH2 9830   7.021   0.026   3.957
 3296TIP3    H1 9831   7.110   0.001   3.981
 3296TIP3    H2 9832   6.977   0.041   4.040
 3297TIP3   OH2 9833   7.458   3.116   3.756
 3297TIP3    H1 9834   7.469   3.200   3.801
 3297TIP3    H2 9835   7.400   3.066   3.813
 3298TIP3   OH2 9836   7.474   1.011   3.774
 3298TIP3    H1 9837   7.513   0.929   3.804
 3298TIP3    H2 9838   7.487   1.012   3.680
 3299TIP3   OH2 9839   4.573   1.080   3.714
 3299TIP3    H1 9840   4.551   1.032   3.794
 3299TIP3    H2 9841   4.508   1.051   3.650
 3300TIP3   OH2 9842   3.209   1.806   4.749
 3300TIP3    H1 9843   3.113   1.809   4.743
 3300TIP3    H2 9844   3.237   1.886   4.705
 3301TIP3   OH2 9845   0.553   7.633   4.443
 3301TIP3    H1 9846   0.462   7.662   4.436
 3301TIP3    H2 9847   0.585   7.632   4.353
 3302TIP3   OH2 9848   6.664   5.632   4.416
 3302TIP3    H1 9849   6.708   5.579   4.482
 3302TIP3    H2 9850   6.660   5.576   4.339
 3303TIP3   OH2 9851   2.130   5.082   0.467
 3303TIP3    H1 9852   2.055   5.141   0.475
 3303TIP3    H2 9853   2.202   5.129   0.508
 3304TIP3   OH2 9854   1.969   3.397   5.921
 3304TIP3    H1 9855   2.040   3.395   5.857
 3304TIP3    H2 9856   2.007   3.359   6.000
 3305TIP3   OH2 9857   5.664   7.225   2.689
 3305TIP3    H1 9858   5.670   7.204   2.782
 3305TIP3    H2 9859   5.600   7.296   2.685
 3306TIP3   OH2 9860   1.855   1.533   6.365
 3306TIP3    H1 9861   1.904   1.607   6.400
 3306TIP3    H2 9862   1.920   1.463   6.357
 3307TIP3   OH2 9863   6.277   5.288   1.495
 3307TIP3    H1 9864   6.279   5.213   1.554
 3307TIP3    H2 9865   6.351   5.343   1.524
 3308TIP3   OH2 9866   4.759   5.762   1.533
 3308TIP3    H1 9867   4.814   5.840   1.523
 3308TIP3    H2 9868   4.670   5.794   1.520
 3309TIP3   OH2 9869   6.773   0.204   3.707
 3309TIP3    H1 9870   6.811   0.198   3.619
 3309TIP3    H2 9871   6.804   0.126   3.752
 3310TIP3   OH2 9872   7.721  -0.003   4.531
 3310TIP3    H1 9873   7.783   0.033   4.594
 3310TIP3    H2 9874   7.749   0.034   4.447
 3311TIP3   OH2 9875   4.896   1.345   2.367
 3311TIP3    H1 9876   4.905   1.436   2.396
 3311TIP3    H2 9877   4.972   1.331   2.310
 3312TIP3   OH2 9878   7.629   3.330   2.722
 3312TIP3    H1 9879   7.552   3.319   2.667
 3312TIP3    H2 9880   7.609   3.282   2.802
 3313TIP3   OH2 9881   1.688   1.754   2.178
 3313TIP3    H1 9882   1.607   1.750   2.228
 3313TIP3    H2 9883   1.753   1.712   2.235
 3314TIP3   OH2 9884   8.219   3.416   3.908
 3314TIP3    H1 9885   8.251   3.346   3.965
 3314TIP3    H2 9886   8.294   3.438   3.854
 3315TIP3   OH2 9887   6.547   6.257   2.457
 3315TIP3    H1 9888   6.492   6.206   2.398
 3315TIP3    H2 9889   6.513   6.346   2.450
 3316TIP3   OH2 9890   8.096   6.471   4.963
 3316TIP3    H1 9891   8.125   6.394   5.012
 3316TIP3    H2 9892   8.114   6.450   4.872
 3317TIP3   OH2 9893   5.086   0.208   2.458
 3317TIP3    H1 9894   5.117   0.123   2.489
 3317TIP3    H2 9895   5.075   0.197   2.364
 3318TIP3   OH2 9896   2.464   1.159   2.979
 3318TIP3    H1 9897   2.455   1.115   3.063
 3318TIP3    H2 9898   2.421   1.244   2.992
 3319TIP3   OH2 9899   8.273   1.463   6.489
 3319TIP3    H1 9900   8.292   1.431   6.401
 3319TIP3    H2 9901   8.242   1.386   6.536
 3320TIP3   OH2 9902   0.625   7.493   6.628
 3320TIP3    H1 9903   0.562   7.446   6.683
 3320TIP3    H2 9904   0.605   7.586   6.643
 3321TIP3   OH2 9905   6.807   3.523   6.047
 3321TIP3    H1 9906   6.744   3.594   6.041
 3321TIP3    H2 9907   6.887   3.564   6.081
 3322TIP3   OH2 9908   3.733   0.114   0.681
 3322TIP3    H1 9909   3.704   0.086   0.768
 3322TIP3    H2 9910   3.763   0.204   0.693
 3323TIP3   OH2 9911   5.585   0.515   6.361
 3323TIP3    H1 9912   5.490   0.511   6.367
 3323TIP3    H2 9913   5.615   0.523   6.452
 3324TIP3   OH2 9914   6.464   0.354   1.079
 3324TIP3    H1 9915   6.551   0.315   1.078
 3324TIP3    H2 9916   6.406   0.287   1.044
 3325TIP3   OH2 9917   0.564   3.709   1.821
 3325TIP3    H1 9918   0.527   3.786   1.864
 3325TIP3    H2 9919   0.585   3.649   1.893
 3326TIP3   OH2 9920   1.953   6.698   2.717
 3326TIP3    H1 9921   1.864   6.673   2.695
 3326TIP3    H2 9922   1.944   6.759   2.791
 3327TIP3   OH2 9923   1.937   1.993   6.289
 3327TIP3    H1 9924   2.027   1.973   6.314
 3327TIP3    H2 9925   1.883   1.948   6.354
 3328TIP3   OH2 9926   3.814   0.601   5.193
 3328TIP3    H1 9927   3.743   0.634   5.248
 3328TIP3    H2 9928   3.834   0.673   5.133
 3329TIP3   OH2 9929   7.286   3.147   5.674
 3329TIP3    H1 9930   7.276   3.134   5.768
 3329TIP3    H2 9931   7.211   3.200   5.648
 3330TIP3   OH2 9932   1.598   7.666   3.301
 3330TIP3    H1 9933   1.661   7.712   3.356
 3330TIP3    H2 9934   1.573   7.731   3.235
 3331TIP3   OH2 9935   3.755   4.408   6.297
 3331TIP3    H1 9936   3.719   4.322   6.317
 3331TIP3    H2 9937   3.817   4.392   6.226
 3332TIP3   OH2 9938   4.966   5.421   3.964
 3332TIP3    H1 9939   5.030   5.398   3.896
 3332TIP3    H2 9940   4.943   5.512   3.944
 3333TIP3   OH2 9941   8.183   3.446   5.441
 3333TIP3    H1 9942   8.243   3.436   5.367
 3333TIP3    H2 9943   8.158   3.538   5.440
 3334TIP3   OH2 9944   7.429   2.021   1.815
 3334TIP3    H1 9945   7.501   1.983   1.865
 3334TIP3    H2 9946   7.458   2.110   1.794
 3335TIP3   OH2 9947   2.158   2.763   2.388
 3335TIP3    H1 9948   2.183   2.728   2.302
 3335TIP3    H2 9949   2.192   2.853   2.387
 3336TIP3   OH2 9950   4.889   6.191   2.865
 3336TIP3    H1 9951   4.954   6.251   2.828
 3336TIP3    H2 9952   4.824   6.249   2.907
 3337TIP3   OH2 9953   3.656   1.892   6.206
 3337TIP3    H1 9954   3.633   1.901   6.113
 3337TIP3    H2 9955   3.708   1.812   6.211
 3338TIP3   OH2 9956   3.569   7.651   0.876
 3338TIP3    H1 9957   3.585   7.646   0.970
 3338TIP3    H2 9958   3.477   7.675   0.867
 3339TIP3   OH2 9959   4.639   1.031   6.303
 3339TIP3    H1 9960   4.678   0.964   6.361
 3339TIP3    H2 9961   4.697   1.032   6.227
 3340TIP3   OH2 9962   7.855   6.435   6.404
 3340TIP3    H1 9963   7.821   6.465   6.320
 3340TIP3    H2 9964   7.789   6.373   6.436
 3341TIP3   OH2 9965   2.861   3.937   5.132
 3341TIP3    H1 9966   2.814   4.001   5.186
 3341TIP3    H2 9967   2.836   3.958   5.042
 3342TIP3   OH2 9968   6.094   0.904   5.866
 3342TIP3    H1 9969   6.106   0.856   5.948
 3342TIP3    H2 9970   6.166   0.967   5.864
 3343TIP3   OH2 9971   4.733   4.107   0.603
 3343TIP3    H1 9972   4.665   4.147   0.657
 3343TIP3    H2 9973   4.700   4.114   0.514
 3344TIP3   OH2 9974   1.603   5.143   5.608
 3344TIP3    H1 9975   1.527   5.191   5.577
 3344TIP3    H2 9976   1.676   5.204   5.597
 3345TIP3   OH2 9977   1.947   7.167   2.010
 3345TIP3    H1 9978   1.921   7.092   1.956
 3345TIP3    H2 9979   1.919   7.144   2.099
 3346TIP3   OH2 9980   7.314   5.591   2.964
 3346TIP3    H1 9981   7.352   5.653   3.026
 3346TIP3    H2 9982   7.375   5.590   2.890
 3347TIP3   OH2 9983   1.316   0.559   6.756
 3347TIP3    H1 9984   1.382   0.514   6.808
 3347TIP3    H2 9985   1.289   0.495   6.690
 3348TIP3   OH2 9986   7.440   4.053   4.034
 3348TIP3    H1 9987   7.375   3.993   3.998
 3348TIP3    H2 9988   7.474   4.101   3.958
 3349TIP3   OH2 9989   4.844   0.151   1.288
 3349TIP3    H1 9990   4.835   0.056   1.283
 3349TIP3    H2 9991   4.938   0.167   1.285
 3350TIP3   OH2 9992   1.944   3.726   3.077
 3350TIP3    H1 9993   1.980   3.638   3.082
 3350TIP3    H2 9994   1.882   3.731   3.150
 3351TIP3   OH2 9995   7.948   3.896   0.445
 3351TIP3    H1 9996   7.981   3.841   0.516
 3351TIP3    H2 9997   7.882   3.843   0.402
 3352TIP3   OH2 9998   2.709   4.237   4.593
 3352TIP3    H1 9999   2.744   4.283   4.516
 3352TIP3    H210000   2.769   4.261   4.663
 3353TIP3   OH210001   5.456   7.667   6.174
 3353TIP3    H110002   5.517   7.736   6.200
 3353TIP3    H210003   5.509   7.587   6.172
 3354TIP3   OH210004   0.466   5.313   1.118
 3354TIP3    H110005   0.437   5.231   1.157
 3354TIP3    H210006   0.502   5.288   1.033
 3355TIP3   OH210007   7.895   3.448   0.974
 3355TIP3    H110008   7.828   3.441   1.041
 3355TIP3    H210009   7.867   3.521   0.919
 3356TIP3   OH210010   7.901   7.693   1.945
 3356TIP3    H110011   7.937   7.779   1.921
 3356TIP3    H210012   7.903   7.643   1.864
 3357TIP3   OH210013   7.228   5.996   0.786
 3357TIP3    H110014   7.235   5.951   0.702
 3357TIP3    H210015   7.318   6.025   0.805
 3358TIP3   OH210016   2.088   4.987   1.281
 3358TIP3    H110017   2.033   4.928   1.230
 3358TIP3    H210018   2.128   4.931   1.348
 3359TIP3   OH210019   3.426   1.107   6.650
 3359TIP3    H110020   3.434   1.189   6.699
 3359TIP3    H210021   3.513   1.092   6.613
 3360TIP3   OH210022   6.926   1.112   5.277
 3360TIP3    H110023   6.849   1.058   5.291
 3360TIP3    H210024   6.921   1.179   5.345
 3361TIP3   OH210025   1.900   5.934   4.740
 3361TIP3    H110026   1.987   5.969   4.755
 3361TIP3    H210027   1.904   5.895   4.652
 3362TIP3   OH210028   0.906   1.136   0.744
 3362TIP3    H110029   0.858   1.211   0.709
 3362TIP3    H210030   0.990   1.139   0.699
 3363TIP3   OH210031   5.135   4.993   6.435
 3363TIP3    H110032   5.044   4.982   6.463
 3363TIP3    H210033   5.132   4.976   6.340
 3364TIP3   OH210034   0.530   7.165   3.345
 3364TIP3    H110035   0.470   7.179   3.418
 3364TIP3    H210036   0.579   7.086   3.367
 3365TIP3   OH210037   3.688   2.263   3.180
 3365TIP3    H110038   3.740   2.259   3.100
 3365TIP3    H210039   3.735   2.324   3.237
 3366TIP3   OH210040   2.849   1.575   0.275
 3366TIP3    H110041   2.869   1.634   0.202
 3366TIP3    H210042   2.920   1.590   0.338
 3367TIP3   OH210043   6.443   6.798   5.248
 3367TIP3    H110044   6.434   6.890   5.274
 3367TIP3    H210045   6.419   6.798   5.155
 3368TIP3   OH210046   3.395   5.143   2.894
 3368TIP3    H110047   3.389   5.064   2.947
 3368TIP3    H210048   3.337   5.128   2.820
 3369TIP3   OH210049   4.305   5.129   1.634
 3369TIP3    H110050   4.364   5.188   1.587
 3369TIP3    H210051   4.217   5.163   1.617
 3370TIP3   OH210052   1.573   6.896   3.744
 3370TIP3    H110053   1.637   6.848   3.796
 3370TIP3    H210054   1.602   6.987   3.748
 3371TIP3   OH210055   6.912   3.737   3.831
 3371TIP3    H110056   6.893   3.725   3.924
 3371TIP3    H210057   6.841   3.693   3.786
 3372TIP3   OH210058   2.707   4.216   3.577
 3372TIP3    H110059   2.649   4.292   3.588
 3372TIP3    H210060   2.780   4.231   3.636
 3373TIP3   OH210061   1.357   4.706   1.465
 3373TIP3    H110062   1.348   4.680   1.374
 3373TIP3    H210063   1.275   4.751   1.485
 3374TIP3   OH210064   2.261   2.069   2.600
 3374TIP3    H110065   2.244   2.036   2.688
 3374TIP3    H210066   2.206   2.015   2.543
 3375TIP3   OH210067   7.034   4.848   6.315
 3375TIP3    H110068   7.049   4.782   6.248
 3375TIP3    H210069   7.027   4.930   6.267
 3376TIP3   OH210070   7.669   5.191   1.612
 3376TIP3    H110071   7.643   5.204   1.703
 3376TIP3    H210072   7.757   5.153   1.617
 3377TIP3   OH210073   2.595   4.360   6.827
 3377TIP3    H110074   2.658   4.353   6.756
 3377TIP3    H210075   2.511   4.378   6.784
 3378TIP3   OH210076   5.710   7.591   4.479
 3378TIP3    H110077   5.709   7.657   4.549
 3378TIP3    H210078   5.742   7.638   4.402
 3379TIP3   OH210079   4.004   1.111   3.285
 3379TIP3    H110080   3.993   1.027   3.241
 3379TIP3    H210081   3.984   1.094   3.377
 3380TIP3   OH210082   6.538   5.413   0.285
 3380TIP3    H110083   6.450   5.449   0.297
 3380TIP3    H210084   6.541   5.385   0.194
 3381TIP3   OH210085   5.588   3.215   4.521
 3381TIP3    H110086   5.506   3.248   4.559
 3381TIP3    H210087   5.619   3.287   4.465
 3382TIP3   OH210088   4.669   4.026   3.080
 3382TIP3    H110089   4.666   4.120   3.101
 3382TIP3    H210090   4.754   4.014   3.038
 3383TIP3   OH210091   4.844   7.518   6.516
 3383TIP3    H110092   4.759   7.512   6.560
 3383TIP3    H210093   4.824   7.548   6.428
 3384TIP3   OH210094   0.268   1.626   1.394
 3384TIP3    H110095   0.337   1.559   1.400
 3384TIP3    H210096   0.207   1.590   1.329
 3385TIP3   OH210097   4.273   1.070   5.486
 3385TIP3    H110098   4.193   1.075   5.434
 3385TIP3    H210099   4.264   0.990   5.536
 3386TIP3   OH210100   4.130   0.151   4.292
 3386TIP3    H110101   4.046   0.176   4.329
 3386TIP3    H210102   4.153   0.225   4.234
 3387TIP3   OH210103   6.091   0.518   3.229
 3387TIP3    H110104   6.184   0.527   3.248
 3387TIP3    H210105   6.083   0.430   3.193
 3388TIP3   OH210106   3.762   2.747   3.216
 3388TIP3    H110107   3.792   2.754   3.126
 3388TIP3    H210108   3.670   2.772   3.213
 3389TIP3   OH210109   5.100   0.951   2.980
 3389TIP3    H110110   5.137   0.957   2.892
 3389TIP3    H210111   5.056   1.035   2.993
 3390TIP3   OH210112   0.041   2.007   2.489
 3390TIP3    H110113   0.009   2.091   2.520
 3390TIP3    H210114   0.021   1.946   2.561
 3391TIP3   OH210115   4.373   7.083   6.190
 3391TIP3    H110116   4.444   7.111   6.248
 3391TIP3    H210117   4.345   7.163   6.146
 3392TIP3   OH210118   6.567   7.194   0.796
 3392TIP3    H110119   6.485   7.241   0.781
 3392TIP3    H210120   6.586   7.208   0.889
 3393TIP3   OH210121   5.123   1.793   0.588
 3393TIP3    H110122   5.167   1.755   0.664
 3393TIP3    H210123   5.182   1.775   0.514
 3394TIP3   OH210124   6.865   7.276   4.643
 3394TIP3    H110125   6.811   7.301   4.569
 3394TIP3    H210126   6.852   7.345   4.708
 3395TIP3   OH210127   4.958   3.620   3.448
 3395TIP3    H110128   4.998   3.668   3.520
 3395TIP3    H210129   4.958   3.529   3.476
 3396TIP3   OH210130   0.702   2.992   4.584
 3396TIP3    H110131   0.631   3.056   4.590
 3396TIP3    H210132   0.782   3.043   4.597
 3397TIP3   OH210133   7.990   4.709   1.914
 3397TIP3    H110134   7.922   4.773   1.938
 3397TIP3    H210135   7.968   4.683   1.825
 3398TIP3   OH210136   6.204   7.256   2.437
 3398TIP3    H110137   6.199   7.338   2.388
 3398TIP3    H210138   6.116   7.246   2.474
 3399TIP3   OH210139   1.281   5.456   4.201
 3399TIP3    H110140   1.278   5.378   4.257
 3399TIP3    H210141   1.300   5.527   4.262
 3400TIP3   OH210142   8.153   5.212   5.191
 3400TIP3    H110143   8.243   5.243   5.176
 3400TIP3    H210144   8.161   5.117   5.193
 3401TIP3   OH210145   6.556   2.969   4.783
 3401TIP3    H110146   6.565   2.954   4.689
 3401TIP3    H210147   6.632   3.023   4.806
 3402TIP3   OH210148   3.788   0.350   2.322
 3402TIP3    H110149   3.699   0.371   2.293
 3402TIP3    H210150   3.814   0.426   2.375
 3403TIP3   OH210151   1.448   0.934   5.346
 3403TIP3    H110152   1.360   0.897   5.336
 3403TIP3    H210153   1.451   1.004   5.281
 3404TIP3   OH210154   7.766   6.276   2.718
 3404TIP3    H110155   7.802   6.193   2.687
 3404TIP3    H210156   7.816   6.343   2.671
 3405TIP3   OH210157   5.890   6.890   5.346
 3405TIP3    H110158   5.876   6.946   5.270
 3405TIP3    H210159   5.802   6.874   5.381
 3406TIP3   OH210160   1.486   5.297   6.032
 3406TIP3    H110161   1.394   5.318   6.015
 3406TIP3    H210162   1.492   5.293   6.127
 3407TIP3   OH210163   5.315   3.497   4.997
 3407TIP3    H110164   5.336   3.554   4.923
 3407TIP3    H210165   5.352   3.542   5.073
 3408TIP3   OH210166   1.407   6.027   0.399
 3408TIP3    H110167   1.489   6.073   0.417
 3408TIP3    H210168   1.411   6.007   0.306
 3409TIP3   OH210169   5.499   6.298   2.580
 3409TIP3    H110170   5.409   6.327   2.594
 3409TIP3    H210171   5.511   6.226   2.642
 3410TIP3   OH210172   6.589   0.819   1.996
 3410TIP3    H110173   6.604   0.851   1.907
 3410TIP3    H210174   6.635   0.735   1.999
 3411TIP3   OH210175   6.572   4.421   3.360
 3411TIP3    H110176   6.560   4.432   3.454
 3411TIP3    H210177   6.653   4.469   3.340
 3412TIP3   OH210178   3.479   0.321   0.738
 3412TIP3    H110179   3.515   0.267   0.668
 3412TIP3    H210180   3.481   0.264   0.815
 3413TIP3   OH210181   1.830   7.481   3.514
 3413TIP3    H110182   1.868   7.490   3.426
 3413TIP3    H210183   1.741   7.516   3.505
 3414TIP3   OH210184   2.381   7.230   3.298
 3414TIP3    H110185   2.439   7.194   3.231
 3414TIP3    H210186   2.316   7.281   3.249
 3415TIP3   OH210187   1.534   1.381   6.555
 3415TIP3    H110188   1.554   1.385   6.462
 3415TIP3    H210189   1.550   1.470   6.587
 3416TIP3   OH210190   0.568   6.369   1.354
 3416TIP3    H110191   0.658   6.351   1.382
 3416TIP3    H210192   0.560   6.324   1.270
 3417TIP3   OH210193   1.450   0.406   5.145
 3417TIP3    H110194   1.472   0.434   5.056
 3417TIP3    H210195   1.531   0.367   5.178
 3418TIP3   OH210196   4.706   4.276   5.229
 3418TIP3    H110197   4.726   4.237   5.314
 3418TIP3    H210198   4.612   4.260   5.217
 3419TIP3   OH210199   6.966   4.801   5.427
 3419TIP3    H110200   7.048   4.804   5.378
 3419TIP3    H210201   6.970   4.718   5.475
 3420TIP3   OH210202   3.828   7.798   1.185
 3420TIP3    H110203   3.827   7.833   1.274
 3420TIP3    H210204   3.912   7.752   1.179
 3421TIP3   OH210205   0.848   5.433   4.380
 3421TIP3    H110206   0.926   5.476   4.415
 3421TIP3    H210207   0.879   5.385   4.303
 3422TIP3   OH210208   3.249   7.804   6.194
 3422TIP3    H110209   3.159   7.794   6.227
 3422TIP3    H210210   3.270   7.896   6.208
 3423TIP3   OH210211   3.449   0.184   0.487
 3423TIP3    H110212   3.458   0.115   0.421
 3423TIP3    H210213   3.477   0.264   0.442
 3424TIP3   OH210214   0.411   5.560   3.322
 3424TIP3    H110215   0.501   5.580   3.346
 3424TIP3    H210216   0.413   5.470   3.292
 3425TIP3   OH210217   3.223   0.535   4.561
 3425TIP3    H110218   3.182   0.612   4.523
 3425TIP3    H210219   3.291   0.570   4.619
 3426TIP3   OH210220   6.225   7.464   0.795
 3426TIP3    H110221   6.291   7.530   0.817
 3426TIP3    H210222   6.142   7.506   0.817
 3427TIP3   OH210223   3.094   1.024   3.086
 3427TIP3    H110224   3.072   1.094   3.024
 3427TIP3    H210225   3.169   0.979   3.046
 3428TIP3   OH210226   7.995   2.039   1.679
 3428TIP3    H110227   8.069   1.988   1.645
 3428TIP3    H210228   7.970   2.096   1.607
 3429TIP3   OH210229   0.827   4.086   3.635
 3429TIP3    H110230   0.870   4.001   3.640
 3429TIP3    H210231   0.739   4.072   3.670
 3430TIP3   OH210232   3.863   3.211   5.670
 3430TIP3    H110233   3.873   3.206   5.575
 3430TIP3    H210234   3.816   3.131   5.693
 3431TIP3   OH210235   4.340   2.481   5.928
 3431TIP3    H110236   4.370   2.475   6.019
 3431TIP3    H210237   4.286   2.560   5.926
 3432TIP3   OH210238   2.381   3.936   6.103
 3432TIP3    H110239   2.422   4.017   6.073
 3432TIP3    H210240   2.429   3.867   6.058
 3433TIP3   OH210241   0.246   4.682   4.231
 3433TIP3    H110242   0.328   4.703   4.275
 3433TIP3    H210243   0.189   4.757   4.248
 3434TIP3   OH210244   2.570   7.633   0.659
 3434TIP3    H110245   2.540   7.669   0.575
 3434TIP3    H210246   2.664   7.618   0.646
 3435TIP3   OH210247   1.236   4.770   6.040
 3435TIP3    H110248   1.159   4.769   6.098
 3435TIP3    H210249   1.299   4.712   6.084
 3436TIP3   OH210250   5.101   6.272   4.101
 3436TIP3    H110251   5.137   6.190   4.134
 3436TIP3    H210252   5.053   6.309   4.175
 3437TIP3   OH210253   5.400   6.949   2.091
 3437TIP3    H110254   5.398   6.964   2.185
 3437TIP3    H210255   5.456   6.872   2.080
 3438TIP3   OH210256   2.323   1.027   0.633
 3438TIP3    H110257   2.383   0.997   0.702
 3438TIP3    H210258   2.263   0.953   0.619
 3439TIP3   OH210259   0.333   7.571   4.057
 3439TIP3    H110260   0.313   7.508   3.987
 3439TIP3    H210261   0.306   7.655   4.021
 3440TIP3   OH210262   0.936   1.164   1.034
 3440TIP3    H110263   1.028   1.137   1.033
 3440TIP3    H210264   0.901   1.130   0.951
 3441TIP3   OH210265   4.130   5.862   4.682
 3441TIP3    H110266   4.083   5.866   4.765
 3441TIP3    H210267   4.163   5.951   4.669
 3442TIP3   OH210268   3.357   1.375   5.635
 3442TIP3    H110269   3.361   1.382   5.730
 3442TIP3    H210270   3.300   1.447   5.607
 3443TIP3   OH210271   1.101   4.086   0.616
 3443TIP3    H110272   1.046   4.056   0.688
 3443TIP3    H210273   1.088   4.181   0.614
 3444TIP3   OH210274   1.976   2.471   2.211
 3444TIP3    H110275   1.922   2.519   2.148
 3444TIP3    H210276   2.063   2.469   2.171
 3445TIP3   OH210277   7.881   0.241   2.650
 3445TIP3    H110278   7.865   0.245   2.744
 3445TIP3    H210279   7.976   0.235   2.642
 3446TIP3   OH210280   7.203   1.024   5.561
 3446TIP3    H110281   7.257   1.029   5.639
 3446TIP3    H210282   7.264   1.006   5.490
 3447TIP3   OH210283   3.870   6.741   3.198
 3447TIP3    H110284   3.830   6.824   3.172
 3447TIP3    H210285   3.964   6.761   3.206
 3448TIP3   OH210286   5.393   0.852   6.174
 3448TIP3    H110287   5.458   0.920   6.158
 3448TIP3    H210288   5.314   0.900   6.201
 3449TIP3   OH210289   1.948   7.727   3.773
 3449TIP3    H110290   2.039   7.713   3.746
 3449TIP3    H210291   1.947   7.705   3.866
 3450TIP3   OH210292   1.002   2.056   2.267
 3450TIP3    H110293   0.955   2.047   2.350
 3450TIP3    H210294   0.951   2.002   2.205
 3451TIP3   OH210295   2.976   7.823   0.851
 3451TIP3    H110296   3.049   7.773   0.886
 3451TIP3    H210297   3.009   7.913   0.842
 3452TIP3   OH210298   2.540   2.172   3.389
 3452TIP3    H110299   2.457   2.185   3.436
 3452TIP3    H210300   2.522   2.203   3.300
 3453TIP3   OH210301   3.652   6.084   0.331
 3453TIP3    H110302   3.639   5.997   0.294
 3453TIP3    H210303   3.693   6.134   0.261
 3454TIP3   OH210304   5.298   0.475   5.715
 3454TIP3    H110305   5.292   0.460   5.621
 3454TIP3    H210306   5.211   0.508   5.739
 3455TIP3   OH210307   2.735   0.816   1.712
 3455TIP3    H110308   2.723   0.900   1.757
 3455TIP3    H210309   2.802   0.833   1.646
 3456TIP3   OH210310   1.739   2.384   5.139
 3456TIP3    H110311   1.708   2.293   5.139
 3456TIP3    H210312   1.770   2.398   5.229
 3457TIP3   OH210313   6.714   2.370   5.606
 3457TIP3    H110314   6.633   2.419   5.620
 3457TIP3    H210315   6.716   2.351   5.512
 3458TIP3   OH210316   6.117   4.924   6.670
 3458TIP3    H110317   6.026   4.929   6.642
 3458TIP3    H210318   6.167   4.915   6.589
 3459TIP3   OH210319   7.181   1.925   4.998
 3459TIP3    H110320   7.182   1.975   4.916
 3459TIP3    H210321   7.193   1.992   5.066
 3460TIP3   OH210322   6.657   3.904   0.732
 3460TIP3    H110323   6.701   3.920   0.816
 3460TIP3    H210324   6.727   3.911   0.667
 3461TIP3   OH210325   4.871   2.694   4.087
 3461TIP3    H110326   4.848   2.779   4.125
 3461TIP3    H210327   4.893   2.713   3.996
 3462TIP3   OH210328   6.065   2.482   4.455
 3462TIP3    H110329   5.970   2.493   4.454
 3462TIP3    H210330   6.099   2.571   4.443
 3463TIP3   OH210331   8.244   4.067   2.015
 3463TIP3    H110332   8.209   4.112   2.091
 3463TIP3    H210333   8.304   4.002   2.051
 3464TIP3   OH210334   7.989   4.555   6.700
 3464TIP3    H110335   8.002   4.622   6.633
 3464TIP3    H210336   7.933   4.490   6.658
 3465TIP3   OH210337   3.672   1.373   3.521
 3465TIP3    H110338   3.765   1.388   3.501
 3465TIP3    H210339   3.667   1.280   3.543
 3466TIP3   OH210340   1.210   7.213   4.318
 3466TIP3    H110341   1.144   7.181   4.381
 3466TIP3    H210342   1.288   7.160   4.336
 3467TIP3   OH210343   1.156   2.678   1.539
 3467TIP3    H110344   1.071   2.648   1.506
 3467TIP3    H210345   1.217   2.609   1.512
 3468TIP3   OH210346   5.313   4.078   3.340
 3468TIP3    H110347   5.300   4.146   3.274
 3468TIP3    H210348   5.382   4.112   3.397
 3469TIP3   OH210349   7.148   1.167   2.846
 3469TIP3    H110350   7.102   1.227   2.904
 3469TIP3    H210351   7.228   1.144   2.894
 3470TIP3   OH210352   1.382   0.571   1.861
 3470TIP3    H110353   1.308   0.510   1.864
 3470TIP3    H210354   1.458   0.515   1.847
 3471TIP3   OH210355   6.200   7.254   4.913
 3471TIP3    H110356   6.255   7.178   4.894
 3471TIP3    H210357   6.201   7.260   5.009
 3472TIP3   OH210358   7.900   1.878   4.949
 3472TIP3    H110359   7.818   1.859   4.993
 3472TIP3    H210360   7.921   1.796   4.903
 3473TIP3   OH210361   3.472   1.952   3.822
 3473TIP3    H110362   3.408   1.886   3.797
 3473TIP3    H210363   3.426   2.008   3.884
 3474TIP3   OH210364   1.525   1.397   0.315
 3474TIP3    H110365   1.504   1.485   0.344
 3474TIP3    H210366   1.587   1.409   0.243
 3475TIP3   OH210367   3.466   5.646   6.724
 3475TIP3    H110368   3.554   5.613   6.706
 3475TIP3    H210369   3.424   5.575   6.772
 3476TIP3   OH210370   0.022   0.448   0.753
 3476TIP3    H110371  -0.019   0.494   0.826
 3476TIP3    H210372  -0.052   0.414   0.702
 3477TIP3   OH210373   1.123   3.125   0.632
 3477TIP3    H110374   1.174   3.059   0.584
 3477TIP3    H210375   1.178   3.147   0.707
 3478TIP3   OH210376   6.383   0.774   6.372
 3478TIP3    H110377   6.293   0.803   6.357
 3478TIP3    H210378   6.405   0.723   6.294
 3479TIP3   OH210379   4.936   5.505   6.182
 3479TIP3    H110380   4.896   5.425   6.148
 3479TIP3    H210381   4.927   5.497   6.277
 3480TIP3   OH210382   3.794   0.614   4.106
 3480TIP3    H110383   3.725   0.548   4.114
 3480TIP3    H210384   3.767   0.668   4.032
 3481TIP3   OH210385   5.911   6.360   4.108
 3481TIP3    H110386   5.839   6.323   4.158
 3481TIP3    H210387   5.869   6.417   4.043
 3482TIP3   OH210388   1.795   5.596   5.770
 3482TIP3    H110389   1.867   5.553   5.816
 3482TIP3    H210390   1.725   5.604   5.835
 3483TIP3   OH210391   5.289   3.659   4.060
 3483TIP3    H110392   5.232   3.712   4.003
 3483TIP3    H210393   5.327   3.722   4.121
 3484TIP3   OH210394   3.724   6.384   1.012
 3484TIP3    H110395   3.764   6.319   1.069
 3484TIP3    H210396   3.710   6.338   0.929
 3485TIP3   OH210397   6.672   0.372   4.725
 3485TIP3    H110398   6.633   0.444   4.674
 3485TIP3    H210399   6.673   0.298   4.665
 3486TIP3   OH210400   5.591   7.192   5.279
 3486TIP3    H110401   5.676   7.216   5.242
 3486TIP3    H210402   5.576   7.103   5.249
 3487TIP3   OH210403   7.820   2.668   3.846
 3487TIP3    H110404   7.901   2.717   3.832
 3487TIP3    H210405   7.808   2.669   3.941
 3488TIP3   OH210406   7.253   4.715   6.072
 3488TIP3    H110407   7.235   4.798   6.030
 3488TIP3    H210408   7.212   4.650   6.015
 3489TIP3   OH210409   4.389   0.650   3.667
 3489TIP3    H110410   4.425   0.561   3.670
 3489TIP3    H210411   4.453   0.700   3.618
 3490TIP3   OH210412   1.373   1.934   6.692
 3490TIP3    H110413   1.451   1.903   6.738
 3490TIP3    H210414   1.326   1.986   6.757
 3491TIP3   OH210415   1.810   3.038   4.776
 3491TIP3    H110416   1.857   3.114   4.811
 3491TIP3    H210417   1.808   2.976   4.848
 3492TIP3   OH210418   6.078   0.364   5.022
 3492TIP3    H110419   6.040   0.286   4.981
 3492TIP3    H210420   6.014   0.433   5.005
 3493TIP3   OH210421   4.203   5.279   0.971
 3493TIP3    H110422   4.248   5.333   0.905
 3493TIP3    H210423   4.238   5.309   1.054
 3494TIP3   OH210424   5.051   2.287   0.733
 3494TIP3    H110425   5.046   2.195   0.708
 3494TIP3    H210426   5.017   2.335   0.657
 3495TIP3   OH210427   1.148   0.554   3.808
 3495TIP3    H110428   1.110   0.627   3.856
 3495TIP3    H210429   1.116   0.564   3.719
 3496TIP3   OH210430   0.596   5.350   4.800
 3496TIP3    H110431   0.590   5.268   4.848
 3496TIP3    H210432   0.570   5.417   4.863
 3497TIP3   OH210433   0.661   6.648   3.857
 3497TIP3    H110434   0.705   6.653   3.941
 3497TIP3    H210435   0.667   6.555   3.832
 3498TIP3   OH210436   7.279   1.868   5.830
 3498TIP3    H110437   7.347   1.884   5.895
 3498TIP3    H210438   7.285   1.942   5.770
 3499TIP3   OH210439   2.305   4.886   3.958
 3499TIP3    H110440   2.293   4.939   4.037
 3499TIP3    H210441   2.386   4.837   3.975
 3500TIP3   OH210442   7.472   0.810   0.487
 3500TIP3    H110443   7.388   0.832   0.527
 3500TIP3    H210444   7.453   0.735   0.430
 3501TIP3   OH210445   4.071   6.169   4.223
 3501TIP3    H110446   4.118   6.217   4.155
 3501TIP3    H210447   4.070   6.078   4.192
 3502TIP3   OH210448   4.110   6.899   3.199
 3502TIP3    H110449   4.107   6.903   3.104
 3502TIP3    H210450   4.189   6.949   3.223
 3503TIP3   OH210451   0.068   0.456   3.105
 3503TIP3    H110452   0.135   0.468   3.038
 3503TIP3    H210453   0.078   0.532   3.163
 3504TIP3   OH210454   0.314   1.065   2.290
 3504TIP3    H110455   0.263   1.059   2.371
 3504TIP3    H210456   0.266   1.126   2.235
 3505TIP3   OH210457   6.384   6.738   4.980
 3505TIP3    H110458   6.473   6.710   4.999
 3505TIP3    H210459   6.354   6.679   4.910
 3506TIP3   OH210460   6.396   5.088   2.977
 3506TIP3    H110461   6.455   5.020   3.011
 3506TIP3    H210462   6.434   5.170   3.008
 3507TIP3   OH210463   2.034   7.247   0.670
 3507TIP3    H110464   2.120   7.228   0.706
 3507TIP3    H210465   1.975   7.245   0.746
 3508TIP3   OH210466   4.781   1.313   4.965
 3508TIP3    H110467   4.756   1.231   5.006
 3508TIP3    H210468   4.833   1.288   4.889
 3509TIP3   OH210469   2.743   6.710   3.041
 3509TIP3    H110470   2.778   6.797   3.057
 3509TIP3    H210471   2.807   6.650   3.078
 3510TIP3   OH210472   6.802   1.425   3.735
 3510TIP3    H110473   6.821   1.417   3.641
 3510TIP3    H210474   6.820   1.338   3.770
 3511TIP3   OH210475   0.752   0.865   2.479
 3511TIP3    H110476   0.829   0.922   2.489
 3511TIP3    H210477   0.743   0.852   2.385
 3512TIP3   OH210478   2.135   1.478   1.304
 3512TIP3    H110479   2.154   1.511   1.391
 3512TIP3    H210480   2.059   1.422   1.315
 3513TIP3   OH210481   4.476   5.368   6.461
 3513TIP3    H110482   4.394   5.417   6.455
 3513TIP3    H210483   4.455   5.294   6.518
 3514TIP3   OH210484   6.384   7.607   2.435
 3514TIP3    H110485   6.399   7.534   2.494
 3514TIP3    H210486   6.444   7.675   2.465
 3515TIP3   OH210487   6.308   5.241   0.037
 3515TIP3    H110488   6.401   5.245   0.015
 3515TIP3    H210489   6.306   5.204   0.125
 3516TIP3   OH210490   1.987   1.619   0.410
 3516TIP3    H110491   2.009   1.611   0.503
 3516TIP3    H210492   1.903   1.663   0.408
 3517TIP3   OH210493   5.687   4.802   4.055
 3517TIP3    H110494   5.630   4.803   3.978
 3517TIP3    H210495   5.743   4.725   4.043
 3518TIP3   OH210496   6.347   5.399   5.281
 3518TIP3    H110497   6.339   5.316   5.328
 3518TIP3    H210498   6.353   5.374   5.189
 3519TIP3   OH210499   3.350   4.124   5.407
 3519TIP3    H110500   3.288   4.187   5.371
 3519TIP3    H210501   3.385   4.079   5.330
 3520TIP3   OH210502   5.111   3.004   0.875
 3520TIP3    H110503   5.090   2.950   0.951
 3520TIP3    H210504   5.050   2.974   0.807
 3521TIP3   OH210505   2.216   2.127   2.262
 3521TIP3    H110506   2.223   2.042   2.305
 3521TIP3    H210507   2.198   2.107   2.170
 3522TIP3   OH210508   4.048   3.192   1.639
 3522TIP3    H110509   3.988   3.118   1.625
 3522TIP3    H210510   3.991   3.265   1.662
 3523TIP3   OH210511   4.455   1.701   2.274
 3523TIP3    H110512   4.384   1.646   2.242
 3523TIP3    H210513   4.529   1.641   2.283
 3524TIP3   OH210514   5.564   1.337   1.698
 3524TIP3    H110515   5.471   1.318   1.706
 3524TIP3    H210516   5.603   1.252   1.674
 3525TIP3   OH210517   7.918   1.313   5.929
 3525TIP3    H110518   7.919   1.294   5.835
 3525TIP3    H210519   7.825   1.319   5.951
 3526TIP3   OH210520   7.208   0.349   2.029
 3526TIP3    H110521   7.296   0.312   2.035
 3526TIP3    H210522   7.214   0.431   2.078
 3527TIP3   OH210523   3.663   0.058   3.512
 3527TIP3    H110524   3.726   0.130   3.513
 3527TIP3    H210525   3.696  -0.003   3.578
 3528TIP3   OH210526   0.594   2.286   1.926
 3528TIP3    H110527   0.547   2.272   2.008
 3528TIP3    H210528   0.668   2.225   1.931
 3529TIP3   OH210529   3.289   1.937   5.024
 3529TIP3    H110530   3.224   1.966   4.960
 3529TIP3    H210531   3.271   1.843   5.036
 3530TIP3   OH210532   1.507   1.331   1.715
 3530TIP3    H110533   1.441   1.298   1.653
 3530TIP3    H210534   1.580   1.358   1.660
 3531TIP3   OH210535   0.972   5.673   1.519
 3531TIP3    H110536   1.028   5.617   1.466
 3531TIP3    H210537   0.964   5.626   1.602
 3532TIP3   OH210538   6.210   0.901   3.933
 3532TIP3    H110539   6.218   0.996   3.935
 3532TIP3    H210540   6.266   0.873   3.861
 3533TIP3   OH210541   3.470   5.816   1.213
 3533TIP3    H110542   3.436   5.780   1.294
 3533TIP3    H210543   3.557   5.849   1.235
 3534TIP3   OH210544   0.447   4.131   0.875
 3534TIP3    H110545   0.439   4.108   0.782
 3534TIP3    H210546   0.527   4.088   0.904
 3535TIP3   OH210547   0.431   0.985   1.514
 3535TIP3    H110548   0.415   0.893   1.494
 3535TIP3    H210549   0.406   0.994   1.606
 3536TIP3   OH210550   1.849   0.471   0.754
 3536TIP3    H110551   1.801   0.496   0.833
 3536TIP3    H210552   1.922   0.533   0.749
 3537TIP3   OH210553   7.768   7.262   2.764
 3537TIP3    H110554   7.721   7.250   2.847
 3537TIP3    H210555   7.773   7.357   2.753
 3538TIP3   OH210556   2.345   5.287   3.924
 3538TIP3    H110557   2.424   5.244   3.959
 3538TIP3    H210558   2.338   5.367   3.976
 3539TIP3   OH210559   5.892   7.781   2.806
 3539TIP3    H110560   5.932   7.718   2.746
 3539TIP3    H210561   5.961   7.845   2.823
 3540TIP3   OH210562   1.779   7.811   0.457
 3540TIP3    H110563   1.860   7.760   0.463
 3540TIP3    H210564   1.731   7.790   0.537
 3541TIP3   OH210565   6.708   5.542   0.708
 3541TIP3    H110566   6.695   5.636   0.717
 3541TIP3    H210567   6.624   5.504   0.733
 3542TIP3   OH210568   7.693   0.626   0.083
 3542TIP3    H110569   7.731   0.551   0.129
 3542TIP3    H210570   7.599   0.610   0.086
 3543TIP3   OH210571   6.447   0.595   3.471
 3543TIP3    H110572   6.516   0.651   3.436
 3543TIP3    H210573   6.481   0.564   3.555
 3544TIP3   OH210574   5.888   0.548   5.393
 3544TIP3    H110575   5.945   0.477   5.365
 3544TIP3    H210576   5.858   0.522   5.480
 3545TIP3   OH210577   1.370   1.501   3.210
 3545TIP3    H110578   1.278   1.477   3.219
 3545TIP3    H210579   1.371   1.596   3.214
 3546TIP3   OH210580   3.997   3.304   2.716
 3546TIP3    H110581   3.968   3.286   2.806
 3546TIP3    H210582   3.923   3.348   2.676
 3547TIP3   OH210583   4.394   6.190   5.671
 3547TIP3    H110584   4.450   6.162   5.598
 3547TIP3    H210585   4.454   6.197   5.745
 3548TIP3   OH210586   2.530   7.094   0.375
 3548TIP3    H110587   2.600   7.140   0.329
 3548TIP3    H210588   2.490   7.038   0.309
 3549TIP3   OH210589   6.698   0.559   6.289
 3549TIP3    H110590   6.745   0.487   6.246
 3549TIP3    H210591   6.636   0.516   6.347
 3550TIP3   OH210592   0.999   0.280   5.677
 3550TIP3    H110593   1.022   0.188   5.662
 3550TIP3    H210594   1.028   0.297   5.767
 3551TIP3   OH210595   0.863   5.383   5.769
 3551TIP3    H110596   0.814   5.460   5.797
 3551TIP3    H210597   0.941   5.419   5.727
 3552TIP3   OH210598   4.471   2.772   5.174
 3552TIP3    H110599   4.395   2.713   5.176
 3552TIP3    H210600   4.497   2.773   5.082
 3553TIP3   OH210601   0.725   1.237   3.708
 3553TIP3    H110602   0.790   1.235   3.778
 3553TIP3    H210603   0.773   1.269   3.632
 3554TIP3   OH210604   0.325   1.673   0.352
 3554TIP3    H110605   0.252   1.622   0.318
 3554TIP3    H210606   0.367   1.615   0.415
 3555TIP3   OH210607   0.194   7.154   2.449
 3555TIP3    H110608   0.167   7.246   2.449
 3555TIP3    H210609   0.153   7.117   2.371
 3556TIP3   OH210610   1.340   3.909   5.809
 3556TIP3    H110611   1.254   3.931   5.846
 3556TIP3    H210612   1.335   3.937   5.718
 3557TIP3   OH210613   6.287   7.747   6.154
 3557TIP3    H110614   6.376   7.745   6.189
 3557TIP3    H210615   6.274   7.838   6.127
 3558TIP3   OH210616   4.641   1.011   5.932
 3558TIP3    H110617   4.583   0.998   6.006
 3558TIP3    H210618   4.607   1.088   5.887
 3559TIP3   OH210619   1.237   4.914   0.244
 3559TIP3    H110620   1.230   4.899   0.338
 3559TIP3    H210621   1.267   5.004   0.236
 3560TIP3   OH210622   6.268   5.478   2.018
 3560TIP3    H110623   6.351   5.432   2.029
 3560TIP3    H210624   6.202   5.413   2.042
 3561TIP3   OH210625   6.822   3.055   0.024
 3561TIP3    H110626   6.783   3.037   0.110
 3561TIP3    H210627   6.751   3.095  -0.026
 3562TIP3   OH210628   7.122   4.317   0.697
 3562TIP3    H110629   7.180   4.280   0.762
 3562TIP3    H210630   7.118   4.411   0.717
 3563TIP3   OH210631   0.485   4.357   4.785
 3563TIP3    H110632   0.433   4.276   4.784
 3563TIP3    H210633   0.419   4.427   4.788
 3564TIP3   OH210634   4.907   4.977   6.072
 3564TIP3    H110635   4.830   4.968   6.016
 3564TIP3    H210636   4.896   4.909   6.139
 3565TIP3   OH210637   7.075   1.071   0.872
 3565TIP3    H110638   7.051   0.980   0.856
 3565TIP3    H210639   7.045   1.089   0.960
 3566TIP3   OH210640   1.999   2.779   6.070
 3566TIP3    H110641   1.936   2.740   6.009
 3566TIP3    H210642   2.003   2.871   6.043
 3567TIP3   OH210643   4.299   4.858   1.665
 3567TIP3    H110644   4.282   4.862   1.571
 3567TIP3    H210645   4.297   4.949   1.694
 3568TIP3   OH210646   4.706   4.402   1.827
 3568TIP3    H110647   4.618   4.440   1.817
 3568TIP3    H210648   4.696   4.339   1.899
 3569TIP3   OH210649   4.164   7.203   4.512
 3569TIP3    H110650   4.215   7.127   4.484
 3569TIP3    H210651   4.216   7.242   4.582
 3570TIP3   OH210652   1.971   6.176   6.369
 3570TIP3    H110653   1.936   6.248   6.317
 3570TIP3    H210654   1.901   6.110   6.369
 3571TIP3   OH210655   1.104   5.524   5.731
 3571TIP3    H110656   1.048   5.568   5.795
 3571TIP3    H210657   1.157   5.595   5.693
 3572TIP3   OH210658   6.196   3.281   4.961
 3572TIP3    H110659   6.147   3.199   4.958
 3572TIP3    H210660   6.244   3.283   4.879
 3573TIP3   OH210661   1.003   7.689   4.689
 3573TIP3    H110662   0.995   7.606   4.641
 3573TIP3    H210663   1.093   7.688   4.722
 3574TIP3   OH210664   2.979   3.169   5.298
 3574TIP3    H110665   3.051   3.223   5.333
 3574TIP3    H210666   2.977   3.093   5.357
 3575TIP3   OH210667   3.329   7.501   1.267
 3575TIP3    H110668   3.422   7.477   1.262
 3575TIP3    H210669   3.307   7.527   1.178
 3576TIP3   OH210670   5.636   5.477   6.193
 3576TIP3    H110671   5.687   5.550   6.157
 3576TIP3    H210672   5.592   5.515   6.270
 3577TIP3   OH210673   0.123   5.732   1.842
 3577TIP3    H110674   0.031   5.719   1.820
 3577TIP3    H210675   0.170   5.687   1.772
 3578TIP3   OH210676   1.087   5.305   3.455
 3578TIP3    H110677   1.077   5.227   3.510
 3578TIP3    H210678   1.001   5.315   3.413
 3579TIP3   OH210679   2.063   2.680   6.323
 3579TIP3    H110680   2.153   2.647   6.329
 3579TIP3    H210681   2.043   2.677   6.230
 3580TIP3   OH210682   4.215   1.590   2.174
 3580TIP3    H110683   4.219   1.495   2.163
 3580TIP3    H210684   4.124   1.607   2.198
 3581TIP3   OH210685   3.048   0.554   3.198
 3581TIP3    H110686   3.037   0.590   3.286
 3581TIP3    H210687   3.095   0.622   3.150
 3582TIP3   OH210688   5.654   1.696   1.952
 3582TIP3    H110689   5.585   1.761   1.968
 3582TIP3    H210690   5.654   1.642   2.031
 3583TIP3   OH210691   2.205   6.958   2.756
 3583TIP3    H110692   2.237   6.888   2.813
 3583TIP3    H210693   2.258   6.951   2.677
 3584TIP3   OH210694   0.710   6.850   5.668
 3584TIP3    H110695   0.713   6.939   5.635
 3584TIP3    H210696   0.665   6.800   5.599
 3585TIP3   OH210697   0.170   1.481   4.708
 3585TIP3    H110698   0.195   1.446   4.622
 3585TIP3    H210699   0.217   1.426   4.771
 3586TIP3   OH210700   3.980   1.240   0.116
 3586TIP3    H110701   3.983   1.161   0.170
 3586TIP3    H210702   4.050   1.229   0.053
 3587TIP3   OH210703   4.435   4.268   6.693
 3587TIP3    H110704   4.456   4.324   6.767
 3587TIP3    H210705   4.370   4.318   6.643
 3588TIP3   OH210706   5.402   5.874   3.807
 3588TIP3    H110707   5.353   5.930   3.748
 3588TIP3    H210708   5.346   5.798   3.821
 3589TIP3   OH210709   2.511   2.119   5.911
 3589TIP3    H110710   2.430   2.101   5.960
 3589TIP3    H210711   2.573   2.053   5.942
 3590TIP3   OH210712   5.098   5.932   0.411
 3590TIP3    H110713   5.064   5.865   0.352
 3590TIP3    H210714   5.021   5.970   0.452
 3591TIP3   OH210715   0.077   7.167   1.856
 3591TIP3    H110716   0.038   7.083   1.878
 3591TIP3    H210717   0.031   7.196   1.778
 3592TIP3   OH210718   0.496   0.283   2.550
 3592TIP3    H110719   0.444   0.202   2.545
 3592TIP3    H210720   0.499   0.314   2.459
 3593TIP3   OH210721   5.725   3.859   1.946
 3593TIP3    H110722   5.663   3.932   1.948
 3593TIP3    H210723   5.800   3.890   1.997
 3594TIP3   OH210724   7.538   4.754   5.709
 3594TIP3    H110725   7.513   4.681   5.767
 3594TIP3    H210726   7.498   4.831   5.749
 3595TIP3   OH210727   5.809   0.335   0.251
 3595TIP3    H110728   5.823   0.406   0.315
 3595TIP3    H210729   5.718   0.345   0.224
 3596TIP3   OH210730   3.840   3.610   4.356
 3596TIP3    H110731   3.857   3.625   4.449
 3596TIP3    H210732   3.779   3.680   4.331
 3597TIP3   OH210733   2.220   3.917   3.936
 3597TIP3    H110734   2.240   3.989   3.997
 3597TIP3    H210735   2.125   3.921   3.925
 3598TIP3   OH210736   7.990   3.630   6.689
 3598TIP3    H110737   8.000   3.600   6.780
 3598TIP3    H210738   8.075   3.669   6.668
 3599TIP3   OH210739   5.688   4.040   4.002
 3599TIP3    H110740   5.745   4.023   4.077
 3599TIP3    H210741   5.608   4.075   4.041
 3600TIP3   OH210742   4.452   5.476   2.170
 3600TIP3    H110743   4.528   5.506   2.120
 3600TIP3    H210744   4.482   5.475   2.261
 3601TIP3   OH210745   7.590   0.149   1.799
 3601TIP3    H110746   7.577   0.171   1.707
 3601TIP3    H210747   7.526   0.080   1.817
 3602TIP3   OH210748   7.525   3.127   3.481
 3602TIP3    H110749   7.578   3.048   3.468
 3602TIP3    H210750   7.509   3.129   3.575
 3603TIP3   OH210751  -0.021   4.751   0.771
 3603TIP3    H110752  -0.036   4.679   0.832
 3603TIP3    H210753   0.064   4.787   0.798
 3604TIP3   OH210754   0.894   1.962   6.390
 3604TIP3    H110755   0.931   1.895   6.448
 3604TIP3    H210756   0.806   1.978   6.425
 3605TIP3   OH210757   6.510   6.002   0.085
 3605TIP3    H110758   6.505   6.038  -0.003
 3605TIP3    H210759   6.602   6.010   0.110
 3606TIP3   OH210760   0.356   0.446   1.740
 3606TIP3    H110761   0.334   0.354   1.732
 3606TIP3    H210762   0.371   0.475   1.650
 3607TIP3   OH210763   3.337   4.348   0.541
 3607TIP3    H110764   3.263   4.289   0.524
 3607TIP3    H210765   3.411   4.306   0.499
 3608TIP3   OH210766   6.285   6.788   3.886
 3608TIP3    H110767   6.199   6.756   3.861
 3608TIP3    H210768   6.336   6.785   3.805
 3609TIP3   OH210769   0.506   1.442   3.550
 3609TIP3    H110770   0.602   1.439   3.551
 3609TIP3    H210771   0.486   1.535   3.544
 3610TIP3   OH210772   1.601   2.825   5.726
 3610TIP3    H110773   1.553   2.907   5.739
 3610TIP3    H210774   1.688   2.852   5.698
 3611TIP3   OH210775   7.992   5.757   0.429
 3611TIP3    H110776   7.987   5.683   0.490
 3611TIP3    H210777   7.953   5.830   0.477
 3612TIP3   OH210778   2.108   5.663   6.631
 3612TIP3    H110779   2.140   5.718   6.703
 3612TIP3    H210780   2.182   5.656   6.571
 3613TIP3   OH210781   7.574   2.364   4.572
 3613TIP3    H110782   7.590   2.446   4.619
 3613TIP3    H210783   7.588   2.296   4.638
 3614TIP3   OH210784   6.167   6.614   1.886
 3614TIP3    H110785   6.120   6.689   1.848
 3614TIP3    H210786   6.258   6.627   1.859
 3615TIP3   OH210787   3.897   3.484   5.622
 3615TIP3    H110788   3.883   3.390   5.629
 3615TIP3    H210789   3.906   3.501   5.528
 3616TIP3   OH210790   1.399   5.324   5.082
 3616TIP3    H110791   1.434   5.338   5.170
 3616TIP3    H210792   1.428   5.401   5.033
 3617TIP3   OH210793   3.159   2.585   3.901
 3617TIP3    H110794   3.141   2.666   3.949
 3617TIP3    H210795   3.125   2.601   3.813
 3618TIP3   OH210796   7.778   2.675   4.119
 3618TIP3    H110797   7.701   2.618   4.108
 3618TIP3    H210798   7.825   2.637   4.193
 3619TIP3   OH210799   7.763   0.734   0.488
 3619TIP3    H110800   7.780   0.640   0.486
 3619TIP3    H210801   7.675   0.744   0.453
 3620TIP3   OH210802   6.983   4.833   1.863
 3620TIP3    H110803   7.065   4.786   1.856
 3620TIP3    H210804   7.000   4.918   1.823
 3621TIP3   OH210805   4.978   3.077   4.532
 3621TIP3    H110806   4.920   3.150   4.512
 3621TIP3    H210807   4.971   3.066   4.627
 3622TIP3   OH210808   0.308   6.609   3.674
 3622TIP3    H110809   0.298   6.596   3.769
 3622TIP3    H210810   0.219   6.607   3.640
 3623TIP3   OH210811   1.560   4.080   3.473
 3623TIP3    H110812   1.570   3.985   3.482
 3623TIP3    H210813   1.483   4.091   3.418
 3624TIP3   OH210814   3.779   5.794   2.783
 3624TIP3    H110815   3.795   5.747   2.865
 3624TIP3    H210816   3.685   5.811   2.783
 3625TIP3   OH210817   6.794   7.526   3.827
 3625TIP3    H110818   6.858   7.465   3.863
 3625TIP3    H210819   6.845   7.604   3.805
 3626TIP3   OH210820   3.544   1.237   1.158
 3626TIP3    H110821   3.460   1.254   1.199
 3626TIP3    H210822   3.541   1.285   1.076
 3627TIP3   OH210823   4.303   3.188   2.143
 3627TIP3    H110824   4.369   3.235   2.194
 3627TIP3    H210825   4.350   3.157   2.066
 3628TIP3   OH210826   1.042   1.095   1.586
 3628TIP3    H110827   1.030   1.016   1.533
 3628TIP3    H210828   1.134   1.091   1.614
 3629TIP3   OH210829   5.334   3.112   1.053
 3629TIP3    H110830   5.350   3.146   0.965
 3629TIP3    H210831   5.291   3.028   1.039
 3630TIP3   OH210832   2.844   4.943   5.347
 3630TIP3    H110833   2.938   4.945   5.367
 3630TIP3    H210834   2.802   4.940   5.433
 3631TIP3   OH210835   7.999   0.364   1.239
 3631TIP3    H110836   8.059   0.438   1.229
 3631TIP3    H210837   7.939   0.370   1.165
 3632TIP3   OH210838   1.116   0.694   2.090
 3632TIP3    H110839   1.099   0.631   2.021
 3632TIP3    H210840   1.074   0.775   2.060
 3633TIP3   OH210841   3.804   0.091   0.161
 3633TIP3    H110842   3.858   0.018   0.130
 3633TIP3    H210843   3.860   0.168   0.152
 3634TIP3   OH210844   7.915   3.769   2.668
 3634TIP3    H110845   7.909   3.759   2.573
 3634TIP3    H210846   7.975   3.699   2.696
 3635TIP3   OH210847   4.873   6.209   1.374
 3635TIP3    H110848   4.836   6.166   1.452
 3635TIP3    H210849   4.901   6.294   1.405
 3636TIP3   OH210850   2.020   2.892   1.763
 3636TIP3    H110851   1.969   2.885   1.843
 3636TIP3    H210852   2.040   2.985   1.755
 3637TIP3   OH210853   6.901   2.343   0.171
 3637TIP3    H110854   6.860   2.283   0.109
 3637TIP3    H210855   6.833   2.364   0.234
 3638TIP3   OH210856   6.011   1.514   5.625
 3638TIP3    H110857   5.946   1.521   5.694
 3638TIP3    H210858   5.961   1.492   5.546
 3639TIP3   OH210859   5.889   2.397   0.960
 3639TIP3    H110860   5.840   2.316   0.971
 3639TIP3    H210861   5.875   2.445   1.041
 3640TIP3   OH210862   6.990   2.388   0.735
 3640TIP3    H110863   7.030   2.472   0.756
 3640TIP3    H210864   6.981   2.343   0.819
 3641TIP3   OH210865   2.182   4.628   1.658
 3641TIP3    H110866   2.206   4.657   1.746
 3641TIP3    H210867   2.265   4.603   1.617
 3642TIP3   OH210868   6.936   2.205   4.081
 3642TIP3    H110869   7.014   2.252   4.052
 3642TIP3    H210870   6.965   2.114   4.089
 3643TIP3   OH210871   3.636   7.073   1.711
 3643TIP3    H110872   3.729   7.067   1.690
 3643TIP3    H210873   3.631   7.137   1.781
 3644TIP3   OH210874   4.524   1.401   2.514
 3644TIP3    H110875   4.429   1.399   2.528
 3644TIP3    H210876   4.553   1.313   2.538
 3645TIP3   OH210877   0.130   5.863   3.855
 3645TIP3    H110878   0.215   5.904   3.868
 3645TIP3    H210879   0.095   5.853   3.944
 3646TIP3   OH210880   7.709   3.750   6.764
 3646TIP3    H110881   7.762   3.722   6.690
 3646TIP3    H210882   7.759   3.723   6.841
 3647TIP3   OH210883   0.266   5.531   6.663
 3647TIP3    H110884   0.297   5.441   6.669
 3647TIP3    H210885   0.219   5.535   6.580
 3648TIP3   OH210886   0.978   2.204   5.075
 3648TIP3    H110887   1.026   2.281   5.046
 3648TIP3    H210888   0.904   2.198   5.015
 3649TIP3   OH210889   7.279   4.000   1.435
 3649TIP3    H110890   7.233   4.051   1.369
 3649TIP3    H210891   7.334   4.063   1.481
 3650TIP3   OH210892   7.501   0.406   2.298
 3650TIP3    H110893   7.415   0.364   2.294
 3650TIP3    H210894   7.557   0.342   2.343
 3651TIP3   OH210895   5.846   2.188   5.319
 3651TIP3    H110896   5.756   2.165   5.343
 3651TIP3    H210897   5.847   2.180   5.223
 3652TIP3   OH210898   8.190   0.247   6.157
 3652TIP3    H110899   8.209   0.339   6.176
 3652TIP3    H210900   8.275   0.206   6.145
 3653TIP3   OH210901   4.059   1.396   6.668
 3653TIP3    H110902   4.044   1.484   6.632
 3653TIP3    H210903   4.154   1.389   6.674
 3654TIP3   OH210904   5.859   7.083   5.118
 3654TIP3    H110905   5.866   7.156   5.057
 3654TIP3    H210906   5.876   7.005   5.065
 3655TIP3   OH210907   1.655   2.138   0.274
 3655TIP3    H110908   1.605   2.215   0.248
 3655TIP3    H210909   1.603   2.099   0.345
 3656TIP3   OH210910   6.857   4.280   6.388
 3656TIP3    H110911   6.949   4.296   6.367
 3656TIP3    H210912   6.808   4.320   6.316
 3657TIP3   OH210913   4.817   5.333   3.174
 3657TIP3    H110914   4.856   5.418   3.193
 3657TIP3    H210915   4.852   5.274   3.240
 3658TIP3   OH210916   2.048   3.292   4.468
 3658TIP3    H110917   2.104   3.215   4.476
 3658TIP3    H210918   1.963   3.263   4.500
 3659TIP3   OH210919   5.908   4.574   5.055
 3659TIP3    H110920   5.952   4.617   5.128
 3659TIP3    H210921   5.862   4.644   5.009
 3660TIP3   OH210922   5.779   2.099   4.711
 3660TIP3    H110923   5.757   2.192   4.705
 3660TIP3    H210924   5.786   2.070   4.620
 3661TIP3   OH210925   6.612   5.471   1.933
 3661TIP3    H110926   6.698   5.509   1.946
 3661TIP3    H210927   6.621   5.416   1.855
 3662TIP3   OH210928   2.509   6.904   1.095
 3662TIP3    H110929   2.558   6.985   1.077
 3662TIP3    H210930   2.563   6.835   1.058
 3663TIP3   OH210931   7.409   5.649   2.340
 3663TIP3    H110932   7.326   5.604   2.333
 3663TIP3    H210933   7.389   5.740   2.316
 3664TIP3   OH210934   7.909   4.827   1.663
 3664TIP3    H110935   7.961   4.801   1.587
 3664TIP3    H210936   7.904   4.923   1.656
 3665TIP3   OH210937   4.957   5.396   0.694
 3665TIP3    H110938   4.899   5.352   0.756
 3665TIP3    H210939   5.035   5.418   0.745
 3666TIP3   OH210940   1.399   5.139   3.954
 3666TIP3    H110941   1.411   5.232   3.971
 3666TIP3    H210942   1.307   5.122   3.973
 3667TIP3   OH210943   0.448   5.108   2.206
 3667TIP3    H110944   0.466   5.148   2.121
 3667TIP3    H210945   0.360   5.070   2.195
 3668TIP3   OH210946   7.823   4.197   2.144
 3668TIP3    H110947   7.875   4.134   2.194
 3668TIP3    H210948   7.884   4.268   2.125
 3669TIP3   OH210949   1.648   3.166   3.065
 3669TIP3    H110950   1.615   3.146   3.153
 3669TIP3    H210951   1.689   3.252   3.074
 3670TIP3   OH210952   2.250   7.246   6.752
 3670TIP3    H110953   2.329   7.233   6.806
 3670TIP3    H210954   2.279   7.302   6.680
 3671TIP3   OH210955   6.718   3.746   4.775
 3671TIP3    H110956   6.749   3.758   4.685
 3671TIP3    H210957   6.724   3.652   4.790
 3672TIP3   OH210958   6.065   0.356   5.304
 3672TIP3    H110959   6.059   0.260   5.300
 3672TIP3    H210960   6.079   0.383   5.213
 3673TIP3   OH210961   5.044   5.297   4.885
 3673TIP3    H110962   4.987   5.223   4.905
 3673TIP3    H210963   5.013   5.366   4.944
 3674TIP3   OH210964   0.666   6.847   1.203
 3674TIP3    H110965   0.752   6.812   1.227
 3674TIP3    H210966   0.645   6.804   1.120
 3675TIP3   OH210967   6.068   4.717   5.742
 3675TIP3    H110968   6.063   4.627   5.712
 3675TIP3    H210969   6.010   4.766   5.684
 3676TIP3   OH210970   5.159   2.096   4.666
 3676TIP3    H110971   5.226   2.065   4.605
 3676TIP3    H210972   5.081   2.108   4.611
 3677TIP3   OH210973   7.129   3.780   2.784
 3677TIP3    H110974   7.148   3.845   2.852
 3677TIP3    H210975   7.121   3.832   2.703
 3678TIP3   OH210976   2.547   7.490   1.460
 3678TIP3    H110977   2.614   7.547   1.421
 3678TIP3    H210978   2.592   7.446   1.531
 3679TIP3   OH210979   3.672   6.039   5.331
 3679TIP3    H110980   3.717   6.119   5.358
 3679TIP3    H210981   3.604   6.070   5.270
 3680TIP3   OH210982   1.913   5.311   6.067
 3680TIP3    H110983   1.855   5.247   6.025
 3680TIP3    H210984   1.945   5.365   5.994
 3681TIP3   OH210985   5.000   2.130   2.990
 3681TIP3    H110986   4.910   2.114   2.962
 3681TIP3    H210987   5.054   2.084   2.926
 3682TIP3   OH210988   2.923   0.923   1.211
 3682TIP3    H110989   2.949   0.931   1.119
 3682TIP3    H210990   2.984   0.981   1.258
 3683TIP3   OH210991   6.354   0.838   3.697
 3683TIP3    H110992   6.299   0.781   3.644
 3683TIP3    H210993   6.430   0.856   3.642
 3684TIP3   OH210994   1.749   6.187   2.425
 3684TIP3    H110995   1.812   6.233   2.480
 3684TIP3    H210996   1.801   6.119   2.381
 3685TIP3   OH210997   6.909   1.291   1.818
 3685TIP3    H110998   6.822   1.332   1.814
 3685TIP3    H210999   6.945   1.319   1.901
 3686TIP3   OH211000   3.851   4.240   1.265
 3686TIP3    H111001   3.944   4.219   1.271
 3686TIP3    H211002   3.816   4.222   1.352
 3687TIP3   OH211003   4.895   4.572   2.258
 3687TIP3    H111004   4.972   4.614   2.218
 3687TIP3    H211005   4.840   4.549   2.184
 3688TIP3   OH211006   2.504   4.946   5.897
 3688TIP3    H111007   2.419   4.967   5.859
 3688TIP3    H211008   2.484   4.900   5.978
 3689TIP3   OH211009   0.751   7.169   3.087
 3689TIP3    H111010   0.716   7.196   3.172
 3689TIP3    H211011   0.677   7.179   3.027
 3690TIP3   OH211012   1.543   4.775   1.662
 3690TIP3    H111013   1.489   4.749   1.736
 3690TIP3    H211014   1.485   4.770   1.586
 3691TIP3   OH211015   5.819   2.743   0.802
 3691TIP3    H111016   5.776   2.723   0.886
 3691TIP3    H211017   5.866   2.825   0.819
 3692TIP3   OH211018   2.057   1.146   1.461
 3692TIP3    H111019   2.087   1.208   1.528
 3692TIP3    H211020   2.114   1.070   1.471
 3693TIP3   OH211021   1.714   3.788   5.545
 3693TIP3    H111022   1.808   3.787   5.528
 3693TIP3    H211023   1.674   3.788   5.458
 3694TIP3   OH211024   0.239   1.496   6.560
 3694TIP3    H111025   0.155   1.474   6.519
 3694TIP3    H211026   0.253   1.588   6.538
 3695TIP3   OH211027   0.158   5.369   1.990
 3695TIP3    H111028   0.199   5.408   2.068
 3695TIP3    H211029   0.207   5.288   1.976
 3696TIP3   OH211030   2.357   6.179   1.989
 3696TIP3    H111031   2.384   6.223   2.070
 3696TIP3    H211032   2.329   6.250   1.932
 3697TIP3   OH211033   5.141   3.830   6.728
 3697TIP3    H111034   5.074   3.835   6.659
 3697TIP3    H211035   5.098   3.785   6.800
 3698TIP3   OH211036   3.624   4.164   1.976
 3698TIP3    H111037   3.678   4.086   1.992
 3698TIP3    H211038   3.680   4.221   1.922
 3699TIP3   OH211039   2.967   2.708   0.517
 3699TIP3    H111040   2.880   2.671   0.502
 3699TIP3    H211041   3.025   2.659   0.458
 3700TIP3   OH211042   5.048   5.831   2.027
 3700TIP3    H111043   4.986   5.765   2.057
 3700TIP3    H211044   5.133   5.802   2.062
 3701TIP3   OH211045   5.207   1.893   6.331
 3701TIP3    H111046   5.291   1.848   6.341
 3701TIP3    H211047   5.190   1.931   6.417
 3702TIP3   OH211048   1.014   5.079   3.590
 3702TIP3    H111049   0.939   5.058   3.646
 3702TIP3    H211050   1.088   5.037   3.632
 3703TIP3   OH211051   6.793   3.883   2.841
 3703TIP3    H111052   6.794   3.809   2.901
 3703TIP3    H211053   6.740   3.949   2.885
 3704TIP3   OH211054   8.253   7.869   5.858
 3704TIP3    H111055   8.157   7.876   5.861
 3704TIP3    H211056   8.269   7.789   5.809
 3705TIP3   OH211057   2.677   0.148   6.593
 3705TIP3    H111058   2.758   0.126   6.639
 3705TIP3    H211059   2.684   0.102   6.509
 3706TIP3   OH211060   7.505   2.013   5.438
 3706TIP3    H111061   7.571   2.058   5.491
 3706TIP3    H211062   7.484   1.934   5.487
 3707TIP3   OH211063   0.024   2.243   6.384
 3707TIP3    H111064   0.117   2.231   6.404
 3707TIP3    H211065   0.021   2.324   6.333
 3708TIP3   OH211066   1.482   1.462   5.399
 3708TIP3    H111067   1.504   1.425   5.313
 3708TIP3    H211068   1.548   1.426   5.458
 3709TIP3   OH211069   3.506   2.993   5.675
 3709TIP3    H111070   3.509   2.898   5.661
 3709TIP3    H211071   3.445   3.025   5.608
 3710TIP3   OH211072   8.023   2.962   5.321
 3710TIP3    H111073   8.008   3.037   5.379
 3710TIP3    H211074   8.034   2.888   5.381
 3711TIP3   OH211075   1.174   2.118   6.560
 3711TIP3    H111076   1.211   2.086   6.642
 3711TIP3    H211077   1.239   2.094   6.494
 3712TIP3   OH211078   6.649   0.266   0.874
 3712TIP3    H111079   6.617   0.176   0.862
 3712TIP3    H211080   6.723   0.257   0.934
 3713TIP3   OH211081   0.902   3.484   3.282
 3713TIP3    H111082   0.811   3.507   3.302
 3713TIP3    H211083   0.909   3.392   3.306
 3714TIP3   OH211084   0.873   1.611   4.856
 3714TIP3    H111085   0.871   1.706   4.845
 3714TIP3    H211086   0.781   1.585   4.859
 3715TIP3   OH211087   6.989   2.808   3.087
 3715TIP3    H111088   6.940   2.727   3.073
 3715TIP3    H211089   6.971   2.832   3.177
 3716TIP3   OH211090   6.011   0.733   1.645
 3716TIP3    H111091   6.061   0.656   1.617
 3716TIP3    H211092   5.938   0.696   1.696
 3717TIP3   OH211093   1.023   4.027   4.452
 3717TIP3    H111094   0.954   3.970   4.487
 3717TIP3    H211095   0.983   4.071   4.378
 3718TIP3   OH211096   7.956   0.415   3.315
 3718TIP3    H111097   8.008   0.399   3.394
 3718TIP3    H211098   7.872   0.374   3.333
 3719TIP3   OH211099   4.771   6.476   6.349
 3719TIP3    H111100   4.765   6.393   6.302
 3719TIP3    H211101   4.681   6.499   6.370
 3720TIP3   OH211102   3.854   5.105  -0.020
 3720TIP3    H111103   3.928   5.164  -0.035
 3720TIP3    H211104   3.880   5.051   0.054
 3721TIP3   OH211105   1.654   7.454   4.818
 3721TIP3    H111106   1.576   7.404   4.799
 3721TIP3    H211107   1.727   7.396   4.794
 3722TIP3   OH211108   4.929   6.605   1.751
 3722TIP3    H111109   4.864   6.625   1.818
 3722TIP3    H211110   4.903   6.658   1.675
 3723TIP3   OH211111   2.715   2.585   0.504
 3723TIP3    H111112   2.646   2.646   0.528
 3723TIP3    H211113   2.696   2.560   0.414
 3724TIP3   OH211114   5.631   4.278   4.694
 3724TIP3    H111115   5.710   4.224   4.702
 3724TIP3    H211116   5.637   4.340   4.766
 3725TIP3   OH211117   0.348   1.447   5.606
 3725TIP3    H111118   0.295   1.398   5.543
 3725TIP3    H211119   0.284   1.498   5.656
 3726TIP3   OH211120   2.011   1.740   5.616
 3726TIP3    H111121   1.948   1.689   5.565
 3726TIP3    H211122   1.966   1.823   5.634
 3727TIP3   OH211123   3.383   6.693   6.163
 3727TIP3    H111124   3.401   6.734   6.247
 3727TIP3    H211125   3.433   6.744   6.100
 3728TIP3   OH211126   2.190   5.276   3.342
 3728TIP3    H111127   2.118   5.311   3.396
 3728TIP3    H211128   2.228   5.207   3.396
 3729TIP3   OH211129   6.634   1.634   5.615
 3729TIP3    H111130   6.618   1.665   5.525
 3729TIP3    H211131   6.547   1.629   5.654
 3730TIP3   OH211132   5.361   3.863   5.026
 3730TIP3    H111133   5.298   3.934   5.014
 3730TIP3    H211134   5.326   3.813   5.099
 3731TIP3   OH211135   0.116   5.261   1.354
 3731TIP3    H111136   0.198   5.308   1.374
 3731TIP3    H211137   0.055   5.331   1.329
 3732TIP3   OH211138   6.997   3.140   1.963
 3732TIP3    H111139   6.925   3.133   2.025
 3732TIP3    H211140   6.997   3.232   1.937
 3733TIP3   OH211141   2.310   3.129   4.460
 3733TIP3    H111142   2.247   3.088   4.521
 3733TIP3    H211143   2.346   3.056   4.411
 3734TIP3   OH211144   1.637   0.347   2.167
 3734TIP3    H111145   1.638   0.422   2.107
 3734TIP3    H211146   1.666   0.273   2.113
 3735TIP3   OH211147   5.396   1.493   6.355
 3735TIP3    H111148   5.383   1.584   6.381
 3735TIP3    H211149   5.308   1.460   6.336
 3736TIP3   OH211150   0.941   6.827   4.464
 3736TIP3    H111151   0.964   6.823   4.557
 3736TIP3    H211152   0.848   6.805   4.461
 3737TIP3   OH211153   6.861   7.263   2.632
 3737TIP3    H111154   6.943   7.277   2.583
 3737TIP3    H211155   6.886   7.275   2.724
 3738TIP3   OH211156   7.751   6.874   6.690
 3738TIP3    H111157   7.766   6.946   6.752
 3738TIP3    H211158   7.773   6.911   6.604
 3739TIP3   OH211159   0.039  -0.023   0.424
 3739TIP3    H111160   0.021   0.017   0.339
 3739TIP3    H211161   0.095   0.040   0.469
 3740TIP3   OH211162   3.932   0.427   3.373
 3740TIP3    H111163   3.902   0.506   3.418
 3740TIP3    H211164   3.999   0.457   3.312
 3741TIP3   OH211165   2.876   1.789   5.807
 3741TIP3    H111166   2.894   1.740   5.727
 3741TIP3    H211167   2.829   1.727   5.863
 3742TIP3   OH211168   4.780   5.207   3.651
 3742TIP3    H111169   4.763   5.151   3.727
 3742TIP3    H211170   4.748   5.294   3.677
 3743TIP3   OH211171   2.924   6.361   3.925
 3743TIP3    H111172   2.941   6.451   3.953
 3743TIP3    H211173   2.853   6.368   3.862
 3744TIP3   OH211174   7.960   5.075   1.556
 3744TIP3    H111175   8.012   5.088   1.476
 3744TIP3    H211176   8.016   5.106   1.627
 3745TIP3   OH211177   7.824   4.362   6.637
 3745TIP3    H111178   7.839   4.287   6.579
 3745TIP3    H211179   7.737   4.348   6.673
 3746TIP3   OH211180   5.569   5.435   3.989
 3746TIP3    H111181   5.592   5.352   3.948
 3746TIP3    H211182   5.599   5.426   4.080
 3747TIP3   OH211183   3.456   6.820   1.677
 3747TIP3    H111184   3.492   6.732   1.665
 3747TIP3    H211185   3.532   6.878   1.675
 3748TIP3   OH211186   1.226   1.416   1.398
 3748TIP3    H111187   1.247   1.333   1.439
 3748TIP3    H211188   1.311   1.454   1.376
 3749TIP3   OH211189   1.050   4.454   2.026
 3749TIP3    H111190   1.079   4.413   1.945
 3749TIP3    H211191   1.070   4.388   2.094
 3750TIP3   OH211192   4.169   4.367   1.801
 3750TIP3    H111193   4.184   4.417   1.881
 3750TIP3    H211194   4.079   4.386   1.777
 3751TIP3   OH211195   8.193   5.758   6.632
 3751TIP3    H111196   8.189   5.851   6.610
 3751TIP3    H211197   8.108   5.724   6.605
 3752TIP3   OH211198   2.756   5.139   5.168
 3752TIP3    H111199   2.746   5.116   5.075
 3752TIP3    H211200   2.774   5.056   5.211
 3753TIP3   OH211201   6.222   7.617   5.109
 3753TIP3    H111202   6.197   7.629   5.017
 3753TIP3    H211203   6.315   7.639   5.112
 3754TIP3   OH211204   2.427   6.081   4.104
 3754TIP3    H111205   2.346   6.031   4.092
 3754TIP3    H211206   2.438   6.087   4.199
 3755TIP3   OH211207   0.222   0.515   0.577
 3755TIP3    H111208   0.167   0.530   0.500
 3755TIP3    H211209   0.164   0.469   0.638
 3756TIP3   OH211210   1.191   4.749   3.487
 3756TIP3    H111211   1.127   4.680   3.466
 3756TIP3    H211212   1.209   4.736   3.580
 3757TIP3   OH211213   1.937   3.034   3.230
 3757TIP3    H111214   1.933   2.941   3.254
 3757TIP3    H211215   1.886   3.078   3.299
 3758TIP3   OH211216   5.605   1.423   3.371
 3758TIP3    H111217   5.519   1.415   3.330
 3758TIP3    H211218   5.598   1.372   3.452
 3759TIP3   OH211219   4.418   6.225   3.073
 3759TIP3    H111220   4.470   6.305   3.068
 3759TIP3    H211221   4.336   6.248   3.029
 3760TIP3   OH211222   5.917   3.169   5.748
 3760TIP3    H111223   5.823   3.180   5.734
 3760TIP3    H211224   5.926   3.078   5.776
 3761TIP3   OH211225   6.770   5.640   5.016
 3761TIP3    H111226   6.725   5.679   4.941
 3761TIP3    H211227   6.770   5.709   5.082
 3762TIP3   OH211228   0.943   6.253   6.553
 3762TIP3    H111229   0.968   6.341   6.579
 3762TIP3    H211230   0.854   6.242   6.586
 3763TIP3   OH211231   0.133   0.588   1.334
 3763TIP3    H111232   0.046   0.562   1.365
 3763TIP3    H211233   0.158   0.519   1.273
 3764TIP3   OH211234   7.510   5.959   1.995
 3764TIP3    H111235   7.507   5.947   2.090
 3764TIP3    H211236   7.481   6.050   1.982
 3765TIP3   OH211237   4.419   1.781   2.772
 3765TIP3    H111238   4.397   1.802   2.681
 3765TIP3    H211239   4.427   1.866   2.815
 3766TIP3   OH211240   5.102   7.143   0.143
 3766TIP3    H111241   5.084   7.176   0.054
 3766TIP3    H211242   5.166   7.205   0.179
 3767TIP3   OH211243   2.677   2.692   5.424
 3767TIP3    H111244   2.720   2.690   5.339
 3767TIP3    H211245   2.584   2.703   5.404
 3768TIP3   OH211246   4.247   1.790   3.203
 3768TIP3    H111247   4.212   1.753   3.284
 3768TIP3    H211248   4.274   1.878   3.227
 3769TIP3   OH211249   7.327   2.150   6.686
 3769TIP3    H111250   7.320   2.206   6.763
 3769TIP3    H211251   7.345   2.210   6.614
 3770TIP3   OH211252   7.721   6.778   5.986
 3770TIP3    H111253   7.637   6.808   5.951
 3770TIP3    H211254   7.731   6.825   6.069
 3771TIP3   OH211255   6.703  -0.024   6.549
 3771TIP3    H111256   6.683   0.051   6.493
 3771TIP3    H211257   6.757   0.013   6.619
 3772TIP3   OH211258   4.405   2.706   6.718
 3772TIP3    H111259   4.412   2.784   6.663
 3772TIP3    H211260   4.450   2.729   6.799
 3773TIP3   OH211261   7.583   6.321   2.965
 3773TIP3    H111262   7.638   6.252   2.927
 3773TIP3    H211263   7.619   6.335   3.053
 3774TIP3   OH211264   8.248   7.566   4.076
 3774TIP3    H111265   8.192   7.630   4.120
 3774TIP3    H211266   8.252   7.493   4.137
 3775TIP3   OH211267   0.065   7.160   6.787
 3775TIP3    H111268   0.068   7.073   6.827
 3775TIP3    H211269   0.053   7.143   6.694
 3776TIP3   OH211270   0.785   4.531   2.309
 3776TIP3    H111271   0.839   4.611   2.311
 3776TIP3    H211272   0.838   4.466   2.353
 3777TIP3   OH211273   7.195   2.581   5.438
 3777TIP3    H111274   7.118   2.539   5.477
 3777TIP3    H211275   7.167   2.671   5.421
 3778TIP3   OH211276   0.783   4.037   6.134
 3778TIP3    H111277   0.713   4.093   6.167
 3778TIP3    H211278   0.751   3.948   6.147
 3779TIP3   OH211279   0.549   5.323   2.354
 3779TIP3    H111280   0.512   5.250   2.304
 3779TIP3    H211281   0.644   5.316   2.341
 3780TIP3   OH211282   5.213   4.310   6.658
 3780TIP3    H111283   5.130   4.295   6.704
 3780TIP3    H211284   5.260   4.227   6.665
 3781TIP3   OH211285   4.390   4.829   2.026
 3781TIP3    H111286   4.366   4.911   1.983
 3781TIP3    H211287   4.314   4.806   2.079
 3782TIP3   OH211288   2.636   7.130   6.396
 3782TIP3    H111289   2.651   7.221   6.422
 3782TIP3    H211290   2.665   7.078   6.471
 3783TIP3   OH211291   5.562   7.558   4.847
 3783TIP3    H111292   5.588   7.504   4.773
 3783TIP3    H211293   5.576   7.648   4.818
 3784TIP3   OH211294   3.579   0.755   5.024
 3784TIP3    H111295   3.487   0.776   5.005
 3784TIP3    H211296   3.600   0.684   4.962
 3785TIP3   OH211297   3.458   0.835   2.724
 3785TIP3    H111298   3.448   0.739   2.725
 3785TIP3    H211299   3.419   0.862   2.641
 3786TIP3   OH211300   4.915   0.578   4.492
 3786TIP3    H111301   4.967   0.500   4.510
 3786TIP3    H211302   4.939   0.640   4.560
 3787TIP3   OH211303   6.784   7.115   4.886
 3787TIP3    H111304   6.796   7.151   4.798
 3787TIP3    H211305   6.720   7.044   4.875
 3788TIP3   OH211306   8.104   4.002   5.986
 3788TIP3    H111307   8.117   3.929   6.046
 3788TIP3    H211308   8.126   3.966   5.900
 3789TIP3   OH211309   3.615   4.316   0.710
 3789TIP3    H111310   3.572   4.282   0.631
 3789TIP3    H211311   3.596   4.250   0.777
 3790TIP3   OH211312   6.584   3.193   0.876
 3790TIP3    H111313   6.672   3.205   0.840
 3790TIP3    H211314   6.592   3.119   0.935
 3791TIP3   OH211315   5.298   1.546   1.615
 3791TIP3    H111316   5.303   1.532   1.709
 3791TIP3    H211317   5.245   1.625   1.605
 3792TIP3   OH211318   2.659   2.925   4.053
 3792TIP3    H111319   2.574   2.962   4.078
 3792TIP3    H211320   2.719   3.000   4.055
 3793TIP3   OH211321   6.839   2.930   2.906
 3793TIP3    H111322   6.891   2.897   2.979
 3793TIP3    H211323   6.763   2.871   2.902
 3794TIP3   OH211324   1.784   4.590   0.104
 3794TIP3    H111325   1.874   4.621   0.113
 3794TIP3    H211326   1.753   4.630   0.023
 3795TIP3   OH211327   1.190   1.171   3.137
 3795TIP3    H111328   1.154   1.226   3.067
 3795TIP3    H211329   1.281   1.155   3.111
 3796TIP3   OH211330   4.962   3.928   1.862
 3796TIP3    H111331   4.914   3.995   1.815
 3796TIP3    H211332   5.018   3.888   1.795
 3797TIP3   OH211333   1.490   0.850   5.023
 3797TIP3    H111334   1.420   0.916   5.027
 3797TIP3    H211335   1.444   0.767   5.010
 3798TIP3   OH211336   0.620   4.897   3.632
 3798TIP3    H111337   0.695   4.925   3.684
 3798TIP3    H211338   0.591   4.976   3.586
 3799TIP3   OH211339   1.269   4.358   5.075
 3799TIP3    H111340   1.199   4.314   5.123
 3799TIP3    H211341   1.282   4.440   5.123
 3800TIP3   OH211342   6.465   5.340   2.142
 3800TIP3    H111343   6.535   5.367   2.083
 3800TIP3    H211344   6.461   5.245   2.132
 3801TIP3   OH211345   5.308   6.507   2.924
 3801TIP3    H111346   5.386   6.515   2.869
 3801TIP3    H211347   5.342   6.511   3.014
 3802TIP3   OH211348   7.343   1.024   1.454
 3802TIP3    H111349   7.401   0.955   1.424
 3802TIP3    H211350   7.302   0.990   1.533
 3803TIP3   OH211351   3.304   5.640   1.517
 3803TIP3    H111352   3.316   5.672   1.606
 3803TIP3    H211353   3.209   5.639   1.504
 3804TIP3   OH211354   0.492   3.300   5.563
 3804TIP3    H111355   0.478   3.232   5.496
 3804TIP3    H211356   0.587   3.310   5.567
 3805TIP3   OH211357   5.472   2.295   4.102
 3805TIP3    H111358   5.445   2.310   4.011
 3805TIP3    H211359   5.554   2.342   4.111
 3806TIP3   OH211360   6.152   3.186   1.116
 3806TIP3    H111361   6.195   3.206   1.199
 3806TIP3    H211362   6.225   3.171   1.055
 3807TIP3   OH211363   4.436   7.240   2.438
 3807TIP3    H111364   4.388   7.182   2.379
 3807TIP3    H211365   4.477   7.182   2.502
 3808TIP3   OH211366   1.411   1.323   4.869
 3808TIP3    H111367   1.472   1.342   4.940
 3808TIP3    H211368   1.465   1.321   4.790
 3809TIP3   OH211369   3.491   0.646   3.994
 3809TIP3    H111370   3.462   0.718   4.050
 3809TIP3    H211371   3.481   0.568   4.048
 3810TIP3   OH211372   0.957   1.022   6.581
 3810TIP3    H111373   1.016   1.070   6.639
 3810TIP3    H211374   0.876   1.073   6.582
 3811TIP3   OH211375   6.056   0.294   0.122
 3811TIP3    H111376   6.112   0.371   0.109
 3811TIP3    H211377   5.990   0.323   0.185
 3812TIP3   OH211378   6.153   7.285   1.398
 3812TIP3    H111379   6.112   7.294   1.484
 3812TIP3    H211380   6.139   7.369   1.355
 3813TIP3   OH211381   3.537   7.796   1.328
 3813TIP3    H111382   3.558   7.875   1.279
 3813TIP3    H211383   3.559   7.724   1.269
 3814TIP3   OH211384   0.330   3.291   5.778
 3814TIP3    H111385   0.397   3.302   5.711
 3814TIP3    H211386   0.247   3.291   5.730
 3815TIP3   OH211387   5.125   0.710   0.163
 3815TIP3    H111388   5.159   0.700   0.074
 3815TIP3    H211389   5.197   0.685   0.220
 3816TIP3   OH211390   3.244   2.347   1.155
 3816TIP3    H111391   3.238   2.372   1.062
 3816TIP3    H211392   3.222   2.427   1.202
 3817TIP3   OH211393   2.158   3.986   4.411
 3817TIP3    H111394   2.093   3.949   4.351
 3817TIP3    H211395   2.113   4.060   4.452
 3818TIP3   OH211396   3.531   0.251   2.059
 3818TIP3    H111397   3.503   0.317   2.122
 3818TIP3    H211398   3.458   0.189   2.054
 3819TIP3   OH211399   5.691   5.695   4.817
 3819TIP3    H111400   5.636   5.750   4.760
 3819TIP3    H211401   5.744   5.758   4.866
 3820TIP3   OH211402   6.451   3.974   6.679
 3820TIP3    H111403   6.510   4.030   6.728
 3820TIP3    H211404   6.410   4.032   6.614
 3821TIP3   OH211405   7.309   4.332   2.075
 3821TIP3    H111406   7.325   4.426   2.080
 3821TIP3    H211407   7.391   4.295   2.040
 3822TIP3   OH211408   6.588   1.180   4.634
 3822TIP3    H111409   6.668   1.183   4.687
 3822TIP3    H211410   6.527   1.237   4.679
 3823TIP3   OH211411   4.252   6.502   5.182
 3823TIP3    H111412   4.196   6.574   5.156
 3823TIP3    H211413   4.217   6.474   5.267
 3824TIP3   OH211414   2.676   3.080   1.751
 3824TIP3    H111415   2.583   3.075   1.732
 3824TIP3    H211416   2.681   3.073   1.846
 3825TIP3   OH211417   3.614   0.481   1.911
 3825TIP3    H111418   3.583   0.406   1.963
 3825TIP3    H211419   3.642   0.443   1.828
 3826TIP3   OH211420   5.727   2.704   1.084
 3826TIP3    H111421   5.761   2.637   1.143
 3826TIP3    H211422   5.785   2.779   1.098
 3827TIP3   OH211423   1.225   3.724   3.273
 3827TIP3    H111424   1.187   3.681   3.197
 3827TIP3    H211425   1.289   3.660   3.307
 3828TIP3   OH211426   2.839   6.820   5.814
 3828TIP3    H111427   2.831   6.808   5.908
 3828TIP3    H211428   2.749   6.820   5.782
 3829TIP3   OH211429   2.686   6.614   3.996
 3829TIP3    H111430   2.710   6.629   3.905
 3829TIP3    H211431   2.590   6.609   3.995
 3830TIP3   OH211432   6.902   7.568   6.422
 3830TIP3    H111433   6.868   7.531   6.341
 3830TIP3    H211434   6.978   7.514   6.443
 3831TIP3   OH211435   7.913   5.464   5.621
 3831TIP3    H111436   7.968   5.429   5.691
 3831TIP3    H211437   7.964   5.449   5.541
 3832TIP3   OH211438   4.602   3.605   1.319
 3832TIP3    H111439   4.671   3.541   1.299
 3832TIP3    H211440   4.597   3.659   1.240
 3833TIP3   OH211441   5.889   1.170   3.250
 3833TIP3    H111442   5.864   1.122   3.171
 3833TIP3    H211443   5.961   1.227   3.222
 3834TIP3   OH211444   6.073   4.849   1.485
 3834TIP3    H111445   6.094   4.933   1.444
 3834TIP3    H211446   6.129   4.786   1.441
 3835TIP3   OH211447   4.170   1.072   2.277
 3835TIP3    H111448   4.168   0.989   2.325
 3835TIP3    H211449   4.261   1.102   2.285
 3836TIP3   OH211450   2.343   2.557   3.911
 3836TIP3    H111451   2.418   2.614   3.890
 3836TIP3    H211452   2.267   2.612   3.896
 3837TIP3   OH211453   6.995   0.387   2.271
 3837TIP3    H111454   7.085   0.357   2.261
 3837TIP3    H211455   7.000   0.483   2.267
 3838TIP3   OH211456   5.235   5.944   4.263
 3838TIP3    H111457   5.174   5.906   4.326
 3838TIP3    H211458   5.183   5.955   4.183
 3839TIP3   OH211459  -0.060   5.658   0.874
 3839TIP3    H111460  -0.032   5.617   0.792
 3839TIP3    H211461  -0.154   5.673   0.862
 3840TIP3   OH211462   7.499   5.897   1.443
 3840TIP3    H111463   7.563   5.828   1.457
 3840TIP3    H211464   7.497   5.945   1.527
 3841TIP3   OH211465   0.486   1.710   3.532
 3841TIP3    H111466   0.463   1.733   3.442
 3841TIP3    H211467   0.498   1.794   3.576
 3842TIP3   OH211468   7.456   6.595   2.695
 3842TIP3    H111469   7.451   6.608   2.790
 3842TIP3    H211470   7.520   6.660   2.665
 3843TIP3   OH211471   1.029   5.382   4.107
 3843TIP3    H111472   1.120   5.385   4.137
 3843TIP3    H211473   1.009   5.472   4.082
 3844TIP3   OH211474   5.911   7.183   4.862
 3844TIP3    H111475   5.871   7.247   4.802
 3844TIP3    H211476   6.000   7.213   4.874
 3845TIP3   OH211477   4.816   5.579   0.524
 3845TIP3    H111478   4.850   5.498   0.562
 3845TIP3    H211479   4.836   5.647   0.589
 3846TIP3   OH211480   3.444   0.382   6.657
 3846TIP3    H111481   3.404   0.443   6.596
 3846TIP3    H211482   3.534   0.413   6.666
 3847TIP3   OH211483   7.554   2.677   0.702
 3847TIP3    H111484   7.527   2.769   0.695
 3847TIP3    H211485   7.586   2.654   0.615
 3848TIP3   OH211486   1.591   2.011   2.091
 3848TIP3    H111487   1.617   1.920   2.105
 3848TIP3    H211488   1.668   2.052   2.051
 3849TIP3   OH211489   5.962   3.903   5.365
 3849TIP3    H111490   6.021   3.963   5.319
 3849TIP3    H211491   5.901   3.960   5.411
 3850TIP3   OH211492   8.007   3.295   5.148
 3850TIP3    H111493   7.926   3.344   5.164
 3850TIP3    H211494   7.997   3.262   5.059
 3851TIP3   OH211495   6.494   3.258   3.532
 3851TIP3    H111496   6.551   3.264   3.609
 3851TIP3    H211497   6.526   3.326   3.473
 3852TIP3   OH211498   6.596   6.954   4.750
 3852TIP3    H111499   6.668   6.893   4.770
 3852TIP3    H211500   6.576   6.938   4.658
 3853TIP3   OH211501   4.864   7.282   3.682
 3853TIP3    H111502   4.937   7.311   3.628
 3853TIP3    H211503   4.848   7.355   3.742
 3854TIP3   OH211504   1.010   7.607   5.188
 3854TIP3    H111505   1.058   7.633   5.109
 3854TIP3    H211506   0.972   7.688   5.221
 3855TIP3   OH211507   1.262   0.339   3.968
 3855TIP3    H111508   1.178   0.294   3.971
 3855TIP3    H211509   1.244   0.421   3.922
 3856TIP3   OH211510   1.858   0.643   3.806
 3856TIP3    H111511   1.923   0.625   3.874
 3856TIP3    H211512   1.849   0.739   3.807
 3857TIP3   OH211513   4.379   0.574   3.067
 3857TIP3    H111514   4.354   0.509   3.002
 3857TIP3    H211515   4.431   0.638   3.018
 3858TIP3   OH211516   4.100   5.814   3.056
 3858TIP3    H111517   4.123   5.803   3.149
 3858TIP3    H211518   4.169   5.768   3.009
 3859TIP3   OH211519   2.378   4.588   3.993
 3859TIP3    H111520   2.412   4.501   4.011
 3859TIP3    H211521   2.440   4.626   3.931
 3860TIP3   OH211522   1.840   1.973   5.213
 3860TIP3    H111523   1.892   2.033   5.159
 3860TIP3    H211524   1.883   1.974   5.298
 3861TIP3   OH211525   6.723   3.457   4.834
 3861TIP3    H111526   6.817   3.475   4.840
 3861TIP3    H211527   6.702   3.411   4.915
 3862TIP3   OH211528   6.690   0.616   5.919
 3862TIP3    H111529   6.778   0.610   5.954
 3862TIP3    H211530   6.643   0.670   5.983
 3863TIP3   OH211531   3.800   7.352   6.779
 3863TIP3    H111532   3.798   7.275   6.836
 3863TIP3    H211533   3.756   7.421   6.830
 3864TIP3   OH211534   2.876   0.143   4.119
 3864TIP3    H111535   2.840   0.168   4.034
 3864TIP3    H211536   2.801   0.113   4.170
 3865TIP3   OH211537   2.354   4.377   5.564
 3865TIP3    H111538   2.398   4.354   5.482
 3865TIP3    H211539   2.265   4.401   5.538
 3866TIP3   OH211540   7.592   7.080   0.546
 3866TIP3    H111541   7.629   7.158   0.505
 3866TIP3    H211542   7.497   7.096   0.546
 3867TIP3   OH211543   0.961   0.222   1.906
 3867TIP3    H111544   0.872   0.253   1.923
 3867TIP3    H211545   0.950   0.152   1.842
 3868TIP3   OH211546   5.302   2.300   6.231
 3868TIP3    H111547   5.383   2.249   6.243
 3868TIP3    H211548   5.327   2.390   6.255
 3869TIP3   OH211549   7.671   4.176   6.195
 3869TIP3    H111550   7.743   4.114   6.189
 3869TIP3    H211551   7.713   4.261   6.209
 3870TIP3   OH211552   5.911   4.493   1.189
 3870TIP3    H111553   5.850   4.466   1.121
 3870TIP3    H211554   5.998   4.476   1.151
 3871TIP3   OH211555   4.974   0.079   4.485
 3871TIP3    H111556   4.927   0.109   4.562
 3871TIP3    H211557   4.993  -0.013   4.503
 3872TIP3   OH211558   0.643   4.505   0.217
 3872TIP3    H111559   0.669   4.420   0.183
 3872TIP3    H211560   0.672   4.567   0.150
 3873TIP3   OH211561   8.039   1.198   6.671
 3873TIP3    H111562   8.123   1.224   6.633
 3873TIP3    H211563   8.060   1.128   6.732
 3874TIP3   OH211564   3.149   0.984   0.506
 3874TIP3    H111565   3.182   0.960   0.419
 3874TIP3    H211566   3.060   1.016   0.490
 3875TIP3   OH211567   3.052   3.665   4.450
 3875TIP3    H111568   3.021   3.602   4.385
 3875TIP3    H211569   2.992   3.739   4.443
 3876TIP3   OH211570   2.929   3.693   4.754
 3876TIP3    H111571   2.943   3.719   4.663
 3876TIP3    H211572   3.008   3.720   4.799
 3877TIP3   OH211573   1.666   1.239   1.929
 3877TIP3    H111574   1.611   1.277   1.860
 3877TIP3    H211575   1.681   1.149   1.900
 3878TIP3   OH211576   4.287   5.206   0.556
 3878TIP3    H111577   4.321   5.171   0.638
 3878TIP3    H211578   4.226   5.140   0.524
 3879TIP3   OH211579   4.356   4.768   4.977
 3879TIP3    H111580   4.279   4.769   5.034
 3879TIP3    H211581   4.430   4.781   5.036
 3880TIP3   OH211582   1.652   7.249   2.454
 3880TIP3    H111583   1.614   7.180   2.508
 3880TIP3    H211584   1.586   7.266   2.387
 3881TIP3   OH211585   0.954   6.169   5.499
 3881TIP3    H111586   0.918   6.257   5.503
 3881TIP3    H211587   1.039   6.176   5.541
 3882TIP3   OH211588   3.581   6.859   3.278
 3882TIP3    H111589   3.641   6.898   3.214
 3882TIP3    H211590   3.494   6.876   3.242
 3883TIP3   OH211591   3.118   3.375   4.541
 3883TIP3    H111592   3.109   3.331   4.626
 3883TIP3    H211593   3.170   3.453   4.559
 3884TIP3   OH211594   7.204   5.576   5.506
 3884TIP3    H111595   7.283   5.618   5.470
 3884TIP3    H211596   7.236   5.530   5.583
 3885TIP3   OH211597   6.809   1.937   5.687
 3885TIP3    H111598   6.718   1.932   5.717
 3885TIP3    H211599   6.838   2.025   5.712
 3886TIP3   OH211600   6.908   3.429   5.820
 3886TIP3    H111601   6.873   3.469   5.899
 3886TIP3    H211602   6.919   3.502   5.759
 3887TIP3   OH211603   1.927   2.506   4.987
 3887TIP3    H111604   1.908   2.599   4.999
 3887TIP3    H211605   1.849   2.462   5.022
 3888TIP3   OH211606   1.685   4.414   6.144
 3888TIP3    H111607   1.685   4.425   6.048
 3888TIP3    H211608   1.598   4.382   6.165
 3889TIP3   OH211609   3.200   3.487   2.089
 3889TIP3    H111610   3.189   3.438   2.170
 3889TIP3    H211611   3.272   3.444   2.044
 3890TIP3   OH211612   1.627   7.376   6.374
 3890TIP3    H111613   1.656   7.290   6.402
 3890TIP3    H211614   1.578   7.411   6.449
 3891TIP3   OH211615   5.885   1.305   0.418
 3891TIP3    H111616   5.860   1.238   0.481
 3891TIP3    H211617   5.918   1.377   0.471
 3892TIP3   OH211618   3.018   4.732   2.688
 3892TIP3    H111619   3.044   4.765   2.602
 3892TIP3    H211620   2.957   4.661   2.669
 3893TIP3   OH211621   7.337   4.621   4.987
 3893TIP3    H111622   7.419   4.665   4.966
 3893TIP3    H211623   7.342   4.605   5.082
 3894TIP3   OH211624   0.383   0.947   0.854
 3894TIP3    H111625   0.406   0.878   0.792
 3894TIP3    H211626   0.313   0.996   0.811
 3895TIP3   OH211627   6.242   3.389   5.218
 3895TIP3    H111628   6.313   3.331   5.245
 3895TIP3    H211629   6.237   3.379   5.123
 3896TIP3   OH211630   4.313   6.418   4.494
 3896TIP3    H111631   4.282   6.448   4.579
 3896TIP3    H211632   4.233   6.405   4.443
 3897TIP3   OH211633   3.321   2.442   3.452
 3897TIP3    H111634   3.303   2.348   3.458
 3897TIP3    H211635   3.239   2.483   3.481
 3898TIP3   OH211636   5.558   0.321   0.547
 3898TIP3    H111637   5.553   0.287   0.458
 3898TIP3    H211638   5.511   0.256   0.600
 3899TIP3   OH211639   5.729   7.008   2.038
 3899TIP3    H111640   5.680   6.936   1.997
 3899TIP3    H211641   5.781   6.965   2.106
 3900TIP3   OH211642   7.052   4.151   2.240
 3900TIP3    H111643   7.107   4.210   2.292
 3900TIP3    H211644   6.970   4.200   2.227
 3901TIP3   OH211645   2.486   3.833   4.611
 3901TIP3    H111646   2.538   3.794   4.541
 3901TIP3    H211647   2.536   3.911   4.638
 3902TIP3   OH211648   5.102   5.969   3.438
 3902TIP3    H111649   5.121   6.058   3.409
 3902TIP3    H211650   5.178   5.943   3.490
 3903TIP3   OH211651   0.999   1.461   5.070
 3903TIP3    H111652   0.955   1.522   5.010
 3903TIP3    H211653   1.088   1.454   5.036
 3904TIP3   OH211654   3.674   6.883   6.230
 3904TIP3    H111655   3.769   6.891   6.231
 3904TIP3    H211656   3.656   6.807   6.285
 3905TIP3   OH211657   4.787   5.275   6.112
 3905TIP3    H111658   4.707   5.256   6.162
 3905TIP3    H211659   4.848   5.207   6.140
 3906TIP3   OH211660   7.470   5.394   0.958
 3906TIP3    H111661   7.414   5.392   1.036
 3906TIP3    H211662   7.449   5.313   0.912
 3907TIP3   OH211663   1.647   5.785   4.857
 3907TIP3    H111664   1.730   5.807   4.814
 3907TIP3    H211665   1.594   5.864   4.850
 3908TIP3   OH211666   2.436   2.053   4.393
 3908TIP3    H111667   2.508   1.993   4.413
 3908TIP3    H211668   2.475   2.140   4.401
 3909TIP3   OH211669   3.829   4.213   2.545
 3909TIP3    H111670   3.879   4.132   2.533
 3909TIP3    H211671   3.808   4.214   2.639
 3910TIP3   OH211672   6.677   6.816   2.398
 3910TIP3    H111673   6.665   6.902   2.438
 3910TIP3    H211674   6.749   6.828   2.336
 3911TIP3   OH211675   1.715   1.300   4.096
 3911TIP3    H111676   1.791   1.241   4.099
 3911TIP3    H211677   1.747   1.380   4.055
 3912TIP3   OH211678   2.795   5.037   4.284
 3912TIP3    H111679   2.875   4.997   4.248
 3912TIP3    H211680   2.725   5.006   4.226
 3913TIP3   OH211681   5.400   5.471   4.965
 3913TIP3    H111682   5.352   5.435   4.891
 3913TIP3    H211683   5.351   5.549   4.990
 3914TIP3   OH211684   3.178   0.756   4.412
 3914TIP3    H111685   3.183   0.839   4.459
 3914TIP3    H211686   3.146   0.780   4.325
 3915TIP3   OH211687   3.105   2.537   5.634
 3915TIP3    H111688   3.025   2.491   5.608
 3915TIP3    H211689   3.096   2.549   5.729
 3916TIP3   OH211690   3.039   3.267  -0.015
 3916TIP3    H111691   2.959   3.242   0.032
 3916TIP3    H211692   3.107   3.269   0.052
 3917TIP3   OH211693   3.066   2.925   2.222
 3917TIP3    H111694   2.996   2.969   2.272
 3917TIP3    H211695   3.120   2.997   2.189
 3918TIP3   OH211696   3.449   0.965   4.394
 3918TIP3    H111697   3.436   0.920   4.478
 3918TIP3    H211698   3.371   1.020   4.384
 3919TIP3   OH211699   4.440   1.021   3.454
 3919TIP3    H111700   4.504   0.951   3.438
 3919TIP3    H211701   4.357   0.985   3.424
 3920TIP3   OH211702   5.021   6.460   4.979
 3920TIP3    H111703   4.950   6.402   4.951
 3920TIP3    H211704   4.976   6.531   5.025
 3921TIP3   OH211705   1.164   7.378   3.871
 3921TIP3    H111706   1.110   7.456   3.856
 3921TIP3    H211707   1.130   7.313   3.810
 3922TIP3   OH211708   2.909   1.615   5.573
 3922TIP3    H111709   2.901   1.620   5.478
 3922TIP3    H211710   3.000   1.589   5.588
 3923TIP3   OH211711   7.257   5.741   1.559
 3923TIP3    H111712   7.162   5.752   1.551
 3923TIP3    H211713   7.291   5.831   1.569
 3924TIP3   OH211714   3.380   3.733   2.106
 3924TIP3    H111715   3.304   3.683   2.075
 3924TIP3    H211716   3.369   3.820   2.067
 3925TIP3   OH211717   3.275   6.810   3.314
 3925TIP3    H111718   3.249   6.829   3.224
 3925TIP3    H211719   3.197   6.772   3.355
 3926TIP3   OH211720   3.443   4.961   3.832
 3926TIP3    H111721   3.465   5.054   3.825
 3926TIP3    H211722   3.520   4.915   3.799
 3927TIP3   OH211723   3.872   5.433   2.885
 3927TIP3    H111724   3.829   5.485   2.953
 3927TIP3    H211725   3.801   5.387   2.841
 3928TIP3   OH211726   5.594   0.251   1.806
 3928TIP3    H111727   5.537   0.229   1.733
 3928TIP3    H211728   5.550   0.324   1.851
 3929TIP3   OH211729   2.760   0.387   6.368
 3929TIP3    H111730   2.791   0.330   6.298
 3929TIP3    H211731   2.740   0.329   6.441
 3930TIP3   OH211732   2.183   2.282   4.708
 3930TIP3    H111733   2.177   2.317   4.797
 3930TIP3    H211734   2.269   2.311   4.678
 3931TIP3   OH211735   2.982   3.573   0.616
 3931TIP3    H111736   2.888   3.591   0.610
 3931TIP3    H211737   2.990   3.483   0.586
 3932TIP3   OH211738   1.767   6.698   3.378
 3932TIP3    H111739   1.694   6.700   3.440
 3932TIP3    H211740   1.845   6.695   3.434
 3933TIP3   OH211741   7.406   6.879   0.072
 3933TIP3    H111742   7.311   6.887   0.084
 3933TIP3    H211743   7.440   6.861   0.159
 3934TIP3   OH211744   4.265   6.311   1.926
 3934TIP3    H111745   4.177   6.276   1.938
 3934TIP3    H211746   4.253   6.388   1.870
 3935TIP3   OH211747   5.391   6.840   0.515
 3935TIP3    H111748   5.394   6.770   0.450
 3935TIP3    H211749   5.298   6.860   0.525
 3936TIP3   OH211750   1.916   6.651   6.692
 3936TIP3    H111751   1.977   6.703   6.745
 3936TIP3    H211752   1.843   6.711   6.674
 3937TIP3   OH211753   5.102   4.280   4.443
 3937TIP3    H111754   5.112   4.298   4.537
 3937TIP3    H211755   5.101   4.367   4.402
 3938TIP3   OH211756   4.026   4.413   2.642
 3938TIP3    H111757   3.968   4.373   2.577
 3938TIP3    H211758   4.071   4.340   2.683
 3939TIP3   OH211759   7.687   7.328   1.291
 3939TIP3    H111760   7.592   7.335   1.283
 3939TIP3    H211761   7.705   7.234   1.292
 3940TIP3   OH211762   1.939   2.207   2.202
 3940TIP3    H111763   1.936   2.302   2.208
 3940TIP3    H211764   2.029   2.184   2.223
 3941TIP3   OH211765   5.959   7.726   5.494
 3941TIP3    H111766   6.012   7.759   5.420
 3941TIP3    H211767   5.882   7.783   5.495
 3942TIP3   OH211768   0.720   4.768   4.089
 3942TIP3    H111769   0.778   4.699   4.059
 3942TIP3    H211770   0.657   4.724   4.147
 3943TIP3   OH211771   7.371   5.210   5.561
 3943TIP3    H111772   7.428   5.287   5.562
 3943TIP3    H211773   7.430   5.136   5.547
 3944TIP3   OH211774   1.227   5.051   6.461
 3944TIP3    H111775   1.237   5.123   6.523
 3944TIP3    H211776   1.179   5.090   6.387
 3945TIP3   OH211777   0.828  -0.024   3.438
 3945TIP3    H111778   0.802   0.040   3.372
 3945TIP3    H211779   0.907   0.012   3.477
 3946TIP3   OH211780   1.062   2.046   5.726
 3946TIP3    H111781   1.015   2.050   5.643
 3946TIP3    H211782   1.039   2.127   5.771
 3947TIP3   OH211783   4.808   5.390   0.152
 3947TIP3    H111784   4.808   5.300   0.187
 3947TIP3    H211785   4.745   5.388   0.080
 3948TIP3   OH211786   5.788   2.390   4.705
 3948TIP3    H111787   5.816   2.382   4.614
 3948TIP3    H211788   5.712   2.448   4.702
 3949TIP3   OH211789   0.571   6.505   2.580
 3949TIP3    H111790   0.533   6.497   2.668
 3949TIP3    H211791   0.499   6.536   2.525
 3950TIP3   OH211792   8.088   7.153   4.595
 3950TIP3    H111793   8.070   7.099   4.518
 3950TIP3    H211794   8.006   7.154   4.643
 3951TIP3   OH211795   2.110   3.085   0.993
 3951TIP3    H111796   2.075   3.004   0.956
 3951TIP3    H211797   2.095   3.077   1.087
 3952TIP3   OH211798   1.833   2.535   2.440
 3952TIP3    H111799   1.881   2.504   2.363
 3952TIP3    H211800   1.840   2.463   2.503
 3953TIP3   OH211801   4.225   2.499   0.206
 3953TIP3    H111802   4.296   2.437   0.192
 3953TIP3    H211803   4.148   2.444   0.221
 3954TIP3   OH211804   5.333   4.054   6.661
 3954TIP3    H111805   5.276   3.978   6.648
 3954TIP3    H211806   5.352   4.054   6.755
 3955TIP3   OH211807   1.550   6.310   4.221
 3955TIP3    H111808   1.557   6.341   4.311
 3955TIP3    H211809   1.463   6.268   4.217
 3956TIP3   OH211810   7.065   2.031   4.451
 3956TIP3    H111811   7.078   2.118   4.414
 3956TIP3    H211812   7.142   1.982   4.422
 3957TIP3   OH211813   5.136   3.959   2.077
 3957TIP3    H111814   5.080   4.032   2.052
 3957TIP3    H211815   5.106   3.886   2.023
 3958TIP3   OH211816   3.936   5.930   1.018
 3958TIP3    H111817   3.993   5.876   1.073
 3958TIP3    H211818   3.967   6.019   1.032
 3959TIP3   OH211819   3.663   6.363   2.327
 3959TIP3    H111820   3.702   6.440   2.370
 3959TIP3    H211821   3.729   6.295   2.337
 3960TIP3   OH211822   4.217   6.847   0.290
 3960TIP3    H111823   4.124   6.867   0.286
 3960TIP3    H211824   4.222   6.760   0.330
 3961TIP3   OH211825   7.543   0.322   0.054
 3961TIP3    H111826   7.519   0.358  -0.031
 3961TIP3    H211827   7.512   0.231   0.051
 3962TIP3   OH211828   2.568   0.439   2.288
 3962TIP3    H111829   2.510   0.391   2.347
 3962TIP3    H211830   2.597   0.514   2.340
 3963TIP3   OH211831   2.151   2.730   5.050
 3963TIP3    H111832   2.060   2.757   5.066
 3963TIP3    H211833   2.165   2.658   5.111
 3964TIP3   OH211834   1.590   1.287   5.904
 3964TIP3    H111835   1.658   1.243   5.954
 3964TIP3    H211836   1.508   1.248   5.935
 3965TIP3   OH211837   5.333   4.891   1.857
 3965TIP3    H111838   5.312   4.868   1.766
 3965TIP3    H211839   5.351   4.807   1.899
 3966TIP3   OH211840   4.440   6.200   0.219
 3966TIP3    H111841   4.536   6.202   0.219
 3966TIP3    H211842   4.415   6.275   0.273
 3967TIP3   OH211843   5.464   6.773   3.371
 3967TIP3    H111844   5.379   6.755   3.412
 3967TIP3    H211845   5.526   6.771   3.444
 3968TIP3   OH211846   2.282   1.754   3.861
 3968TIP3    H111847   2.327   1.678   3.898
 3968TIP3    H211848   2.193   1.724   3.845
 3969TIP3   OH211849   0.936   2.284   3.431
 3969TIP3    H111850   0.864   2.228   3.457
 3969TIP3    H211851   0.961   2.254   3.344
 3970TIP3   OH211852   7.851   1.702   4.410
 3970TIP3    H111853   7.810   1.785   4.386
 3970TIP3    H211854   7.943   1.724   4.426
 3971TIP3   OH211855   6.427   4.543   0.558
 3971TIP3    H111856   6.334   4.528   0.578
 3971TIP3    H211857   6.471   4.463   0.585
 3972TIP3   OH211858   7.549   2.713   3.198
 3972TIP3    H111859   7.465   2.747   3.165
 3972TIP3    H211860   7.535   2.702   3.292
 3973TIP3   OH211861   6.109   2.825   3.343
 3973TIP3    H111862   6.157   2.870   3.274
 3973TIP3    H211863   6.154   2.741   3.353
 3974TIP3   OH211864   3.225   2.598   1.258
 3974TIP3    H111865   3.181   2.564   1.336
 3974TIP3    H211866   3.185   2.685   1.245
 3975TIP3   OH211867   5.244   1.206   6.076
 3975TIP3    H111868   5.328   1.171   6.104
 3975TIP3    H211869   5.186   1.193   6.151
 3976TIP3   OH211870   4.253   3.862   2.502
 3976TIP3    H111871   4.207   3.859   2.418
 3976TIP3    H211872   4.211   3.795   2.555
 3977TIP3   OH211873   1.254   7.668   6.754
 3977TIP3    H111874   1.251   7.743   6.694
 3977TIP3    H211875   1.167   7.664   6.792
 3978TIP3   OH211876   4.271   0.281   0.086
 3978TIP3    H111877   4.285   0.265  -0.007
 3978TIP3    H211878   4.273   0.194   0.126
 3979TIP3   OH211879   4.311   3.431   5.070
 3979TIP3    H111880   4.353   3.447   4.985
 3979TIP3    H211881   4.384   3.428   5.132
 3980TIP3   OH211882   7.457   1.288   3.818
 3980TIP3    H111883   7.460   1.202   3.777
 3980TIP3    H211884   7.401   1.277   3.895
 3981TIP3   OH211885   5.570   6.781   1.108
 3981TIP3    H111886   5.593   6.865   1.068
 3981TIP3    H211887   5.474   6.782   1.111
 3982TIP3   OH211888   1.036   0.098   3.810
 3982TIP3    H111889   1.021   0.191   3.828
 3982TIP3    H211890   1.028   0.055   3.895
 3983TIP3   OH211891   2.967   6.523   2.490
 3983TIP3    H111892   2.997   6.442   2.449
 3983TIP3    H211893   3.019   6.592   2.450
 3984TIP3   OH211894   1.056   2.663   5.983
 3984TIP3    H111895   1.136   2.703   6.016
 3984TIP3    H211896   1.066   2.665   5.887
 3985TIP3   OH211897   8.169   3.822   3.638
 3985TIP3    H111898   8.251   3.852   3.678
 3985TIP3    H211899   8.134   3.757   3.699
 3986TIP3   OH211900   4.923   5.563   1.910
 3986TIP3    H111901   5.016   5.583   1.902
 3986TIP3    H211902   4.919   5.467   1.913
 3987TIP3   OH211903   2.249   6.204   0.323
 3987TIP3    H111904   2.165   6.192   0.367
 3987TIP3    H211905   2.284   6.115   0.314
 3988TIP3   OH211906   4.925   4.518   1.348
 3988TIP3    H111907   5.002   4.464   1.333
 3988TIP3    H211908   4.880   4.477   1.422
 3989TIP3   OH211909   8.223   7.267   3.799
 3989TIP3    H111910   8.288   7.211   3.840
 3989TIP3    H211911   8.268   7.306   3.724
 3990TIP3   OH211912   0.789   3.929   5.838
 3990TIP3    H111913   0.847   3.901   5.909
 3990TIP3    H211914   0.713   3.965   5.883
 3991TIP3   OH211915   8.120   7.668   4.308
 3991TIP3    H111916   8.069   7.598   4.349
 3991TIP3    H211917   8.171   7.706   4.380
 3992TIP3   OH211918   3.273   3.404   0.462
 3992TIP3    H111919   3.227   3.453   0.394
 3992TIP3    H211920   3.314   3.471   0.517
 3993TIP3   OH211921   1.687   1.269   0.870
 3993TIP3    H111922   1.615   1.303   0.924
 3993TIP3    H211923   1.764   1.316   0.902
 3994TIP3   OH211924   1.534   4.457   6.549
 3994TIP3    H111925   1.506   4.380   6.501
 3994TIP3    H211926   1.453   4.500   6.577
 3995TIP3   OH211927   7.308   3.814   3.086
 3995TIP3    H111928   7.358   3.732   3.082
 3995TIP3    H211929   7.361   3.873   3.138
 3996TIP3   OH211930   3.602   3.386   2.377
 3996TIP3    H111931   3.555   3.304   2.362
 3996TIP3    H211932   3.534   3.454   2.374
 3997TIP3   OH211933   2.655   1.945   1.394
 3997TIP3    H111934   2.745   1.953   1.363
 3997TIP3    H211935   2.650   1.858   1.433
 3998TIP3   OH211936   4.361   6.874   1.953
 3998TIP3    H111937   4.404   6.949   1.994
 3998TIP3    H211938   4.414   6.855   1.876
 3999TIP3   OH211939   1.290   1.420   5.166
 3999TIP3    H111940   1.260   1.497   5.214
 3999TIP3    H211941   1.331   1.455   5.087
 4000TIP3   OH211942   7.022   0.802   0.881
 4000TIP3    H111943   7.068   0.764   0.807
 4000TIP3    H211944   6.931   0.810   0.852
 4001TIP3   OH211945   3.362   4.662   1.063
 4001TIP3    H111946   3.382   4.610   1.141
 4001TIP3    H211947   3.350   4.597   0.993
 4002TIP3   OH211948   8.032   3.566   6.047
 4002TIP3    H111949   7.978   3.588   6.124
 4002TIP3    H211950   8.011   3.635   5.984
 4003TIP3   OH211951   3.771   0.046   5.519
 4003TIP3    H111952   3.832   0.117   5.534
 4003TIP3    H211953   3.819  -0.033   5.544
 4004TIP3   OH211954   2.250   4.350   1.044
 4004TIP3    H111955   2.192   4.285   1.083
 4004TIP3    H211956   2.338   4.316   1.057
 4005TIP3   OH211957   2.406   4.771   6.127
 4005TIP3    H111958   2.450   4.696   6.168
 4005TIP3    H211959   2.325   4.735   6.091
 4006TIP3   OH211960   2.055   3.730   0.330
 4006TIP3    H111961   2.084   3.683   0.251
 4006TIP3    H211962   1.992   3.794   0.298
 4007TIP3   OH211963   3.670   0.912   2.006
 4007TIP3    H111964   3.698   0.994   1.965
 4007TIP3    H211965   3.610   0.873   1.943
 4008TIP3   OH211966   0.477   4.205   3.484
 4008TIP3    H111967   0.480   4.137   3.417
 4008TIP3    H211968   0.553   4.260   3.465
 4009TIP3   OH211969   7.109   1.701   0.942
 4009TIP3    H111970   7.201   1.726   0.945
 4009TIP3    H211971   7.105   1.633   0.874
 4010TIP3   OH211972   3.633   7.763   2.171
 4010TIP3    H111973   3.598   7.852   2.166
 4010TIP3    H211974   3.558   7.710   2.199
 4011TIP3   OH211975   4.421   1.804   0.570
 4011TIP3    H111976   4.386   1.890   0.593
 4011TIP3    H211977   4.506   1.822   0.531
 4012TIP3   OH211978   1.464   7.300   4.688
 4012TIP3    H111979   1.396   7.263   4.744
 4012TIP3    H211980   1.467   7.241   4.612
 4013TIP3   OH211981   2.450   0.821   0.030
 4013TIP3    H111982   2.461   0.830  -0.064
 4013TIP3    H211983   2.377   0.879   0.052
 4014TIP3   OH211984   0.439   0.557   3.663
 4014TIP3    H111985   0.520   0.540   3.614
 4014TIP3    H211986   0.372   0.564   3.595
 4015TIP3   OH211987   7.846   4.106   1.536
 4015TIP3    H111988   7.822   4.178   1.477
 4015TIP3    H211989   7.881   4.149   1.614
 4016TIP3   OH211990   1.898   7.225   5.265
 4016TIP3    H111991   1.898   7.318   5.286
 4016TIP3    H211992   1.827   7.188   5.318
 4017TIP3   OH211993   6.765   5.555   2.368
 4017TIP3    H111994   6.719   5.488   2.418
 4017TIP3    H211995   6.706   5.631   2.370
 4018TIP3   OH211996   1.969   4.785   1.153
 4018TIP3    H111997   1.923   4.742   1.225
 4018TIP3    H211998   1.931   4.747   1.074
 4019TIP3   OH211999   6.537   1.385   5.245
 4019TIP3    H112000   6.485   1.405   5.167
 4019TIP3    H212001   6.611   1.335   5.211
 4020TIP3   OH212002   6.234   6.473   4.424
 4020TIP3    H112003   6.241   6.433   4.511
 4020TIP3    H212004   6.268   6.562   4.436
 4021TIP3   OH212005   1.222   2.171   3.324
 4021TIP3    H112006   1.239   2.252   3.372
 4021TIP3    H212007   1.293   2.113   3.349
 4022TIP3   OH212008   0.536   7.122   2.015
 4022TIP3    H112009   0.541   7.139   2.109
 4022TIP3    H212010   0.495   7.035   2.008
 4023TIP3   OH212011   7.473   2.615   2.893
 4023TIP3    H112012   7.454   2.542   2.951
 4023TIP3    H212013   7.428   2.592   2.811
 4024TIP3   OH212014   6.191   3.517   5.454
 4024TIP3    H112015   6.102   3.486   5.469
 4024TIP3    H212016   6.220   3.470   5.375
 4025TIP3   OH212017   7.025   2.437   5.578
 4025TIP3    H112018   6.983   2.359   5.615
 4025TIP3    H212019   6.983   2.510   5.623
 4026TIP3   OH212020   5.471   5.198   4.270
 4026TIP3    H112021   5.506   5.287   4.274
 4026TIP3    H212022   5.502   5.163   4.187
 4027TIP3   OH212023   3.146   2.370   1.702
 4027TIP3    H112024   3.143   2.294   1.760
 4027TIP3    H212025   3.217   2.351   1.641
 4028TIP3   OH212026   0.463   6.965   5.044
 4028TIP3    H112027   0.492   6.881   5.010
 4028TIP3    H212028   0.454   6.952   5.138
 4029TIP3   OH212029   5.469   7.684   3.007
 4029TIP3    H112030   5.541   7.648   2.955
 4029TIP3    H212031   5.484   7.779   3.006
 4030TIP3   OH212032   1.866   3.404   6.341
 4030TIP3    H112033   1.824   3.357   6.413
 4030TIP3    H212034   1.913   3.476   6.384
 4031TIP3   OH212035   3.778   2.617   1.498
 4031TIP3    H112036   3.781   2.521   1.497
 4031TIP3    H212037   3.865   2.644   1.468
 4032TIP3   OH212038   6.515   1.006   3.236
 4032TIP3    H112039   6.553   1.011   3.148
 4032TIP3    H212040   6.559   0.932   3.277
 4033TIP3   OH212041   7.994   0.133   1.696
 4033TIP3    H112042   8.058   0.075   1.654
 4033TIP3    H212043   7.986   0.098   1.785
 4034TIP3   OH212044   6.741   5.665   4.713
 4034TIP3    H112045   6.801   5.591   4.716
 4034TIP3    H212046   6.658   5.627   4.684
 4035TIP3   OH212047   2.685   4.393   2.357
 4035TIP3    H112048   2.609   4.386   2.300
 4035TIP3    H212049   2.754   4.430   2.302
 4036TIP3   OH212050   5.105   7.216   2.098
 4036TIP3    H112051   5.040   7.166   2.148
 4036TIP3    H212052   5.137   7.155   2.033
 4037TIP3   OH212053   7.245   0.337   2.602
 4037TIP3    H112054   7.204   0.263   2.648
 4037TIP3    H212055   7.190   0.412   2.625
 4038TIP3   OH212056   6.732   5.633   0.202
 4038TIP3    H112057   6.703   5.592   0.284
 4038TIP3    H212058   6.723   5.564   0.136
 4039TIP3   OH212059   7.253   2.050   2.109
 4039TIP3    H112060   7.264   2.143   2.088
 4039TIP3    H212061   7.270   2.044   2.203
 4040TIP3   OH212062   1.854   4.084   6.402
 4040TIP3    H112063   1.916   4.011   6.403
 4040TIP3    H212064   1.772   4.045   6.370
 4041TIP3   OH212065   6.729   4.825   1.266
 4041TIP3    H112066   6.675   4.748   1.286
 4041TIP3    H212067   6.665   4.893   1.245
 4042TIP3   OH212068   0.067   3.381   1.304
 4042TIP3    H112069   0.159   3.360   1.287
 4042TIP3    H212070   0.027   3.389   1.217
 4043TIP3   OH212071   2.246   4.426   4.260
 4043TIP3    H112072   2.286   4.505   4.223
 4043TIP3    H212073   2.152   4.439   4.250
 4044TIP3   OH212074   3.569   5.557   3.733
 4044TIP3    H112075   3.621   5.569   3.813
 4044TIP3    H212076   3.628   5.512   3.673
 4045TIP3   OH212077   4.078   5.762   1.168
 4045TIP3    H112078   4.028   5.681   1.178
 4045TIP3    H212079   4.169   5.736   1.186
 4046TIP3   OH212080   3.935   6.200   0.611
 4046TIP3    H112081   3.845   6.229   0.628
 4046TIP3    H212082   3.927   6.105   0.599
 4047TIP3   OH212083   1.785   1.632   5.477
 4047TIP3    H112084   1.755   1.668   5.393
 4047TIP3    H212085   1.713   1.651   5.538
 4048TIP3   OH212086   1.575   4.357   5.578
 4048TIP3    H112087   1.557   4.267   5.549
 4048TIP3    H212088   1.639   4.390   5.516
 4049TIP3   OH212089   7.203   7.204   3.459
 4049TIP3    H112090   7.116   7.171   3.441
 4049TIP3    H212091   7.204   7.292   3.420
 4050TIP3   OH212092   4.201   0.511   0.839
 4050TIP3    H112093   4.157   0.595   0.823
 4050TIP3    H212094   4.134   0.445   0.819
 4051TIP3   OH212095   5.264   5.269   6.396
 4051TIP3    H112096   5.193   5.205   6.403
 4051TIP3    H212097   5.251   5.310   6.311
 4052TIP3   OH212098   7.865   1.015   0.965
 4052TIP3    H112099   7.886   0.981   0.878
 4052TIP3    H212100   7.811   0.946   1.005
 4053TIP3   OH212101   3.464   5.658   6.210
 4053TIP3    H112102   3.446   5.590   6.145
 4053TIP3    H212103   3.549   5.635   6.246
 4054TIP3   OH212104   6.384   7.074   5.326
 4054TIP3    H112105   6.310   7.111   5.373
 4054TIP3    H212106   6.455   7.135   5.341
 4055TIP3   OH212107   7.541   6.771   3.743
 4055TIP3    H112108   7.482   6.780   3.818
 4055TIP3    H212109   7.624   6.743   3.781
 4056TIP3   OH212110   5.164   2.405   1.871
 4056TIP3    H112111   5.171   2.402   1.967
 4056TIP3    H212112   5.255   2.402   1.841
 4057TIP3   OH212113   1.194   1.979   6.318
 4057TIP3    H112114   1.104   1.971   6.289
 4057TIP3    H212115   1.233   1.893   6.301
 4058TIP3   OH212116   8.041   1.924   0.722
 4058TIP3    H112117   8.051   1.948   0.630
 4058TIP3    H212118   7.950   1.946   0.743
 4059TIP3   OH212119   1.352   1.086   0.787
 4059TIP3    H112120   1.442   1.064   0.811
 4059TIP3    H212121   1.357   1.174   0.751
 4060TIP3   OH212122   5.704   5.655   0.723
 4060TIP3    H112123   5.668   5.704   0.797
 4060TIP3    H212124   5.628   5.616   0.680
 4061TIP3   OH212125   7.444   2.296   5.349
 4061TIP3    H112126   7.456   2.202   5.333
 4061TIP3    H212127   7.513   2.339   5.299
 4062TIP3   OH212128   6.273   2.315   4.683
 4062TIP3    H112129   6.335   2.307   4.755
 4062TIP3    H212130   6.314   2.376   4.622
 4063TIP3   OH212131   7.431   1.563   6.465
 4063TIP3    H112132   7.468   1.613   6.537
 4063TIP3    H212133   7.356   1.517   6.503
 4064TIP3   OH212134   0.640   5.426   5.434
 4064TIP3    H112135   0.551   5.457   5.449
 4064TIP3    H212136   0.648   5.425   5.338
 4065TIP3   OH212137   0.718   5.853   5.373
 4065TIP3    H112138   0.804   5.854   5.415
 4065TIP3    H212139   0.661   5.901   5.433
 4066TIP3   OH212140   7.073   0.091   3.424
 4066TIP3    H112141   7.155   0.140   3.416
 4066TIP3    H212142   7.072   0.062   3.515
 4067TIP3   OH212143   7.739   1.391   6.518
 4067TIP3    H112144   7.653   1.351   6.526
 4067TIP3    H212145   7.781   1.374   6.602
 4068TIP3   OH212146   0.237   5.950   0.285
 4068TIP3    H112147   0.242   6.046   0.289
 4068TIP3    H212148   0.327   5.921   0.293
 4069TIP3   OH212149   7.077   0.222   0.177
 4069TIP3    H112150   7.073   0.184   0.264
 4069TIP3    H212151   6.986   0.241   0.155
 4070TIP3   OH212152   1.717   3.106   2.189
 4070TIP3    H112153   1.807   3.088   2.215
 4070TIP3    H212154   1.687   3.175   2.248
 4071TIP3   OH212155   5.210   6.408   0.930
 4071TIP3    H112156   5.178   6.491   0.964
 4071TIP3    H212157   5.305   6.419   0.924
 4072TIP3   OH212158   4.967   7.778   2.270
 4072TIP3    H112159   4.978   7.829   2.189
 4072TIP3    H212160   5.023   7.822   2.333
 4073TIP3   OH212161   1.463   1.249   3.540
 4073TIP3    H112162   1.396   1.294   3.592
 4073TIP3    H212163   1.531   1.226   3.603
 4074TIP3   OH212164   2.513   5.306   5.977
 4074TIP3    H112165   2.476   5.292   5.890
 4074TIP3    H212166   2.515   5.401   5.988
 4075TIP3   OH212167   4.100   7.394   6.399
 4075TIP3    H112168   4.087   7.469   6.457
 4075TIP3    H212169   4.120   7.322   6.458
 4076TIP3   OH212170   4.820   0.811   1.572
 4076TIP3    H112171   4.787   0.891   1.614
 4076TIP3    H212172   4.745   0.751   1.572
 4077TIP3   OH212173   7.828   0.147   1.352
 4077TIP3    H112174   7.884   0.218   1.320
 4077TIP3    H212175   7.745   0.159   1.306
 4078TIP3   OH212176   0.589   6.223   2.632
 4078TIP3    H112177   0.538   6.223   2.551
 4078TIP3    H212178   0.641   6.303   2.628
 4079TIP3   OH212179   7.639   3.871   2.700
 4079TIP3    H112180   7.632   3.775   2.708
 4079TIP3    H212181   7.717   3.885   2.646
 4080TIP3   OH212182   3.865   1.574   5.187
 4080TIP3    H112183   3.787   1.606   5.142
 4080TIP3    H212184   3.930   1.643   5.176
 4081TIP3   OH212185   1.570   3.602   6.140
 4081TIP3    H112186   1.665   3.592   6.129
 4081TIP3    H212187   1.552   3.690   6.106
 4082TIP3   OH212188   4.046   6.088   6.317
 4082TIP3    H112189   4.131   6.132   6.320
 4082TIP3    H212190   4.063   5.999   6.346
 4083TIP3   OH212191   1.028   3.474   2.390
 4083TIP3    H112192   0.990   3.462   2.477
 4083TIP3    H212193   1.095   3.406   2.383
 4084TIP3   OH212194   2.559   2.635   1.439
 4084TIP3    H112195   2.611   2.714   1.454
 4084TIP3    H212196   2.561   2.589   1.523
 4085TIP3   OH212197   1.323   3.427   5.535
 4085TIP3    H112198   1.405   3.380   5.521
 4085TIP3    H212199   1.306   3.470   5.451
 4086TIP3   OH212200   2.804   3.009   4.884
 4086TIP3    H112201   2.765   3.095   4.869
 4086TIP3    H212202   2.861   2.995   4.808
 4087TIP3   OH212203   6.588   7.060   5.897
 4087TIP3    H112204   6.579   7.058   5.801
 4087TIP3    H212205   6.500   7.081   5.929
 4088TIP3   OH212206   5.456   0.329   3.045
 4088TIP3    H112207   5.442   0.367   2.958
 4088TIP3    H212208   5.420   0.393   3.106
 4089TIP3   OH212209   1.857   0.134   3.186
 4089TIP3    H112210   1.805   0.143   3.106
 4089TIP3    H212211   1.807   0.182   3.252
 4090TIP3   OH212212   7.613   0.037   6.483
 4090TIP3    H112213   7.631  -0.044   6.436
 4090TIP3    H212214   7.518   0.037   6.494
 4091TIP3   OH212215   6.369   0.178   5.876
 4091TIP3    H112216   6.392   0.241   5.945
 4091TIP3    H212217   6.300   0.124   5.915
 4092TIP3   OH212218   7.586   2.163   0.939
 4092TIP3    H112219   7.491   2.155   0.953
 4092TIP3    H212220   7.593   2.204   0.853
 4093TIP3   OH212221   6.891   5.457   2.153
 4093TIP3    H112222   6.841   5.505   2.219
 4093TIP3    H212223   6.844   5.374   2.143
 4094TIP3   OH212224   0.329   7.305   3.530
 4094TIP3    H112225   0.343   7.389   3.573
 4094TIP3    H212226   0.276   7.255   3.593
 4095TIP3   OH212227   7.425   7.533   4.638
 4095TIP3    H112228   7.331   7.523   4.653
 4095TIP3    H212229   7.465   7.471   4.698
 4096TIP3   OH212230   4.247   2.037   2.245
 4096TIP3    H112231   4.241   1.999   2.333
 4096TIP3    H212232   4.258   2.131   2.261
 4097TIP3   OH212233   0.829   0.349   4.836
 4097TIP3    H112234   0.791   0.437   4.830
 4097TIP3    H212235   0.761   0.291   4.802
 4098TIP3   OH212236   7.504   6.233   4.003
 4098TIP3    H112237   7.524   6.142   4.025
 4098TIP3    H212238   7.577   6.283   4.040
 4099TIP3   OH212239   0.641   0.492   0.694
 4099TIP3    H112240   0.634   0.512   0.787
 4099TIP3    H212241   0.661   0.576   0.652
 4100TIP3   OH212242   2.746   5.312   5.638
 4100TIP3    H112243   2.763   5.397   5.677
 4100TIP3    H212244   2.823   5.259   5.660
 4101TIP3   OH212245   3.794   1.398   5.777
 4101TIP3    H112246   3.786   1.335   5.848
 4101TIP3    H212247   3.740   1.361   5.707
 4102TIP3   OH212248   0.357   5.809   5.315
 4102TIP3    H112249   0.404   5.849   5.388
 4102TIP3    H212250   0.293   5.875   5.289
 4103TIP3   OH212251   5.642   2.702   2.472
 4103TIP3    H112252   5.670   2.698   2.563
 4103TIP3    H212253   5.715   2.664   2.423
 4104TIP3   OH212254   3.770   2.253   6.614
 4104TIP3    H112255   3.837   2.310   6.577
 4104TIP3    H212256   3.692   2.309   6.621
 4105TIP3   OH212257   7.894   5.976   1.968
 4105TIP3    H112258   7.856   5.895   2.004
 4105TIP3    H212259   7.865   6.044   2.028
 4106TIP3   OH212260   6.585   4.580   5.132
 4106TIP3    H112261   6.610   4.647   5.196
 4106TIP3    H212262   6.502   4.610   5.097
 4107TIP3   OH212263   1.384   0.611   5.858
 4107TIP3    H112264   1.326   0.596   5.784
 4107TIP3    H212265   1.417   0.700   5.844
 4108TIP3   OH212266   1.208   3.052   1.960
 4108TIP3    H112267   1.179   2.985   1.897
 4108TIP3    H212268   1.302   3.039   1.967
 4109TIP3   OH212269   3.799   6.914   3.989
 4109TIP3    H112270   3.778   6.937   3.899
 4109TIP3    H212271   3.720   6.936   4.038
 4110TIP3   OH212272   7.586   5.851   3.340
 4110TIP3    H112273   7.574   5.939   3.376
 4110TIP3    H212274   7.677   5.849   3.312
 4111TIP3   OH212275   2.178   3.787   6.457
 4111TIP3    H112276   2.119   3.821   6.525
 4111TIP3    H212277   2.261   3.774   6.502
 4112TIP3   OH212278   3.736   6.092   5.996
 4112TIP3    H112279   3.683   6.049   6.063
 4112TIP3    H212280   3.825   6.059   6.011
 4113TIP3   OH212281   2.227   6.766   1.092
 4113TIP3    H112282   2.303   6.782   1.148
 4113TIP3    H212283   2.169   6.711   1.144
 4114TIP3   OH212284   3.351   4.410   2.873
 4114TIP3    H112285   3.430   4.357   2.882
 4114TIP3    H212286   3.337   4.415   2.778
 4115TIP3   OH212287   1.322   2.461   2.276
 4115TIP3    H112288   1.302   2.445   2.368
 4115TIP3    H212289   1.295   2.552   2.261
 4116TIP3   OH212290   6.316   1.783   4.454
 4116TIP3    H112291   6.339   1.874   4.476
 4116TIP3    H212292   6.373   1.730   4.509
 4117TIP3   OH212293   0.827   3.053   6.027
 4117TIP3    H112294   0.898   3.055   5.963
 4117TIP3    H212295   0.751   3.087   5.979
 4118TIP3   OH212296   4.427   4.233   5.142
 4118TIP3    H112297   4.455   4.219   5.052
 4118TIP3    H212298   4.339   4.194   5.146
 4119TIP3   OH212299   2.499   7.340   6.023
 4119TIP3    H112300   2.539   7.265   6.067
 4119TIP3    H212301   2.519   7.325   5.930
 4120TIP3   OH212302   5.113   4.700   6.307
 4120TIP3    H112303   5.022   4.729   6.306
 4120TIP3    H212304   5.108   4.606   6.320
 4121TIP3   OH212305   5.330   0.813   5.747
 4121TIP3    H112306   5.355   0.844   5.660
 4121TIP3    H212307   5.388   0.739   5.764
 4122TIP3   OH212308   4.456   4.955   5.363
 4122TIP3    H112309   4.516   4.944   5.289
 4122TIP3    H212310   4.417   5.042   5.350
 4123TIP3   OH212311   1.692   1.002   2.494
 4123TIP3    H112312   1.607   1.045   2.496
 4123TIP3    H212313   1.742   1.044   2.564
 4124TIP3   OH212314   3.883   0.414   0.465
 4124TIP3    H112315   3.961   0.459   0.431
 4124TIP3    H212316   3.906   0.394   0.556
 4125TIP3   OH212317   7.282   6.649   1.068
 4125TIP3    H112318   7.209   6.704   1.039
 4125TIP3    H212319   7.324   6.621   0.987
 4126TIP3   OH212320   1.470   0.026   2.193
 4126TIP3    H112321   1.488   0.112   2.154
 4126TIP3    H212322   1.494  -0.036   2.124
 4127TIP3   OH212323   3.230   7.092   1.495
 4127TIP3    H112324   3.302   7.053   1.446
 4127TIP3    H212325   3.266   7.107   1.583
 4128TIP3   OH212326   4.157   0.833   1.679
 4128TIP3    H112327   4.117   0.879   1.606
 4128TIP3    H212328   4.094   0.765   1.702
 4129TIP3   OH212329   4.841   3.716   6.581
 4129TIP3    H112330   4.915   3.744   6.528
 4129TIP3    H212331   4.861   3.626   6.606
 4130TIP3   OH212332   3.107   1.327   3.396
 4130TIP3    H112333   3.177   1.367   3.448
 4130TIP3    H212334   3.029   1.333   3.452
 4131TIP3   OH212335   2.527   4.498   0.963
 4131TIP3    H112336   2.475   4.544   0.897
 4131TIP3    H212337   2.484   4.517   1.046
 4132TIP3   OH212338   5.002   6.229   5.387
 4132TIP3    H112339   4.907   6.221   5.384
 4132TIP3    H212340   5.018   6.322   5.401
 4133TIP3   OH212341   3.173   1.970   5.292
 4133TIP3    H112342   3.191   1.950   5.200
 4133TIP3    H212343   3.094   2.024   5.289
 4134TIP3   OH212344   1.489   4.501   2.578
 4134TIP3    H112345   1.405   4.543   2.596
 4134TIP3    H212346   1.542   4.520   2.656
 4135TIP3   OH212347   5.246   7.698   1.914
 4135TIP3    H112348   5.220   7.692   1.822
 4135TIP3    H212349   5.206   7.622   1.956
 4136TIP3   OH212350   0.283   5.857   6.188
 4136TIP3    H112351   0.260   5.876   6.097
 4136TIP3    H212352   0.364   5.807   6.183
 4137TIP3   OH212353   5.177   0.535   5.999
 4137TIP3    H112354   5.159   0.629   6.003
 4137TIP3    H212355   5.261   0.529   5.954
 4138TIP3   OH212356   5.820   7.471   5.439
 4138TIP3    H112357   5.853   7.554   5.472
 4138TIP3    H212358   5.731   7.466   5.474
 4139TIP3   OH212359   4.896   0.161   5.226
 4139TIP3    H112360   4.888   0.224   5.154
 4139TIP3    H212361   4.844   0.199   5.297
 4140TIP3   OH212362   3.757   2.710   1.787
 4140TIP3    H112363   3.846   2.714   1.753
 4140TIP3    H212364   3.702   2.704   1.709
 4141TIP3   OH212365   4.743   2.888   6.602
 4141TIP3    H112366   4.726   2.924   6.689
 4141TIP3    H212367   4.713   2.956   6.542
 4142TIP3   OH212368   3.280   3.154   6.216
 4142TIP3    H112369   3.372   3.180   6.220
 4142TIP3    H212370   3.276   3.071   6.262
 4143TIP3   OH212371   2.993   3.015   4.656
 4143TIP3    H112372   3.002   2.937   4.602
 4143TIP3    H212373   3.084   3.041   4.675
 4144TIP3   OH212374   2.592   5.281   5.400
 4144TIP3    H112375   2.612   5.195   5.363
 4144TIP3    H212376   2.646   5.286   5.479
 4145TIP3   OH212377   2.574   4.014   5.690
 4145TIP3    H112378   2.488   4.054   5.676
 4145TIP3    H212379   2.578   3.943   5.626
 4146TIP3   OH212380   3.374   3.765   0.178
 4146TIP3    H112381   3.425   3.760   0.097
 4146TIP3    H212382   3.283   3.771   0.148
 4147TIP3   OH212383   3.433   5.134   2.091
 4147TIP3    H112384   3.425   5.214   2.143
 4147TIP3    H212385   3.512   5.092   2.125
 4148TIP3   OH212386   4.660   0.769   1.094
 4148TIP3    H112387   4.593   0.821   1.137
 4148TIP3    H212388   4.635   0.769   1.002
 4149TIP3   OH212389   5.693   7.032   1.019
 4149TIP3    H112390   5.685   7.047   0.925
 4149TIP3    H212391   5.630   7.091   1.059
 4150TIP3   OH212392   4.104   5.012   0.514
 4150TIP3    H112393   4.130   4.923   0.491
 4150TIP3    H212394   4.009   5.011   0.507
 4151TIP3   OH212395   3.842   1.825   2.364
 4151TIP3    H112396   3.930   1.853   2.391
 4151TIP3    H212397   3.783   1.873   2.422
 4152TIP3   OH212398   3.312   5.886   3.185
 4152TIP3    H112399   3.288   5.931   3.266
 4152TIP3    H212400   3.343   5.800   3.214
 4153TIP3   OH212401   6.230   7.408   3.327
 4153TIP3    H112402   6.230   7.431   3.420
 4153TIP3    H212403   6.260   7.488   3.283
 4154TIP3   OH212404   1.491   7.450   1.504
 4154TIP3    H112405   1.571   7.483   1.464
 4154TIP3    H212406   1.520   7.380   1.563
 4155TIP3   OH212407   3.018   4.691   5.298
 4155TIP3    H112408   2.932   4.661   5.270
 4155TIP3    H212409   3.025   4.661   5.389
 4156TIP3   OH212410   0.837   7.847   4.855
 4156TIP3    H112411   0.799   7.773   4.903
 4156TIP3    H212412   0.890   7.807   4.786
 4157TIP3   OH212413   0.278   7.119   2.703
 4157TIP3    H112414   0.199   7.083   2.663
 4157TIP3    H212415   0.315   7.176   2.636
 4158TIP3   OH212416   2.590   6.092   4.696
 4158TIP3    H112417   2.607   6.027   4.764
 4158TIP3    H212418   2.646   6.065   4.623
 4159TIP3   OH212419   6.804   4.798   0.606
 4159TIP3    H112420   6.743   4.734   0.569
 4159TIP3    H212421   6.817   4.769   0.697
 4160TIP3   OH212422   6.604   2.931   5.368
 4160TIP3    H112423   6.618   2.836   5.374
 4160TIP3    H212424   6.689   2.969   5.389
 4161TIP3   OH212425   5.092   2.839   3.012
 4161TIP3    H112426   5.085   2.803   3.100
 4161TIP3    H212427   5.139   2.922   3.023
 4162TIP3   OH212428   4.221   1.493   0.122
 4162TIP3    H112429   4.223   1.398   0.133
 4162TIP3    H212430   4.254   1.507   0.033
 4163TIP3   OH212431   8.195   5.045   1.356
 4163TIP3    H112432   8.213   5.098   1.278
 4163TIP3    H212433   8.262   5.071   1.419
 4164TIP3   OH212434   0.101   7.171   5.112
 4164TIP3    H112435   0.137   7.250   5.073
 4164TIP3    H212436   0.025   7.201   5.162
 4165TIP3   OH212437   0.481   1.147   4.712
 4165TIP3    H112438   0.468   1.053   4.717
 4165TIP3    H212439   0.417   1.184   4.773
 4166TIP3   OH212440   6.370   1.732   0.456
 4166TIP3    H112441   6.285   1.689   0.441
 4166TIP3    H212442   6.385   1.783   0.376
 4167TIP3   OH212443   0.302   3.138   1.930
 4167TIP3    H112444   0.351   3.220   1.939
 4167TIP3    H212445   0.241   3.155   1.858
 4168TIP3   OH212446   7.083   7.027   2.919
 4168TIP3    H112447   7.105   7.119   2.905
 4168TIP3    H212448   7.115   6.983   2.841
 4169TIP3   OH212449   5.258   4.641   1.944
 4169TIP3    H112450   5.312   4.563   1.933
 4169TIP3    H212451   5.197   4.638   1.870
 4170TIP3   OH212452   6.168   4.533   0.706
 4170TIP3    H112453   6.118   4.614   0.710
 4170TIP3    H212454   6.117   4.476   0.649
 4171TIP3   OH212455   4.432   4.312   1.021
 4171TIP3    H112456   4.523   4.293   1.047
 4171TIP3    H212457   4.396   4.363   1.093
 4172TIP3   OH212458   5.465   7.425   2.704
 4172TIP3    H112459   5.394   7.434   2.640
 4172TIP3    H212460   5.489   7.515   2.726
 4173TIP3   OH212461   4.360   5.830   5.537
 4173TIP3    H112462   4.325   5.905   5.489
 4173TIP3    H212463   4.455   5.840   5.532
 4174TIP3   OH212464   5.091   0.744   3.157
 4174TIP3    H112465   5.076   0.818   3.098
 4174TIP3    H212466   5.088   0.667   3.100
 4175TIP3   OH212467   1.227   6.922   5.097
 4175TIP3    H112468   1.222   6.956   5.186
 4175TIP3    H212469   1.250   6.999   5.044
 4176TIP3   OH212470   6.841   6.268   2.604
 4176TIP3    H112471   6.859   6.344   2.548
 4176TIP3    H212472   6.749   6.278   2.629
 4177TIP3   OH212473   3.379   3.244   1.090
 4177TIP3    H112474   3.319   3.299   1.140
 4177TIP3    H212475   3.325   3.204   1.023
 4178TIP3   OH212476   6.028   4.341   4.840
 4178TIP3    H112477   6.072   4.275   4.786
 4178TIP3    H212478   5.966   4.383   4.780
 4179TIP3   OH212479   1.862   4.726   1.923
 4179TIP3    H112480   1.850   4.785   1.997
 4179TIP3    H212481   1.920   4.658   1.957
 4180TIP3   OH212482   3.721   5.090   1.743
 4180TIP3    H112483   3.762   5.162   1.790
 4180TIP3    H212484   3.703   5.024   1.810
 4181TIP3   OH212485   3.869   4.134   0.596
 4181TIP3    H112486   3.810   4.114   0.668
 4181TIP3    H212487   3.955   4.145   0.637
 4182TIP3   OH212488   0.896   3.950   2.864
 4182TIP3    H112489   0.954   3.969   2.791
 4182TIP3    H212490   0.814   3.922   2.824
 4183TIP3   OH212491   8.054   7.329   5.946
 4183TIP3    H112492   8.041   7.385   6.023
 4183TIP3    H212493   8.013   7.246   5.970
 4184TIP3   OH212494   0.160   2.377   1.059
 4184TIP3    H112495   0.083   2.419   1.021
 4184TIP3    H212496   0.234   2.421   1.017
 4185TIP3   OH212497   3.775   2.106   5.123
 4185TIP3    H112498   3.707   2.064   5.070
 4185TIP3    H212499   3.763   2.070   5.211
 4186TIP3   OH212500   2.052   6.798   2.431
 4186TIP3    H112501   1.974   6.821   2.481
 4186TIP3    H212502   2.094   6.730   2.484
 4187TIP3   OH212503   1.771   4.764   3.125
 4187TIP3    H112504   1.750   4.749   3.033
 4187TIP3    H212505   1.703   4.717   3.174
 4188TIP3   OH212506   3.719   0.573   0.829
 4188TIP3    H112507   3.802   0.618   0.848
 4188TIP3    H212508   3.735   0.482   0.852
 4189TIP3   OH212509   4.061   6.928   4.248
 4189TIP3    H112510   4.085   6.921   4.341
 4189TIP3    H212511   4.039   6.838   4.223
 4190TIP3   OH212512   8.242   1.071   5.592
 4190TIP3    H112513   8.274   1.016   5.520
 4190TIP3    H212514   8.167   1.118   5.554
 4191TIP3   OH212515   1.231   4.785   0.507
 4191TIP3    H112516   1.297   4.843   0.544
 4191TIP3    H212517   1.271   4.698   0.512
 4192TIP3   OH212518   6.831   6.460   2.072
 4192TIP3    H112519   6.903   6.481   2.012
 4192TIP3    H212520   6.754   6.452   2.015
 4193TIP3   OH212521   7.788   4.385   0.490
 4193TIP3    H112522   7.714   4.424   0.538
 4193TIP3    H212523   7.763   4.294   0.478
 4194TIP3   OH212524   6.093   4.974   0.947
 4194TIP3    H112525   6.079   4.892   0.994
 4194TIP3    H212526   6.099   5.041   1.015
 4195TIP3   OH212527   5.698   0.384   2.427
 4195TIP3    H112528   5.671   0.438   2.502
 4195TIP3    H212529   5.731   0.303   2.466
 4196TIP3   OH212530   7.095   0.241   6.383
 4196TIP3    H112531   7.105   0.222   6.290
 4196TIP3    H212532   7.106   0.156   6.427
 4197TIP3   OH212533   5.216   4.520   3.017
 4197TIP3    H112534   5.227   4.486   2.928
 4197TIP3    H212535   5.136   4.479   3.049
 4198TIP3   OH212536   3.192   1.824   0.193
 4198TIP3    H112537   3.186   1.917   0.214
 4198TIP3    H212538   3.282   1.800   0.214
 4199TIP3   OH212539   1.750   2.033   4.535
 4199TIP3    H112540   1.803   1.968   4.488
 4199TIP3    H212541   1.811   2.104   4.554
 4200TIP3   OH212542   6.333   0.472   4.470
 4200TIP3    H112543   6.424   0.464   4.499
 4200TIP3    H212544   6.332   0.553   4.418
 4201TIP3   OH212545   1.225   4.659   5.461
 4201TIP3    H112546   1.319   4.676   5.451
 4201TIP3    H212547   1.199   4.710   5.538
 4202TIP3   OH212548   7.086   0.128   4.590
 4202TIP3    H112549   7.116   0.219   4.598
 4202TIP3    H212550   7.167   0.078   4.578
 4203TIP3   OH212551   5.941   6.911   3.623
 4203TIP3    H112552   5.915   6.967   3.696
 4203TIP3    H212553   5.973   6.973   3.557
 4204TIP3   OH212554   8.096   0.352   3.546
 4204TIP3    H112555   8.102   0.283   3.611
 4204TIP3    H212556   8.170   0.410   3.565
 4205TIP3   OH212557   7.421   3.630   1.935
 4205TIP3    H112558   7.415   3.697   2.003
 4205TIP3    H212559   7.442   3.678   1.855
 4206TIP3   OH212560   7.584   5.989   4.063
 4206TIP3    H112561   7.575   5.895   4.048
 4206TIP3    H212562   7.664   5.997   4.116
 4207TIP3   OH212563   2.385   3.362   6.671
 4207TIP3    H112564   2.480   3.350   6.682
 4207TIP3    H212565   2.367   3.328   6.583
 4208TIP3   OH212566   0.282  -0.038   4.345
 4208TIP3    H112567   0.365  -0.058   4.301
 4208TIP3    H212568   0.308  -0.004   4.430
 4209TIP3   OH212569   4.732   5.808   5.921
 4209TIP3    H112570   4.826   5.796   5.911
 4209TIP3    H212571   4.714   5.777   6.010
 4210TIP3   OH212572   2.054   3.668   5.276
 4210TIP3    H112573   2.089   3.655   5.364
 4210TIP3    H212574   2.126   3.708   5.227
 4211TIP3   OH212575   7.212   6.143   3.365
 4211TIP3    H112576   7.233   6.050   3.367
 4211TIP3    H212577   7.228   6.170   3.274
 4212TIP3   OH212578   4.020   2.102   3.218
 4212TIP3    H112579   4.104   2.062   3.244
 4212TIP3    H212580   3.957   2.030   3.225
 4213TIP3   OH212581   4.792   4.408   3.815
 4213TIP3    H112582   4.860   4.349   3.782
 4213TIP3    H212583   4.841   4.480   3.854
 4214TIP3   OH212584   4.090   5.149   6.103
 4214TIP3    H112585   4.064   5.127   6.014
 4214TIP3    H212586   4.022   5.111   6.159
 4215TIP3   OH212587   2.773   0.869   4.865
 4215TIP3    H112588   2.706   0.931   4.835
 4215TIP3    H212589   2.741   0.783   4.837
 4216TIP3   OH212590   8.063   1.458   5.656
 4216TIP3    H112591   7.989   1.511   5.684
 4216TIP3    H212592   8.085   1.491   5.569
 4217TIP3   OH212593   2.377   3.568   4.660
 4217TIP3    H112594   2.413   3.655   4.647
 4217TIP3    H212595   2.400   3.545   4.750
 4218TIP3   OH212596   0.438   0.352   0.573
 4218TIP3    H112597   0.509   0.409   0.603
 4218TIP3    H212598   0.360   0.407   0.577
 4219TIP3   OH212599   6.374   7.377   5.586
 4219TIP3    H112600   6.326   7.296   5.571
 4219TIP3    H212601   6.351   7.403   5.675
 4220TIP3   OH212602   0.906   6.516   0.451
 4220TIP3    H112603   0.977   6.463   0.487
 4220TIP3    H212604   0.856   6.543   0.528
 4221TIP3   OH212605   1.548   4.773   5.305
 4221TIP3    H112606   1.609   4.842   5.279
 4221TIP3    H212607   1.546   4.778   5.401
 4222TIP3   OH212608   2.733   4.407   0.346
 4222TIP3    H112609   2.802   4.348   0.318
 4222TIP3    H212610   2.655   4.377   0.299
 4223TIP3   OH212611   6.702   0.135   5.162
 4223TIP3    H112612   6.675   0.045   5.144
 4223TIP3    H212613   6.693   0.179   5.077
 4224TIP3   OH212614   5.925   7.044   3.890
 4224TIP3    H112615   5.895   6.974   3.947
 4224TIP3    H212616   5.962   7.109   3.949
 4225TIP3   OH212617   7.455   5.116   6.088
 4225TIP3    H112618   7.376   5.123   6.034
 4225TIP3    H212619   7.427   5.143   6.175
 4226TIP3   OH212620   2.780   1.024   2.999
 4226TIP3    H112621   2.846   1.078   2.955
 4226TIP3    H212622   2.797   1.035   3.092
 4227TIP3   OH212623   8.022   4.596   5.773
 4227TIP3    H112624   8.095   4.658   5.781
 4227TIP3    H212625   8.053   4.517   5.817
 4228TIP3   OH212626   1.768   6.028   6.258
 4228TIP3    H112627   1.707   6.068   6.196
 4228TIP3    H212628   1.740   5.936   6.263
 4229TIP3   OH212629   3.159   5.978   1.117
 4229TIP3    H112630   3.254   5.989   1.127
 4229TIP3    H212631   3.121   6.050   1.167
 4230TIP3   OH212632   0.357   5.127   5.878
 4230TIP3    H112633   0.444   5.094   5.852
 4230TIP3    H212634   0.376   5.188   5.950
 4231TIP3   OH212635   8.317   4.616   6.018
 4231TIP3    H112636   8.363   4.557   6.079
 4231TIP3    H212637   8.244   4.563   5.985
 4232TIP3   OH212638   5.288   6.880   1.671
 4232TIP3    H112639   5.246   6.964   1.652
 4232TIP3    H212640   5.233   6.840   1.739
 4233TIP3   OH212641   5.054   0.695   2.685
 4233TIP3    H112642   5.013   0.614   2.655
 4233TIP3    H212643   5.146   0.671   2.701
 4234TIP3   OH212644   3.531   6.864   5.990
 4234TIP3    H112645   3.467   6.935   5.998
 4234TIP3    H212646   3.604   6.889   6.046
 4235TIP3   OH212647   6.837   5.572   1.873
 4235TIP3    H112648   6.889   5.573   1.954
 4235TIP3    H212649   6.897   5.542   1.806
 4236TIP3   OH212650   3.752   4.647   4.825
 4236TIP3    H112651   3.773   4.639   4.732
 4236TIP3    H212652   3.802   4.577   4.867
 4237TIP3   OH212653   7.802   5.739   2.065
 4237TIP3    H112654   7.719   5.694   2.075
 4237TIP3    H212655   7.867   5.668   2.064
 4238TIP3   OH212656   0.890   7.335   1.891
 4238TIP3    H112657   0.905   7.242   1.910
 4238TIP3    H212658   0.933   7.381   1.963
 4239TIP3   OH212659   7.407   7.575   6.039
 4239TIP3    H112660   7.312   7.589   6.039
 4239TIP3    H212661   7.436   7.605   5.953
 4240TIP3   OH212662   4.019   1.990   3.565
 4240TIP3    H112663   3.956   2.044   3.612
 4240TIP3    H212664   4.023   2.028   3.478
 4241TIP3   OH212665   1.908   5.654   2.101
 4241TIP3    H112666   1.841   5.611   2.047
 4241TIP3    H212667   1.980   5.671   2.041
 4242TIP3   OH212668   6.121   1.275   2.305
 4242TIP3    H112669   6.033   1.291   2.340
 4242TIP3    H212670   6.123   1.323   2.222
 4243TIP3   OH212671   2.150   7.598   3.979
 4243TIP3    H112672   2.211   7.571   4.049
 4243TIP3    H212673   2.186   7.559   3.900
 4244TIP3   OH212674   4.776   5.169   5.421
 4244TIP3    H112675   4.727   5.240   5.381
 4244TIP3    H212676   4.778   5.100   5.354
 4245TIP3   OH212677   7.303   7.313   5.287
 4245TIP3    H112678   7.261   7.394   5.319
 4245TIP3    H212679   7.397   7.331   5.292
 4246TIP3   OH212680   7.983   6.486   6.089
 4246TIP3    H112681   7.890   6.510   6.099
 4246TIP3    H212682   8.021   6.561   6.044
 4247TIP3   OH212683   1.466   4.256   5.334
 4247TIP3    H112684   1.393   4.312   5.361
 4247TIP3    H212685   1.424   4.176   5.303
 4248TIP3   OH212686   6.696   7.494   1.626
 4248TIP3    H112687   6.604   7.519   1.632
 4248TIP3    H212688   6.717   7.502   1.533
 4249TIP3   OH212689   2.421   5.851   5.052
 4249TIP3    H112690   2.443   5.921   5.114
 4249TIP3    H212691   2.473   5.777   5.082
 4250TIP3   OH212692   4.521   2.181   1.609
 4250TIP3    H112693   4.525   2.264   1.656
 4250TIP3    H212694   4.612   2.151   1.605
 4251TIP3   OH212695   7.591   6.807   0.652
 4251TIP3    H112696   7.666   6.763   0.613
 4251TIP3    H212697   7.529   6.737   0.672
 4252TIP3   OH212698   0.498   1.220   1.692
 4252TIP3    H112699   0.509   1.314   1.674
 4252TIP3    H212700   0.585   1.183   1.680
 4253TIP3   OH212701   7.244   7.361   5.001
 4253TIP3    H112702   7.203   7.274   5.008
 4253TIP3    H212703   7.275   7.380   5.089
 4254TIP3   OH212704   5.419   4.660   2.553
 4254TIP3    H112705   5.461   4.699   2.629
 4254TIP3    H212706   5.326   4.669   2.569
 4255TIP3   OH212707   4.797   3.076   1.076
 4255TIP3    H112708   4.838   3.159   1.054
 4255TIP3    H212709   4.853   3.039   1.144
 4256TIP3   OH212710   1.761   6.302   0.114
 4256TIP3    H112711   1.768   6.277   0.206
 4256TIP3    H212712   1.841   6.353   0.097
 4257TIP3   OH212713   2.300   4.619   0.497
 4257TIP3    H112714   2.328   4.707   0.473
 4257TIP3    H212715   2.212   4.610   0.461
 4258TIP3   OH212716   3.305   0.836   6.620
 4258TIP3    H112717   3.335   0.921   6.652
 4258TIP3    H212718   3.228   0.816   6.674
 4259TIP3   OH212719   7.207   0.189   0.588
 4259TIP3    H112720   7.286   0.134   0.582
 4259TIP3    H212721   7.143   0.144   0.532
 4260TIP3   OH212722   5.273   6.978   3.907
 4260TIP3    H112723   5.246   7.039   3.838
 4260TIP3    H212724   5.194   6.965   3.960
 4261TIP3   OH212725   2.019   1.397   5.497
 4261TIP3    H112726   2.097   1.345   5.514
 4261TIP3    H212727   1.973   1.400   5.582
 4262TIP3   OH212728   6.013   6.336   3.320
 4262TIP3    H112729   6.078   6.339   3.250
 4262TIP3    H212730   5.929   6.332   3.273
 4263TIP3   OH212731   6.328   0.650   0.917
 4263TIP3    H112732   6.397   0.681   0.975
 4263TIP3    H212733   6.368   0.579   0.867
 4264TIP3   OH212734   5.365   1.276   1.356
 4264TIP3    H112735   5.421   1.261   1.280
 4264TIP3    H212736   5.343   1.369   1.352
 4265TIP3   OH212737   5.659   4.873   1.858
 4265TIP3    H112738   5.704   4.957   1.866
 4265TIP3    H212739   5.575   4.895   1.817
 4266TIP3   OH212740   4.321   6.265   5.051
 4266TIP3    H112741   4.304   6.325   5.124
 4266TIP3    H212742   4.244   6.275   4.995
 4267TIP3   OH212743   3.230   2.984   0.055
 4267TIP3    H112744   3.229   3.059   0.114
 4267TIP3    H212745   3.320   2.979   0.023
 4268TIP3   OH212746   7.160   7.464   3.375
 4268TIP3    H112747   7.161   7.534   3.310
 4268TIP3    H212748   7.190   7.505   3.456
 4269TIP3   OH212749   4.721   1.027   5.468
 4269TIP3    H112750   4.716   0.951   5.526
 4269TIP3    H212751   4.724   1.102   5.527
 4270TIP3   OH212752   3.196   2.197   5.878
 4270TIP3    H112753   3.223   2.283   5.909
 4270TIP3    H212754   3.106   2.210   5.848
 4271TIP3   OH212755   6.760   6.430   1.123
 4271TIP3    H112756   6.793   6.419   1.212
 4271TIP3    H212757   6.693   6.362   1.114
 4272TIP3   OH212758   5.105   0.048   5.406
 4272TIP3    H112759   5.162   0.119   5.377
 4272TIP3    H212760   5.034   0.046   5.343
 4273TIP3   OH212761   5.874   5.177   4.164
 4273TIP3    H112762   5.787   5.160   4.128
 4273TIP3    H212763   5.875   5.128   4.247
 4274TIP3   OH212764   0.031   7.541   4.683
 4274TIP3    H112765   0.027   7.544   4.779
 4274TIP3    H212766   0.114   7.497   4.664
 4275TIP3   OH212767   7.080   3.051   5.528
 4275TIP3    H112768   7.097   3.136   5.488
 4275TIP3    H212769   7.143   3.046   5.600
 4276TIP3   OH212770   4.184   1.231   0.704
 4276TIP3    H112771   4.094   1.250   0.731
 4276TIP3    H212772   4.218   1.314   0.671
 4277TIP3   OH212773   6.528   6.508   3.080
 4277TIP3    H112774   6.616   6.512   3.119
 4277TIP3    H212775   6.540   6.536   2.990
 4278TIP3   OH212776   5.677   4.697   6.380
 4278TIP3    H112777   5.612   4.767   6.376
 4278TIP3    H212778   5.653   4.648   6.459
 4279TIP3   OH212779   6.232   7.041   6.364
 4279TIP3    H112780   6.234   7.062   6.457
 4279TIP3    H212781   6.139   7.026   6.345
 4280TIP3   OH212782   0.388   3.274   3.205
 4280TIP3    H112783   0.363   3.287   3.296
 4280TIP3    H212784   0.330   3.203   3.175
 4281TIP3   OH212785   5.863   4.139   4.463
 4281TIP3    H112786   5.831   4.226   4.441
 4281TIP3    H212787   5.891   4.102   4.379
 4282TIP3   OH212788   1.661   4.206   0.763
 4282TIP3    H112789   1.568   4.186   0.775
 4282TIP3    H212790   1.697   4.130   0.719
 4283TIP3   OH212791   6.456   0.912   4.624
 4283TIP3    H112792   6.419   0.929   4.538
 4283TIP3    H212793   6.514   0.986   4.641
 4284TIP3   OH212794   3.689   0.921   0.908
 4284TIP3    H112795   3.657   0.938   0.996
 4284TIP3    H212796   3.677   0.826   0.896
 4285TIP3   OH212797   6.722   3.007   5.835
 4285TIP3    H112798   6.656   2.955   5.882
 4285TIP3    H212799   6.805   2.983   5.875
 4286TIP3   OH212800   7.971   7.452   6.680
 4286TIP3    H112801   7.901   7.480   6.738
 4286TIP3    H212802   8.021   7.388   6.731
 4287TIP3   OH212803   7.059   4.744   3.962
 4287TIP3    H112804   7.010   4.824   3.942
 4287TIP3    H212805   7.057   4.738   4.057
 4288TIP3   OH212806   4.338   0.580   5.671
 4288TIP3    H112807   4.377   0.577   5.758
 4288TIP3    H212808   4.272   0.649   5.677
 4289TIP3   OH212809   2.791   2.074   3.453
 4289TIP3    H112810   2.719   2.137   3.454
 4289TIP3    H212811   2.800   2.050   3.360
 4290TIP3   OH212812   3.434   7.063   2.748
 4290TIP3    H112813   3.412   7.139   2.803
 4290TIP3    H212814   3.349   7.022   2.729
 4291TIP3   OH212815   2.703   1.282   3.436
 4291TIP3    H112816   2.773   1.289   3.501
 4291TIP3    H212817   2.737   1.224   3.369
 4292TIP3   OH212818   0.808   7.256   1.355
 4292TIP3    H112819   0.864   7.182   1.377
 4292TIP3    H212820   0.762   7.229   1.275
 4293TIP3   OH212821   2.518   2.020   4.663
 4293TIP3    H112822   2.423   2.030   4.669
 4293TIP3    H212823   2.549   2.035   4.753
 4294TIP3   OH212824   2.599   4.283   1.668
 4294TIP3    H112825   2.515   4.248   1.640
 4294TIP3    H212826   2.614   4.244   1.754
 4295TIP3   OH212827   3.590   1.060   5.036
 4295TIP3    H112828   3.653   1.039   4.967
 4295TIP3    H212829   3.513   1.008   5.015
 4296TIP3   OH212830   0.188   2.113   5.930
 4296TIP3    H112831   0.165   2.052   5.859
 4296TIP3    H212832   0.160   2.068   6.010
 4297TIP3   OH212833   2.996   6.519   6.456
 4297TIP3    H112834   2.999   6.426   6.437
 4297TIP3    H212835   2.959   6.525   6.545
 4298TIP3   OH212836   1.759   4.691   5.832
 4298TIP3    H112837   1.770   4.743   5.753
 4298TIP3    H212838   1.823   4.620   5.824
 4299TIP3   OH212839   5.480   5.568   5.877
 4299TIP3    H112840   5.430   5.649   5.865
 4299TIP3    H212841   5.544   5.589   5.945
 4300TIP3   OH212842   2.803   4.457   4.123
 4300TIP3    H112843   2.852   4.394   4.071
 4300TIP3    H212844   2.727   4.408   4.155
 4301TIP3   OH212845   5.992   5.517   3.388
 4301TIP3    H112846   5.960   5.436   3.428
 4301TIP3    H212847   5.928   5.537   3.320
 4302TIP3   OH212848   2.046   7.723   1.620
 4302TIP3    H112849   2.059   7.817   1.636
 4302TIP3    H212850   1.970   7.700   1.674
 4303TIP3   OH212851   5.484   5.235   0.439
 4303TIP3    H112852   5.568   5.206   0.403
 4303TIP3    H212853   5.422   5.225   0.367
 4304TIP3   OH212854   4.477   6.647   5.824
 4304TIP3    H112855   4.548   6.607   5.875
 4304TIP3    H212856   4.415   6.575   5.809
 4305TIP3   OH212857   2.584   2.643   5.121
 4305TIP3    H112858   2.641   2.718   5.105
 4305TIP3    H212859   2.497   2.673   5.094
 4306TIP3   OH212860   4.330   2.523   4.508
 4306TIP3    H112861   4.378   2.443   4.486
 4306TIP3    H212862   4.279   2.501   4.585
 4307TIP3   OH212863   2.876   2.285   5.157
 4307TIP3    H112864   2.799   2.318   5.202
 4307TIP3    H212865   2.873   2.326   5.071
 4308TIP3   OH212866   7.262   7.421   2.654
 4308TIP3    H112867   7.226   7.508   2.637
 4308TIP3    H212868   7.226   7.365   2.584
 4309TIP3   OH212869   0.299   0.200   1.623
 4309TIP3    H112870   0.238   0.133   1.652
 4309TIP3    H212871   0.378   0.152   1.599
 4310TIP3   OH212872   6.060   2.310   6.267
 4310TIP3    H112873   6.049   2.314   6.172
 4310TIP3    H212874   5.971   2.312   6.302
 4311TIP3   OH212875   1.623   0.736   1.702
 4311TIP3    H112876   1.588   0.668   1.643
 4311TIP3    H212877   1.704   0.699   1.735
 4312TIP3   OH212878   7.624   4.203   3.382
 4312TIP3    H112879   7.656   4.150   3.309
 4312TIP3    H212880   7.565   4.144   3.430
 4313TIP3   OH212881   3.844   1.559   1.981
 4313TIP3    H112882   3.931   1.528   1.955
 4313TIP3    H212883   3.837   1.647   1.944
 4314TIP3   OH212884   7.015   3.384   6.495
 4314TIP3    H112885   7.045   3.331   6.569
 4314TIP3    H212886   6.933   3.342   6.467
 4315TIP3   OH212887   1.783   1.797   0.446
 4315TIP3    H112888   1.703   1.849   0.438
 4315TIP3    H212889   1.759   1.724   0.503
 4316TIP3   OH212890   3.856   4.990   2.086
 4316TIP3    H112891   3.948   5.015   2.083
 4316TIP3    H212892   3.854   4.907   2.132
 4317TIP3   OH212893   3.491   0.416   5.809
 4317TIP3    H112894   3.533   0.448   5.888
 4317TIP3    H212895   3.415   0.474   5.797
 4318TIP3   OH212896   7.585   4.141   1.117
 4318TIP3    H112897   7.567   4.075   1.050
 4318TIP3    H212898   7.680   4.137   1.129
 4319TIP3   OH212899   6.509   2.774   4.250
 4319TIP3    H112900   6.498   2.750   4.342
 4319TIP3    H212901   6.591   2.824   4.248
 4320TIP3   OH212902   4.623   2.255   5.473
 4320TIP3    H112903   4.546   2.249   5.416
 4320TIP3    H212904   4.665   2.170   5.465
 4321TIP3   OH212905   3.922   0.625   4.567
 4321TIP3    H112906   3.834   0.636   4.531
 4321TIP3    H212907   3.947   0.535   4.543
 4322TIP3   OH212908   3.900   7.383   6.214
 4322TIP3    H112909   3.817   7.413   6.251
 4322TIP3    H212910   3.962   7.391   6.287
 4323TIP3   OH212911   2.901   7.650   4.501
 4323TIP3    H112912   2.843   7.708   4.549
 4323TIP3    H212913   2.989   7.681   4.521
 4324TIP3   OH212914   3.001   2.064   2.318
 4324TIP3    H112915   2.950   2.029   2.391
 4324TIP3    H212916   3.001   1.995   2.252
 4325TIP3   OH212917   1.714   4.930   5.994
 4325TIP3    H112918   1.703   5.014   5.949
 4325TIP3    H212919   1.739   4.869   5.924
 4326TIP3   OH212920   3.270   5.102   1.578
 4326TIP3    H112921   3.348   5.071   1.623
 4326TIP3    H212922   3.298   5.118   1.488
 4327TIP3   OH212923   1.788   7.644   2.494
 4327TIP3    H112924   1.727   7.687   2.434
 4327TIP3    H212925   1.800   7.557   2.458
 4328TIP3   OH212926   2.767   5.908   4.812
 4328TIP3    H112927   2.789   5.929   4.903
 4328TIP3    H212928   2.851   5.915   4.766
 4329TIP3   OH212929   6.291   3.801   1.707
 4329TIP3    H112930   6.325   3.758   1.629
 4329TIP3    H212931   6.197   3.781   1.706
 4330TIP3   OH212932   2.729   0.268   4.896
 4330TIP3    H112933   2.662   0.212   4.858
 4330TIP3    H212934   2.728   0.246   4.990
 4331TIP3   OH212935   2.787   2.508   5.592
 4331TIP3    H112936   2.741   2.564   5.530
 4331TIP3    H212937   2.731   2.505   5.669
 4332TIP3   OH212938   1.026   5.891   3.778
 4332TIP3    H112939   1.066   5.867   3.862
 4332TIP3    H212940   1.054   5.822   3.718
 4333TIP3   OH212941   5.498   0.048   2.972
 4333TIP3    H112942   5.417   0.086   3.007
 4333TIP3    H212943   5.541   0.121   2.927
 4334TIP3   OH212944   8.043   6.190   3.500
 4334TIP3    H112945   8.088   6.139   3.433
 4334TIP3    H212946   8.010   6.126   3.562
 4335TIP3   OH212947   7.530   5.551   3.907
 4335TIP3    H112948   7.499   5.627   3.858
 4335TIP3    H212949   7.616   5.578   3.940
 4336TIP3   OH212950   1.799   7.415   5.930
 4336TIP3    H112951   1.813   7.496   5.978
 4336TIP3    H212952   1.778   7.443   5.840
 4337TIP3   OH212953   3.266   6.259   1.116
 4337TIP3    H112954   3.339   6.321   1.118
 4337TIP3    H212955   3.219   6.281   1.036
 4338TIP3   OH212956   7.958   1.162   3.586
 4338TIP3    H112957   7.928   1.079   3.548
 4338TIP3    H212958   7.879   1.214   3.596
 4339TIP3   OH212959   8.234   3.073   2.381
 4339TIP3    H112960   8.193   3.117   2.307
 4339TIP3    H212961   8.234   2.980   2.357
 4340TIP3   OH212962   1.604   0.267   0.928
 4340TIP3    H112963   1.665   0.333   0.960
 4340TIP3    H212964   1.655   0.186   0.926
 4341TIP3   OH212965   6.451   1.774   1.254
 4341TIP3    H112966   6.415   1.844   1.309
 4341TIP3    H212967   6.466   1.816   1.169
 4342TIP3   OH212968   4.042   3.317   3.456
 4342TIP3    H112969   4.109   3.275   3.511
 4342TIP3    H212970   3.959   3.284   3.490
 4343TIP3   OH212971   6.668   3.285   6.121
 4343TIP3    H112972   6.719   3.362   6.097
 4343TIP3    H212973   6.577   3.313   6.111
 4344TIP3   OH212974   2.480   4.028   3.289
 4344TIP3    H112975   2.524   4.103   3.249
 4344TIP3    H212976   2.513   3.952   3.240
 4345TIP3   OH212977   3.896   0.660   3.518
 4345TIP3    H112978   3.874   0.753   3.530
 4345TIP3    H212979   3.962   0.642   3.584
 4346TIP3   OH212980   2.614   6.238   2.565
 4346TIP3    H112981   2.709   6.242   2.555
 4346TIP3    H212982   2.597   6.270   2.653
 4347TIP3   OH212983   8.038   2.375   5.344
 4347TIP3    H112984   7.964   2.409   5.395
 4347TIP3    H212985   8.002   2.299   5.298
 4348TIP3   OH212986   5.392   4.778   4.158
 4348TIP3    H112987   5.405   4.837   4.084
 4348TIP3    H212988   5.381   4.836   4.233
 4349TIP3   OH212989   5.128   7.618   6.571
 4349TIP3    H112990   5.139   7.598   6.664
 4349TIP3    H212991   5.048   7.573   6.545
 4350TIP3   OH212992   2.011   4.631   1.437
 4350TIP3    H112993   2.040   4.641   1.528
 4350TIP3    H212994   2.028   4.539   1.416
 4351TIP3   OH212995   4.060   7.011   3.445
 4351TIP3    H112996   4.062   7.105   3.425
 4351TIP3    H212997   4.047   6.969   3.360
 4352TIP3   OH212998   2.662   1.035   6.733
 4352TIP3    H112999   2.752   1.003   6.733
 4352TIP3    H213000   2.648   1.067   6.644
 4353TIP3   OH213001   6.304   3.280   0.866
 4353TIP3    H113002   6.385   3.228   0.864
 4353TIP3    H213003   6.334   3.370   0.856
 4354TIP3   OH213004   5.064   4.285   2.477
 4354TIP3    H113005   5.103   4.283   2.390
 4354TIP3    H213006   5.061   4.378   2.501
 4355TIP3   OH213007   4.361   5.983   1.227
 4355TIP3    H113008   4.446   6.024   1.241
 4355TIP3    H213009   4.361   5.906   1.285
 4356TIP3   OH213010   3.876   6.414   1.399
 4356TIP3    H113011   3.886   6.507   1.378
 4356TIP3    H213012   3.785   6.394   1.378
 4357TIP3   OH213013   5.842   7.538   3.723
 4357TIP3    H113014   5.870   7.481   3.651
 4357TIP3    H213015   5.865   7.626   3.695
 4358TIP3   OH213016   6.631   7.175   5.360
 4358TIP3    H113017   6.659   7.174   5.268
 4358TIP3    H213018   6.714   7.175   5.409
 4359TIP3   OH213019   3.310   5.414   4.156
 4359TIP3    H113020   3.395   5.375   4.175
 4359TIP3    H213021   3.294   5.471   4.231
 4360TIP3   OH213022   1.938   4.338   0.298
 4360TIP3    H113023   1.904   4.293   0.376
 4360TIP3    H213024   1.986   4.270   0.250
 4361TIP3   OH213025   3.486   1.511   2.576
 4361TIP3    H113026   3.549   1.565   2.527
 4361TIP3    H213027   3.430   1.473   2.509
 4362TIP3   OH213028   0.056   0.672   3.273
 4362TIP3    H113029   0.092   0.740   3.217
 4362TIP3    H213030  -0.029   0.707   3.301
 4363TIP3   OH213031   1.202   2.387   5.643
 4363TIP3    H113032   1.283   2.337   5.650
 4363TIP3    H213033   1.176   2.406   5.733
 4364TIP3   OH213034   0.754   0.108   5.116
 4364TIP3    H113035   0.777   0.052   5.041
 4364TIP3    H213036   0.684   0.165   5.083
 4365TIP3   OH213037   2.504   1.229   4.223
 4365TIP3    H113038   2.412   1.221   4.247
 4365TIP3    H213039   2.518   1.323   4.209
 4366TIP3   OH213040   4.847   7.142   2.186
 4366TIP3    H113041   4.826   7.064   2.237
 4366TIP3    H213042   4.833   7.215   2.247
 4367TIP3   OH213043   3.906   3.806   6.751
 4367TIP3    H113044   3.892   3.885   6.804
 4367TIP3    H213045   3.919   3.736   6.814
 4368TIP3   OH213046   2.901   5.803   5.941
 4368TIP3    H113047   2.982   5.753   5.927
 4368TIP3    H213048   2.894   5.809   6.036
 4369TIP3   OH213049   7.575   6.147   3.285
 4369TIP3    H113050   7.547   6.164   3.375
 4369TIP3    H213051   7.494   6.154   3.234
 4370TIP3   OH213052   2.475   0.531   1.789
 4370TIP3    H113053   2.570   0.542   1.784
 4370TIP3    H213054   2.460   0.487   1.872
 4371TIP3   OH213055   1.121   1.300   2.928
 4371TIP3    H113056   1.088   1.263   2.846
 4371TIP3    H213057   1.215   1.312   2.912
 4372TIP3   OH213058   3.115   2.689   6.444
 4372TIP3    H113059   3.117   2.704   6.539
 4372TIP3    H213060   3.059   2.759   6.410
 4373TIP3   OH213061   5.857   3.058   0.211
 4373TIP3    H113062   5.931   3.050   0.272
 4373TIP3    H213063   5.891   3.112   0.139
 4374TIP3   OH213064   4.124   5.336   4.372
 4374TIP3    H113065   4.192   5.403   4.360
 4374TIP3    H213066   4.151   5.264   4.314
 4375TIP3   OH213067   4.719   5.713   6.210
 4375TIP3    H113068   4.755   5.801   6.218
 4375TIP3    H213069   4.796   5.656   6.204
 4376TIP3   OH213070   5.640   6.946   3.789
 4376TIP3    H113071   5.625   6.975   3.879
 4376TIP3    H213072   5.661   7.027   3.741
 4377TIP3   OH213073   3.284   0.574   6.509
 4377TIP3    H113074   3.190   0.571   6.490
 4377TIP3    H213075   3.303   0.667   6.524
 4378TIP3   OH213076   7.315   1.649   1.429
 4378TIP3    H113077   7.350   1.662   1.341
 4378TIP3    H213078   7.358   1.570   1.461
 4379TIP3   OH213079   7.018   3.057   4.526
 4379TIP3    H113080   7.031   3.119   4.454
 4379TIP3    H213081   7.023   2.971   4.485
 4380TIP3   OH213082   6.672   5.104  -0.005
 4380TIP3    H113083   6.698   5.098   0.087
 4380TIP3    H213084   6.726   5.175  -0.040
 4381TIP3   OH213085   4.709   5.496   3.708
 4381TIP3    H113086   4.655   5.565   3.670
 4381TIP3    H213087   4.704   5.511   3.803
 4382TIP3   OH213088   5.040   1.824   0.910
 4382TIP3    H113089   5.007   1.767   0.980
 4382TIP3    H213090   5.110   1.772   0.869
 4383TIP3   OH213091   2.889   5.620   0.704
 4383TIP3    H113092   2.858   5.654   0.620
 4383TIP3    H213093   2.984   5.614   0.694
 4384TIP3   OH213094   6.574   2.026   6.559
 4384TIP3    H113095   6.541   2.114   6.571
 4384TIP3    H213096   6.561   2.008   6.466
 4385TIP3   OH213097   1.347   3.529   1.855
 4385TIP3    H113098   1.280   3.463   1.867
 4385TIP3    H213099   1.424   3.481   1.824
 4386TIP3   OH213100   8.282   3.118   0.470
 4386TIP3    H113101   8.263   3.211   0.483
 4386TIP3    H213102   8.229   3.092   0.394
 4387TIP3   OH213103   5.322   3.243   0.799
 4387TIP3    H113104   5.393   3.207   0.745
 4387TIP3    H213105   5.246   3.187   0.779
 4388TIP3   OH213106   7.036   3.264   2.379
 4388TIP3    H113107   7.064   3.333   2.320
 4388TIP3    H213108   7.068   3.291   2.465
 4389TIP3   OH213109   5.267   4.066   4.689
 4389TIP3    H113110   5.185   4.017   4.688
 4389TIP3    H213111   5.241   4.157   4.675
 4390TIP3   OH213112   3.878   3.012   0.506
 4390TIP3    H113113   3.904   2.922   0.483
 4390TIP3    H213114   3.787   3.003   0.535
 4391TIP3   OH213115   5.036   0.878   2.487
 4391TIP3    H113116   5.015   0.824   2.563
 4391TIP3    H213117   5.006   0.966   2.511
 4392TIP3   OH213118   8.005   4.238   6.420
 4392TIP3    H113119   7.960   4.158   6.446
 4392TIP3    H213120   8.030   4.224   6.329
 4393TIP3   OH213121   4.523   6.544   3.113
 4393TIP3    H113122   4.562   6.581   3.034
 4393TIP3    H213123   4.592   6.491   3.152
 4394TIP3   OH213124   0.153   1.705   3.503
 4394TIP3    H113125   0.145   1.631   3.562
 4394TIP3    H213126   0.187   1.776   3.557
 4395TIP3   OH213127   5.882   3.820   3.557
 4395TIP3    H113128   5.892   3.864   3.642
 4395TIP3    H213129   5.825   3.745   3.576
 4396TIP3   OH213130   2.084   5.163   0.171
 4396TIP3    H113131   2.123   5.121   0.248
 4396TIP3    H213132   2.022   5.226   0.207
 4397TIP3   OH213133   3.845   1.220   0.410
 4397TIP3    H113134   3.896   1.154   0.363
 4397TIP3    H213135   3.846   1.189   0.501
 4398TIP3   OH213136   8.091   1.515   3.051
 4398TIP3    H113137   8.116   1.602   3.083
 4398TIP3    H213138   8.003   1.501   3.086
 4399TIP3   OH213139   5.361   0.472   2.826
 4399TIP3    H113140   5.267   0.478   2.839
 4399TIP3    H213141   5.388   0.559   2.797
 4400TIP3   OH213142   0.015   7.669   5.654
 4400TIP3    H113143  -0.051   7.601   5.660
 4400TIP3    H213144   0.056   7.657   5.569
 4401TIP3   OH213145   4.247   0.226   1.054
 4401TIP3    H113146   4.283   0.303   1.098
 4401TIP3    H213147   4.274   0.235   0.962
 4402TIP3   OH213148   5.009   6.252   0.864
 4402TIP3    H113149   5.099   6.280   0.849
 4402TIP3    H213150   4.995   6.264   0.958
 4403TIP3   OH213151   7.015   6.907   5.286
 4403TIP3    H113152   7.000   6.869   5.373
 4403TIP3    H213153   7.106   6.886   5.266
 4404TIP3   OH213154   0.598   2.401   5.266
 4404TIP3    H113155   0.558   2.316   5.253
 4404TIP3    H213156   0.638   2.422   5.181
 4405TIP3   OH213157   5.206   5.113   1.513
 4405TIP3    H113158   5.162   5.179   1.566
 4405TIP3    H213159   5.281   5.159   1.475
 4406TIP3   OH213160   1.825   3.500   0.837
 4406TIP3    H113161   1.890   3.490   0.906
 4406TIP3    H213162   1.820   3.414   0.796
 4407TIP3   OH213163   6.269   7.085   3.309
 4407TIP3    H113164   6.310   7.161   3.269
 4407TIP3    H213165   6.332   7.014   3.298
 4408TIP3   OH213166   3.493   2.870   3.450
 4408TIP3    H113167   3.564   2.889   3.511
 4408TIP3    H213168   3.498   2.775   3.436
 4409TIP3   OH213169   5.724   0.846   5.606
 4409TIP3    H113170   5.728   0.938   5.632
 4409TIP3    H213171   5.734   0.798   5.688
 4410TIP3   OH213172   5.623   0.738   0.487
 4410TIP3    H113173   5.547   0.711   0.538
 4410TIP3    H213174   5.610   0.831   0.470
 4411TIP3   OH213175   6.713   1.339   5.547
 4411TIP3    H113176   6.642   1.320   5.486
 4411TIP3    H213177   6.701   1.431   5.570
 4412TIP3   OH213178   0.448   6.744   0.059
 4412TIP3    H113179   0.537   6.710   0.063
 4412TIP3    H213180   0.447   6.815   0.123
 4413TIP3   OH213181   7.708   2.236   4.362
 4413TIP3    H113182   7.648   2.270   4.429
 4413TIP3    H213183   7.794   2.268   4.389
 4414TIP3   OH213184   2.541   1.609   5.639
 4414TIP3    H113185   2.615   1.669   5.630
 4414TIP3    H213186   2.528   1.600   5.733
 4415TIP3   OH213187   2.134   0.260   4.196
 4415TIP3    H113188   2.207   0.249   4.135
 4415TIP3    H213189   2.165   0.325   4.259
 4416TIP3   OH213190   2.730   7.619   2.870
 4416TIP3    H113191   2.709   7.710   2.892
 4416TIP3    H213192   2.647   7.573   2.881
 4417TIP3   OH213193   2.711   6.677   5.481
 4417TIP3    H113194   2.714   6.773   5.483
 4417TIP3    H213195   2.667   6.656   5.399
 4418TIP3   OH213196   5.848   6.150   0.223
 4418TIP3    H113197   5.860   6.193   0.138
 4418TIP3    H213198   5.771   6.193   0.261
 4419TIP3   OH213199   6.419   0.963   6.582
 4419TIP3    H113200   6.395   0.892   6.523
 4419TIP3    H213201   6.511   0.982   6.561
 4420TIP3   OH213202   2.576   4.074   4.761
 4420TIP3    H113203   2.577   4.111   4.850
 4420TIP3    H213204   2.634   4.131   4.711
 4421TIP3   OH213205   4.875   4.331   2.708
 4421TIP3    H113206   4.875   4.280   2.627
 4421TIP3    H213207   4.889   4.421   2.680
 4422TIP3   OH213208   5.938   0.595   1.939
 4422TIP3    H113209   5.904   0.567   2.024
 4422TIP3    H213210   5.862   0.598   1.882
 4423TIP3   OH213211   7.958   5.929   0.771
 4423TIP3    H113212   7.946   5.964   0.683
 4423TIP3    H213213   7.907   5.987   0.828
 4424TIP3   OH213214   0.119   1.897   5.760
 4424TIP3    H113215   0.158   1.869   5.677
 4424TIP3    H213216   0.086   1.816   5.800
 4425TIP3   OH213217   4.981   4.167   1.135
 4425TIP3    H113218   4.971   4.080   1.173
 4425TIP3    H213219   5.073   4.188   1.147
 4426TIP3   OH213220   4.779   6.778   0.420
 4426TIP3    H113221   4.784   6.736   0.334
 4426TIP3    H213222   4.846   6.735   0.472
 4427TIP3   OH213223   0.512   1.772   2.346
 4427TIP3    H113224   0.485   1.818   2.267
 4427TIP3    H213225   0.430   1.743   2.386
 4428TIP3   OH213226   5.802   4.865   2.173
 4428TIP3    H113227   5.791   4.878   2.268
 4428TIP3    H213228   5.892   4.831   2.165
 4429TIP3   OH213229   0.998   0.010   5.604
 4429TIP3    H113230   0.955   0.023   5.520
 4429TIP3    H213231   0.927   0.014   5.668
 4430TIP3   OH213232   2.173   0.125   4.761
 4430TIP3    H113233   2.199   0.204   4.714
 4430TIP3    H213234   2.131   0.156   4.841
 4431TIP3   OH213235   5.000   1.858   4.476
 4431TIP3    H113236   5.036   1.771   4.497
 4431TIP3    H213237   5.076   1.913   4.460
 4432TIP3   OH213238   1.326   2.103   3.694
 4432TIP3    H113239   1.384   2.179   3.698
 4432TIP3    H213240   1.320   2.072   3.785
 4433TIP3   OH213241   3.484   4.862   6.082
 4433TIP3    H113242   3.531   4.790   6.124
 4433TIP3    H213243   3.521   4.941   6.120
 4434TIP3   OH213244   6.927   4.602   6.444
 4434TIP3    H113245   6.950   4.599   6.351
 4434TIP3    H213246   6.973   4.527   6.482
 4435TIP3   OH213247   3.422   6.819   5.567
 4435TIP3    H113248   3.517   6.831   5.569
 4435TIP3    H213249   3.394   6.861   5.486
 4436TIP3   OH213250   3.372   2.544   3.214
 4436TIP3    H113251   3.362   2.527   3.308
 4436TIP3    H213252   3.379   2.457   3.174
 4437TIP3   OH213253   0.570   0.417   3.180
 4437TIP3    H113254   0.512   0.345   3.158
 4437TIP3    H213255   0.570   0.473   3.101
 4438TIP3   OH213256   1.039   1.296   5.659
 4438TIP3    H113257   1.021   1.314   5.567
 4438TIP3    H213258   1.130   1.325   5.672
 4439TIP3   OH213259   7.739   1.491   0.229
 4439TIP3    H113260   7.770   1.480   0.139
 4439TIP3    H213261   7.646   1.510   0.220
 4440TIP3   OH213262   1.432   2.123   1.239
 4440TIP3    H113263   1.424   2.217   1.227
 4440TIP3    H213264   1.526   2.108   1.252
 4441TIP3   OH213265   3.017   4.655   5.642
 4441TIP3    H113266   3.040   4.571   5.604
 4441TIP3    H213267   2.957   4.634   5.714
 4442TIP3   OH213268   3.599   1.336   2.769
 4442TIP3    H113269   3.637   1.406   2.823
 4442TIP3    H213270   3.565   1.381   2.692
 4443TIP3   OH213271   5.673   1.529   2.799
 4443TIP3    H113272   5.713   1.570   2.876
 4443TIP3    H213273   5.582   1.557   2.802
 4444TIP3   OH213274   1.059   1.829   1.612
 4444TIP3    H113275   1.125   1.761   1.623
 4444TIP3    H213276   1.100   1.893   1.553
 4445TIP3   OH213277   5.704   1.386   6.788
 4445TIP3    H113278   5.656   1.383   6.705
 4445TIP3    H213279   5.637   1.373   6.855
 4446TIP3   OH213280   5.940   1.963   5.969
 4446TIP3    H113281   5.924   1.868   5.962
 4446TIP3    H213282   6.005   1.982   5.902
 4447TIP3   OH213283   3.672   6.971   4.298
 4447TIP3    H113284   3.628   6.917   4.364
 4447TIP3    H213285   3.757   6.991   4.335
 4448TIP3   OH213286   5.912   7.455   5.194
 4448TIP3    H113287   5.884   7.453   5.285
 4448TIP3    H213288   5.995   7.408   5.192
 4449TIP3   OH213289   5.847   4.711  -0.001
 4449TIP3    H113290   5.803   4.720   0.083
 4449TIP3    H213291   5.824   4.623  -0.031
 4450TIP3   OH213292   5.023   2.328   6.298
 4450TIP3    H113293   5.023   2.416   6.334
 4450TIP3    H213294   5.111   2.294   6.316
 4451TIP3   OH213295   4.499   1.296   4.344
 4451TIP3    H113296   4.407   1.286   4.368
 4451TIP3    H213297   4.530   1.206   4.333
 4452TIP3   OH213298   7.353   1.693   1.743
 4452TIP3    H113299   7.259   1.700   1.725
 4452TIP3    H213300   7.366   1.747   1.821
 4453TIP3   OH213301   5.797   5.936   2.808
 4453TIP3    H113302   5.738   5.860   2.800
 4453TIP3    H213303   5.864   5.921   2.741
 4454TIP3   OH213304   2.681   6.582   2.797
 4454TIP3    H113305   2.670   6.487   2.809
 4454TIP3    H213306   2.696   6.615   2.886
 4455TIP3   OH213307   1.498   3.078   2.489
 4455TIP3    H113308   1.515   3.008   2.426
 4455TIP3    H213309   1.538   3.046   2.570
 4456TIP3   OH213310   4.384   5.659   4.034
 4456TIP3    H113311   4.313   5.603   4.004
 4456TIP3    H213312   4.419   5.698   3.954
 4457TIP3   OH213313   8.119   1.816   6.186
 4457TIP3    H113314   8.213   1.808   6.202
 4457TIP3    H213315   8.103   1.760   6.110
 4458TIP3   OH213316   8.163   2.540   5.793
 4458TIP3    H113317   8.199   2.454   5.815
 4458TIP3    H213318   8.202   2.599   5.857
 4459TIP3   OH213319   6.535   4.100   4.901
 4459TIP3    H113320   6.544   4.185   4.945
 4459TIP3    H213321   6.600   4.103   4.831
 4460TIP3   OH213322   0.960   1.399   0.044
 4460TIP3    H113323   1.014   1.336  -0.003
 4460TIP3    H213324   0.951   1.473  -0.017
 4461TIP3   OH213325   4.497   3.375   1.918
 4461TIP3    H113326   4.474   3.282   1.919
 4461TIP3    H213327   4.507   3.399   2.010
 4462TIP3   OH213328   5.533   4.179   0.263
 4462TIP3    H113329   5.472   4.250   0.246
 4462TIP3    H213330   5.585   4.171   0.183
 4463TIP3   OH213331   7.280   0.961   0.654
 4463TIP3    H113332   7.223   1.022   0.606
 4463TIP3    H213333   7.254   0.972   0.746
 4464TIP3   OH213334   5.825   6.861   4.951
 4464TIP3    H113335   5.782   6.839   4.869
 4464TIP3    H213336   5.910   6.817   4.947
 4465TIP3   OH213337   1.420   2.712   1.205
 4465TIP3    H113338   1.382   2.637   1.158
 4465TIP3    H213339   1.384   2.788   1.160
 4466TIP3   OH213340   3.911   2.051   0.987
 4466TIP3    H113341   3.852   1.976   0.996
 4466TIP3    H213342   3.986   2.017   0.938
 4467TIP3   OH213343   6.513   6.050   5.630
 4467TIP3    H113344   6.481   5.968   5.592
 4467TIP3    H213345   6.540   6.026   5.719
 4468TIP3   OH213346   5.531   0.402   5.807
 4468TIP3    H113347   5.543   0.392   5.902
 4468TIP3    H213348   5.439   0.427   5.798
 4469TIP3   OH213349   6.493   5.569   6.533
 4469TIP3    H113350   6.428   5.500   6.519
 4469TIP3    H213351   6.513   5.603   6.446
 4470TIP3   OH213352   4.682   1.304   5.921
 4470TIP3    H113353   4.689   1.333   5.830
 4470TIP3    H213354   4.592   1.324   5.945
 4471TIP3   OH213355   2.838   3.757   2.419
 4471TIP3    H113356   2.904   3.764   2.350
 4471TIP3    H213357   2.826   3.847   2.450
 4472TIP3   OH213358   7.862   3.146   1.366
 4472TIP3    H113359   7.859   3.102   1.451
 4472TIP3    H213360   7.778   3.192   1.360
 4473TIP3   OH213361   6.890   1.896   0.968
 4473TIP3    H113362   6.907   1.962   0.902
 4473TIP3    H213363   6.972   1.845   0.972
 4474TIP3   OH213364   1.576   0.197   4.162
 4474TIP3    H113365   1.670   0.181   4.159
 4474TIP3    H213366   1.538   0.131   4.104
 4475TIP3   OH213367   7.632   4.761   0.849
 4475TIP3    H113368   7.569   4.801   0.909
 4475TIP3    H213369   7.672   4.690   0.900
 4476TIP3   OH213370   0.765   2.611   0.602
 4476TIP3    H113371   0.732   2.571   0.521
 4476TIP3    H213372   0.860   2.601   0.597
 4477TIP3   OH213373   1.304   1.762   3.305
 4477TIP3    H113374   1.334   1.750   3.395
 4477TIP3    H213375   1.366   1.823   3.266
 4478TIP3   OH213376   3.932   3.803   6.458
 4478TIP3    H113377   4.005   3.857   6.426
 4478TIP3    H213378   3.939   3.808   6.554
 4479TIP3   OH213379   2.279   3.794   0.616
 4479TIP3    H113380   2.313   3.766   0.531
 4479TIP3    H213381   2.246   3.882   0.601
 4480TIP3   OH213382   3.444   1.761   3.367
 4480TIP3    H113383   3.470   1.669   3.376
 4480TIP3    H213384   3.386   1.777   3.441
 4481TIP3   OH213385   5.334   3.776   2.148
 4481TIP3    H113386   5.273   3.849   2.156
 4481TIP3    H213387   5.288   3.702   2.188
 4482TIP3   OH213388   2.940   5.620   4.219
 4482TIP3    H113389   3.018   5.593   4.267
 4482TIP3    H213390   2.936   5.715   4.232
 4483TIP3   OH213391   4.166   3.814   1.998
 4483TIP3    H113392   4.204   3.739   1.952
 4483TIP3    H213393   4.074   3.791   2.009
 4484TIP3   OH213394   8.071   3.673   3.061
 4484TIP3    H113395   8.087   3.618   2.984
 4484TIP3    H213396   7.980   3.658   3.083
 4485TIP3   OH213397   5.159   5.326   6.115
 4485TIP3    H113398   5.203   5.359   6.037
 4485TIP3    H213399   5.082   5.383   6.124
 4486TIP3   OH213400   2.674   3.363   6.686
 4486TIP3    H113401   2.749   3.383   6.631
 4486TIP3    H213402   2.662   3.442   6.739
 4487TIP3   OH213403   7.041   7.186   6.475
 4487TIP3    H113404   6.995   7.262   6.440
 4487TIP3    H213405   7.114   7.223   6.526
 4488TIP3   OH213406   2.494   4.992   5.287
 4488TIP3    H113407   2.493   4.899   5.310
 4488TIP3    H213408   2.569   5.001   5.227
 4489TIP3   OH213409   4.706   5.458   2.270
 4489TIP3    H113410   4.683   5.373   2.234
 4489TIP3    H213411   4.771   5.439   2.338
 4490TIP3   OH213412   0.109   2.868   4.981
 4490TIP3    H113413   0.182   2.887   4.921
 4490TIP3    H213414   0.145   2.884   5.068
 4491TIP3   OH213415   0.226   0.961   1.779
 4491TIP3    H113416   0.171   0.951   1.857
 4491TIP3    H213417   0.210   1.050   1.749
 4492TIP3   OH213418   6.480   0.919   0.877
 4492TIP3    H113419   6.403   0.962   0.840
 4492TIP3    H213420   6.479   0.943   0.970
 4493TIP3   OH213421   7.516   2.002   5.019
 4493TIP3    H113422   7.469   1.942   4.962
 4493TIP3    H213423   7.447   2.054   5.062
 4494TIP3   OH213424   6.099   0.677   2.548
 4494TIP3    H113425   6.104   0.633   2.633
 4494TIP3    H213426   6.140   0.762   2.563
 4495TIP3   OH213427   6.892   6.112   2.813
 4495TIP3    H113428   6.901   6.143   2.723
 4495TIP3    H213429   6.874   6.191   2.864
 4496TIP3   OH213430   7.126   5.327   4.562
 4496TIP3    H113431   7.072   5.274   4.504
 4496TIP3    H213432   7.103   5.298   4.650
 4497TIP3   OH213433   4.993   0.283   1.711
 4497TIP3    H113434   4.965   0.333   1.787
 4497TIP3    H213435   4.911   0.249   1.674
 4498TIP3   OH213436   2.940   3.212   1.080
 4498TIP3    H113437   2.954   3.180   0.991
 4498TIP3    H213438   2.942   3.308   1.071
 4499TIP3   OH213439   0.169   2.747   5.719
 4499TIP3    H113440   0.211   2.735   5.634
 4499TIP3    H213441   0.076   2.753   5.698
 4500TIP3   OH213442   6.876   7.793   3.412
 4500TIP3    H113443   6.933   7.852   3.461
 4500TIP3    H213444   6.791   7.800   3.455
 4501TIP3   OH213445   0.528   6.427   4.697
 4501TIP3    H113446   0.527   6.435   4.602
 4501TIP3    H213447   0.619   6.404   4.718
 4502TIP3   OH213448   5.046   6.876   6.513
 4502TIP3    H113449   4.999   6.938   6.456
 4502TIP3    H213450   5.128   6.921   6.535
 4503TIP3   OH213451   3.267   2.992   4.213
 4503TIP3    H113452   3.311   3.007   4.297
 4503TIP3    H213453   3.285   3.071   4.163
 4504TIP3   OH213454   7.583   1.781   1.523
 4504TIP3    H113455   7.664   1.802   1.569
 4504TIP3    H213456   7.529   1.739   1.589
 4505TIP3   OH213457   8.229   3.978   1.533
 4505TIP3    H113458   8.280   3.898   1.549
 4505TIP3    H213459   8.140   3.948   1.519
 4506TIP3   OH213460   5.430   4.105   4.087
 4506TIP3    H113461   5.365   4.102   4.017
 4506TIP3    H213462   5.379   4.106   4.168
 4507TIP3   OH213463   2.938   0.286   0.411
 4507TIP3    H113464   3.030   0.312   0.417
 4507TIP3    H213465   2.910   0.318   0.326
 4508TIP3   OH213466   7.798   1.021   6.084
 4508TIP3    H113467   7.880   1.071   6.090
 4508TIP3    H213468   7.736   1.072   6.137
 4509TIP3   OH213469   8.138   4.403   4.497
 4509TIP3    H113470   8.164   4.463   4.428
 4509TIP3    H213471   8.072   4.451   4.547
 4510TIP3   OH213472   5.765   2.637   5.249
 4510TIP3    H113473   5.848   2.601   5.219
 4510TIP3    H213474   5.711   2.560   5.267
 4511TIP3   OH213475   5.212   6.307   2.542
 4511TIP3    H113476   5.204   6.304   2.447
 4511TIP3    H213477   5.234   6.217   2.568
 4512TIP3   OH213478   4.127   1.795   2.710
 4512TIP3    H113479   4.095   1.822   2.796
 4512TIP3    H213480   4.193   1.728   2.729
 4513TIP3   OH213481   1.352   7.200   2.795
 4513TIP3    H113482   1.289   7.180   2.726
 4513TIP3    H213483   1.312   7.273   2.843
 4514TIP3   OH213484   0.054   0.967   1.992
 4514TIP3    H113485   0.031   1.058   1.973
 4514TIP3    H213486  -0.007   0.941   2.061
 4515TIP3   OH213487   4.728   3.535   4.791
 4515TIP3    H113488   4.721   3.563   4.700
 4515TIP3    H213489   4.692   3.446   4.791
 4516TIP3   OH213490   7.599   4.411   0.073
 4516TIP3    H113491   7.656   4.377   0.142
 4516TIP3    H213492   7.511   4.381   0.098
 4517TIP3   OH213493   7.708   0.847   3.908
 4517TIP3    H113494   7.789   0.836   3.857
 4517TIP3    H213495   7.734   0.902   3.982
 4518TIP3   OH213496   7.080   1.671   6.698
 4518TIP3    H113497   7.106   1.607   6.632
 4518TIP3    H213498   7.114   1.636   6.780
 4519TIP3   OH213499   5.523   1.321   0.001
 4519TIP3    H113500   5.566   1.237   0.014
 4519TIP3    H213501   5.589   1.387   0.024
 4520TIP3   OH213502   1.265   0.812   6.583
 4520TIP3    H113503   1.314   0.730   6.593
 4520TIP3    H213504   1.289   0.863   6.661
 4521TIP3   OH213505   7.048   4.045   5.426
 4521TIP3    H113506   7.089   4.071   5.343
 4521TIP3    H213507   7.120   4.043   5.489
 4522TIP3   OH213508   5.640   0.726   4.735
 4522TIP3    H113509   5.577   0.680   4.790
 4522TIP3    H213510   5.664   0.662   4.668
 4523TIP3   OH213511   5.665   7.831   1.695
 4523TIP3    H113512   5.636   7.842   1.786
 4523TIP3    H213513   5.644   7.740   1.674
 4524TIP3   OH213514   0.937   0.877   3.167
 4524TIP3    H113515   0.895   0.792   3.180
 4524TIP3    H213516   1.030   0.860   3.177
 4525TIP3   OH213517   6.639   6.873   4.483
 4525TIP3    H113518   6.668   6.893   4.394
 4525TIP3    H213519   6.682   6.790   4.504
 4526TIP3   OH213520   7.942   3.314   6.682
 4526TIP3    H113521   7.951   3.408   6.672
 4526TIP3    H213522   7.848   3.298   6.684
 4527TIP3   OH213523   6.913   5.427   0.850
 4527TIP3    H113524   6.835   5.451   0.799
 4527TIP3    H213525   6.879   5.397   0.934
 4528TIP3   OH213526   2.160   7.583   4.333
 4528TIP3    H113527   2.143   7.534   4.414
 4528TIP3    H213528   2.244   7.625   4.349
 4529TIP3   OH213529   3.841   3.360   3.782
 4529TIP3    H113530   3.803   3.293   3.725
 4529TIP3    H213531   3.932   3.334   3.794
 4530TIP3   OH213532   2.831   0.921   2.703
 4530TIP3    H113533   2.871   0.856   2.762
 4530TIP3    H213534   2.905   0.971   2.670
 4531TIP3   OH213535   0.762   5.841   3.872
 4531TIP3    H113536   0.719   5.759   3.847
 4531TIP3    H213537   0.835   5.849   3.810
 4532TIP3   OH213538   6.292   5.926   0.869
 4532TIP3    H113539   6.236   5.850   0.858
 4532TIP3    H213540   6.250   5.995   0.818
 4533TIP3   OH213541   7.975   0.707   4.632
 4533TIP3    H113542   7.946   0.734   4.719
 4533TIP3    H213543   7.929   0.766   4.572
 4534TIP3   OH213544   0.420   0.155   3.476
 4534TIP3    H113545   0.476   0.079   3.490
 4534TIP3    H213546   0.402   0.189   3.564
 4535TIP3   OH213547   5.879   2.618   2.295
 4535TIP3    H113548   5.947   2.683   2.277
 4535TIP3    H213549   5.849   2.590   2.208
 4536TIP3   OH213550   5.746   7.180   3.371
 4536TIP3    H113551   5.732   7.274   3.366
 4536TIP3    H213552   5.712   7.146   3.288
 4537TIP3   OH213553   3.376   2.719   5.396
 4537TIP3    H113554   3.464   2.756   5.401
 4537TIP3    H213555   3.379   2.661   5.320
 4538TIP3   OH213556   2.041   4.943   6.335
 4538TIP3    H113557   2.025   5.036   6.320
 4538TIP3    H213558   1.974   4.899   6.283
 4539TIP3   OH213559   5.458   5.081   2.668
 4539TIP3    H113560   5.445   5.080   2.573
 4539TIP3    H213561   5.528   5.018   2.683
 4540TIP3   OH213562   3.444   7.193   3.243
 4540TIP3    H113563   3.480   7.176   3.330
 4540TIP3    H213564   3.444   7.107   3.200
 4541TIP3   OH213565   1.215   7.797   1.347
 4541TIP3    H113566   1.154   7.838   1.409
 4541TIP3    H213567   1.198   7.703   1.355
 4542TIP3   OH213568   4.708   1.326   5.648
 4542TIP3    H113569   4.653   1.248   5.648
 4542TIP3    H213570   4.716   1.350   5.556
 4543TIP3   OH213571   6.549   3.710   6.070
 4543TIP3    H113572   6.564   3.676   6.159
 4543TIP3    H213573   6.482   3.653   6.034
 4544TIP3   OH213574   4.398   0.731   2.636
 4544TIP3    H113575   4.329   0.714   2.571
 4544TIP3    H213576   4.404   0.827   2.639
 4545TIP3   OH213577   2.624   6.525   4.784
 4545TIP3    H113578   2.651   6.434   4.788
 4545TIP3    H213579   2.676   6.563   4.713
 4546TIP3   OH213580   3.866   1.501   0.088
 4546TIP3    H113581   3.805   1.428   0.100
 4546TIP3    H213582   3.952   1.465   0.110
 4547TIP3   OH213583   3.612   7.196   0.762
 4547TIP3    H113584   3.649   7.285   0.763
 4547TIP3    H213585   3.526   7.207   0.722
 4548TIP3   OH213586   2.233   2.317   3.954
 4548TIP3    H113587   2.179   2.295   3.879
 4548TIP3    H213588   2.290   2.388   3.923
 4549TIP3   OH213589   4.327   2.664   4.812
 4549TIP3    H113590   4.403   2.703   4.855
 4549TIP3    H213591   4.295   2.733   4.753
 4550TIP3   OH213592   3.386   7.234   0.541
 4550TIP3    H113593   3.385   7.167   0.472
 4550TIP3    H213594   3.306   7.218   0.591
 4551TIP3   OH213595   1.239   0.569   2.813
 4551TIP3    H113596   1.332   0.592   2.819
 4551TIP3    H213597   1.203   0.633   2.752
 4552TIP3   OH213598   4.346   1.911   5.332
 4552TIP3    H113599   4.337   1.830   5.281
 4552TIP3    H213600   4.410   1.889   5.400
 4553TIP3   OH213601   6.090   5.828   2.672
 4553TIP3    H113602   6.110   5.735   2.667
 4553TIP3    H213603   6.074   5.854   2.581
 4554TIP3   OH213604   1.090   7.612   5.576
 4554TIP3    H113605   1.138   7.594   5.495
 4554TIP3    H213606   1.014   7.554   5.572
 4555TIP3   OH213607   2.749   4.389   1.946
 4555TIP3    H113608   2.783   4.446   2.015
 4555TIP3    H213609   2.701   4.448   1.888
 4556TIP3   OH213610   3.022   2.242   3.468
 4556TIP3    H113611   3.023   2.261   3.562
 4556TIP3    H213612   2.933   2.210   3.451
 4557TIP3   OH213613   0.820   3.229   2.895
 4557TIP3    H113614   0.735   3.215   2.938
 4557TIP3    H213615   0.841   3.145   2.857
 4558TIP3   OH213616   4.247   4.428   6.012
 4558TIP3    H113617   4.259   4.439   6.107
 4558TIP3    H213618   4.318   4.480   5.973
 4559TIP3   OH213619   4.293   2.876   1.223
 4559TIP3    H113620   4.368   2.903   1.170
 4559TIP3    H213621   4.311   2.912   1.310
 4560TIP3   OH213622   0.317   0.001   2.440
 4560TIP3    H113623   0.313  -0.078   2.493
 4560TIP3    H213624   0.232   0.043   2.453
 4561TIP3   OH213625   0.722   7.756   0.012
 4561TIP3    H113626   0.795   7.816  -0.008
 4561TIP3    H213627   0.645   7.801  -0.021
 4562TIP3   OH213628   7.393   6.184   6.420
 4562TIP3    H113629   7.329   6.223   6.480
 4562TIP3    H213630   7.340   6.148   6.349
 4563TIP3   OH213631   6.717   1.256   1.500
 4563TIP3    H113632   6.802   1.288   1.530
 4563TIP3    H213633   6.710   1.288   1.410
 4564TIP3   OH213634   3.735   0.968   5.783
 4564TIP3    H113635   3.710   0.925   5.701
 4564TIP3    H213636   3.740   0.897   5.847
 4565TIP3   OH213637   5.331   1.123   5.663
 4565TIP3    H113638   5.306   1.033   5.687
 4565TIP3    H213639   5.304   1.176   5.738
 4566TIP3   OH213640   5.713   0.566   3.604
 4566TIP3    H113641   5.759   0.575   3.520
 4566TIP3    H213642   5.780   0.538   3.665
 4567TIP3   OH213643   2.428   3.454   4.909
 4567TIP3    H113644   2.399   3.464   5.000
 4567TIP3    H213645   2.498   3.518   4.898
 4568TIP3   OH213646   5.309   7.750   3.435
 4568TIP3    H113647   5.351   7.691   3.373
 4568TIP3    H213648   5.250   7.804   3.381
 4569TIP3   OH213649   4.735   3.342   6.565
 4569TIP3    H113650   4.820   3.384   6.578
 4569TIP3    H213651   4.701   3.328   6.653
 4570TIP3   OH213652   2.763   1.855   4.091
 4570TIP3    H113653   2.753   1.822   4.180
 4570TIP3    H213654   2.674   1.865   4.059
 4571TIP3   OH213655   3.819   2.320   4.304
 4571TIP3    H113656   3.824   2.290   4.213
 4571TIP3    H213657   3.890   2.275   4.349
 4572TIP3   OH213658   0.311   4.892   1.846
 4572TIP3    H113659   0.339   4.803   1.821
 4572TIP3    H213660   0.217   4.892   1.833
 4573TIP3   OH213661   7.422   4.277   0.527
 4573TIP3    H113662   7.352   4.212   0.541
 4573TIP3    H213663   7.489   4.230   0.479
 4574TIP3   OH213664   7.331   7.020   4.164
 4574TIP3    H113665   7.395   7.089   4.144
 4574TIP3    H213666   7.266   7.062   4.220
 4575TIP3   OH213667   6.710   6.532   2.304
 4575TIP3    H113668   6.765   6.541   2.226
 4575TIP3    H213669   6.764   6.484   2.366
 4576TIP3   OH213670   6.751   1.790   0.626
 4576TIP3    H113671   6.756   1.884   0.638
 4576TIP3    H213672   6.691   1.760   0.694
 4577TIP3   OH213673   1.849   3.515   1.423
 4577TIP3    H113674   1.780   3.481   1.366
 4577TIP3    H213675   1.807   3.523   1.509
 4578TIP3   OH213676   1.156   2.377   4.602
 4578TIP3    H113677   1.226   2.358   4.539
 4578TIP3    H213678   1.185   2.335   4.683
 4579TIP3   OH213679   3.954   3.240   2.983
 4579TIP3    H113680   3.916   3.154   3.004
 4579TIP3    H213681   4.020   3.254   3.051
 4580TIP3   OH213682   6.830   5.643   3.076
 4580TIP3    H113683   6.894   5.611   3.013
 4580TIP3    H213684   6.779   5.708   3.027
 4581TIP3   OH213685   6.644   0.799   6.181
 4581TIP3    H113686   6.638   0.718   6.231
 4581TIP3    H213687   6.594   0.862   6.233
 4582TIP3   OH213688   2.095   5.672   4.932
 4582TIP3    H113689   2.014   5.626   4.908
 4582TIP3    H213690   2.094   5.752   4.880
 4583TIP3   OH213691   1.572   6.238   6.341
 4583TIP3    H113692   1.554   6.155   6.297
 4583TIP3    H213693   1.664   6.233   6.367
 4584TIP3   OH213694   0.453   7.623   1.995
 4584TIP3    H113695   0.547   7.604   1.991
 4584TIP3    H213696   0.426   7.595   2.082
 4585TIP3   OH213697   1.868   0.686   1.875
 4585TIP3    H113698   1.922   0.719   1.947
 4585TIP3    H213699   1.929   0.637   1.819
 4586TIP3   OH213700   6.298   4.543   2.329
 4586TIP3    H113701   6.282   4.611   2.394
 4586TIP3    H213702   6.280   4.461   2.374
 4587TIP3   OH213703   1.960   6.565   3.037
 4587TIP3    H113704   1.872   6.545   3.070
 4587TIP3    H213705   1.991   6.482   3.000
 4588TIP3   OH213706   3.020   1.963   4.407
 4588TIP3    H113707   2.990   1.973   4.498
 4588TIP3    H213708   3.105   1.919   4.414
 4589TIP3   OH213709   5.812   6.433   4.719
 4589TIP3    H113710   5.778   6.413   4.632
 4589TIP3    H213711   5.741   6.410   4.778
 4590TIP3   OH213712   5.816   1.003   3.024
 4590TIP3    H113713   5.810   0.910   3.005
 4590TIP3    H213714   5.845   1.043   2.942
 4591TIP3   OH213715   4.036   6.894   2.038
 4591TIP3    H113716   4.126   6.917   2.013
 4591TIP3    H213717   4.039   6.886   2.133
 4592TIP3   OH213718   7.194   1.665   2.603
 4592TIP3    H113719   7.109   1.637   2.637
 4592TIP3    H213720   7.254   1.594   2.625
 4593TIP3   OH213721   2.878   6.104   1.043
 4593TIP3    H113722   2.886   6.025   0.989
 4593TIP3    H213723   2.795   6.143   1.016
 4594TIP3   OH213724   5.056   0.505   2.095
 4594TIP3    H113725   4.992   0.434   2.085
 4594TIP3    H213726   5.122   0.469   2.154
 4595TIP3   OH213727   1.624   1.482   1.076
 4595TIP3    H113728   1.531   1.460   1.068
 4595TIP3    H213729   1.627   1.578   1.071
 4596TIP3   OH213730   5.985   1.879   4.289
 4596TIP3    H113731   6.008   1.931   4.211
 4596TIP3    H213732   5.995   1.788   4.261
 4597TIP3   OH213733   0.539   7.819   0.631
 4597TIP3    H113734   0.578   7.895   0.587
 4597TIP3    H213735   0.614   7.760   0.646
 4598TIP3   OH213736   0.654   4.225   0.129
 4598TIP3    H113737   0.738   4.180   0.124
 4598TIP3    H213738   0.636   4.252   0.039
 4599TIP3   OH213739   2.419   0.753   2.677
 4599TIP3    H113740   2.329   0.723   2.660
 4599TIP3    H213741   2.408   0.827   2.736
 4600TIP3   OH213742   1.202   6.446   0.184
 4600TIP3    H113743   1.292   6.419   0.170
 4600TIP3    H213744   1.163   6.375   0.235
 4601TIP3   OH213745   0.905   2.872   5.721
 4601TIP3    H113746   0.933   2.843   5.635
 4601TIP3    H213747   0.827   2.820   5.740
 4602TIP3   OH213748   2.397   7.334   6.310
 4602TIP3    H113749   2.386   7.241   6.329
 4602TIP3    H213750   2.463   7.337   6.241
 4603TIP3   OH213751   3.422   0.417   6.333
 4603TIP3    H113752   3.351   0.462   6.378
 4603TIP3    H213753   3.478   0.487   6.300
 4604TIP3   OH213754   5.240   2.485   5.760
 4604TIP3    H113755   5.231   2.452   5.671
 4604TIP3    H213756   5.243   2.406   5.815
 4605TIP3   OH213757   2.163   6.603   6.565
 4605TIP3    H113758   2.102   6.641   6.629
 4605TIP3    H213759   2.245   6.651   6.579
 4606TIP3   OH213760   5.015   2.544   2.441
 4606TIP3    H113761   4.982   2.500   2.520
 4606TIP3    H213762   4.955   2.517   2.372
 4607TIP3   OH213763   4.216   0.688   4.650
 4607TIP3    H113764   4.233   0.648   4.735
 4607TIP3    H213765   4.137   0.644   4.618
 4608TIP3   OH213766   4.132   4.889   5.137
 4608TIP3    H113767   4.167   4.949   5.071
 4608TIP3    H213768   4.082   4.945   5.197
 4609TIP3   OH213769   2.605   1.333   5.123
 4609TIP3    H113770   2.672   1.365   5.183
 4609TIP3    H213771   2.547   1.279   5.177
 4610TIP3   OH213772   4.659   1.301   0.271
 4610TIP3    H113773   4.586   1.269   0.218
 4610TIP3    H213774   4.637   1.277   0.360
 4611TIP3   OH213775   1.449   7.648   4.889
 4611TIP3    H113776   1.508   7.584   4.848
 4611TIP3    H213777   1.478   7.651   4.981
 4612TIP3   OH213778   1.707   7.349   2.988
 4612TIP3    H113779   1.709   7.400   3.069
 4612TIP3    H213780   1.642   7.281   3.004
 4613TIP3   OH213781   5.099   0.857   3.715
 4613TIP3    H113782   5.162   0.898   3.656
 4613TIP3    H213783   5.119   0.895   3.801
 4614TIP3   OH213784   4.069   6.444   1.640
 4614TIP3    H113785   4.065   6.518   1.580
 4614TIP3    H213786   3.980   6.409   1.641
 4615TIP3   OH213787   0.971   0.908   4.200
 4615TIP3    H113788   0.933   0.820   4.196
 4615TIP3    H213789   0.931   0.948   4.277
 4616TIP3   OH213790   3.772   4.993   3.134
 4616TIP3    H113791   3.682   5.023   3.144
 4616TIP3    H213792   3.772   4.939   3.056
 4617TIP3   OH213793   0.032   5.133   2.333
 4617TIP3    H113794   0.122   5.128   2.365
 4617TIP3    H213795  -0.004   5.211   2.376
 4618TIP3   OH213796   4.989   1.189   2.855
 4618TIP3    H113797   4.977   1.157   2.766
 4618TIP3    H213798   4.903   1.223   2.880
 4619TIP3   OH213799   6.905   5.898   5.097
 4619TIP3    H113800   6.920   5.900   5.003
 4619TIP3    H213801   6.986   5.861   5.133
 4620TIP3   OH213802   3.380   0.694   4.770
 4620TIP3    H113803   3.307   0.677   4.830
 4620TIP3    H213804   3.374   0.788   4.752
 4621TIP3   OH213805   5.338   0.874   4.206
 4621TIP3    H113806   5.276   0.843   4.272
 4621TIP3    H213807   5.400   0.802   4.196
 4622TIP3   OH213808   7.131   5.125   5.460
 4622TIP3    H113809   7.212   5.170   5.482
 4622TIP3    H213810   7.110   5.155   5.372
 4623TIP3   OH213811   3.958   2.906   4.476
 4623TIP3    H113812   3.897   2.956   4.532
 4623TIP3    H213813   3.994   2.971   4.416
 4624TIP3   OH213814   5.734   5.363   1.142
 4624TIP3    H113815   5.717   5.313   1.222
 4624TIP3    H213816   5.784   5.440   1.172
 4625TIP3   OH213817   5.062   6.693   2.642
 4625TIP3    H113818   5.135   6.701   2.581
 4625TIP3    H213819   5.085   6.618   2.697
 4626TIP3   OH213820   4.153   5.558   1.746
 4626TIP3    H113821   4.168   5.491   1.678
 4626TIP3    H213822   4.238   5.567   1.789
 4627TIP3   OH213823   8.144   7.242   2.649
 4627TIP3    H113824   8.207   7.269   2.715
 4627TIP3    H213825   8.185   7.265   2.565
 4628TIP3   OH213826   8.109   2.841   5.797
 4628TIP3    H113827   8.151   2.790   5.866
 4628TIP3    H213828   8.127   2.932   5.820
 4629TIP3   OH213829   8.269   0.664   4.777
 4629TIP3    H113830   8.199   0.606   4.745
 4629TIP3    H213831   8.344   0.643   4.721
 4630TIP3   OH213832   4.382   2.048   2.848
 4630TIP3    H113833   4.344   2.100   2.919
 4630TIP3    H213834   4.367   2.101   2.769
 4631TIP3   OH213835   2.557   4.065   2.248
 4631TIP3    H113836   2.517   4.147   2.220
 4631TIP3    H213837   2.502   3.997   2.208
 4632TIP3   OH213838   7.739   1.633   5.561
 4632TIP3    H113839   7.761   1.725   5.551
 4632TIP3    H213840   7.736   1.599   5.471
 4633TIP3   OH213841   6.401   5.798   0.222
 4633TIP3    H113842   6.436   5.871   0.171
 4633TIP3    H213843   6.450   5.800   0.304
 4634TIP3   OH213844   4.874   0.646   4.197
 4634TIP3    H113845   4.805   0.581   4.184
 4634TIP3    H213846   4.897   0.638   4.290
 4635TIP3   OH213847   5.086   0.634   5.712
 4635TIP3    H113848   5.109   0.726   5.722
 4635TIP3    H213849   5.012   0.621   5.771
 4636TIP3   OH213850   4.787   2.592   4.582
 4636TIP3    H113851   4.806   2.498   4.591
 4636TIP3    H213852   4.861   2.626   4.532
 4637TIP3   OH213853   4.520   2.014   4.152
 4637TIP3    H113854   4.426   2.018   4.136
 4637TIP3    H213855   4.529   2.013   4.247
 4638TIP3   OH213856   5.570   3.247   3.354
 4638TIP3    H113857   5.494   3.224   3.407
 4638TIP3    H213858   5.610   3.320   3.401
 4639TIP3   OH213859   1.421   5.290   6.320
 4639TIP3    H113860   1.465   5.228   6.379
 4639TIP3    H213861   1.329   5.262   6.320
 4640TIP3   OH213862   4.327   0.795   3.219
 4640TIP3    H113863   4.308   0.784   3.312
 4640TIP3    H213864   4.324   0.706   3.183
 4641TIP3   OH213865   6.546   0.474   2.767
 4641TIP3    H113866   6.576   0.468   2.857
 4641TIP3    H213867   6.486   0.548   2.766
 4642TIP3   OH213868   3.804   2.423   5.215
 4642TIP3    H113869   3.715   2.437   5.249
 4642TIP3    H213870   3.841   2.356   5.272
 4643TIP3   OH213871   3.801   2.215   2.906
 4643TIP3    H113872   3.877   2.252   2.862
 4643TIP3    H213873   3.778   2.138   2.855
 4644TIP3   OH213874   7.353   5.320   5.094
 4644TIP3    H113875   7.373   5.344   5.004
 4644TIP3    H213876   7.438   5.302   5.134
 4645TIP3   OH213877   0.014   4.825   0.131
 4645TIP3    H113878   0.061   4.882   0.070
 4645TIP3    H213879   0.061   4.836   0.214
 4646TIP3   OH213880   0.269   5.933   4.563
 4646TIP3    H113881   0.269   5.890   4.477
 4646TIP3    H213882   0.338   5.889   4.612
 4647TIP3   OH213883   2.269   1.343   5.827
 4647TIP3    H113884   2.207   1.345   5.900
 4647TIP3    H213885   2.337   1.283   5.854
 4648TIP3   OH213886   6.656   5.124   1.401
 4648TIP3    H113887   6.682   5.128   1.309
 4648TIP3    H213888   6.573   5.076   1.400
 4649TIP3   OH213889   0.633   2.590   3.556
 4649TIP3    H113890   0.630   2.495   3.545
 4649TIP3    H213891   0.720   2.615   3.525
 4650TIP3   OH213892   1.821   0.964   3.136
 4650TIP3    H113893   1.801   1.053   3.107
 4650TIP3    H213894   1.767   0.908   3.080
 4651TIP3   OH213895   6.970   5.790   2.055
 4651TIP3    H113896   6.919   5.805   2.135
 4651TIP3    H213897   6.920   5.833   1.986
 4652TIP3   OH213898   6.679   5.128   5.556
 4652TIP3    H113899   6.664   5.222   5.555
 4652TIP3    H213900   6.762   5.117   5.603
 4653TIP3   OH213901   7.864   6.882   1.501
 4653TIP3    H113902   7.937   6.926   1.459
 4653TIP3    H213903   7.837   6.814   1.439
 4654TIP3   OH213904   2.601   0.499   1.250
 4654TIP3    H113905   2.661   0.566   1.282
 4654TIP3    H213906   2.591   0.438   1.323
 4655TIP3   OH213907   6.811   5.285   3.731
 4655TIP3    H113908   6.785   5.311   3.820
 4655TIP3    H213909   6.903   5.312   3.724
 4656TIP3   OH213910   6.350   3.423   3.867
 4656TIP3    H113911   6.375   3.403   3.958
 4656TIP3    H213912   6.315   3.341   3.833
 4657TIP3   OH213913   6.785   5.214   2.036
 4657TIP3    H113914   6.701   5.212   1.991
 4657TIP3    H213915   6.846   5.172   1.975
 4658TIP3   OH213916   1.044   6.829   4.185
 4658TIP3    H113917   1.021   6.917   4.156
 4658TIP3    H213918   0.993   6.817   4.265
 4659TIP3   OH213919   5.344   6.556   4.603
 4659TIP3    H113920   5.284   6.631   4.601
 4659TIP3    H213921   5.338   6.518   4.516
 4660TIP3   OH213922   2.774   3.882   3.413
 4660TIP3    H113923   2.753   3.971   3.443
 4660TIP3    H213924   2.726   3.825   3.473
 4661TIP3   OH213925   0.168   0.415   5.256
 4661TIP3    H113926   0.116   0.495   5.270
 4661TIP3    H213927   0.235   0.419   5.324
 4662TIP3   OH213928   6.684   3.443   4.402
 4662TIP3    H113929   6.597   3.463   4.368
 4662TIP3    H213930   6.707   3.360   4.361
 4663TIP3   OH213931   0.184   3.726   4.520
 4663TIP3    H113932   0.217   3.647   4.477
 4663TIP3    H213933   0.159   3.697   4.607
 4664TIP3   OH213934   2.167   0.927   5.648
 4664TIP3    H113935   2.220   0.904   5.725
 4664TIP3    H213936   2.178   1.022   5.639
 4665TIP3   OH213937   2.987   6.489   3.604
 4665TIP3    H113938   2.952   6.406   3.637
 4665TIP3    H213939   3.082   6.475   3.602
 4666TIP3   OH213940   4.902   5.117   1.601
 4666TIP3    H113941   4.852   5.047   1.641
 4666TIP3    H213942   4.972   5.071   1.552
 4667TIP3   OH213943   4.986   7.749   3.943
 4667TIP3    H113944   4.926   7.765   4.016
 4667TIP3    H213945   4.971   7.657   3.919
 4668TIP3   OH213946   8.167   6.620   0.029
 4668TIP3    H113947   8.261   6.640   0.027
 4668TIP3    H213948   8.127   6.690  -0.022
 4669TIP3   OH213949   6.859   6.333   5.409
 4669TIP3    H113950   6.928   6.375   5.356
 4669TIP3    H213951   6.906   6.267   5.460
 4670TIP3   OH213952   7.107   0.681   1.464
 4670TIP3    H113953   7.065   0.762   1.492
 4670TIP3    H213954   7.039   0.615   1.469
 4671TIP3   OH213955   6.322   7.135   2.649
 4671TIP3    H113956   6.248   7.184   2.612
 4671TIP3    H213957   6.297   7.043   2.641
 4672TIP3   OH213958   3.646   1.252   4.614
 4672TIP3    H113959   3.728   1.300   4.604
 4672TIP3    H213960   3.668   1.181   4.675
 4673TIP3   OH213961   8.286   1.495   2.847
 4673TIP3    H113962   8.359   1.527   2.901
 4673TIP3    H213963   8.211   1.495   2.906
 4674TIP3   OH213964   5.179   7.699   1.420
 4674TIP3    H113965   5.147   7.789   1.413
 4674TIP3    H213966   5.152   7.657   1.339
 4675TIP3   OH213967   1.308   7.470   5.938
 4675TIP3    H113968   1.333   7.553   5.899
 4675TIP3    H213969   1.228   7.444   5.891
 4676TIP3   OH213970   7.109   3.715   1.039
 4676TIP3    H113971   7.037   3.656   1.059
 4676TIP3    H213972   7.102   3.732   0.945
 4677TIP3   OH213973   4.522   0.815   4.905
 4677TIP3    H113974   4.556   0.823   4.994
 4677TIP3    H213975   4.505   0.905   4.877
 4678TIP3   OH213976   5.389   1.074   5.061
 4678TIP3    H113977   5.311   1.104   5.014
 4678TIP3    H213978   5.366   1.085   5.153
 4679TIP3   OH213979   0.751   0.486   1.700
 4679TIP3    H113980   0.724   0.401   1.664
 4679TIP3    H213981   0.797   0.529   1.627
 4680TIP3   OH213982   1.568   6.121   3.263
 4680TIP3    H113983   1.645   6.107   3.319
 4680TIP3    H213984   1.591   6.079   3.180
 4681TIP3   OH213985   3.301   4.898   0.637
 4681TIP3    H113986   3.244   4.898   0.714
 4681TIP3    H213987   3.279   4.817   0.591
 4682TIP3   OH213988   1.947   1.721   3.343
 4682TIP3    H113989   1.916   1.723   3.252
 4682TIP3    H213990   1.919   1.636   3.377
 4683TIP3   OH213991   7.989   5.758   4.565
 4683TIP3    H113992   7.966   5.667   4.581
 4683TIP3    H213993   7.911   5.795   4.522
 4684TIP3   OH213994   3.480   5.018   6.586
 4684TIP3    H113995   3.393   5.024   6.545
 4684TIP3    H213996   3.509   5.108   6.595
 4685TIP3   OH213997   4.618   4.991   5.660
 4685TIP3    H113998   4.578   5.029   5.739
 4685TIP3    H213999   4.558   5.015   5.589
 4686TIP3   OH214000   2.076   7.062   5.885
 4686TIP3    H114001   2.130   7.136   5.909
 4686TIP3    H214002   1.987   7.097   5.883
 4687TIP3   OH214003   2.596   0.878   5.554
 4687TIP3    H114004   2.655   0.953   5.555
 4687TIP3    H214005   2.541   0.890   5.631
 4688TIP3   OH214006   5.369   2.419   3.251
 4688TIP3    H114007   5.316   2.495   3.274
 4688TIP3    H214008   5.396   2.435   3.161
 4689TIP3   OH214009   3.826   0.643   5.820
 4689TIP3    H114010   3.918   0.617   5.819
 4689TIP3    H214011   3.790   0.608   5.739
 4690TIP3   OH214012   5.594   3.876   0.839
 4690TIP3    H114013   5.576   3.879   0.933
 4690TIP3    H214014   5.580   3.785   0.815
 4691TIP3   OH214015   6.168   4.930   5.416
 4691TIP3    H114016   6.224   4.855   5.436
 4691TIP3    H214017   6.080   4.900   5.440
 4692TIP3   OH214018   6.902   4.168   1.844
 4692TIP3    H114019   6.919   4.100   1.778
 4692TIP3    H214020   6.883   4.247   1.794
 4693TIP3   OH214021   2.813   3.922   1.082
 4693TIP3    H114022   2.754   3.997   1.088
 4693TIP3    H214023   2.886   3.945   1.140
 4694TIP3   OH214024   5.998   1.871   5.640
 4694TIP3    H114025   5.955   1.819   5.708
 4694TIP3    H214026   6.007   1.811   5.566
 4695TIP3   OH214027   5.692   1.715   6.301
 4695TIP3    H114028   5.743   1.667   6.366
 4695TIP3    H214029   5.730   1.802   6.299
 4696TIP3   OH214030   4.491   1.987   0.935
 4696TIP3    H114031   4.560   1.921   0.929
 4696TIP3    H214032   4.535   2.065   0.967
 4697TIP3   OH214033   3.305   5.524   3.695
 4697TIP3    H114034   3.397   5.551   3.700
 4697TIP3    H214035   3.262   5.575   3.763
 4698TIP3   OH214036   1.209   3.726   2.961
 4698TIP3    H114037   1.155   3.799   2.992
 4698TIP3    H214038   1.163   3.648   2.993
 4699TIP3   OH214039   6.338   3.832   2.462
 4699TIP3    H114040   6.269   3.891   2.431
 4699TIP3    H214041   6.321   3.750   2.415
 4700TIP3   OH214042   0.612   4.326   4.084
 4700TIP3    H114043   0.567   4.327   4.168
 4700TIP3    H214044   0.598   4.413   4.048
 4701TIP3   OH214045   6.702   2.488   5.258
 4701TIP3    H114046   6.667   2.515   5.173
 4701TIP3    H214047   6.772   2.426   5.236
 4702TIP3   OH214048   4.028   5.183   4.792
 4702TIP3    H114049   4.052   5.261   4.742
 4702TIP3    H214050   3.936   5.196   4.814
 4703TIP3   OH214051   1.215   2.740   0.696
 4703TIP3    H114052   1.176   2.803   0.756
 4703TIP3    H214053   1.240   2.793   0.620
 4704TIP3   OH214054   4.206   2.621   6.199
 4704TIP3    H114055   4.289   2.575   6.185
 4704TIP3    H214056   4.197   2.677   6.122
 4705TIP3   OH214057   1.213   1.629   2.681
 4705TIP3    H114058   1.283   1.681   2.641
 4705TIP3    H214059   1.198   1.671   2.765
 4706TIP3   OH214060   7.577   1.513   2.315
 4706TIP3    H114061   7.567   1.445   2.248
 4706TIP3    H214062   7.566   1.595   2.267
 4707TIP3   OH214063   7.320   6.558   6.596
 4707TIP3    H114064   7.266   6.479   6.603
 4707TIP3    H214065   7.346   6.575   6.687
 4708TIP3   OH214066   8.158   5.239   0.770
 4708TIP3    H114067   8.133   5.232   0.862
 4708TIP3    H214068   8.077   5.226   0.721
 4709TIP3   OH214069   2.760   4.814   3.180
 4709TIP3    H114070   2.774   4.869   3.103
 4709TIP3    H214071   2.814   4.737   3.164
 4710TIP3   OH214072   4.215   0.585   3.452
 4710TIP3    H114073   4.271   0.510   3.430
 4710TIP3    H214074   4.190   0.570   3.543
 4711TIP3   OH214075   0.248   6.302   4.425
 4711TIP3    H114076   0.338   6.331   4.413
 4711TIP3    H214077   0.242   6.220   4.376
 4712TIP3   OH214078   2.496   4.339   3.964
 4712TIP3    H114079   2.501   4.300   4.052
 4712TIP3    H214080   2.453   4.273   3.911
 4713TIP3   OH214081   7.613   3.141   5.397
 4713TIP3    H114082   7.523   3.109   5.402
 4713TIP3    H214083   7.660   3.093   5.464
 4714TIP3   OH214084   4.620   5.760   2.123
 4714TIP3    H114085   4.593   5.753   2.214
 4714TIP3    H214086   4.546   5.803   2.080
 4715TIP3   OH214087   0.958   1.669   2.389
 4715TIP3    H114088   0.884   1.718   2.423
 4715TIP3    H214089   0.987   1.615   2.463
 4716TIP3   OH214090   6.507   6.915   4.050
 4716TIP3    H114091   6.578   6.886   4.107
 4716TIP3    H214092   6.528   7.007   4.031
 4717TIP3   OH214093   4.084   3.630   2.582
 4717TIP3    H114094   4.049   3.586   2.504
 4717TIP3    H214095   4.016   3.618   2.648
 4718TIP3   OH214096   2.556   0.849   5.849
 4718TIP3    H114097   2.631   0.789   5.845
 4718TIP3    H214098   2.586   0.921   5.903
 4719TIP3   OH214099   0.254   4.470   3.404
 4719TIP3    H114100   0.212   4.424   3.331
 4719TIP3    H214101   0.324   4.411   3.432
 4720TIP3   OH214102   8.214   4.591   3.092
 4720TIP3    H114103   8.225   4.677   3.133
 4720TIP3    H214104   8.121   4.573   3.098
 4721TIP3   OH214105   3.080   1.894   3.825
 4721TIP3    H114106   3.001   1.896   3.771
 4721TIP3    H214107   3.061   1.829   3.893
 4722TIP3   OH214108   1.563   0.863   6.227
 4722TIP3    H114109   1.580   0.799   6.159
 4722TIP3    H214110   1.506   0.818   6.290
 4723TIP3   OH214111   5.773   0.602   6.176
 4723TIP3    H114112   5.731   0.573   6.095
 4723TIP3    H214113   5.701   0.628   6.233
 4724TIP3   OH214114   6.647   3.516   2.641
 4724TIP3    H114115   6.681   3.484   2.558
 4724TIP3    H214116   6.637   3.610   2.629
 4725TIP3   OH214117   7.530   3.559   2.251
 4725TIP3    H114118   7.454   3.544   2.196
 4725TIP3    H214119   7.550   3.473   2.288
 4726TIP3   OH214120   7.665   2.373   1.384
 4726TIP3    H114121   7.734   2.416   1.332
 4726TIP3    H214122   7.655   2.287   1.343
 4727TIP3   OH214123   3.130   6.764   6.466
 4727TIP3    H114124   3.221   6.751   6.494
 4727TIP3    H214125   3.100   6.676   6.440
 4728TIP3   OH214126   2.324   3.408   5.992
 4728TIP3    H114127   2.283   3.338   6.044
 4728TIP3    H214128   2.356   3.470   6.058
 4729TIP3   OH214129   4.612   2.160   0.394
 4729TIP3    H114130   4.609   2.235   0.334
 4729TIP3    H214131   4.589   2.197   0.479
 4730TIP3   OH214132   0.229   0.315   6.403
 4730TIP3    H114133   0.274   0.251   6.348
 4730TIP3    H214134   0.285   0.324   6.480
 4731TIP3   OH214135   2.071   5.789   4.040
 4731TIP3    H114136   2.118   5.872   4.034
 4731TIP3    H214137   2.002   5.796   3.974
 4732TIP3   OH214138   7.244   2.319   2.132
 4732TIP3    H114139   7.262   2.339   2.041
 4732TIP3    H214140   7.280   2.392   2.181
 4733TIP3   OH214141   1.802   0.941   1.435
 4733TIP3    H114142   1.839   0.853   1.440
 4733TIP3    H214143   1.876   1.000   1.447
 4734TIP3   OH214144   8.254   4.670   5.490
 4734TIP3    H114145   8.228   4.749   5.536
 4734TIP3    H214146   8.311   4.624   5.552
 4735TIP3   OH214147   3.795   0.906   5.227
 4735TIP3    H114148   3.715   0.878   5.182
 4735TIP3    H214149   3.864   0.890   5.162
 4736TIP3   OH214150   0.319   7.352   0.785
 4736TIP3    H114151   0.290   7.262   0.799
 4736TIP3    H214152   0.385   7.367   0.853
 4737TIP3   OH214153   4.598   7.558   6.616
 4737TIP3    H114154   4.561   7.477   6.580
 4737TIP3    H214155   4.527   7.594   6.669
 4738TIP3   OH214156   1.853   5.780   4.491
 4738TIP3    H114157   1.939   5.754   4.461
 4738TIP3    H214158   1.800   5.700   4.487
 4739TIP3   OH214159   0.418   6.360   0.452
 4739TIP3    H114160   0.335   6.389   0.489
 4739TIP3    H214161   0.473   6.438   0.451
 4740TIP3   OH214162   2.007   6.368   0.069
 4740TIP3    H114163   2.024   6.274   0.061
 4740TIP3    H214164   2.084   6.402   0.114
 4741TIP3   OH214165   4.458   6.438   0.417
 4741TIP3    H114166   4.541   6.459   0.459
 4741TIP3    H214167   4.434   6.352   0.452
 4742TIP3   OH214168   4.325   5.652   4.626
 4742TIP3    H114169   4.265   5.722   4.652
 4742TIP3    H214170   4.306   5.639   4.533
 4743TIP3   OH214171   6.192   2.733   0.130
 4743TIP3    H114172   6.230   2.775   0.208
 4743TIP3    H214173   6.231   2.645   0.130
 4744TIP3   OH214174   3.075   3.643   0.869
 4744TIP3    H114175   3.044   3.601   0.789
 4744TIP3    H214176   3.061   3.737   0.855
 4745TIP3   OH214177   4.385   7.413   5.447
 4745TIP3    H114178   4.368   7.486   5.388
 4745TIP3    H214179   4.347   7.337   5.402
 4746TIP3   OH214180   2.382  -0.003   4.488
 4746TIP3    H114181   2.446  -0.019   4.558
 4746TIP3    H214182   2.362   0.090   4.494
 4747TIP3   OH214183   2.183   4.827   3.301
 4747TIP3    H114184   2.261   4.878   3.321
 4747TIP3    H214185   2.175   4.831   3.206
 4748TIP3   OH214186   5.317   4.711   6.049
 4748TIP3    H114187   5.256   4.699   6.122
 4748TIP3    H214188   5.333   4.806   6.047
 4749TIP3   OH214189   4.672   3.405   5.953
 4749TIP3    H114190   4.667   3.414   6.048
 4749TIP3    H214191   4.716   3.484   5.923
 4750TIP3   OH214192   3.287   0.511   5.424
 4750TIP3    H114193   3.254   0.426   5.396
 4750TIP3    H214194   3.253   0.522   5.513
 4751TIP3   OH214195   4.083   3.038   6.532
 4751TIP3    H114196   4.022   3.090   6.585
 4751TIP3    H214197   4.143   3.103   6.494
 4752TIP3   OH214198   6.777   2.658   2.615
 4752TIP3    H114199   6.766   2.684   2.706
 4752TIP3    H214200   6.760   2.564   2.614
 4753TIP3   OH214201   5.649   1.789   1.663
 4753TIP3    H114202   5.709   1.847   1.615
 4753TIP3    H214203   5.561   1.819   1.638
 4754TIP3   OH214204  -0.015   4.150   0.907
 4754TIP3    H114205   0.025   4.231   0.873
 4754TIP3    H214206   0.059   4.089   0.916
 4755TIP3   OH214207   5.416   3.661   3.826
 4755TIP3    H114208   5.485   3.596   3.816
 4755TIP3    H214209   5.373   3.639   3.909
 4756TIP3   OH214210   0.430   2.589   0.033
 4756TIP3    H114211   0.365   2.519   0.037
 4756TIP3    H214212   0.419   2.637   0.115
 4757TIP3   OH214213   4.055   5.968   3.419
 4757TIP3    H114214   4.018   6.056   3.427
 4757TIP3    H214215   4.148   5.979   3.437
 4758TIP3   OH214216   7.199   4.397   4.855
 4758TIP3    H114217   7.256   4.460   4.900
 4758TIP3    H214218   7.249   4.370   4.778
 4759TIP3   OH214219   2.081   7.009   6.267
 4759TIP3    H114220   2.171   7.037   6.283
 4759TIP3    H214221   2.064   6.943   6.334
 4760TIP3   OH214222   4.004   3.112   6.279
 4760TIP3    H114223   3.930   3.171   6.262
 4760TIP3    H214224   3.976   3.059   6.354
 4761TIP3   OH214225   5.210   7.598   0.210
 4761TIP3    H114226   5.114   7.595   0.211
 4761TIP3    H214227   5.233   7.657   0.283
 4762TIP3   OH214228   8.088   1.543   1.934
 4762TIP3    H114229   8.091   1.509   2.023
 4762TIP3    H214230   8.022   1.613   1.936
 4763TIP3   OH214231   6.898   6.106   0.096
 4763TIP3    H114232   6.992   6.093   0.086
 4763TIP3    H214233   6.887   6.200   0.106
 4764TIP3   OH214234   4.504   6.361   6.096
 4764TIP3    H114235   4.472   6.302   6.165
 4764TIP3    H214236   4.424   6.396   6.056
 4765TIP3   OH214237   5.110   5.831   2.784
 4765TIP3    H114238   5.068   5.802   2.865
 4765TIP3    H214239   5.077   5.771   2.717
 4766TIP3   OH214240   5.491   5.404   2.648
 4766TIP3    H114241   5.480   5.361   2.733
 4766TIP3    H214242   5.547   5.345   2.598
 4767TIP3   OH214243   2.028   4.134   3.535
 4767TIP3    H114244   1.936   4.121   3.514
 4767TIP3    H214245   2.073   4.137   3.450
 4768TIP3   OH214246   2.278   1.378   5.569
 4768TIP3    H114247   2.295   1.469   5.543
 4768TIP3    H214248   2.281   1.380   5.664
 4769TIP3   OH214249   1.028   2.747   5.527
 4769TIP3    H114250   1.002   2.663   5.491
 4769TIP3    H214251   1.050   2.800   5.451
 4770TIP3   OH214252   3.759   4.611   6.529
 4770TIP3    H114253   3.740   4.564   6.610
 4770TIP3    H214254   3.760   4.543   6.462
 4771TIP3   OH214255   7.471   7.690   3.875
 4771TIP3    H114256   7.428   7.608   3.850
 4771TIP3    H214257   7.400   7.745   3.908
 4772TIP3   OH214258   5.010   3.085   4.144
 4772TIP3    H114259   4.995   3.134   4.063
 4772TIP3    H214260   5.096   3.114   4.174
 4773TIP3   OH214261   6.798   6.329   6.725
 4773TIP3    H114262   6.756   6.243   6.731
 4773TIP3    H214263   6.759   6.379   6.796
 4774TIP3   OH214264   7.052   0.579   3.428
 4774TIP3    H114265   6.979   0.619   3.381
 4774TIP3    H214266   7.015   0.552   3.512
 4775TIP3   OH214267   2.115   4.206   6.426
 4775TIP3    H114268   2.079   4.192   6.339
 4775TIP3    H214269   2.207   4.183   6.418
 4776TIP3   OH214270   2.389   3.404   1.546
 4776TIP3    H114271   2.446   3.389   1.622
 4776TIP3    H214272   2.445   3.448   1.482
 4777TIP3   OH214273   2.169   4.152   0.177
 4777TIP3    H114274   2.146   4.170   0.086
 4777TIP3    H214275   2.234   4.082   0.172
 4778TIP3   OH214276   7.207   0.819   3.526
 4778TIP3    H114277   7.150   0.885   3.487
 4778TIP3    H214278   7.151   0.743   3.538
 4779TIP3   OH214279   8.188   5.790   4.721
 4779TIP3    H114280   8.108   5.791   4.668
 4779TIP3    H214281   8.198   5.880   4.752
 4780TIP3   OH214282   1.492   5.616   1.804
 4780TIP3    H114283   1.435   5.644   1.876
 4780TIP3    H214284   1.579   5.649   1.828
 4781TIP3   OH214285   8.067   3.679   5.358
 4781TIP3    H114286   8.004   3.647   5.294
 4781TIP3    H214287   8.114   3.749   5.312
 4782TIP3   OH214288   1.606   6.251   6.784
 4782TIP3    H114289   1.615   6.344   6.766
 4782TIP3    H214290   1.534   6.245   6.846
 4783TIP3   OH214291   0.803   7.360   2.791
 4783TIP3    H114292   0.846   7.292   2.740
 4783TIP3    H214293   0.857   7.438   2.776
 4784TIP3   OH214294   3.905   5.925   2.112
 4784TIP3    H114295   3.921   5.859   2.045
 4784TIP3    H214296   3.833   5.890   2.164
 4785TIP3   OH214297   6.350   0.506   6.484
 4785TIP3    H114298   6.316   0.461   6.407
 4785TIP3    H214299   6.375   0.592   6.453
 4786TIP3   OH214300   0.374   6.669   3.095
 4786TIP3    H114301   0.289   6.638   3.126
 4786TIP3    H214302   0.402   6.732   3.161
 4787TIP3   OH214303   3.810   7.430   2.255
 4787TIP3    H114304   3.774   7.400   2.172
 4787TIP3    H214305   3.849   7.515   2.235
 4788TIP3   OH214306   0.048   1.666   1.603
 4788TIP3    H114307  -0.008   1.731   1.562
 4788TIP3    H214308   0.121   1.655   1.543
 4789TIP3   OH214309   5.465   4.484   3.201
 4789TIP3    H114310   5.511   4.459   3.121
 4789TIP3    H214311   5.524   4.545   3.245
 4790TIP3   OH214312   0.083   5.088   3.680
 4790TIP3    H114313   0.008   5.039   3.713
 4790TIP3    H214314   0.122   5.032   3.613
 4791TIP3   OH214315   6.597   6.829   2.796
 4791TIP3    H114316   6.598   6.842   2.701
 4791TIP3    H214317   6.538   6.755   2.809
 4792TIP3   OH214318   2.142   7.285   6.215
 4792TIP3    H114319   2.110   7.199   6.242
 4792TIP3    H214320   2.213   7.304   6.276
 4793TIP3   OH214321   0.027   3.349   2.761
 4793TIP3    H114322  -0.035   3.309   2.701
 4793TIP3    H214323   0.055   3.277   2.818
 4794TIP3   OH214324   1.563   3.090   4.274
 4794TIP3    H114325   1.630   3.062   4.336
 4794TIP3    H214326   1.583   3.042   4.194
 4795TIP3   OH214327   1.636   1.017   0.860
 4795TIP3    H114328   1.666   1.107   0.849
 4795TIP3    H214329   1.669   0.971   0.783
 4796TIP3   OH214330   2.440   5.350   3.636
 4796TIP3    H114331   2.385   5.420   3.601
 4796TIP3    H214332   2.403   5.330   3.722
 4797TIP3   OH214333   7.253   5.279   3.012
 4797TIP3    H114334   7.325   5.242   2.960
 4797TIP3    H214335   7.199   5.325   2.948
 4798TIP3   OH214336   1.541   3.829   5.986
 4798TIP3    H114337   1.471   3.834   5.921
 4798TIP3    H214338   1.592   3.909   5.974
 4799TIP3   OH214339   7.559   5.968   1.704
 4799TIP3    H114340   7.535   5.897   1.765
 4799TIP3    H214341   7.634   6.010   1.745
 4800TIP3   OH214342   1.387   5.652   1.317
 4800TIP3    H114343   1.324   5.583   1.297
 4800TIP3    H214344   1.377   5.668   1.411
 4801TIP3   OH214345   5.699   6.915   0.739
 4801TIP3    H114346   5.779   6.927   0.689
 4801TIP3    H214347   5.642   6.986   0.711
 4802TIP3   OH214348   1.492   1.871   1.331
 4802TIP3    H114349   1.442   1.949   1.306
 4802TIP3    H214350   1.431   1.798   1.318
 4803TIP3   OH214351   2.039   2.475   5.966
 4803TIP3    H114352   2.048   2.543   6.032
 4803TIP3    H214353   1.981   2.410   6.006
 4804TIP3   OH214354   6.014   6.350   1.539
 4804TIP3    H114355   6.024   6.255   1.542
 4804TIP3    H214356   6.080   6.380   1.475
 4805TIP3   OH214357   4.600   2.146   3.342
 4805TIP3    H114358   4.678   2.119   3.293
 4805TIP3    H214359   4.612   2.107   3.429
 4806TIP3   OH214360   3.014   4.640   3.252
 4806TIP3    H114361   2.945   4.629   3.317
 4806TIP3    H214362   3.093   4.608   3.296
 4807TIP3   OH214363   3.232   5.130   4.273
 4807TIP3    H114364   3.230   5.092   4.185
 4807TIP3    H214365   3.161   5.195   4.273
 4808TIP3   OH214366   1.094   5.638   3.031
 4808TIP3    H114367   1.001   5.657   3.035
 4808TIP3    H214368   1.099   5.545   3.006
 4809TIP3   OH214369   7.333  -0.032   5.886
 4809TIP3    H114370   7.410  -0.084   5.864
 4809TIP3    H214371   7.358   0.058   5.864
 4810TIP3   OH214372   6.982   7.657   5.220
 4810TIP3    H114373   6.892   7.690   5.229
 4810TIP3    H214374   7.024   7.721   5.163
 4811TIP3   OH214375   5.313   4.012   5.616
 4811TIP3    H114376   5.375   3.948   5.581
 4811TIP3    H214377   5.280   4.058   5.539
 4812TIP3   OH214378   6.509   2.813   1.623
 4812TIP3    H114379   6.517   2.720   1.599
 4812TIP3    H214380   6.431   2.843   1.578
 4813TIP3   OH214381   5.517   7.649   3.264
 4813TIP3    H114382   5.456   7.644   3.189
 4813TIP3    H214383   5.573   7.724   3.243
 4814TIP3   OH214384   5.127   7.479   2.121
 4814TIP3    H114385   5.045   7.488   2.170
 4814TIP3    H214386   5.130   7.388   2.094
 4815TIP3   OH214387   0.051   1.558   5.476
 4815TIP3    H114388   0.071   1.466   5.457
 4815TIP3    H214389  -0.040   1.569   5.450
 4816TIP3   OH214390   0.591   1.484   0.301
 4816TIP3    H114391   0.574   1.498   0.207
 4816TIP3    H214392   0.686   1.477   0.307
 4817TIP3   OH214393   6.464   3.870   4.747
 4817TIP3    H114394   6.470   3.963   4.771
 4817TIP3    H214395   6.554   3.838   4.752
 4818TIP3   OH214396   1.837   1.844   1.040
 4818TIP3    H114397   1.745   1.820   1.031
 4818TIP3    H214398   1.885   1.770   1.005
 4819TIP3   OH214399   8.310   2.954   1.653
 4819TIP3    H114400   8.224   2.915   1.670
 4819TIP3    H214401   8.321   2.949   1.559
 4820TIP3   OH214402   1.100   4.534   4.730
 4820TIP3    H114403   1.037   4.478   4.685
 4820TIP3    H214404   1.077   4.623   4.702
 4821TIP3   OH214405   7.731   0.337   6.380
 4821TIP3    H114406   7.766   0.346   6.468
 4821TIP3    H214407   7.682   0.417   6.364
 4822TIP3   OH214408   2.700   5.673   1.608
 4822TIP3    H114409   2.758   5.603   1.580
 4822TIP3    H214410   2.615   5.653   1.569
 4823TIP3   OH214411   1.811   6.050   5.536
 4823TIP3    H114412   1.880   6.107   5.568
 4823TIP3    H214413   1.818   6.054   5.441
 4824TIP3   OH214414   3.012   0.694   3.423
 4824TIP3    H114415   3.005   0.658   3.511
 4824TIP3    H214416   3.080   0.761   3.430
 4825TIP3   OH214417   7.653   0.670   1.984
 4825TIP3    H114418   7.626   0.698   1.897
 4825TIP3    H214419   7.600   0.723   2.044
 4826TIP3   OH214420   2.284   0.050   6.716
 4826TIP3    H114421   2.369   0.027   6.754
 4826TIP3    H214422   2.279   0.145   6.723
 4827TIP3   OH214423   0.850   0.372   0.289
 4827TIP3    H114424   0.803   0.370   0.372
 4827TIP3    H214425   0.884   0.283   0.279
 4828TIP3   OH214426   6.533   0.704   3.038
 4828TIP3    H114427   6.452   0.657   3.017
 4828TIP3    H214428   6.542   0.769   2.969
 4829TIP3   OH214429   0.062   7.301   0.192
 4829TIP3    H114430  -0.015   7.256   0.157
 4829TIP3    H214431   0.063   7.386   0.148
 4830TIP3   OH214432   4.807   5.228   2.885
 4830TIP3    H114433   4.782   5.254   2.974
 4830TIP3    H214434   4.783   5.135   2.880
 4831TIP3   OH214435   6.430   5.810   3.510
 4831TIP3    H114436   6.368   5.738   3.498
 4831TIP3    H214437   6.457   5.804   3.602
 4832TIP3   OH214438   7.860   3.321   5.997
 4832TIP3    H114439   7.844   3.367   6.079
 4832TIP3    H214440   7.908   3.384   5.943
 4833TIP3   OH214441   0.815   1.983   1.351
 4833TIP3    H114442   0.818   1.892   1.381
 4833TIP3    H214443   0.742   1.985   1.289
 4834TIP3   OH214444   3.710   2.377   1.211
 4834TIP3    H114445   3.746   2.458   1.173
 4834TIP3    H214446   3.756   2.368   1.295
 4835TIP3   OH214447   7.090   3.766   0.495
 4835TIP3    H114448   7.045   3.725   0.422
 4835TIP3    H214449   7.144   3.834   0.455
 4836TIP3   OH214450   6.351   0.405   0.431
 4836TIP3    H114451   6.256   0.390   0.434
 4836TIP3    H214452   6.382   0.350   0.359
 4837TIP3   OH214453   3.944   2.400   6.467
 4837TIP3    H114454   3.948   2.484   6.421
 4837TIP3    H214455   4.003   2.343   6.417
 4838TIP3   OH214456   0.278   1.156   1.357
 4838TIP3    H114457   0.332   1.086   1.395
 4838TIP3    H214458   0.266   1.130   1.266
 4839TIP3   OH214459   1.108   5.421   2.605
 4839TIP3    H114460   1.092   5.516   2.606
 4839TIP3    H214461   1.134   5.402   2.515
 4840TIP3   OH214462   7.684   3.819   1.990
 4840TIP3    H114463   7.647   3.770   1.916
 4840TIP3    H214464   7.632   3.900   1.993
 4841TIP3   OH214465   0.208   1.555   2.990
 4841TIP3    H114466   0.241   1.478   2.945
 4841TIP3    H214467   0.224   1.538   3.083
 4842TIP3   OH214468   5.506   7.545   1.365
 4842TIP3    H114469   5.515   7.454   1.335
 4842TIP3    H214470   5.426   7.576   1.323
 4843TIP3   OH214471   4.998   7.201   6.654
 4843TIP3    H114472   5.013   7.194   6.560
 4843TIP3    H214473   5.086   7.200   6.693
 4844TIP3   OH214474   0.703   1.741   4.051
 4844TIP3    H114475   0.625   1.798   4.046
 4844TIP3    H214476   0.670   1.659   4.087
 4845TIP3   OH214477   7.781   0.231   3.412
 4845TIP3    H114478   7.778   0.173   3.488
 4845TIP3    H214479   7.814   0.176   3.341
 4846TIP3   OH214480   4.308   1.195   6.151
 4846TIP3    H114481   4.383   1.227   6.201
 4846TIP3    H214482   4.231   1.219   6.203
 4847TIP3   OH214483   3.500   0.184   5.547
 4847TIP3    H114484   3.566   0.123   5.580
 4847TIP3    H214485   3.420   0.160   5.592
 4848TIP3   OH214486   1.698   4.870   3.718
 4848TIP3    H114487   1.762   4.941   3.715
 4848TIP3    H214488   1.650   4.884   3.800
 4849TIP3   OH214489   1.476   3.623   4.868
 4849TIP3    H114490   1.453   3.632   4.960
 4849TIP3    H214491   1.572   3.613   4.868
 4850TIP3   OH214492   7.796   4.851   5.768
 4850TIP3    H114493   7.716   4.811   5.734
 4850TIP3    H214494   7.765   4.925   5.820
 4851TIP3   OH214495   8.261   3.463   5.141
 4851TIP3    H114496   8.291   3.464   5.050
 4851TIP3    H214497   8.190   3.399   5.142
 4852TIP3   OH214498   2.821   3.183   0.110
 4852TIP3    H114499   2.836   3.098   0.152
 4852TIP3    H214500   2.788   3.239   0.180
 4853TIP3   OH214501   2.592   3.228   4.905
 4853TIP3    H114502   2.558   3.166   4.841
 4853TIP3    H214503   2.537   3.306   4.895
 4854TIP3   OH214504   1.440   4.072   2.208
 4854TIP3    H114505   1.407   4.014   2.139
 4854TIP3    H214506   1.534   4.056   2.209
 4855TIP3   OH214507   1.165   5.739   6.213
 4855TIP3    H114508   1.246   5.729   6.263
 4855TIP3    H214509   1.123   5.654   6.217
 4856TIP3   OH214510   6.120   6.190   2.861
 4856TIP3    H114511   6.153   6.230   2.781
 4856TIP3    H214512   6.030   6.223   2.870
 4857TIP3   OH214513   8.294   6.100   5.869
 4857TIP3    H114514   8.233   6.027   5.880
 4857TIP3    H214515   8.337   6.109   5.955
 4858TIP3   OH214516   2.594   4.050   2.721
 4858TIP3    H114517   2.658   4.122   2.721
 4858TIP3    H214518   2.542   4.065   2.800
 4859TIP3   OH214519   1.194   0.636   6.283
 4859TIP3    H114520   1.160   0.711   6.234
 4859TIP3    H214521   1.282   0.661   6.309
 4860TIP3   OH214522   3.361   0.072   4.301
 4860TIP3    H114523   3.281   0.058   4.251
 4860TIP3    H214524   3.346   0.153   4.350
 4861TIP3   OH214525   6.378   6.299   2.764
 4861TIP3    H114526   6.464   6.340   2.757
 4861TIP3    H214527   6.316   6.373   2.767
 4862TIP3   OH214528   5.813   3.985   0.688
 4862TIP3    H114529   5.743   3.937   0.731
 4862TIP3    H214530   5.793   3.978   0.594
 4863TIP3   OH214531   4.416   0.247   4.026
 4863TIP3    H114532   4.496   0.223   3.979
 4863TIP3    H214533   4.372   0.164   4.043
 4864TIP3   OH214534   7.918   2.223   3.025
 4864TIP3    H114535   7.976   2.283   3.072
 4864TIP3    H214536   7.960   2.210   2.941
 4865TIP3   OH214537   3.817   4.229   5.092
 4865TIP3    H114538   3.895   4.274   5.124
 4865TIP3    H214539   3.783   4.183   5.169
 4866TIP3   OH214540   4.231   0.197   0.740
 4866TIP3    H114541   4.148   0.244   0.744
 4866TIP3    H214542   4.285   0.247   0.678
 4867TIP3   OH214543   3.776   5.688   3.471
 4867TIP3    H114544   3.694   5.721   3.436
 4867TIP3    H214545   3.782   5.726   3.559
 4868TIP3   OH214546   6.416   1.886   3.798
 4868TIP3    H114547   6.458   1.972   3.807
 4868TIP3    H214548   6.442   1.839   3.878
 4869TIP3   OH214549   3.863   0.244   3.550
 4869TIP3    H114550   3.913   0.263   3.630
 4869TIP3    H214551   3.883   0.317   3.492
 4870TIP3   OH214552   7.985   4.880   5.992
 4870TIP3    H114553   7.980   4.975   5.995
 4870TIP3    H214554   7.955   4.857   5.904
 4871TIP3   OH214555   4.464   3.803   3.548
 4871TIP3    H114556   4.481   3.885   3.593
 4871TIP3    H214557   4.369   3.797   3.543
 4872TIP3   OH214558   5.101   3.222   6.115
 4872TIP3    H114559   5.015   3.180   6.126
 4872TIP3    H214560   5.143   3.171   6.046
 4873TIP3   OH214561   7.601   5.335   5.950
 4873TIP3    H114562   7.540   5.408   5.952
 4873TIP3    H214563   7.585   5.288   6.031
 4874TIP3   OH214564   6.444   3.337   4.235
 4874TIP3    H114565   6.494   3.364   4.159
 4874TIP3    H214566   6.497   3.267   4.275
 4875TIP3   OH214567   4.409   5.880   1.532
 4875TIP3    H114568   4.431   5.973   1.529
 4875TIP3    H214569   4.465   5.844   1.601
 4876TIP3   OH214570   8.342   1.604   0.341
 4876TIP3    H114571   8.323   1.688   0.383
 4876TIP3    H214572   8.262   1.554   0.349
 4877TIP3   OH214573   4.424   4.131   3.287
 4877TIP3    H114574   4.374   4.132   3.206
 4877TIP3    H214575   4.360   4.111   3.355
 4878TIP3   OH214576   8.170   2.837   2.630
 4878TIP3    H114577   8.087   2.804   2.664
 4878TIP3    H214578   8.146   2.916   2.582
 4879TIP3   OH214579   2.864   6.958   5.132
 4879TIP3    H114580   2.769   6.958   5.137
 4879TIP3    H214581   2.892   6.897   5.200
 4880TIP3   OH214582   4.008   2.669   1.357
 4880TIP3    H114583   3.944   2.649   1.288
 4880TIP3    H214584   4.089   2.629   1.326
 4881TIP3   OH214585   0.082   7.186   0.537
 4881TIP3    H114586   0.154   7.123   0.543
 4881TIP3    H214587   0.126   7.271   0.530
 4882TIP3   OH214588   1.793   3.157   1.686
 4882TIP3    H114589   1.887   3.173   1.697
 4882TIP3    H214590   1.774   3.187   1.598
 4883TIP3   OH214591   1.013   3.405   6.052
 4883TIP3    H114592   0.970   3.487   6.074
 4883TIP3    H214593   1.066   3.383   6.129
 4884TIP3   OH214594   0.083   7.819   6.765
 4884TIP3    H114595   0.052   7.746   6.818
 4884TIP3    H214596   0.133   7.779   6.695
 4885TIP3   OH214597   8.063   1.929   1.006
 4885TIP3    H114598   8.034   1.850   0.961
 4885TIP3    H214599   8.138   1.960   0.955
 4886TIP3   OH214600   7.599   3.882   5.490
 4886TIP3    H114601   7.624   3.966   5.529
 4886TIP3    H214602   7.600   3.897   5.396
 4887TIP3   OH214603   6.978   0.365   5.735
 4887TIP3    H114604   7.038   0.330   5.669
 4887TIP3    H214605   7.017   0.449   5.760
 4888TIP3   OH214606   5.343   3.989   0.766
 4888TIP3    H114607   5.333   3.945   0.682
 4888TIP3    H214608   5.434   4.018   0.768
 4889TIP3   OH214609   6.879   1.181   6.677
 4889TIP3    H114610   6.816   1.225   6.620
 4889TIP3    H214611   6.946   1.147   6.617
 4890TIP3   OH214612   3.119   3.099   1.294
 4890TIP3    H114613   3.092   3.168   1.233
 4890TIP3    H214614   3.100   3.018   1.247
 4891TIP3   OH214615   0.479   4.916   3.949
 4891TIP3    H114616   0.536   4.880   4.016
 4891TIP3    H214617   0.534   4.924   3.872
 4892TIP3   OH214618   1.783   4.169   4.384
 4892TIP3    H114619   1.778   4.248   4.330
 4892TIP3    H214620   1.707   4.117   4.358
 4893TIP3   OH214621   6.244   3.511   0.167
 4893TIP3    H114622   6.304   3.457   0.220
 4893TIP3    H214623   6.298   3.586   0.140
 4894TIP3   OH214624   4.998   4.871   2.418
 4894TIP3    H114625   4.985   4.965   2.405
 4894TIP3    H214626   5.010   4.836   2.330
 4895TIP3   OH214627   5.907   5.215   6.701
 4895TIP3    H114628   5.879   5.124   6.686
 4895TIP3    H214629   5.892   5.229   6.795
 4896TIP3   OH214630   1.131   1.009   6.367
 4896TIP3    H114631   1.059   1.008   6.430
 4896TIP3    H214632   1.209   1.026   6.420
 4897TIP3   OH214633   2.391   0.264   2.435
 4897TIP3    H114634   2.387   0.324   2.509
 4897TIP3    H214635   2.315   0.206   2.448
 4898TIP3   OH214636   2.215   2.933   4.867
 4898TIP3    H114637   2.235   2.860   4.925
 4898TIP3    H214638   2.246   3.010   4.914
 4899TIP3   OH214639   6.296   5.848   6.166
 4899TIP3    H114640   6.325   5.809   6.083
 4899TIP3    H214641   6.211   5.887   6.147
 4900TIP3   OH214642   3.063   2.960   1.687
 4900TIP3    H114643   3.007   3.037   1.703
 4900TIP3    H214644   3.150   2.996   1.675
 4901TIP3   OH214645   4.051   2.959   0.199
 4901TIP3    H114646   4.117   2.993   0.139
 4901TIP3    H214647   4.085   2.875   0.228
 4902TIP3   OH214648   1.596   3.364   3.286
 4902TIP3    H114649   1.508   3.401   3.285
 4902TIP3    H214650   1.638   3.401   3.208
 4903TIP3   OH214651   1.746   5.941   0.242
 4903TIP3    H114652   1.750   5.991   0.323
 4903TIP3    H214653   1.836   5.942   0.209
 4904TIP3   OH214654   2.503   0.167   1.461
 4904TIP3    H114655   2.518   0.160   1.367
 4904TIP3    H214656   2.447   0.244   1.472
 4905TIP3   OH214657   2.272   0.524   3.743
 4905TIP3    H114658   2.210   0.596   3.751
 4905TIP3    H214659   2.222   0.446   3.765
 4906TIP3   OH214660   1.660   4.098   5.595
 4906TIP3    H114661   1.755   4.112   5.601
 4906TIP3    H214662   1.651   4.004   5.581
 4907TIP3   OH214663   1.550   5.099   6.474
 4907TIP3    H114664   1.602   5.109   6.553
 4907TIP3    H214665   1.614   5.099   6.403
 4908TIP3   OH214666   6.594   0.725   2.558
 4908TIP3    H114667   6.554   0.657   2.503
 4908TIP3    H214668   6.688   0.713   2.546
 4909TIP3   OH214669   3.329   5.334   1.393
 4909TIP3    H114670   3.316   5.371   1.305
 4909TIP3    H214671   3.281   5.393   1.451
 4910TIP3   OH214672   7.019   4.347   5.062
 4910TIP3    H114673   7.076   4.383   4.994
 4910TIP3    H214674   7.007   4.419   5.124
 4911TIP3   OH214675   0.901   3.016   3.082
 4911TIP3    H114676   0.966   2.959   3.124
 4911TIP3    H214677   0.903   3.097   3.134
 4912TIP3   OH214678   0.639   0.245   1.578
 4912TIP3    H114679   0.607   0.185   1.646
 4912TIP3    H214680   0.619   0.200   1.496
 4913TIP3   OH214681   1.450   5.095   0.158
 4913TIP3    H114682   1.427   5.089   0.066
 4913TIP3    H214683   1.502   5.017   0.176
 4914TIP3   OH214684   3.129   3.016   2.783
 4914TIP3    H114685   3.064   3.083   2.762
 4914TIP3    H214686   3.116   2.999   2.876
 4915TIP3   OH214687   1.490   3.184   4.549
 4915TIP3    H114688   1.498   3.274   4.580
 4915TIP3    H214689   1.471   3.192   4.456
 4916TIP3   OH214690   1.217   2.733   5.748
 4916TIP3    H114691   1.165   2.721   5.668
 4916TIP3    H214692   1.234   2.827   5.751
 4917TIP3   OH214693   3.682   4.341   3.863
 4917TIP3    H114694   3.773   4.368   3.851
 4917TIP3    H214695   3.687   4.248   3.883
 4918TIP3   OH214696   3.236   3.895   5.539
 4918TIP3    H114697   3.272   3.982   5.518
 4918TIP3    H214698   3.179   3.875   5.466
 4919TIP3   OH214699   0.330   5.036   1.476
 4919TIP3    H114700   0.325   4.943   1.454
 4919TIP3    H214701   0.415   5.046   1.519
 4920TIP3   OH214702   1.386   4.930   4.705
 4920TIP3    H114703   1.423   5.018   4.714
 4920TIP3    H214704   1.299   4.944   4.669
 4921TIP3   OH214705   8.143   3.151   1.320
 4921TIP3    H114706   8.161   3.203   1.242
 4921TIP3    H214707   8.049   3.157   1.331
 4922TIP3   OH214708   7.619   6.610   1.876
 4922TIP3    H114709   7.658   6.543   1.820
 4922TIP3    H214710   7.675   6.612   1.954
 4923TIP3   OH214711   6.729   1.115   2.035
 4923TIP3    H114712   6.711   1.106   1.942
 4923TIP3    H214713   6.646   1.092   2.078
 4924TIP3   OH214714   0.137   4.649   3.614
 4924TIP3    H114715   0.214   4.608   3.574
 4924TIP3    H214716   0.171   4.691   3.693
 4925TIP3   OH214717   0.562   0.870   6.501
 4925TIP3    H114718   0.632   0.836   6.446
 4925TIP3    H214719   0.581   0.963   6.510
 4926TIP3   OH214720   6.591   7.646   6.539
 4926TIP3    H114721   6.547   7.721   6.578
 4926TIP3    H214722   6.536   7.571   6.562
 4927TIP3   OH214723   3.641   6.253   2.614
 4927TIP3    H114724   3.629   6.178   2.556
 4927TIP3    H214725   3.624   6.218   2.702
 4928TIP3   OH214726   2.988   7.465   2.298
 4928TIP3    H114727   3.018   7.515   2.374
 4928TIP3    H214728   2.984   7.529   2.227
 4929TIP3   OH214729   6.246   1.183   0.984
 4929TIP3    H114730   6.252   1.277   0.973
 4929TIP3    H214731   6.325   1.148   0.943
 4930TIP3   OH214732   3.327   5.897   3.810
 4930TIP3    H114733   3.346   5.961   3.880
 4930TIP3    H214734   3.413   5.877   3.773
 4931TIP3   OH214735   6.477   3.862   5.041
 4931TIP3    H114736   6.437   3.877   4.955
 4931TIP3    H214737   6.527   3.941   5.058
 4932TIP3   OH214738   0.172   5.568   1.607
 4932TIP3    H114739   0.120   5.503   1.656
 4932TIP3    H214740   0.250   5.520   1.580
 4933TIP3   OH214741   5.858   1.492   1.123
 4933TIP3    H114742   5.789   1.525   1.181
 4933TIP3    H214743   5.932   1.478   1.182
 4934TIP3   OH214744   3.006   2.773   1.466
 4934TIP3    H114745   3.049   2.798   1.548
 4934TIP3    H214746   2.919   2.812   1.471
 4935TIP3   OH214747   0.947   2.389   4.382
 4935TIP3    H114748   0.956   2.469   4.331
 4935TIP3    H214749   1.011   2.398   4.452
 4936TIP3   OH214750   1.427   7.073   1.068
 4936TIP3    H114751   1.510   7.038   1.034
 4936TIP3    H214752   1.453   7.135   1.136
 4937TIP3   OH214753   5.473   2.769   1.181
 4937TIP3    H114754   5.560   2.763   1.140
 4937TIP3    H214755   5.451   2.679   1.204
 4938TIP3   OH214756   4.857   4.772   1.628
 4938TIP3    H114757   4.768   4.755   1.658
 4938TIP3    H214758   4.852   4.766   1.532
 4939TIP3   OH214759   1.667   3.278   0.325
 4939TIP3    H114760   1.746   3.308   0.279
 4939TIP3    H214761   1.624   3.359   0.351
 4940TIP3   OH214762   3.548   6.327   5.384
 4940TIP3    H114763   3.518   6.275   5.459
 4940TIP3    H214764   3.477   6.319   5.320
 4941TIP3   OH214765   7.999   1.692   4.050
 4941TIP3    H114766   7.987   1.597   4.044
 4941TIP3    H214767   8.092   1.705   4.030
 4942TIP3   OH214768   0.192   7.037   0.176
 4942TIP3    H114769   0.282   7.038   0.209
 4942TIP3    H214770   0.159   7.125   0.195
 4943TIP3   OH214771   3.433   6.105   3.495
 4943TIP3    H114772   3.461   6.160   3.421
 4943TIP3    H214773   3.433   6.165   3.570
 4944TIP3   OH214774   3.902   4.136   3.946
 4944TIP3    H114775   3.990   4.100   3.936
 4944TIP3    H214776   3.861   4.081   4.013
 4945TIP3   OH214777   5.275   1.639   0.420
 4945TIP3    H114778   5.352   1.695   0.407
 4945TIP3    H214779   5.304   1.573   0.483
 4946TIP3   OH214780   5.996   6.251   5.383
 4946TIP3    H114781   5.901   6.239   5.375
 4946TIP3    H214782   6.032   6.164   5.368
 4947TIP3   OH214783   3.198   3.350   5.423
 4947TIP3    H114784   3.181   3.444   5.436
 4947TIP3    H214785   3.191   3.313   5.511
 4948TIP3   OH214786   6.965   2.893   5.845
 4948TIP3    H114787   7.041   2.836   5.859
 4948TIP3    H214788   6.975   2.925   5.755
 4949TIP3   OH214789   6.550   4.543   4.352
 4949TIP3    H114790   6.466   4.550   4.306
 4949TIP3    H214791   6.538   4.470   4.413
 4950TIP3   OH214792   8.207   0.394   1.479
 4950TIP3    H114793   8.124   0.402   1.432
 4950TIP3    H214794   8.199   0.456   1.552
 4951TIP3   OH214795   5.719   3.719   5.668
 4951TIP3    H114796   5.697   3.629   5.645
 4951TIP3    H214797   5.682   3.731   5.756
 4952TIP3   OH214798   2.881   3.860   3.709
 4952TIP3    H114799   2.788   3.882   3.705
 4952TIP3    H214800   2.924   3.940   3.736
 4953TIP3   OH214801   2.719   3.486   5.871
 4953TIP3    H114802   2.788   3.485   5.806
 4953TIP3    H214803   2.761   3.518   5.951
 4954TIP3   OH214804   2.624   7.286   2.107
 4954TIP3    H114805   2.691   7.323   2.051
 4954TIP3    H214806   2.616   7.195   2.079
 4955TIP3   OH214807   4.178   2.843   4.190
 4955TIP3    H114808   4.228   2.768   4.220
 4955TIP3    H214809   4.208   2.916   4.244
 4956TIP3   OH214810   1.364   4.755   2.533
 4956TIP3    H114811   1.446   4.787   2.495
 4956TIP3    H214812   1.325   4.702   2.464
 4957TIP3   OH214813   7.568   3.019   4.149
 4957TIP3    H114814   7.511   3.009   4.225
 4957TIP3    H214815   7.593   3.111   4.149
 4958TIP3   OH214816   1.883   6.798   5.556
 4958TIP3    H114817   1.808   6.841   5.515
 4958TIP3    H214818   1.952   6.864   5.556
 4959TIP3   OH214819   0.319   5.681   5.902
 4959TIP3    H114820   0.340   5.772   5.921
 4959TIP3    H214821   0.379   5.656   5.832
 4960TIP3   OH214822   5.335   7.820   5.196
 4960TIP3    H114823   5.363   7.729   5.185
 4960TIP3    H214824   5.250   7.814   5.241
 4961TIP3   OH214825   5.135   6.770   6.013
 4961TIP3    H114826   5.119   6.678   6.033
 4961TIP3    H214827   5.055   6.800   5.969
 4962TIP3   OH214828   2.919   7.168   4.669
 4962TIP3    H114829   2.904   7.248   4.619
 4962TIP3    H214830   2.867   7.179   4.748
 4963TIP3   OH214831   6.044   6.123   3.679
 4963TIP3    H114832   6.076   6.065   3.747
 4963TIP3    H214833   5.950   6.104   3.674
 4964TIP3   OH214834   3.957   5.450   3.948
 4964TIP3    H114835   4.048   5.455   3.919
 4964TIP3    H214836   3.932   5.360   3.930
 4965TIP3   OH214837   6.121   5.296   4.138
 4965TIP3    H114838   6.054   5.242   4.096
 4965TIP3    H214839   6.091   5.306   4.228
 4966TIP3   OH214840   0.958   2.732   3.696
 4966TIP3    H114841   0.979   2.685   3.616
 4966TIP3    H214842   1.032   2.716   3.754
 4967TIP3   OH214843   2.407   4.493   2.877
 4967TIP3    H114844   2.354   4.426   2.919
 4967TIP3    H214845   2.415   4.464   2.786
 4968TIP3   OH214846   1.225   4.011   2.826
 4968TIP3    H114847   1.158   3.994   2.760
 4968TIP3    H214848   1.182   3.990   2.909
 4969TIP3   OH214849   0.567   5.215   3.611
 4969TIP3    H114850   0.498   5.239   3.549
 4969TIP3    H214851   0.525   5.224   3.697
 4970TIP3   OH214852   7.493   5.022   2.159
 4970TIP3    H114853   7.525   5.080   2.228
 4970TIP3    H214854   7.398   5.031   2.162
 4971TIP3   OH214855   1.989   5.506   5.523
 4971TIP3    H114856   2.013   5.599   5.524
 4971TIP3    H214857   2.035   5.470   5.447
 4972TIP3   OH214858   0.549   1.268   1.113
 4972TIP3    H114859   0.500   1.185   1.118
 4972TIP3    H214860   0.587   1.279   1.200
 4973TIP3   OH214861   4.143   5.469   3.041
 4973TIP3    H114862   4.080   5.450   2.971
 4973TIP3    H214863   4.191   5.387   3.053
 4974TIP3   OH214864   3.783   3.429   2.584
 4974TIP3    H114865   3.785   3.510   2.635
 4974TIP3    H214866   3.721   3.446   2.513
 4975TIP3   OH214867   7.724   4.671   6.390
 4975TIP3    H114868   7.630   4.680   6.373
 4975TIP3    H214869   7.766   4.733   6.330
 4976TIP3   OH214870   3.706   3.649   0.910
 4976TIP3    H114871   3.677   3.739   0.921
 4976TIP3    H214872   3.680   3.604   0.990
 4977TIP3   OH214873   1.733   3.025   4.513
 4977TIP3    H114874   1.765   2.993   4.597
 4977TIP3    H214875   1.665   3.089   4.536
 4978TIP3   OH214876   5.215   3.365   2.092
 4978TIP3    H114877   5.161   3.288   2.110
 4978TIP3    H214878   5.153   3.430   2.057
 4979TIP3   OH214879   2.447   3.182   6.272
 4979TIP3    H114880   2.363   3.211   6.308
 4979TIP3    H214881   2.424   3.146   6.186
 4980TIP3   OH214882   2.176   2.430   3.221
 4980TIP3    H114883   2.201   2.422   3.129
 4980TIP3    H214884   2.215   2.354   3.264
 4981TIP3   OH214885   2.769   7.342   2.781
 4981TIP3    H114886   2.696   7.284   2.804
 4981TIP3    H214887   2.753   7.422   2.832
 4982TIP3   OH214888   7.405   4.119   2.264
 4982TIP3    H114889   7.349   4.188   2.229
 4982TIP3    H214890   7.391   4.123   2.359
 4983TIP3   OH214891   4.522   5.519   0.563
 4983TIP3    H114892   4.516   5.428   0.534
 4983TIP3    H214893   4.602   5.551   0.523
 4984TIP3   OH214894   2.060   6.538   5.699
 4984TIP3    H114895   2.071   6.563   5.608
 4984TIP3    H214896   2.071   6.619   5.748
 4985TIP3   OH214897   5.671   2.855   0.269
 4985TIP3    H114898   5.731   2.800   0.319
 4985TIP3    H214899   5.726   2.927   0.237
 4986TIP3   OH214900   5.750   1.676   0.805
 4986TIP3    H114901   5.806   1.753   0.795
 4986TIP3    H214902   5.710   1.686   0.892
 4987TIP3   OH214903   3.434   2.720   0.130
 4987TIP3    H114904   3.469   2.765   0.053
 4987TIP3    H214905   3.504   2.661   0.157
 4988TIP3   OH214906   2.582   2.968   0.349
 4988TIP3    H114907   2.511   2.910   0.376
 4988TIP3    H214908   2.645   2.965   0.421
 4989TIP3   OH214909   2.844   6.811   6.117
 4989TIP3    H114910   2.807   6.825   6.204
 4989TIP3    H214911   2.894   6.730   6.124
 4990TIP3   OH214912   2.549   7.702   5.427
 4990TIP3    H114913   2.480   7.767   5.415
 4990TIP3    H214914   2.513   7.640   5.490
 4991TIP3   OH214915   4.551   2.753   4.086
 4991TIP3    H114916   4.542   2.693   4.160
 4991TIP3    H214917   4.626   2.719   4.037
 4992TIP3   OH214918   3.517   3.853   5.774
 4992TIP3    H114919   3.566   3.910   5.715
 4992TIP3    H214920   3.433   3.898   5.786
 4993TIP3   OH214921   5.533   3.961   4.751
 4993TIP3    H114922   5.445   3.989   4.724
 4993TIP3    H214923   5.591   4.001   4.685
 4994TIP3   OH214924   0.238   3.906   6.390
 4994TIP3    H114925   0.243   3.971   6.460
 4994TIP3    H214926   0.263   3.823   6.432
 4995TIP3   OH214927   3.553   6.917   4.550
 4995TIP3    H114928   3.503   6.991   4.515
 4995TIP3    H214929   3.588   6.949   4.633
 4996TIP3   OH214930   2.708   0.331   0.555
 4996TIP3    H114931   2.790   0.330   0.505
 4996TIP3    H214932   2.735   0.344   0.646
 4997TIP3   OH214933   3.963   2.607   5.373
 4997TIP3    H114934   3.918   2.542   5.319
 4997TIP3    H214935   3.903   2.624   5.446
 4998TIP3   OH214936   1.971   4.392   4.145
 4998TIP3    H114937   1.937   4.312   4.104
 4998TIP3    H214938   2.013   4.440   4.073
 4999TIP3   OH214939   3.993   6.248   5.816
 4999TIP3    H114940   4.024   6.260   5.905
 4999TIP3    H214941   3.902   6.220   5.826
 5000TIP3   OH214942   3.510   1.443   0.970
 5000TIP3    H114943   3.416   1.438   0.951
 5000TIP3    H214944   3.553   1.432   0.885
 5001TIP3   OH214945   2.127   7.594   6.742
 5001TIP3    H114946   2.128   7.663   6.808
 5001TIP3    H214947   2.152   7.638   6.660
 5002TIP3   OH214948   7.901   0.513   4.383
 5002TIP3    H114949   7.808   0.520   4.362
 5002TIP3    H214950   7.946   0.526   4.299
 5003TIP3   OH214951   3.213   2.109   0.172
 5003TIP3    H114952   3.270   2.186   0.163
 5003TIP3    H214953   3.139   2.127   0.115
 5004TIP3   OH214954   4.472   6.514   0.703
 5004TIP3    H114955   4.456   6.421   0.692
 5004TIP3    H214956   4.549   6.519   0.759
 5005TIP3   OH214957   5.368   1.586   2.744
 5005TIP3    H114958   5.308   1.516   2.771
 5005TIP3    H214959   5.366   1.648   2.817
 5006TIP3   OH214960   2.425   1.727   2.736
 5006TIP3    H114961   2.331   1.714   2.747
 5006TIP3    H214962   2.465   1.672   2.804
 5007TIP3   OH214963   1.022   7.564   0.142
 5007TIP3    H114964   0.934   7.530   0.124
 5007TIP3    H214965   1.033   7.554   0.236
 5008TIP3   OH214966   3.636   5.062   6.193
 5008TIP3    H114967   3.619   5.153   6.216
 5008TIP3    H214968   3.718   5.041   6.238
 5009TIP3   OH214969   1.833   0.693   4.586
 5009TIP3    H114970   1.753   0.642   4.575
 5009TIP3    H214971   1.861   0.675   4.676
 5010TIP3   OH214972   1.543   5.743   0.240
 5010TIP3    H114973   1.472   5.790   0.196
 5010TIP3    H214974   1.622   5.790   0.214
 5011TIP3   OH214975   7.689   4.277   2.686
 5011TIP3    H114976   7.758   4.326   2.643
 5011TIP3    H214977   7.708   4.186   2.666
 5012TIP3   OH214978   7.773   0.359   1.833
 5012TIP3    H114979   7.722   0.281   1.813
 5012TIP3    H214980   7.768   0.367   1.928
 5013TIP3   OH214981   2.422   4.364   4.437
 5013TIP3    H114982   2.390   4.282   4.475
 5013TIP3    H214983   2.352   4.391   4.377
 5014TIP3   OH214984   7.102   3.587   6.742
 5014TIP3    H114985   7.024   3.536   6.762
 5014TIP3    H214986   7.077   3.642   6.668
 5015TIP3   OH214987   0.914   1.039   5.564
 5015TIP3    H114988   0.984   1.090   5.524
 5015TIP3    H214989   0.871   0.995   5.491
 5016TIP3   OH214990   3.426   0.314   4.861
 5016TIP3    H114991   3.388   0.232   4.830
 5016TIP3    H214992   3.472   0.349   4.785
 5017TIP3   OH214993   5.379   6.096   3.220
 5017TIP3    H114994   5.332   6.015   3.200
 5017TIP3    H214995   5.456   6.068   3.269
 5018TIP3   OH214996   1.359   3.549   5.788
 5018TIP3    H114997   1.326   3.513   5.706
 5018TIP3    H214998   1.444   3.587   5.764
 5019TIP3   OH214999   2.572   5.516   4.418
 5019TIP3    H115000   2.487   5.548   4.447
 5019TIP3    H215001   2.636   5.572   4.462
 5020TIP3   OH215002   2.251   3.326   4.758
 5020TIP3    H115003   2.302   3.390   4.808
 5020TIP3    H215004   2.235   3.370   4.674
 5021TIP3   OH215005   1.502   2.105   4.627
 5021TIP3    H115006   1.442   2.116   4.553
 5021TIP3    H215007   1.587   2.088   4.586
 5022TIP3   OH215008   4.188   0.588   0.065
 5022TIP3    H115009   4.157   0.546  -0.015
 5022TIP3    H215010   4.272   0.546   0.083
 5023TIP3   OH215011   1.069   5.234   2.124
 5023TIP3    H115012   1.139   5.283   2.080
 5023TIP3    H215013   1.113   5.191   2.198
 5024TIP3   OH215014   5.772   1.620   6.538
 5024TIP3    H115015   5.727   1.537   6.522
 5024TIP3    H215016   5.704   1.679   6.570
 5025TIP3   OH215017   4.384   5.732   0.581
 5025TIP3    H115018   4.373   5.713   0.674
 5025TIP3    H215019   4.435   5.658   0.548
 5026TIP3   OH215020   2.768   6.098   1.536
 5026TIP3    H115021   2.755   6.039   1.610
 5026TIP3    H215022   2.855   6.134   1.549
 5027TIP3   OH215023   3.169   2.204   0.438
 5027TIP3    H115024   3.103   2.271   0.422
 5027TIP3    H215025   3.206   2.186   0.352
 5028TIP3   OH215026   0.701   3.854   3.806
 5028TIP3    H115027   0.787   3.862   3.764
 5028TIP3    H215028   0.717   3.881   3.897
 5029TIP3   OH215029   3.514   6.734   4.850
 5029TIP3    H115030   3.432   6.711   4.894
 5029TIP3    H215031   3.522   6.829   4.861
 5030TIP3   OH215032   5.221   5.478   1.956
 5030TIP3    H115033   5.306   5.437   1.946
 5030TIP3    H215034   5.192   5.495   1.866
 5031TIP3   OH215035   5.744   4.054   2.326
 5031TIP3    H115036   5.810   4.026   2.263
 5031TIP3    H215037   5.791   4.062   2.408
 5032TIP3   OH215038   2.323   5.550   3.047
 5032TIP3    H115039   2.330   5.519   2.957
 5032TIP3    H215040   2.241   5.513   3.079
 5033TIP3   OH215041   1.922   4.258   5.008
 5033TIP3    H115042   1.901   4.223   5.095
 5033TIP3    H215043   1.940   4.180   4.955
 5034TIP3   OH215044   3.790   2.161   3.560
 5034TIP3    H115045   3.722   2.202   3.613
 5034TIP3    H215046   3.742   2.097   3.506
 5035TIP3   OH215047   2.991   0.499   5.853
 5035TIP3    H115048   3.049   0.527   5.924
 5035TIP3    H215049   2.948   0.420   5.887
 5036TIP3   OH215050   5.580   1.289   0.660
 5036TIP3    H115051   5.603   1.281   0.567
 5036TIP3    H215052   5.663   1.280   0.706
 5037TIP3   OH215053   2.758   0.453   6.764
 5037TIP3    H115054   2.738   0.364   6.790
 5037TIP3    H215055   2.677   0.486   6.725
 5038TIP3   OH215056   0.596   2.849   6.379
 5038TIP3    H115057   0.611   2.908   6.304
 5038TIP3    H215058   0.673   2.860   6.434
 5039TIP3   OH215059   4.022   5.192   3.833
 5039TIP3    H115060   4.107   5.152   3.853
 5039TIP3    H215061   4.019   5.192   3.737
 5040TIP3   OH215062   3.854   3.139   5.390
 5040TIP3    H115063   3.765   3.139   5.355
 5040TIP3    H215064   3.885   3.050   5.378
 5041TIP3   OH215065   6.382   2.939   2.351
 5041TIP3    H115066   6.320   2.869   2.332
 5041TIP3    H215067   6.369   3.002   2.280
 5042TIP3   OH215068   3.002   3.707   2.206
 5042TIP3    H115069   3.082   3.683   2.160
 5042TIP3    H215070   2.934   3.706   2.139
 5043TIP3   OH215071   3.901   7.231   4.442
 5043TIP3    H115072   3.990   7.198   4.456
 5043TIP3    H215073   3.905   7.274   4.356
 5044TIP3   OH215074   7.811   1.502   3.149
 5044TIP3    H115075   7.722   1.532   3.134
 5044TIP3    H215076   7.825   1.513   3.243
 5045TIP3   OH215077   1.503   4.182   6.504
 5045TIP3    H115078   1.548   4.151   6.582
 5045TIP3    H215079   1.411   4.158   6.517
 5046TIP3   OH215080   8.162   1.247   4.090
 5046TIP3    H115081   8.183   1.186   4.019
 5046TIP3    H215082   8.104   1.197   4.147
 5047TIP3   OH215083   4.019   2.245   5.963
 5047TIP3    H115084   4.007   2.338   5.981
 5047TIP3    H215085   4.102   2.223   6.005
 5048TIP3   OH215086   7.339   2.387   4.707
 5048TIP3    H115087   7.399   2.362   4.637
 5048TIP3    H215088   7.263   2.330   4.695
 5049TIP3   OH215089   8.277   7.313   1.587
 5049TIP3    H115090   8.264   7.398   1.630
 5049TIP3    H215091   8.188   7.283   1.567
 5050TIP3   OH215092   6.381   5.087   4.713
 5050TIP3    H115093   6.312   5.095   4.778
 5050TIP3    H215094   6.454   5.137   4.750
 5051TIP3   OH215095   0.597   6.915   2.985
 5051TIP3    H115096   0.552   6.833   3.006
 5051TIP3    H215097   0.528   6.981   2.982
 5052TIP3   OH215098   8.116   1.971   4.472
 5052TIP3    H115099   8.187   2.035   4.475
 5052TIP3    H215100   8.049   2.007   4.530
 5053TIP3   OH215101   0.822   5.514   1.295
 5053TIP3    H115102   0.876   5.583   1.256
 5053TIP3    H215103   0.875   5.481   1.368
 5054TIP3   OH215104   5.569   3.653   0.119
 5054TIP3    H115105   5.475   3.664   0.127
 5054TIP3    H215106   5.596   3.613   0.202
 5055TIP3   OH215107   7.593   3.611   2.740
 5055TIP3    H115108   7.644   3.530   2.749
 5055TIP3    H215109   7.502   3.582   2.744
 5056TIP3   OH215110   0.810   6.052   1.298
 5056TIP3    H115111   0.764   6.026   1.218
 5056TIP3    H215112   0.903   6.046   1.276
 5057TIP3   OH215113   4.777   6.331   5.657
 5057TIP3    H115114   4.720   6.408   5.666
 5057TIP3    H215115   4.833   6.334   5.734
 5058TIP3   OH215116   7.109   2.192   5.951
 5058TIP3    H115117   7.150   2.254   5.891
 5058TIP3    H215118   7.165   2.115   5.948
 5059TIP3   OH215119   6.586   7.047   3.539
 5059TIP3    H115120   6.562   7.128   3.495
 5059TIP3    H215121   6.665   7.017   3.494
 5060TIP3   OH215122   5.307   4.699   3.492
 5060TIP3    H115123   5.376   4.739   3.439
 5060TIP3    H215124   5.320   4.605   3.480
 5061TIP3   OH215125   7.354   3.894   0.744
 5061TIP3    H115126   7.369   3.799   0.744
 5061TIP3    H215127   7.433   3.931   0.785
 5062TIP3   OH215128   3.840   5.964   4.763
 5062TIP3    H115129   3.873   5.875   4.768
 5062TIP3    H215130   3.867   6.004   4.846
 5063TIP3   OH215131   7.256   2.435   5.216
 5063TIP3    H115132   7.318   2.377   5.259
 5063TIP3    H215133   7.209   2.478   5.287
 5064TIP3   OH215134   8.148   1.749   3.172
 5064TIP3    H115135   8.061   1.776   3.143
 5064TIP3    H215136   8.143   1.748   3.268
 5065TIP3   OH215137   2.767   7.318   1.215
 5065TIP3    H115138   2.785   7.306   1.308
 5065TIP3    H215139   2.838   7.374   1.184
 5066TIP3   OH215140   0.460   5.507   4.591
 5066TIP3    H115141   0.488   5.450   4.663
 5066TIP3    H215142   0.532   5.503   4.528
 5067TIP3   OH215143   2.336   0.629   5.858
 5067TIP3    H115144   2.396   0.703   5.856
 5067TIP3    H215145   2.393   0.552   5.863
 5068TIP3   OH215146   0.628   0.037   4.578
 5068TIP3    H115147   0.640   0.063   4.487
 5068TIP3    H215148   0.681  -0.042   4.588
 5069TIP3   OH215149   5.522   4.486   0.918
 5069TIP3    H115150   5.564   4.457   0.836
 5069TIP3    H215151   5.462   4.554   0.891
 5070TIP3   OH215152   5.382   2.009   3.399
 5070TIP3    H115153   5.323   1.953   3.451
 5070TIP3    H215154   5.387   2.091   3.448
 5071TIP3   OH215155   5.769   4.931   1.413
 5071TIP3    H115156   5.863   4.910   1.413
 5071TIP3    H215157   5.758   4.990   1.338
 5072TIP3   OH215158   5.510   0.786   5.099
 5072TIP3    H115159   5.435   0.754   5.050
 5072TIP3    H215160   5.513   0.880   5.079
 5073TIP3   OH215161   7.003   5.683   6.678
 5073TIP3    H115162   6.916   5.648   6.697
 5073TIP3    H215163   7.050   5.677   6.761
 5074TIP3   OH215164   1.771   2.353   5.648
 5074TIP3    H115165   1.690   2.403   5.642
 5074TIP3    H215166   1.751   2.285   5.713
 5075TIP3   OH215167   3.570   4.793   1.226
 5075TIP3    H115168   3.640   4.784   1.160
 5075TIP3    H215169   3.490   4.768   1.179
 5076TIP3   OH215170   3.740   5.872   1.231
 5076TIP3    H115171   3.748   5.790   1.183
 5076TIP3    H215172   3.815   5.872   1.291
 5077TIP3   OH215173   0.945   7.116   0.778
 5077TIP3    H115174   1.025   7.064   0.774
 5077TIP3    H215175   0.883   7.061   0.826
 5078TIP3   OH215176   6.145   4.597   6.433
 5078TIP3    H115177   6.108   4.576   6.519
 5078TIP3    H215178   6.194   4.677   6.446
 5079TIP3   OH215179   5.833   5.910   3.084
 5079TIP3    H115180   5.833   5.934   2.992
 5079TIP3    H215181   5.764   5.844   3.092
 5080TIP3   OH215182   6.644   7.830   3.575
 5080TIP3    H115183   6.647   7.740   3.605
 5080TIP3    H215184   6.616   7.880   3.652
 5081TIP3   OH215185   6.950   4.573   2.372
 5081TIP3    H115186   7.001   4.654   2.370
 5081TIP3    H215187   6.980   4.527   2.451
 5082TIP3   OH215188   1.901   2.809   5.536
 5082TIP3    H115189   1.973   2.872   5.534
 5082TIP3    H215190   1.924   2.749   5.607
 5083TIP3   OH215191   0.043   3.738   1.583
 5083TIP3    H115192   0.016   3.659   1.629
 5083TIP3    H215193   0.120   3.769   1.631
 5084TIP3   OH215194   5.988   4.470   6.680
 5084TIP3    H115195   6.007   4.552   6.725
 5084TIP3    H215196   5.909   4.437   6.722
 5085TIP3   OH215197   7.379   2.648   1.442
 5085TIP3    H115198   7.342   2.736   1.452
 5085TIP3    H215199   7.474   2.662   1.447
 5086TIP3   OH215200   5.510   3.511   3.534
 5086TIP3    H115201   5.443   3.515   3.466
 5086TIP3    H215202   5.506   3.421   3.566
 5087TIP3   OH215203   4.285   2.708   1.866
 5087TIP3    H115204   4.347   2.732   1.797
 5087TIP3    H215205   4.259   2.619   1.844
 5088TIP3   OH215206   2.463   7.489   2.627
 5088TIP3    H115207   2.461   7.495   2.723
 5088TIP3    H215208   2.432   7.400   2.609
 5089TIP3   OH215209   4.827   4.489   5.097
 5089TIP3    H115210   4.777   4.423   5.146
 5089TIP3    H215211   4.845   4.558   5.161
 5090TIP3   OH215212   6.601   3.584   6.308
 5090TIP3    H115213   6.673   3.633   6.348
 5090TIP3    H215214   6.595   3.504   6.359
 5091TIP3   OH215215   2.909   6.718   0.862
 5091TIP3    H115216   2.929   6.652   0.796
 5091TIP3    H215217   2.950   6.798   0.830
 5092TIP3   OH215218   1.291   3.529   3.817
 5092TIP3    H115219   1.336   3.519   3.733
 5092TIP3    H215220   1.358   3.562   3.876
 5093TIP3   OH215221   2.967   6.935   2.781
 5093TIP3    H115222   2.923   6.860   2.740
 5093TIP3    H215223   2.953   7.007   2.720
 5094TIP3   OH215224   4.024   1.843   6.055
 5094TIP3    H115225   3.985   1.763   6.090
 5094TIP3    H215226   4.052   1.819   5.967
 5095TIP3   OH215227   0.990   3.096   2.353
 5095TIP3    H115228   1.020   3.106   2.443
 5095TIP3    H215229   1.054   3.143   2.300
 5096TIP3   OH215230   2.945   4.588   4.809
 5096TIP3    H115231   3.041   4.594   4.811
 5096TIP3    H215232   2.915   4.666   4.855
 5097TIP3   OH215233   2.022   3.518   3.972
 5097TIP3    H115234   1.934   3.495   3.999
 5097TIP3    H215235   2.057   3.571   4.043
 5098TIP3   OH215236   7.835   2.733   1.202
 5098TIP3    H115237   7.898   2.752   1.133
 5098TIP3    H215238   7.750   2.740   1.159
 5099TIP3   OH215239   6.837   7.269   1.743
 5099TIP3    H115240   6.818   7.252   1.835
 5099TIP3    H215241   6.773   7.334   1.716
 5100TIP3   OH215242   2.864   2.922   3.626
 5100TIP3    H115243   2.904   2.918   3.713
 5100TIP3    H215244   2.802   2.849   3.624
 5101TIP3   OH215245   3.569   1.142   5.296
 5101TIP3    H115246   3.637   1.208   5.311
 5101TIP3    H215247   3.597   1.097   5.217
 5102TIP3   OH215248   6.877   4.820   6.606
 5102TIP3    H115249   6.893   4.762   6.531
 5102TIP3    H215250   6.937   4.789   6.674
 5103TIP3   OH215251   5.323   2.625   4.707
 5103TIP3    H115252   5.306   2.530   4.705
 5103TIP3    H215253   5.245   2.664   4.668
 5104TIP3   OH215254   2.399   2.876   1.977
 5104TIP3    H115255   2.473   2.878   2.039
 5104TIP3    H215256   2.416   2.800   1.922
 5105TIP3   OH215257   6.475   0.078   6.743
 5105TIP3    H115258   6.482   0.169   6.712
 5105TIP3    H215259   6.439   0.030   6.668
 5106TIP3   OH215260   7.488   3.474   1.603
 5106TIP3    H115261   7.445   3.560   1.601
 5106TIP3    H215262   7.429   3.419   1.654
 5107TIP3   OH215263   6.174   2.856   1.611
 5107TIP3    H115264   6.121   2.793   1.659
 5107TIP3    H215265   6.110   2.906   1.559
 5108TIP3   OH215266   1.602   1.765   4.705
 5108TIP3    H115267   1.582   1.744   4.614
 5108TIP3    H215268   1.667   1.699   4.731
 5109TIP3   OH215269   4.339   3.677   0.329
 5109TIP3    H115270   4.378   3.600   0.371
 5109TIP3    H215271   4.297   3.643   0.250
 5110TIP3   OH215272   0.683   4.598   3.197
 5110TIP3    H115273   0.728   4.518   3.171
 5110TIP3    H215274   0.743   4.668   3.170
 5111TIP3   OH215275   1.716   6.640   2.445
 5111TIP3    H115276   1.665   6.577   2.394
 5111TIP3    H215277   1.705   6.612   2.536
 5112TIP3   OH215278   1.549   5.293   3.098
 5112TIP3    H115279   1.629   5.335   3.129
 5112TIP3    H215280   1.575   5.204   3.076
 5113TIP3   OH215281   0.479   0.573   6.558
 5113TIP3    H115282   0.571   0.574   6.531
 5113TIP3    H215283   0.476   0.628   6.636
 5114TIP3   OH215284   5.428   1.752   6.345
 5114TIP3    H115285   5.487   1.797   6.405
 5114TIP3    H215286   5.485   1.698   6.291
 5115TIP3   OH215287   5.805   0.058   3.687
 5115TIP3    H115288   5.842  -0.001   3.752
 5115TIP3    H215289   5.877   0.117   3.664
 5116TIP3   OH215290   0.583   1.525   3.068
 5116TIP3    H115291   0.668   1.562   3.089
 5116TIP3    H215292   0.589   1.434   3.096
 5117TIP3   OH215293   3.226   7.477   2.457
 5117TIP3    H115294   3.242   7.392   2.498
 5117TIP3    H215295   3.169   7.524   2.518
 5118TIP3   OH215296   5.223   6.137   5.528
 5118TIP3    H115297   5.164   6.160   5.455
 5118TIP3    H215298   5.253   6.220   5.562
 5119TIP3   OH215299   3.475   3.855   0.928
 5119TIP3    H115300   3.454   3.762   0.918
 5119TIP3    H215301   3.469   3.871   1.022
 5120TIP3   OH215302   4.787   0.236   2.471
 5120TIP3    H115303   4.692   0.233   2.482
 5120TIP3    H215304   4.801   0.217   2.378
 5121TIP3   OH215305   4.676   1.084   0.058
 5121TIP3    H115306   4.749   1.124   0.106
 5121TIP3    H215307   4.640   1.019   0.119
 5122TIP3   OH215308   7.089   0.640   3.909
 5122TIP3    H115309   7.077   0.600   3.995
 5122TIP3    H215310   7.033   0.718   3.911
 5123TIP3   OH215311   2.908   4.738   0.710
 5123TIP3    H115312   2.921   4.704   0.622
 5123TIP3    H215313   2.816   4.766   0.712
 5124TIP3   OH215314   0.174   7.318   2.126
 5124TIP3    H115315   0.205   7.234   2.160
 5124TIP3    H215316   0.183   7.310   2.031
 5125TIP3   OH215317   4.344   7.640   6.239
 5125TIP3    H115318   4.416   7.697   6.211
 5125TIP3    H215319   4.339   7.652   6.333
 5126TIP3   OH215320   0.684   1.055   2.750
 5126TIP3    H115321   0.692   1.149   2.732
 5126TIP3    H215322   0.640   1.020   2.673
 5127TIP3   OH215323   7.926   7.453   4.179
 5127TIP3    H115324   7.993   7.435   4.245
 5127TIP3    H215325   7.856   7.496   4.227
 5128TIP3   OH215326   6.582   0.613   1.591
 5128TIP3    H115327   6.562   0.596   1.499
 5128TIP3    H215328   6.654   0.553   1.612
 5129TIP3   OH215329   2.482   5.978   1.814
 5129TIP3    H115330   2.455   5.890   1.842
 5129TIP3    H215331   2.451   6.036   1.883
 5130TIP3   OH215332   4.431   7.756   2.320
 5130TIP3    H115333   4.455   7.663   2.324
 5130TIP3    H215334   4.488   7.793   2.252
 5131TIP3   OH215335   1.459   2.218   5.384
 5131TIP3    H115336   1.544   2.238   5.345
 5131TIP3    H215337   1.409   2.299   5.375
 5132TIP3   OH215338   2.806   4.965   3.912
 5132TIP3    H115339   2.732   4.957   3.851
 5132TIP3    H215340   2.813   4.879   3.952
 5133TIP3   OH215341   4.680   7.473   5.957
 5133TIP3    H115342   4.610   7.451   5.895
 5133TIP3    H215343   4.644   7.451   6.043
 5134TIP3   OH215344   2.356   1.776   1.731
 5134TIP3    H115345   2.268   1.743   1.715
 5134TIP3    H215346   2.361   1.784   1.826
 5135TIP3   OH215347   6.110   6.315   5.646
 5135TIP3    H115348   6.039   6.302   5.583
 5135TIP3    H215349   6.182   6.262   5.611
 5136TIP3   OH215350   0.146   5.299   3.002
 5136TIP3    H115351   0.220   5.322   3.058
 5136TIP3    H215352   0.183   5.237   2.939
 5137TIP3   OH215353   1.385   4.241   4.628
 5137TIP3    H115354   1.321   4.235   4.699
 5137TIP3    H215355   1.469   4.252   4.672
 5138TIP3   OH215356   0.971   7.541   0.584
 5138TIP3    H115357   0.979   7.457   0.539
 5138TIP3    H215358   1.000   7.606   0.520
 5139TIP3   OH215359   7.202   4.380   1.830
 5139TIP3    H115360   7.110   4.361   1.809
 5139TIP3    H215361   7.214   4.346   1.918
 5140TIP3   OH215362   1.246   4.366   0.937
 5140TIP3    H115363   1.299   4.289   0.955
 5140TIP3    H215364   1.156   4.337   0.951
 5141TIP3   OH215365   0.336   7.729   5.956
 5141TIP3    H115366   0.325   7.779   5.876
 5141TIP3    H215367   0.386   7.651   5.929
 5142TIP3   OH215368   6.397   6.683   2.662
 5142TIP3    H115369   6.438   6.676   2.575
 5142TIP3    H215370   6.350   6.600   2.672
 5143TIP3   OH215371   3.852   3.346   4.263
 5143TIP3    H115372   3.843   3.437   4.292
 5143TIP3    H215373   3.919   3.349   4.195
 5144TIP3   OH215374   4.336   2.845   3.925
 5144TIP3    H115375   4.262   2.865   3.867
 5144TIP3    H215376   4.309   2.765   3.971
 5145TIP3   OH215377   3.266   6.887   2.610
 5145TIP3    H115378   3.282   6.793   2.618
 5145TIP3    H215379   3.171   6.895   2.603
 5146TIP3   OH215380   2.051   7.793   4.137
 5146TIP3    H115381   2.069   7.750   4.221
 5146TIP3    H215382   2.093   7.736   4.073
 5147TIP3   OH215383   3.812   6.308   4.841
 5147TIP3    H115384   3.810   6.319   4.936
 5147TIP3    H215385   3.778   6.391   4.807
 5148TIP3   OH215386   3.427   5.255   4.421
 5148TIP3    H115387   3.475   5.310   4.359
 5148TIP3    H215388   3.353   5.222   4.370
 5149TIP3   OH215389   5.192   1.882   4.844
 5149TIP3    H115390   5.285   1.890   4.867
 5149TIP3    H215391   5.170   1.966   4.803
 5150TIP3   OH215392   4.712   5.142   6.653
 5150TIP3    H115393   4.623   5.161   6.624
 5150TIP3    H215394   4.763   5.218   6.625
 5151TIP3   OH215395   3.547   5.103   3.212
 5151TIP3    H115396   3.465   5.055   3.222
 5151TIP3    H215397   3.537   5.179   3.270
 5152TIP3   OH215398   7.304   3.191   6.278
 5152TIP3    H115399   7.340   3.237   6.202
 5152TIP3    H215400   7.321   3.250   6.352
 5153TIP3   OH215401   5.991   4.787   1.732
 5153TIP3    H115402   6.007   4.830   1.648
 5153TIP3    H215403   6.017   4.696   1.718
 5154TIP3   OH215404   1.032   2.324   5.894
 5154TIP3    H115405   0.945   2.284   5.887
 5154TIP3    H215406   1.018   2.403   5.946
 5155TIP3   OH215407   2.413   5.816   3.106
 5155TIP3    H115408   2.370   5.731   3.094
 5155TIP3    H215409   2.356   5.863   3.167
 5156TIP3   OH215410   1.729   0.150   1.994
 5156TIP3    H115411   1.761   0.068   1.958
 5156TIP3    H215412   1.760   0.217   1.932
 5157TIP3   OH215413   8.148   5.832   2.458
 5157TIP3    H115414   8.130   5.915   2.504
 5157TIP3    H215415   8.177   5.858   2.371
 5158TIP3   OH215416   1.887   2.962   2.725
 5158TIP3    H115417   1.980   2.941   2.732
 5158TIP3    H215418   1.869   3.017   2.801
 5159TIP3   OH215419   5.030   6.003   0.712
 5159TIP3    H115420   5.075   6.085   0.732
 5159TIP3    H215421   4.957   6.029   0.656
 5160TIP3   OH215422   7.527   3.480   5.118
 5160TIP3    H115423   7.563   3.500   5.032
 5160TIP3    H215424   7.523   3.565   5.163
 5161TIP3   OH215425   0.712   6.607   6.559
 5161TIP3    H115426   0.783   6.648   6.609
 5161TIP3    H215427   0.664   6.680   6.520
 5162TIP3   OH215428   6.289   5.889   1.420
 5162TIP3    H115429   6.299   5.906   1.326
 5162TIP3    H215430   6.318   5.799   1.432
 5163TIP3   OH215431   7.152   4.430   3.917
 5163TIP3    H115432   7.206   4.463   3.846
 5163TIP3    H215433   7.202   4.449   3.996
 5164TIP3   OH215434   3.834   2.872   2.792
 5164TIP3    H115435   3.787   2.840   2.715
 5164TIP3    H215436   3.884   2.947   2.760
 5165TIP3   OH215437   4.917   5.394   4.624
 5165TIP3    H115438   4.895   5.303   4.605
 5165TIP3    H215439   4.932   5.397   4.718
 5166TIP3   OH215440   4.848   7.170   1.673
 5166TIP3    H115441   4.809   7.254   1.646
 5166TIP3    H215442   4.839   7.170   1.769
 5167TIP3   OH215443   0.451   6.301   1.586
 5167TIP3    H115444   0.505   6.324   1.510
 5167TIP3    H215445   0.397   6.228   1.555
 5168TIP3   OH215446   4.928   1.107   1.685
 5168TIP3    H115447   4.835   1.120   1.703
 5168TIP3    H215448   4.967   1.094   1.771
 5169TIP3   OH215449   6.689   2.350   4.822
 5169TIP3    H115450   6.759   2.388   4.875
 5169TIP3    H215451   6.712   2.372   4.732
 5170TIP3   OH215452   1.593   0.587   3.802
 5170TIP3    H115453   1.568   0.563   3.891
 5170TIP3    H215454   1.686   0.607   3.808
 5171TIP3   OH215455   5.938   2.894   5.871
 5171TIP3    H115456   5.967   2.806   5.848
 5171TIP3    H215457   5.845   2.895   5.846
 5172TIP3   OH215458   4.997   3.469   6.609
 5172TIP3    H115459   5.069   3.490   6.669
 5172TIP3    H215460   5.039   3.431   6.532
 5173TIP3   OH215461   1.488   2.610   3.230
 5173TIP3    H115462   1.495   2.612   3.134
 5173TIP3    H215463   1.576   2.587   3.260
 5174TIP3   OH215464   7.605   4.885   5.443
 5174TIP3    H115465   7.679   4.845   5.398
 5174TIP3    H215466   7.603   4.842   5.529
 5175TIP3   OH215467   3.541   3.630   5.920
 5175TIP3    H115468   3.515   3.591   5.836
 5175TIP3    H215469   3.547   3.724   5.903
 5176TIP3   OH215470   8.129   4.302   4.188
 5176TIP3    H115471   8.055   4.362   4.199
 5176TIP3    H215472   8.148   4.271   4.277
 5177TIP3   OH215473   0.202   6.227   0.255
 5177TIP3    H115474   0.224   6.320   0.253
 5177TIP3    H215475   0.107   6.224   0.240
 5178TIP3   OH215476   4.344   2.091   4.579
 5178TIP3    H115477   4.419   2.059   4.630
 5178TIP3    H215478   4.306   2.159   4.634
 5179TIP3   OH215479   6.599   7.500   5.706
 5179TIP3    H115480   6.683   7.458   5.688
 5179TIP3    H215481   6.539   7.463   5.641
 5180TIP3   OH215482   4.245   5.793   6.069
 5180TIP3    H115483   4.316   5.769   6.129
 5180TIP3    H215484   4.288   5.839   5.998
 5181TIP3   OH215485   3.140   2.355   6.733
 5181TIP3    H115486   3.099   2.356   6.647
 5181TIP3    H215487   3.125   2.444   6.767
 5182TIP3   OH215488   7.321   7.724   4.413
 5182TIP3    H115489   7.227   7.720   4.397
 5182TIP3    H215490   7.348   7.809   4.379
 5183TIP3   OH215491   0.769   5.449   2.995
 5183TIP3    H115492   0.748   5.438   3.088
 5183TIP3    H215493   0.790   5.542   2.986
 5184TIP3   OH215494   8.271   2.049   4.180
 5184TIP3    H115495   8.309   1.995   4.249
 5184TIP3    H215496   8.297   2.139   4.202
 5185TIP3   OH215497   4.989   6.670   0.565
 5185TIP3    H115498   4.995   6.681   0.660
 5185TIP3    H215499   4.994   6.575   0.552
 5186TIP3   OH215500   8.305   3.365   0.566
 5186TIP3    H115501   8.290   3.454   0.536
 5186TIP3    H215502   8.365   3.374   0.640
 5187TIP3   OH215503   7.888  -0.013   2.951
 5187TIP3    H115504   7.967  -0.006   2.897
 5187TIP3    H215505   7.857   0.077   2.960
 5188TIP3   OH215506   4.404   0.196   6.692
 5188TIP3    H115507   4.384   0.202   6.785
 5188TIP3    H215508   4.492   0.232   6.684
 5189TIP3   OH215509   7.261   6.822   3.595
 5189TIP3    H115510   7.166   6.816   3.593
 5189TIP3    H215511   7.289   6.749   3.650
 5190TIP3   OH215512   7.271   1.226   2.228
 5190TIP3    H115513   7.366   1.238   2.233
 5190TIP3    H215514   7.255   1.188   2.142
 5191TIP3   OH215515   0.723   1.690   1.333
 5191TIP3    H115516   0.710   1.651   1.420
 5191TIP3    H215517   0.669   1.635   1.275
 5192TIP3   OH215518   1.425   0.282   4.412
 5192TIP3    H115519   1.469   0.240   4.337
 5192TIP3    H215520   1.495   0.295   4.476
 5193TIP3   OH215521   1.869   0.842   2.310
 5193TIP3    H115522   1.822   0.907   2.362
 5193TIP3    H215523   1.859   0.872   2.220
 5194TIP3   OH215524   3.125   1.468   1.393
 5194TIP3    H115525   3.194   1.526   1.423
 5194TIP3    H215526   3.092   1.509   1.313
 5195TIP3   OH215527   4.823   3.842   0.050
 5195TIP3    H115528   4.903   3.888   0.026
 5195TIP3    H215529   4.852   3.756   0.080
 5196TIP3   OH215530   0.393   3.002   2.548
 5196TIP3    H115531   0.312   2.999   2.600
 5196TIP3    H215532   0.365   2.978   2.459
 5197TIP3   OH215533   4.909   3.440   5.709
 5197TIP3    H115534   4.965   3.403   5.777
 5197TIP3    H215535   4.932   3.533   5.707
 5198TIP3   OH215536   7.351   4.641   0.577
 5198TIP3    H115537   7.258   4.621   0.572
 5198TIP3    H215538   7.356   4.722   0.628
 5199TIP3   OH215539   6.411   4.965   1.351
 5199TIP3    H115540   6.354   4.985   1.424
 5199TIP3    H215541   6.396   4.871   1.334
 5200TIP3   OH215542   6.296   4.029   2.151
 5200TIP3    H115543   6.367   3.967   2.137
 5200TIP3    H215544   6.218   3.974   2.164
 5201TIP3   OH215545   7.869   2.184   0.892
 5201TIP3    H115546   7.819   2.110   0.857
 5201TIP3    H215547   7.960   2.164   0.871
 5202TIP3   OH215548   7.165   1.543   4.575
 5202TIP3    H115549   7.148   1.600   4.651
 5202TIP3    H215550   7.261   1.541   4.568
 5203TIP3   OH215551   5.017   2.153   1.316
 5203TIP3    H115552   4.950   2.214   1.346
 5203TIP3    H215553   4.983   2.117   1.234
 5204TIP3   OH215554   7.253   0.629   1.693
 5204TIP3    H115555   7.346   0.611   1.706
 5204TIP3    H215556   7.244   0.645   1.599
 5205TIP3   OH215557   4.006   3.117   4.276
 5205TIP3    H115558   3.948   3.194   4.280
 5205TIP3    H215559   4.044   3.121   4.188
 5206TIP3   OH215560   3.025   3.955   6.147
 5206TIP3    H115561   2.970   3.934   6.072
 5206TIP3    H215562   3.111   3.975   6.110
 5207TIP3   OH215563   0.076   4.221   4.372
 5207TIP3    H115564   0.102   4.313   4.379
 5207TIP3    H215565   0.146   4.180   4.322
 5208TIP3   OH215566   4.623   6.718   3.379
 5208TIP3    H115567   4.639   6.627   3.352
 5208TIP3    H215568   4.533   6.735   3.351
 5209TIP3   OH215569   4.371   6.585  -0.008
 5209TIP3    H115570   4.305   6.590  -0.077
 5209TIP3    H215571   4.329   6.534   0.062
 5210TIP3   OH215572   7.699   7.053   1.315
 5210TIP3    H115573   7.732   7.010   1.394
 5210TIP3    H215574   7.621   7.004   1.291
 5211TIP3   OH215575   6.616   7.465   1.914
 5211TIP3    H115576   6.542   7.461   1.853
 5211TIP3    H215577   6.658   7.549   1.896
 5212TIP3   OH215578   0.028   0.532   2.753
 5212TIP3    H115579   0.071   0.576   2.826
 5212TIP3    H215580   0.059   0.579   2.675
 5213TIP3   OH215581   0.654   5.010   5.128
 5213TIP3    H115582   0.696   5.010   5.214
 5213TIP3    H215583   0.564   5.038   5.145
 5214TIP3   OH215584   6.746   6.144   4.665
 5214TIP3    H115585   6.735   6.239   4.660
 5214TIP3    H215586   6.689   6.110   4.596
 5215TIP3   OH215587   8.175   0.722   2.635
 5215TIP3    H115588   8.170   0.689   2.546
 5215TIP3    H215589   8.168   0.644   2.690
 5216TIP3   OH215590   1.044   2.995   5.416
 5216TIP3    H115591   1.108   3.018   5.484
 5216TIP3    H215592   0.983   3.069   5.415
 5217TIP3   OH215593   0.526   5.598   5.705
 5217TIP3    H115594   0.596   5.641   5.655
 5217TIP3    H215595   0.458   5.580   5.640
 5218TIP3   OH215596   3.688   0.392   1.202
 5218TIP3    H115597   3.749   0.362   1.135
 5218TIP3    H215598   3.638   0.314   1.226
 5219TIP3   OH215599   1.223   4.495   1.638
 5219TIP3    H115600   1.143   4.540   1.664
 5219TIP3    H215601   1.270   4.558   1.584
 5220TIP3   OH215602   7.631   2.457   4.018
 5220TIP3    H115603   7.538   2.478   4.014
 5220TIP3    H215604   7.643   2.387   3.954
 5221TIP3   OH215605   8.170   5.559   2.370
 5221TIP3    H115606   8.254   5.541   2.412
 5221TIP3    H215607   8.148   5.649   2.397
 5222TIP3   OH215608   4.861   4.936   5.278
 5222TIP3    H115609   4.897   4.880   5.347
 5222TIP3    H215610   4.807   4.877   5.225
 5223TIP3   OH215611   4.279   3.509   3.614
 5223TIP3    H115612   4.315   3.424   3.636
 5223TIP3    H215613   4.310   3.527   3.525
 5224TIP3   OH215614   7.422   6.196   1.860
 5224TIP3    H115615   7.458   6.278   1.827
 5224TIP3    H215616   7.328   6.212   1.869
 5225TIP3   OH215617   6.037   6.149   1.849
 5225TIP3    H115618   5.947   6.117   1.853
 5225TIP3    H215619   6.073   6.131   1.937
 5226TIP3   OH215620   2.882   5.567   2.150
 5226TIP3    H115621   2.931   5.625   2.208
 5226TIP3    H215622   2.839   5.506   2.210
 5227TIP3   OH215623   7.515   6.875   1.980
 5227TIP3    H115624   7.565   6.816   1.923
 5227TIP3    H215625   7.579   6.938   2.013
 5228TIP3   OH215626   8.023   4.489   6.220
 5228TIP3    H115627   7.941   4.440   6.222
 5228TIP3    H215628   8.087   4.428   6.184
 5229TIP3   OH215629   1.801   3.544   3.364
 5229TIP3    H115630   1.876   3.506   3.317
 5229TIP3    H215631   1.736   3.474   3.365
 5230TIP3   OH215632   6.456   1.356   0.397
 5230TIP3    H115633   6.514   1.367   0.472
 5230TIP3    H215634   6.497   1.287   0.345
 5231TIP3   OH215635   0.296   1.723   2.771
 5231TIP3    H115636   0.391   1.722   2.785
 5231TIP3    H215637   0.259   1.684   2.850
 5232TIP3   OH215638   1.804   3.719   2.746
 5232TIP3    H115639   1.747   3.754   2.678
 5232TIP3    H215640   1.801   3.783   2.816
 5233TIP3   OH215641   3.479   0.097   3.788
 5233TIP3    H115642   3.573   0.082   3.782
 5233TIP3    H215643   3.470   0.189   3.810
 5234TIP3   OH215644   6.704   3.496   1.835
 5234TIP3    H115645   6.615   3.497   1.799
 5234TIP3    H215646   6.707   3.417   1.889
 5235TIP3   OH215647   7.159   5.556   2.148
 5235TIP3    H115648   7.095   5.486   2.164
 5235TIP3    H215649   7.121   5.608   2.078
 5236TIP3   OH215650   4.395   1.059   4.898
 5236TIP3    H115651   4.394   1.141   4.849
 5236TIP3    H215652   4.412   1.084   4.988
 5237TIP3   OH215653   6.283   4.616   1.651
 5237TIP3    H115654   6.287   4.675   1.575
 5237TIP3    H215655   6.277   4.528   1.613
 5238TIP3   OH215656   0.001   7.753   3.536
 5238TIP3    H115657  -0.001   7.741   3.441
 5238TIP3    H215658  -0.006   7.848   3.548
 5239TIP3   OH215659   5.646   6.650   4.475
 5239TIP3    H115660   5.587   6.714   4.435
 5239TIP3    H215661   5.700   6.702   4.534
 5240TIP3   OH215662   3.756   6.984   3.732
 5240TIP3    H115663   3.830   7.042   3.716
 5240TIP3    H215664   3.719   6.967   3.645
 5241TIP3   OH215665   1.416   0.799   1.302
 5241TIP3    H115666   1.436   0.707   1.318
 5241TIP3    H215667   1.460   0.846   1.373
 5242TIP3   OH215668   6.223   5.964   4.266
 5242TIP3    H115669   6.263   5.913   4.195
 5242TIP3    H215670   6.129   5.951   4.254
 5243TIP3   OH215671   2.862   4.472   0.581
 5243TIP3    H115672   2.804   4.458   0.506
 5243TIP3    H215673   2.810   4.444   0.656
 5244TIP3   OH215674   1.725   2.851   0.359
 5244TIP3    H115675   1.786   2.889   0.295
 5244TIP3    H215676   1.753   2.760   0.367
 5245TIP3   OH215677   8.159   5.494   4.731
 5245TIP3    H115678   8.201   5.432   4.672
 5245TIP3    H215679   8.197   5.579   4.709
 5246TIP3   OH215680   5.704   4.614   0.518
 5246TIP3    H115681   5.683   4.652   0.603
 5246TIP3    H215682   5.619   4.605   0.474
 5247TIP3   OH215683   3.237   2.433   5.381
 5247TIP3    H115684   3.244   2.523   5.412
 5247TIP3    H215685   3.157   2.400   5.421
 5248TIP3   OH215686   3.387   4.895   3.000
 5248TIP3    H115687   3.294   4.885   3.017
 5248TIP3    H215688   3.426   4.812   3.024
 5249TIP3   OH215689   0.115   4.014   4.562
 5249TIP3    H115690   0.165   3.935   4.582
 5249TIP3    H215691   0.087   4.002   4.471
 5250TIP3   OH215692   2.054   0.770   6.136
 5250TIP3    H115693   2.020   0.772   6.226
 5250TIP3    H215694   2.148   0.786   6.146
 5251TIP3   OH215695   0.041   5.948   2.749
 5251TIP3    H115696   0.080   6.003   2.816
 5251TIP3    H215697   0.033   5.862   2.789
 5252TIP3   OH215698   0.363   2.826   5.189
 5252TIP3    H115699   0.310   2.877   5.251
 5252TIP3    H215700   0.307   2.752   5.166
 5253TIP3   OH215701   7.616   7.652   6.516
 5253TIP3    H115702   7.638   7.656   6.609
 5253TIP3    H215703   7.605   7.743   6.489
 5254TIP3   OH215704   3.252   5.513   6.622
 5254TIP3    H115705   3.303   5.442   6.659
 5254TIP3    H215706   3.292   5.592   6.658
 5255TIP3   OH215707   6.117   3.001   3.543
 5255TIP3    H115708   6.105   2.930   3.606
 5255TIP3    H215709   6.092   2.963   3.459
 5256TIP3   OH215710   8.182   0.104   5.524
 5256TIP3    H115711   8.242   0.104   5.449
 5256TIP3    H215712   8.120   0.174   5.505
 5257TIP3   OH215713   3.667   5.808   0.259
 5257TIP3    H115714   3.597   5.778   0.316
 5257TIP3    H215715   3.745   5.808   0.314
 5258TIP3   OH215716   1.142   5.173   6.219
 5258TIP3    H115717   1.173   5.121   6.145
 5258TIP3    H215718   1.066   5.220   6.185
 5259TIP3   OH215719   5.193   0.976   2.711
 5259TIP3    H115720   5.263   0.929   2.666
 5259TIP3    H215721   5.115   0.922   2.696
 5260TIP3   OH215722   2.085   0.332   3.853
 5260TIP3    H115723   2.154   0.282   3.895
 5260TIP3    H215724   2.075   0.410   3.908
 5261TIP3   OH215725   6.639   5.028   3.753
 5261TIP3    H115726   6.723   5.071   3.771
 5261TIP3    H215727   6.589   5.037   3.834
 5262TIP3   OH215728   0.438   3.108   0.682
 5262TIP3    H115729   0.500   3.047   0.723
 5262TIP3    H215730   0.358   3.057   0.671
 5263TIP3   OH215731   6.340   1.998   4.790
 5263TIP3    H115732   6.245   1.990   4.803
 5263TIP3    H215733   6.350   2.016   4.697
 5264TIP3   OH215734   3.388   5.000   5.695
 5264TIP3    H115735   3.398   5.086   5.654
 5264TIP3    H215736   3.357   4.943   5.624
 5265TIP3   OH215737   5.918   3.947   3.793
 5265TIP3    H115738   5.982   4.010   3.825
 5265TIP3    H215739   5.866   3.925   3.871
 5266TIP3   OH215740   1.339   0.800   2.589
 5266TIP3    H115741   1.364   0.858   2.517
 5266TIP3    H215742   1.315   0.718   2.547
 5267TIP3   OH215743   7.422   7.686   5.774
 5267TIP3    H115744   7.481   7.761   5.781
 5267TIP3    H215745   7.438   7.652   5.686
 5268TIP3   OH215746   0.876   1.981   3.100
 5268TIP3    H115747   0.955   1.999   3.048
 5268TIP3    H215748   0.807   1.971   3.035
 5269TIP3   OH215749   4.339   4.166   2.306
 5269TIP3    H115750   4.243   4.167   2.314
 5269TIP3    H215751   4.369   4.129   2.389
 5270TIP3   OH215752   2.690   3.804   2.115
 5270TIP3    H115753   2.684   3.870   2.046
 5270TIP3    H215754   2.665   3.850   2.195
 5271TIP3   OH215755   2.309   0.851   0.325
 5271TIP3    H115756   2.238   0.894   0.373
 5271TIP3    H215757   2.280   0.760   0.315
 5272TIP3   OH215758   8.147   2.603   3.592
 5272TIP3    H115759   8.070   2.549   3.612
 5272TIP3    H215760   8.146   2.612   3.497
 5273TIP3   OH215761   5.013   2.733   1.094
 5273TIP3    H115762   4.973   2.711   1.010
 5273TIP3    H215763   5.106   2.742   1.074
 5274TIP3   OH215764   4.457   4.917   2.922
 5274TIP3    H115765   4.512   4.935   2.998
 5274TIP3    H215766   4.417   4.832   2.940
 5275TIP3   OH215767   6.503   2.025   5.583
 5275TIP3    H115768   6.558   2.088   5.538
 5275TIP3    H215769   6.421   2.073   5.600
 5276TIP3   OH215770   8.249   3.171   6.395
 5276TIP3    H115771   8.197   3.203   6.469
 5276TIP3    H215772   8.294   3.093   6.429
 5277TIP3   OH215773   8.210   7.618   0.815
 5277TIP3    H115774   8.256   7.534   0.811
 5277TIP3    H215775   8.161   7.622   0.733
 5278TIP3   OH215776   7.169   6.141   6.688
 5278TIP3    H115777   7.099   6.078   6.667
 5278TIP3    H215778   7.132   6.226   6.665
 5279TIP3   OH215779   8.286   3.259   1.923
 5279TIP3    H115780   8.287   3.348   1.958
 5279TIP3    H215781   8.306   3.203   1.998
 5280TIP3   OH215782   6.571   2.128   4.651
 5280TIP3    H115783   6.511   2.118   4.725
 5280TIP3    H215784   6.617   2.210   4.667
 5281TIP3   OH215785   7.398   7.266   2.238
 5281TIP3    H115786   7.438   7.321   2.171
 5281TIP3    H215787   7.343   7.326   2.288
 5282TIP3   OH215788   5.896   1.020   6.661
 5282TIP3    H115789   5.924   1.088   6.722
 5282TIP3    H215790   5.977   0.988   6.621
 5283TIP3   OH215791   2.924   5.665   2.662
 5283TIP3    H115792   2.858   5.608   2.623
 5283TIP3    H215793   3.005   5.642   2.616
 5284TIP3   OH215794   3.228   2.594   1.915
 5284TIP3    H115795   3.154   2.651   1.893
 5284TIP3    H215796   3.203   2.508   1.881
 5285TIP3   OH215797   7.555   6.309   0.741
 5285TIP3    H115798   7.551   6.226   0.790
 5285TIP3    H215799   7.502   6.294   0.663
 5286TIP3   OH215800   1.556   4.177   1.217
 5286TIP3    H115801   1.461   4.173   1.208
 5286TIP3    H215802   1.584   4.086   1.217
 5287TIP3   OH215803   7.960   1.053   3.238
 5287TIP3    H115804   7.976   0.982   3.176
 5287TIP3    H215805   8.046   1.091   3.255
 5288TIP3   OH215806   3.971   5.183   3.566
 5288TIP3    H115807   3.889   5.146   3.532
 5288TIP3    H215808   3.963   5.277   3.551
 5289TIP3   OH215809   1.309   7.121   3.462
 5289TIP3    H115810   1.279   7.154   3.547
 5289TIP3    H215811   1.310   7.025   3.473
 5290TIP3   OH215812   1.730   1.220   3.063
 5290TIP3    H115813   1.675   1.262   3.130
 5290TIP3    H215814   1.819   1.243   3.088
 5291TIP3   OH215815   6.051   6.698   4.979
 5291TIP3    H115816   6.002   6.682   5.060
 5291TIP3    H215817   6.132   6.649   4.990
 5292TIP3   OH215818   3.314   3.600   6.296
 5292TIP3    H115819   3.369   3.672   6.266
 5292TIP3    H215820   3.375   3.526   6.304
 5293TIP3   OH215821   4.123   0.125   5.384
 5293TIP3    H115822   4.054   0.168   5.434
 5293TIP3    H215823   4.085   0.112   5.297
 5294TIP3   OH215824   6.782   5.535   6.255
 5294TIP3    H115825   6.763   5.445   6.281
 5294TIP3    H215826   6.702   5.584   6.275
 5295TIP3   OH215827   5.784   7.751   3.479
 5295TIP3    H115828   5.839   7.824   3.451
 5295TIP3    H215829   5.696   7.788   3.483
 5296TIP3   OH215830   2.484   2.950   1.242
 5296TIP3    H115831   2.531   2.878   1.201
 5296TIP3    H215832   2.407   2.910   1.282
 5297TIP3   OH215833   3.155   7.594   3.163
 5297TIP3    H115834   3.215   7.549   3.103
 5297TIP3    H215835   3.161   7.545   3.244
 5298TIP3   OH215836   5.393   4.755   4.966
 5298TIP3    H115837   5.400   4.661   4.987
 5298TIP3    H215838   5.477   4.791   4.995
 5299TIP3   OH215839   7.737   7.607   1.563
 5299TIP3    H115840   7.700   7.689   1.533
 5299TIP3    H215841   7.818   7.597   1.514
 5300TIP3   OH215842   7.573   6.618   2.279
 5300TIP3    H115843   7.541   6.558   2.346
 5300TIP3    H215844   7.518   6.696   2.289
 5301TIP3   OH215845   0.124   5.693   4.798
 5301TIP3    H115846   0.044   5.745   4.790
 5301TIP3    H215847   0.120   5.655   4.886
 5302TIP3   OH215848   1.106   5.181   5.790
 5302TIP3    H115849   1.142   5.128   5.861
 5302TIP3    H215850   1.168   5.255   5.782
 5303TIP3   OH215851   8.132   1.414   0.510
 5303TIP3    H115852   8.190   1.346   0.475
 5303TIP3    H215853   8.059   1.365   0.548
 5304TIP3   OH215854   1.793   6.270   2.741
 5304TIP3    H115855   1.889   6.274   2.752
 5304TIP3    H215856   1.759   6.282   2.830
 5305TIP3   OH215857   3.409   2.184   4.321
 5305TIP3    H115858   3.440   2.211   4.235
 5305TIP3    H215859   3.487   2.185   4.376
 5306TIP3   OH215860   6.858   5.726   0.978
 5306TIP3    H115861   6.780   5.721   0.922
 5306TIP3    H215862   6.931   5.731   0.917
 5307TIP3   OH215863   3.973   4.704   2.553
 5307TIP3    H115864   3.996   4.616   2.584
 5307TIP3    H215865   3.975   4.758   2.632
 5308TIP3   OH215866   7.988   4.294   1.673
 5308TIP3    H115867   8.043   4.269   1.747
 5308TIP3    H215868   7.936   4.367   1.705
 5309TIP3   OH215869   0.997   6.376   6.279
 5309TIP3    H115870   0.994   6.306   6.345
 5309TIP3    H215871   0.917   6.426   6.294
 5310TIP3   OH215872   1.426   0.163   3.830
 5310TIP3    H115873   1.457   0.222   3.762
 5310TIP3    H215874   1.348   0.206   3.866
 5311TIP3   OH215875   3.788   6.913   1.920
 5311TIP3    H115876   3.870   6.890   1.963
 5311TIP3    H215877   3.732   6.945   1.990
 5312TIP3   OH215878   5.953   5.811   3.921
 5312TIP3    H115879   6.031   5.821   3.865
 5312TIP3    H215880   5.942   5.717   3.930
 5313TIP3   OH215881   1.638   4.094   1.551
 5313TIP3    H115882   1.698   4.149   1.501
 5313TIP3    H215883   1.631   4.013   1.499
 5314TIP3   OH215884   6.757   6.100   6.308
 5314TIP3    H115885   6.753   6.163   6.236
 5314TIP3    H215886   6.668   6.066   6.315
 5315TIP3   OH215887   1.510   3.573   2.718
 5315TIP3    H115888   1.591   3.575   2.667
 5315TIP3    H215889   1.490   3.665   2.736
 5316TIP3   OH215890   4.781   4.315   0.826
 5316TIP3    H115891   4.828   4.263   0.761
 5316TIP3    H215892   4.849   4.355   0.879
 5317TIP3   OH215893   2.791   1.644   3.839
 5317TIP3    H115894   2.765   1.712   3.901
 5317TIP3    H215895   2.714   1.588   3.830
 5318TIP3   OH215896   1.135   2.550   0.122
 5318TIP3    H115897   1.095   2.525   0.039
 5318TIP3    H215898   1.224   2.514   0.118
 5319TIP3   OH215899   2.236   0.818   5.022
 5319TIP3    H115900   2.297   0.836   5.093
 5319TIP3    H215901   2.229   0.722   5.020
 5320TIP3   OH215902   0.763   3.347   3.687
 5320TIP3    H115903   0.761   3.430   3.639
 5320TIP3    H215904   0.740   3.281   3.622
 5321TIP3   OH215905   5.243   6.531   3.566
 5321TIP3    H115906   5.186   6.496   3.635
 5321TIP3    H215907   5.332   6.515   3.598
 5322TIP3   OH215908   5.859   1.658   4.034
 5322TIP3    H115909   5.895   1.616   4.112
 5322TIP3    H215910   5.800   1.591   3.996
 5323TIP3   OH215911   3.001   6.982   3.269
 5323TIP3    H115912   3.064   7.052   3.281
 5323TIP3    H215913   3.011   6.956   3.177
 5324TIP3   OH215914   2.351   2.408   1.716
 5324TIP3    H115915   2.272   2.365   1.683
 5324TIP3    H215916   2.339   2.411   1.811
 5325TIP3   OH215917   2.161   2.415   4.943
 5325TIP3    H115918   2.076   2.455   4.962
 5325TIP3    H215919   2.192   2.382   5.027
 5326TIP3   OH215920   2.679   5.892   5.750
 5326TIP3    H115921   2.653   5.909   5.841
 5326TIP3    H215922   2.751   5.830   5.757
 5327TIP3   OH215923   1.992   4.929   5.504
 5327TIP3    H115924   2.051   4.868   5.460
 5327TIP3    H215925   1.992   5.007   5.448
 5328TIP3   OH215926   7.190   6.293   1.359
 5328TIP3    H115927   7.252   6.241   1.309
 5328TIP3    H215928   7.138   6.339   1.293
 5329TIP3   OH215929   5.455   1.969   4.012
 5329TIP3    H115930   5.515   1.997   4.082
 5329TIP3    H215931   5.384   2.034   4.014
 5330TIP3   OH215932   5.088   6.348   2.779
 5330TIP3    H115933   5.170   6.364   2.825
 5330TIP3    H215934   5.114   6.335   2.687
 5331TIP3   OH215935   8.227   7.343   5.333
 5331TIP3    H115936   8.154   7.386   5.377
 5331TIP3    H215937   8.206   7.250   5.336
 5332TIP3   OH215938   6.497   4.349   0.212
 5332TIP3    H115939   6.592   4.337   0.222
 5332TIP3    H215940   6.486   4.379   0.122
 5333TIP3   OH215941   1.826   1.992   0.010
 5333TIP3    H115942   1.769   2.013   0.083
 5333TIP3    H215943   1.887   2.066   0.006
 5334TIP3   OH215944   6.768   3.826   6.427
 5334TIP3    H115945   6.734   3.893   6.368
 5334TIP3    H215946   6.696   3.810   6.488
 5335TIP3   OH215947   6.714   6.562   4.037
 5335TIP3    H115948   6.623   6.556   4.007
 5335TIP3    H215949   6.737   6.473   4.061
 5336TIP3   OH215950   6.398   1.075   0.670
 5336TIP3    H115951   6.491   1.072   0.693
 5336TIP3    H215952   6.388   1.010   0.600
 5337TIP3   OH215953   4.978   7.705   1.096
 5337TIP3    H115954   4.902   7.748   1.056
 5337TIP3    H215955   4.958   7.703   1.189
 5338TIP3   OH215956   2.872   5.412   2.846
 5338TIP3    H115957   2.817   5.490   2.854
 5338TIP3    H215958   2.873   5.374   2.934
 5339TIP3   OH215959   0.199   4.396   6.570
 5339TIP3    H115960   0.107   4.367   6.570
 5339TIP3    H215961   0.197   4.482   6.612
 5340TIP3   OH215962   2.996   7.630   2.064
 5340TIP3    H115963   2.945   7.694   2.014
 5340TIP3    H215964   3.084   7.637   2.028
 5341TIP3   OH215965   2.903   3.400   3.842
 5341TIP3    H115966   2.932   3.403   3.751
 5341TIP3    H215967   2.941   3.479   3.882
 5342TIP3   OH215968   1.200   4.334   5.449
 5342TIP3    H115969   1.181   4.428   5.448
 5342TIP3    H215970   1.261   4.323   5.522
 5343TIP3   OH215971   0.399   3.412   0.097
 5343TIP3    H115972   0.475   3.355   0.099
 5343TIP3    H215973   0.393   3.448   0.185
 5344TIP3   OH215974   3.095   6.237   0.915
 5344TIP3    H115975   3.083   6.223   0.821
 5344TIP3    H215976   3.014   6.205   0.954
 5345TIP3   OH215977   2.322   4.944   6.335
 5345TIP3    H115978   2.349   4.873   6.278
 5345TIP3    H215979   2.228   4.952   6.320
 5346TIP3   OH215980   6.383   2.363   5.814
 5346TIP3    H115981   6.419   2.274   5.821
 5346TIP3    H215982   6.441   2.416   5.869
 5347TIP3   OH215983   2.720   6.732   2.246
 5347TIP3    H115984   2.726   6.772   2.159
 5347TIP3    H215985   2.632   6.755   2.277
 5348TIP3   OH215986   2.908   0.619   0.545
 5348TIP3    H115987   3.002   0.614   0.526
 5348TIP3    H215988   2.901   0.587   0.635
 5349TIP3   OH215989   6.652   1.687   6.260
 5349TIP3    H115990   6.577   1.635   6.232
 5349TIP3    H215991   6.641   1.696   6.355
 5350TIP3   OH215992   1.781   6.925   1.923
 5350TIP3    H115993   1.744   6.851   1.970
 5350TIP3    H215994   1.833   6.886   1.853
 5351TIP3   OH215995   0.021   3.288   4.453
 5351TIP3    H115996  -0.017   3.214   4.407
 5351TIP3    H215997   0.023   3.359   4.388
 5352TIP3   OH215998   2.551   0.660   5.426
 5352TIP3    H115999   2.577   0.741   5.469
 5352TIP3    H216000   2.554   0.680   5.333
 5353TIP3   OH216001   7.167   2.956   0.894
 5353TIP3    H116002   7.191   2.946   0.986
 5353TIP3    H216003   7.092   2.898   0.882
 5354TIP3   OH216004   2.904   5.255   0.413
 5354TIP3    H116005   2.900   5.161   0.397
 5354TIP3    H216006   2.942   5.263   0.501
 5355TIP3   OH216007   0.153   6.847   0.915
 5355TIP3    H116008   0.112   6.891   0.989
 5355TIP3    H216009   0.084   6.791   0.879
 5356TIP3   OH216010   1.416   4.986   5.741
 5356TIP3    H116011   1.474   5.059   5.720
 5356TIP3    H216012   1.435   4.965   5.832
 5357TIP3   OH216013   1.103   4.799   1.539
 5357TIP3    H116014   1.030   4.811   1.479
 5357TIP3    H216015   1.088   4.864   1.608
 5358TIP3   OH216016   3.160   5.626   2.026
 5358TIP3    H116017   3.128   5.563   2.091
 5358TIP3    H216018   3.117   5.600   1.944
 5359TIP3   OH216019   7.127   2.535   4.092
 5359TIP3    H116020   7.066   2.592   4.045
 5359TIP3    H216021   7.091   2.530   4.181
 5360TIP3   OH216022   2.763   0.337   3.767
 5360TIP3    H116023   2.810   0.283   3.703
 5360TIP3    H216024   2.831   0.391   3.807
 5361TIP3   OH216025   2.932   0.786   0.837
 5361TIP3    H116026   2.952   0.864   0.890
 5361TIP3    H216027   3.013   0.770   0.788
 5362TIP3   OH216028   2.220   5.808   0.141
 5362TIP3    H116029   2.286   5.791   0.208
 5362TIP3    H216030   2.245   5.754   0.067
 5363TIP3   OH216031   0.310   6.879   5.355
 5363TIP3    H116032   0.370   6.817   5.311
 5363TIP3    H216033   0.241   6.823   5.391
 5364TIP3   OH216034   8.224   0.291   1.811
 5364TIP3    H116035   8.148   0.242   1.779
 5364TIP3    H216036   8.236   0.362   1.747
 5365TIP3   OH216037   6.532   7.239   4.233
 5365TIP3    H116038   6.536   7.183   4.310
 5365TIP3    H216039   6.474   7.193   4.172
 5366TIP3   OH216040   0.843   0.655   1.520
 5366TIP3    H116041   0.842   0.628   1.428
 5366TIP3    H216042   0.783   0.730   1.523
 5367TIP3   OH216043   4.881   1.744   5.736
 5367TIP3    H116044   4.915   1.671   5.789
 5367TIP3    H216045   4.945   1.814   5.747
 5368TIP3   OH216046   1.425   3.184   1.129
 5368TIP3    H116047   1.355   3.248   1.143
 5368TIP3    H216048   1.496   3.234   1.090
 5369TIP3   OH216049   7.128   6.760   5.707
 5369TIP3    H116050   7.209   6.711   5.719
 5369TIP3    H216051   7.091   6.766   5.795
 5370TIP3   OH216052   6.252   5.484   1.300
 5370TIP3    H116053   6.252   5.401   1.346
 5370TIP3    H216054   6.199   5.542   1.355
 5371TIP3   OH216055   4.922   2.275   5.143
 5371TIP3    H116056   4.881   2.200   5.187
 5371TIP3    H216057   5.016   2.257   5.147
 5372TIP3   OH216058   3.304   3.185   6.612
 5372TIP3    H116059   3.294   3.114   6.548
 5372TIP3    H216060   3.307   3.141   6.696
 5373TIP3   OH216061   6.981   6.581   2.855
 5373TIP3    H116062   7.038   6.571   2.779
 5373TIP3    H216063   7.003   6.668   2.890
 5374TIP3   OH216064   8.072   2.034   0.479
 5374TIP3    H116065   8.116   2.100   0.424
 5374TIP3    H216066   7.979   2.048   0.463
 5375TIP3   OH216067   0.641   2.749   4.741
 5375TIP3    H116068   0.683   2.827   4.706
 5375TIP3    H216069   0.583   2.782   4.811
 5376TIP3   OH216070   0.159   3.756   5.995
 5376TIP3    H116071   0.199   3.693   5.936
 5376TIP3    H216072   0.233   3.804   6.033
 5377TIP3   OH216073   0.587   7.632   3.564
 5377TIP3    H116074   0.609   7.619   3.656
 5377TIP3    H216075   0.613   7.549   3.522
 5378TIP3   OH216076   1.253   0.095   0.508
 5378TIP3    H116077   1.224   0.129   0.423
 5378TIP3    H216078   1.309   0.164   0.544
 5379TIP3   OH216079   0.613   7.830   6.283
 5379TIP3    H116080   0.655   7.750   6.252
 5379TIP3    H216081   0.678   7.870   6.341
 5380TIP3   OH216082   6.770   1.355   1.250
 5380TIP3    H116083   6.838   1.333   1.187
 5380TIP3    H216084   6.696   1.385   1.196
 5381TIP3   OH216085   6.143   6.897   0.895
 5381TIP3    H116086   6.125   6.983   0.935
 5381TIP3    H216087   6.147   6.837   0.969
 5382TIP3   OH216088   3.188   1.952   2.689
 5382TIP3    H116089   3.149   1.982   2.771
 5382TIP3    H216090   3.118   1.901   2.647
 5383TIP3   OH216091   7.634   1.898   4.362
 5383TIP3    H116092   7.546   1.873   4.392
 5383TIP3    H216093   7.629   1.993   4.351
 5384TIP3   OH216094   8.151   1.377   3.483
 5384TIP3    H116095   8.140   1.285   3.509
 5384TIP3    H216096   8.183   1.372   3.393
 5385TIP3   OH216097   8.010   2.046   2.503
 5385TIP3    H116098   8.103   2.056   2.483
 5385TIP3    H216099   7.966   2.063   2.419
 5386TIP3   OH216100   3.196   4.838   6.055
 5386TIP3    H116101   3.209   4.754   6.011
 5386TIP3    H216102   3.284   4.876   6.061
 5387TIP3   OH216103   2.195   6.850   3.771
 5387TIP3    H116104   2.183   6.907   3.847
 5387TIP3    H216105   2.270   6.888   3.724
 5388TIP3   OH216106   5.114   0.726   1.964
 5388TIP3    H116107   5.109   0.648   2.020
 5388TIP3    H216108   5.045   0.713   1.899
 5389TIP3   OH216109   6.110   0.088   2.847
 5389TIP3    H116110   6.109   0.077   2.752
 5389TIP3    H216111   6.142   0.004   2.881
 5390TIP3   OH216112   1.061   5.021   1.708
 5390TIP3    H116113   0.983   5.068   1.678
 5390TIP3    H216114   1.032   4.974   1.787
 5391TIP3   OH216115   6.915   2.427   1.703
 5391TIP3    H116116   6.836   2.476   1.728
 5391TIP3    H216117   6.982   2.459   1.763
 5392TIP3   OH216118   3.704   4.019   1.064
 5392TIP3    H116119   3.706   3.950   1.131
 5392TIP3    H216120   3.638   4.081   1.096
 5393TIP3   OH216121   0.943   1.027   3.536
 5393TIP3    H116122   0.889   1.057   3.463
 5393TIP3    H216123   1.028   1.007   3.497
 5394TIP3   OH216124   7.924   4.136   3.022
 5394TIP3    H116125   8.001   4.125   3.077
 5394TIP3    H216126   7.951   4.198   2.955
 5395TIP3   OH216127   0.766   5.061   3.795
 5395TIP3    H116128   0.840   5.119   3.814
 5395TIP3    H216129   0.694   5.098   3.845
 5396TIP3   OH216130   1.328   0.188   2.969
 5396TIP3    H116131   1.316   0.095   2.950
 5396TIP3    H216132   1.270   0.232   2.907
 5397TIP3   OH216133   1.193   2.156   2.515
 5397TIP3    H116134   1.118   2.121   2.466
 5397TIP3    H216135   1.247   2.199   2.449
 5398TIP3   OH216136   0.993   2.478   5.473
 5398TIP3    H116137   1.055   2.448   5.540
 5398TIP3    H216138   1.014   2.426   5.396
 5399TIP3   OH216139   7.211   0.684   0.705
 5399TIP3    H116140   7.247   0.767   0.677
 5399TIP3    H216141   7.207   0.630   0.626
 5400TIP3   OH216142   4.197   6.550   4.691
 5400TIP3    H116143   4.224   6.513   4.775
 5400TIP3    H216144   4.102   6.557   4.698
 5401TIP3   OH216145   5.675   2.017   3.238
 5401TIP3    H116146   5.697   1.924   3.237
 5401TIP3    H216147   5.652   2.036   3.329
 5402TIP3   OH216148   0.769   3.000   4.020
 5402TIP3    H116149   0.731   2.913   4.027
 5402TIP3    H216150   0.729   3.050   4.092
 5403TIP3   OH216151   7.789   6.834   3.941
 5403TIP3    H116152   7.832   6.823   4.026
 5403TIP3    H216153   7.788   6.928   3.926
 5404TIP3   OH216154   4.781   7.690   5.294
 5404TIP3    H116155   4.854   7.737   5.253
 5404TIP3    H216156   4.712   7.691   5.228
 5405TIP3   OH216157   1.012   2.251   1.914
 5405TIP3    H116158   1.070   2.287   1.981
 5405TIP3    H216159   0.977   2.328   1.869
 5406TIP3   OH216160   6.387   0.417   0.697
 5406TIP3    H116161   6.476   0.443   0.719
 5406TIP3    H216162   6.379   0.435   0.603
 5407TIP3   OH216163   2.471   6.677   0.156
 5407TIP3    H116164   2.406   6.667   0.086
 5407TIP3    H216165   2.529   6.747   0.124
 5408TIP3   OH216166   2.455   5.128   6.500
 5408TIP3    H116167   2.424   5.044   6.465
 5408TIP3    H216168   2.455   5.186   6.424
 5409TIP3   OH216169   5.508   1.954   4.597
 5409TIP3    H116170   5.598   1.968   4.567
 5409TIP3    H216171   5.464   1.912   4.524
 5410TIP3   OH216172   5.695   2.464   4.160
 5410TIP3    H116173   5.650   2.535   4.208
 5410TIP3    H216174   5.753   2.510   4.099
 5411TIP3   OH216175   3.408   3.336   3.140
 5411TIP3    H116176   3.358   3.264   3.102
 5411TIP3    H216177   3.351   3.370   3.210
 5412TIP3   OH216178   0.785   3.768   3.248
 5412TIP3    H116179   0.824   3.701   3.192
 5412TIP3    H216180   0.857   3.798   3.302
 5413TIP3   OH216181   7.738   4.567   1.071
 5413TIP3    H116182   7.740   4.511   0.993
 5413TIP3    H216183   7.808   4.535   1.127
 5414TIP3   OH216184   1.004   6.517   5.175
 5414TIP3    H116185   0.926   6.502   5.228
 5414TIP3    H216186   1.003   6.446   5.110
 5415TIP3   OH216187   5.257   4.804   1.587
 5415TIP3    H116188   5.231   4.895   1.572
 5415TIP3    H216189   5.344   4.797   1.547
 5416TIP3   OH216190   1.893   6.173   3.645
 5416TIP3    H116191   1.874   6.266   3.653
 5416TIP3    H216192   1.984   6.164   3.673
 5417TIP3   OH216193   6.979   5.970   1.756
 5417TIP3    H116194   7.072   5.963   1.732
 5417TIP3    H216195   6.978   6.029   1.832
 5418TIP3   OH216196   5.064   1.546   3.030
 5418TIP3    H116197   5.133   1.502   2.979
 5418TIP3    H216198   4.989   1.548   2.970
 5419TIP3   OH216199   1.711   4.137   2.265
 5419TIP3    H116200   1.673   4.224   2.268
 5419TIP3    H216201   1.737   4.125   2.174
 5420TIP3   OH216202   3.165   0.520   1.536
 5420TIP3    H116203   3.133   0.474   1.614
 5420TIP3    H216204   3.176   0.452   1.470
 5421TIP3   OH216205   7.775   2.173   1.782
 5421TIP3    H116206   7.735   2.150   1.698
 5421TIP3    H216207   7.868   2.153   1.770
 5422TIP3   OH216208   7.640   4.143   4.908
 5422TIP3    H116209   7.669   4.124   4.819
 5422TIP3    H216210   7.544   4.143   4.903
 5423TIP3   OH216211   6.351   5.358   5.744
 5423TIP3    H116212   6.397   5.277   5.725
 5423TIP3    H216213   6.278   5.332   5.800
 5424TIP3   OH216214   0.872   0.349   0.573
 5424TIP3    H116215   0.929   0.310   0.639
 5424TIP3    H216216   0.808   0.399   0.623
 5425TIP3   OH216217   1.740   5.503   4.462
 5425TIP3    H116218   1.748   5.440   4.391
 5425TIP3    H216219   1.803   5.473   4.528
 5426TIP3   OH216220   0.679   5.958   6.347
 5426TIP3    H116221   0.669   5.901   6.271
 5426TIP3    H216222   0.768   5.940   6.378
 5427TIP3   OH216223   4.798   5.936   2.250
 5427TIP3    H116224   4.754   5.868   2.198
 5427TIP3    H216225   4.887   5.905   2.261
 5428TIP3   OH216226   4.731   1.308   2.945
 5428TIP3    H116227   4.755   1.274   3.032
 5428TIP3    H216228   4.725   1.403   2.957
 5429TIP3   OH216229   3.167   7.037   3.840
 5429TIP3    H116230   3.137   6.947   3.842
 5429TIP3    H216231   3.250   7.035   3.792
 5430TIP3   OH216232   4.978   7.627   5.612
 5430TIP3    H116233   5.009   7.698   5.556
 5430TIP3    H216234   4.888   7.651   5.635
 5431TIP3   OH216235   3.842   3.913   2.295
 5431TIP3    H116236   3.808   3.824   2.294
 5431TIP3    H216237   3.832   3.941   2.386
 5432TIP3   OH216238   7.965   7.487   5.409
 5432TIP3    H116239   7.979   7.563   5.353
 5432TIP3    H216240   7.915   7.426   5.354
 5433TIP3   OH216241   0.608   2.573   3.193
 5433TIP3    H116242   0.642   2.659   3.168
 5433TIP3    H216243   0.678   2.512   3.172
 5434TIP3   OH216244   3.518   7.136   1.473
 5434TIP3    H116245   3.549   7.080   1.402
 5434TIP3    H216246   3.580   7.121   1.544
 5435TIP3   OH216247   1.401   4.177   4.157
 5435TIP3    H116248   1.416   4.266   4.125
 5435TIP3    H216249   1.326   4.185   4.215
 5436TIP3   OH216250   1.402   0.388   6.051
 5436TIP3    H116251   1.359   0.430   6.126
 5436TIP3    H216252   1.364   0.431   5.975
 5437TIP3   OH216253   5.206   2.678   5.249
 5437TIP3    H116254   5.126   2.662   5.200
 5437TIP3    H216255   5.269   2.616   5.211
 5438TIP3   OH216256   3.655   3.817   4.267
 5438TIP3    H116257   3.684   3.848   4.181
 5438TIP3    H216258   3.562   3.842   4.272
 5439TIP3   OH216259   5.566   4.156   2.740
 5439TIP3    H116260   5.512   4.164   2.661
 5439TIP3    H216261   5.640   4.102   2.713
 5440TIP3   OH216262   5.410   3.471   1.137
 5440TIP3    H116263   5.473   3.399   1.129
 5440TIP3    H216264   5.451   3.532   1.199
 5441TIP3   OH216265   2.966   3.892   0.855
 5441TIP3    H116266   2.899   3.905   0.789
 5441TIP3    H216267   2.919   3.896   0.938
 5442TIP3   OH216268   4.323   4.673   2.972
 5442TIP3    H116269   4.241   4.630   2.945
 5442TIP3    H216270   4.376   4.601   3.007
 5443TIP3   OH216271   0.350   2.102   2.394
 5443TIP3    H116272   0.279   2.162   2.417
 5443TIP3    H216273   0.388   2.077   2.478
 5444TIP3   OH216274   1.467   4.747   5.577
 5444TIP3    H116275   1.452   4.834   5.615
 5444TIP3    H216276   1.521   4.702   5.642
 5445TIP3   OH216277   0.507   5.673   6.226
 5445TIP3    H116278   0.573   5.729   6.184
 5445TIP3    H216279   0.549   5.644   6.308
 5446TIP3   OH216280   1.045   3.052   3.597
 5446TIP3    H116281   0.984   2.989   3.560
 5446TIP3    H216282   1.080   3.009   3.675
 5447TIP3   OH216283   3.330   2.601   2.663
 5447TIP3    H116284   3.342   2.581   2.755
 5447TIP3    H216285   3.401   2.556   2.619
 5448TIP3   OH216286   6.582   0.258   4.359
 5448TIP3    H116287   6.643   0.248   4.432
 5448TIP3    H216288   6.539   0.173   4.352
 5449TIP3   OH216289   0.371   5.219   4.997
 5449TIP3    H116290   0.396   5.291   5.055
 5449TIP3    H216291   0.302   5.173   5.045
 5450TIP3   OH216292   2.376   6.646   1.330
 5450TIP3    H116293   2.382   6.610   1.418
 5450TIP3    H216294   2.432   6.724   1.331
 5451TIP3   OH216295   7.881   0.138   4.317
 5451TIP3    H116296   7.917   0.154   4.230
 5451TIP3    H216297   7.796   0.182   4.317
 5452TIP3   OH216298   6.861   3.026   2.508
 5452TIP3    H116299   6.889   3.090   2.573
 5452TIP3    H216300   6.767   3.014   2.524
 5453TIP3   OH216301   5.924   1.611   0.144
 5453TIP3    H116302   5.984   1.538   0.130
 5453TIP3    H216303   5.900   1.641   0.057
 5454TIP3   OH216304   3.180   3.655   5.777
 5454TIP3    H116305   3.240   3.681   5.707
 5454TIP3    H216306   3.222   3.685   5.857
 5455TIP3   OH216307   6.806   3.806   4.543
 5455TIP3    H116308   6.840   3.895   4.537
 5455TIP3    H216309   6.788   3.781   4.452
 5456TIP3   OH216310   6.905   1.581   6.174
 5456TIP3    H116311   6.836   1.631   6.217
 5456TIP3    H216312   6.951   1.645   6.120
 5457TIP3   OH216313   4.120   1.555   4.539
 5457TIP3    H116314   4.206   1.552   4.497
 5457TIP3    H216315   4.097   1.647   4.541
 5458TIP3   OH216316   5.334   6.965   3.026
 5458TIP3    H116317   5.276   7.033   2.991
 5458TIP3    H216318   5.392   7.011   3.086
 5459TIP3   OH216319   7.508   7.443   2.766
 5459TIP3    H116320   7.424   7.421   2.725
 5459TIP3    H216321   7.502   7.407   2.854
 5460TIP3   OH216322   5.071   5.036   4.048
 5460TIP3    H116323   5.047   5.119   4.089
 5460TIP3    H216324   5.039   5.044   3.958
 5461TIP3   OH216325   1.077   3.536   3.523
 5461TIP3    H116326   1.010   3.560   3.587
 5461TIP3    H216327   1.030   3.538   3.439
 5462TIP3   OH216328   3.743   0.409   5.990
 5462TIP3    H116329   3.795   0.489   5.977
 5462TIP3    H216330   3.803   0.349   6.034
 5463TIP3   OH216331   7.343   6.274   5.747
 5463TIP3    H116332   7.322   6.235   5.662
 5463TIP3    H216333   7.399   6.210   5.790
 5464TIP3   OH216334   4.746   7.467   4.329
 5464TIP3    H116335   4.736   7.505   4.416
 5464TIP3    H216336   4.705   7.381   4.335
 5465TIP3   OH216337   0.020   0.540   3.588
 5465TIP3    H116338   0.077   0.537   3.665
 5465TIP3    H216339   0.079   0.554   3.514
 5466TIP3   OH216340   2.409   6.139   3.510
 5466TIP3    H116341   2.493   6.121   3.467
 5466TIP3    H216342   2.428   6.134   3.603
 5467TIP3   OH216343   0.351   5.412   3.580
 5467TIP3    H116344   0.393   5.462   3.510
 5467TIP3    H216345   0.389   5.448   3.660
 5468TIP3   OH216346   0.002   4.292   2.377
 5468TIP3    H116347  -0.075   4.348   2.390
 5468TIP3    H216348   0.060   4.314   2.450
 5469TIP3   OH216349   7.908   3.167   2.208
 5469TIP3    H116350   7.883   3.136   2.295
 5469TIP3    H216351   7.829   3.158   2.155
 5470TIP3   OH216352   8.233   6.046   4.883
 5470TIP3    H116353   8.286   6.003   4.951
 5470TIP3    H216354   8.297   6.072   4.817
 5471TIP3   OH216355   3.765   1.441   3.977
 5471TIP3    H116356   3.674   1.420   3.997
 5471TIP3    H216357   3.804   1.357   3.952
 5472TIP3   OH216358   7.687   4.122   0.490
 5472TIP3    H116359   7.732   4.113   0.574
 5472TIP3    H216360   7.645   4.037   0.476
 5473TIP3   OH216361   2.057   7.324   1.794
 5473TIP3    H116362   2.152   7.318   1.803
 5473TIP3    H216363   2.023   7.277   1.871
 5474TIP3   OH216364   4.398   0.306   5.324
 5474TIP3    H116365   4.429   0.378   5.269
 5474TIP3    H216366   4.307   0.292   5.295
 5475TIP3   OH216367   6.574   7.091   5.628
 5475TIP3    H116368   6.589   7.151   5.555
 5475TIP3    H216369   6.605   7.006   5.597
 5476TIP3   OH216370   6.931   1.569   0.677
 5476TIP3    H116371   6.856   1.628   0.684
 5476TIP3    H216372   6.941   1.554   0.583
 5477TIP3   OH216373   0.915   2.063   2.542
 5477TIP3    H116374   0.942   1.997   2.606
 5477TIP3    H216375   0.918   2.145   2.590
 5478TIP3   OH216376   4.041   4.658   0.182
 5478TIP3    H116377   4.045   4.727   0.115
 5478TIP3    H216378   4.107   4.595   0.154
 5479TIP3   OH216379   0.562   0.512   1.949
 5479TIP3    H116380   0.611   0.476   2.023
 5479TIP3    H216381   0.629   0.527   1.882
 5480TIP3   OH216382   6.688   4.113   0.434
 5480TIP3    H116383   6.762   4.067   0.475
 5480TIP3    H216384   6.651   4.048   0.373
 5481TIP3   OH216385   5.736   2.962   3.572
 5481TIP3    H116386   5.791   2.896   3.613
 5481TIP3    H216387   5.680   2.994   3.643
 5482TIP3   OH216388   3.038   1.572   1.146
 5482TIP3    H116389   3.121   1.603   1.109
 5482TIP3    H216390   2.973   1.632   1.111
 5483TIP3   OH216391   6.347   5.091   6.646
 5483TIP3    H116392   6.260   5.056   6.626
 5483TIP3    H216393   6.391   5.095   6.561
 5484TIP3   OH216394   1.918   0.284   5.349
 5484TIP3    H116395   1.912   0.343   5.274
 5484TIP3    H216396   1.921   0.342   5.425
 5485TIP3   OH216397   6.612   5.685   5.763
 5485TIP3    H116398   6.685   5.655   5.818
 5485TIP3    H216399   6.647   5.759   5.714
 5486TIP3   OH216400   2.501   6.850   2.911
 5486TIP3    H116401   2.434   6.789   2.883
 5486TIP3    H216402   2.578   6.795   2.928
 5487TIP3   OH216403   3.875   3.645   6.091
 5487TIP3    H116404   3.885   3.591   6.012
 5487TIP3    H216405   3.829   3.723   6.060
 5488TIP3   OH216406   8.224   1.176   3.259
 5488TIP3    H116407   8.263   1.089   3.262
 5488TIP3    H216408   8.298   1.236   3.250
 5489TIP3   OH216409   5.384   2.943   4.420
 5489TIP3    H116410   5.337   3.026   4.425
 5489TIP3    H216411   5.473   2.967   4.394
 5490TIP3   OH216412   0.134   6.006   5.305
 5490TIP3    H116413   0.183   6.041   5.379
 5490TIP3    H216414   0.058   6.064   5.296
 5491TIP3   OH216415   2.157   4.305   1.923
 5491TIP3    H116416   2.067   4.287   1.897
 5491TIP3    H216417   2.210   4.241   1.876
 5492TIP3   OH216418   4.759   6.065   1.885
 5492TIP3    H116419   4.756   5.969   1.888
 5492TIP3    H216420   4.669   6.092   1.903
 5493TIP3   OH216421   5.186   2.487   1.470
 5493TIP3    H116422   5.176   2.407   1.522
 5493TIP3    H216423   5.154   2.557   1.527
 5494TIP3   OH216424   3.868   1.936   6.646
 5494TIP3    H116425   3.929   2.010   6.639
 5494TIP3    H216426   3.825   1.950   6.730
 5495TIP3   OH216427   5.188   5.507   5.372
 5495TIP3    H116428   5.165   5.425   5.415
 5495TIP3    H216429   5.118   5.568   5.396
 5496TIP3   OH216430   3.467   7.018   6.356
 5496TIP3    H116431   3.534   7.006   6.289
 5496TIP3    H216432   3.403   7.077   6.316
 5497TIP3   OH216433   4.022   1.026   0.303
 5497TIP3    H116434   4.113   1.013   0.330
 5497TIP3    H216435   3.986   0.937   0.299
 5498TIP3   OH216436   7.700   3.297   4.881
 5498TIP3    H116437   7.789   3.262   4.878
 5498TIP3    H216438   7.660   3.254   4.957
 5499TIP3   OH216439   6.305   7.757   6.488
 5499TIP3    H116440   6.338   7.844   6.465
 5499TIP3    H216441   6.240   7.738   6.420
 5500TIP3   OH216442   6.149   3.834   5.012
 5500TIP3    H116443   6.167   3.791   5.095
 5500TIP3    H216444   6.187   3.921   5.021
 5501TIP3   OH216445   4.960   2.796   0.315
 5501TIP3    H116446   5.029   2.737   0.285
 5501TIP3    H216447   5.002   2.883   0.317
 5502TIP3   OH216448   6.700   5.825   5.293
 5502TIP3    H116449   6.780   5.866   5.261
 5502TIP3    H216450   6.630   5.864   5.241
 5503TIP3   OH216451   4.151   0.317   1.562
 5503TIP3    H116452   4.188   0.235   1.593
 5503TIP3    H216453   4.170   0.319   1.469
 5504TIP3   OH216454   1.425   6.958   1.695
 5504TIP3    H116455   1.344   6.906   1.696
 5504TIP3    H216456   1.397   7.046   1.720
 5505TIP3   OH216457   0.071   6.628   0.310
 5505TIP3    H116458   0.114   6.628   0.395
 5505TIP3    H216459  -0.014   6.587   0.326
 5506TIP3   OH216460   4.849   7.142   6.077
 5506TIP3    H116461   4.771   7.120   6.026
 5506TIP3    H216462   4.917   7.084   6.043
 5507TIP3   OH216463   7.022   6.441   4.670
 5507TIP3    H116464   7.111   6.473   4.656
 5507TIP3    H216465   7.020   6.415   4.762
 5508TIP3   OH216466   4.333   7.659   5.240
 5508TIP3    H116467   4.414   7.662   5.189
 5508TIP3    H216468   4.279   7.730   5.205
 5509TIP3   OH216469   3.177   5.302   5.993
 5509TIP3    H116470   3.137   5.292   6.079
 5509TIP3    H216471   3.142   5.230   5.942
 5510TIP3   OH216472   6.500   2.890   6.786
 5510TIP3    H116473   6.538   2.942   6.715
 5510TIP3    H216474   6.535   2.802   6.773
 5511TIP3   OH216475   0.230   1.258   1.673
 5511TIP3    H116476   0.198   1.282   1.586
 5511TIP3    H216477   0.324   1.245   1.661
 5512TIP3   OH216478   2.101   0.310   6.228
 5512TIP3    H116479   2.104   0.222   6.191
 5512TIP3    H216480   2.059   0.299   6.314
 5513TIP3   OH216481   3.232   1.766   4.442
 5513TIP3    H116482   3.174   1.708   4.491
 5513TIP3    H216483   3.289   1.707   4.393
 5514TIP3   OH216484   7.601   3.126   5.078
 5514TIP3    H116485   7.672   3.069   5.106
 5514TIP3    H216486   7.576   3.175   5.156
 5515TIP3   OH216487   5.058   2.561   3.335
 5515TIP3    H116488   5.038   2.521   3.420
 5515TIP3    H216489   5.028   2.497   3.271
 5516TIP3   OH216490   5.133   5.864   6.252
 5516TIP3    H116491   5.104   5.831   6.337
 5516TIP3    H216492   5.178   5.790   6.212
 5517TIP3   OH216493   3.360   4.097   0.122
 5517TIP3    H116494   3.285   4.041   0.144
 5517TIP3    H216495   3.347   4.176   0.173
 5518TIP3   OH216496   1.500   2.894   6.182
 5518TIP3    H116497   1.589   2.882   6.149
 5518TIP3    H216498   1.512   2.929   6.270
 5519TIP3   OH216499   1.179   5.951   5.889
 5519TIP3    H116500   1.191   6.039   5.852
 5519TIP3    H216501   1.140   5.967   5.975
 5520TIP3   OH216502   3.215   0.973   4.561
 5520TIP3    H116503   3.287   0.972   4.623
 5520TIP3    H216504   3.136   0.974   4.615
 5521TIP3   OH216505   7.277   3.055   4.626
 5521TIP3    H116506   7.310   2.969   4.651
 5521TIP3    H216507   7.182   3.045   4.621
 5522TIP3   OH216508   8.222   4.947   4.449
 5522TIP3    H116509   8.288   4.946   4.379
 5522TIP3    H216510   8.192   5.038   4.452
 5523TIP3   OH216511   0.919   3.686   3.020
 5523TIP3    H116512   0.892   3.606   2.974
 5523TIP3    H216513   0.906   3.756   2.956
 5524TIP3   OH216514   5.089   6.421   3.781
 5524TIP3    H116515   5.004   6.438   3.741
 5524TIP3    H216516   5.084   6.331   3.812
 5525TIP3   OH216517   5.750   1.765   0.513
 5525TIP3    H116518   5.720   1.783   0.602
 5525TIP3    H216519   5.815   1.695   0.523
 5526TIP3   OH216520   3.050   4.563   0.423
 5526TIP3    H116521   2.976   4.538   0.477
 5526TIP3    H216522   3.015   4.570   0.334
 5527TIP3   OH216523   3.679   1.115   3.583
 5527TIP3    H116524   3.766   1.104   3.621
 5527TIP3    H216525   3.682   1.063   3.503
 5528TIP3   OH216526   6.526   2.968   3.418
 5528TIP3    H116527   6.476   2.908   3.473
 5528TIP3    H216528   6.527   3.050   3.467
 5529TIP3   OH216529   1.772   0.691   6.103
 5529TIP3    H116530   1.856   0.737   6.105
 5529TIP3    H216531   1.782   0.619   6.165
 5530TIP3   OH216532   6.201   3.522   3.349
 5530TIP3    H116533   6.207   3.604   3.300
 5530TIP3    H216534   6.224   3.546   3.439
 5531TIP3   OH216535   4.741   2.479   5.911
 5531TIP3    H116536   4.674   2.438   5.857
 5531TIP3    H216537   4.753   2.418   5.984
 5532TIP3   OH216538   8.157   5.894   5.329
 5532TIP3    H116539   8.193   5.866   5.413
 5532TIP3    H216540   8.112   5.816   5.295
 5533TIP3   OH216541   3.057   1.705   2.531
 5533TIP3    H116542   3.039   1.661   2.614
 5533TIP3    H216543   3.103   1.639   2.479
 5534TIP3   OH216544   0.847   6.434   5.557
 5534TIP3    H116545   0.767   6.480   5.581
 5534TIP3    H216546   0.902   6.441   5.635
 5535TIP3   OH216547   6.373   0.452   1.310
 5535TIP3    H116548   6.394   0.379   1.367
 5535TIP3    H216549   6.423   0.436   1.230
 5536TIP3   OH216550   6.764   2.021   0.077
 5536TIP3    H116551   6.833   1.978   0.026
 5536TIP3    H216552   6.724   1.949   0.127
 5537TIP3   OH216553   8.182   7.519   5.138
 5537TIP3    H116554   8.160   7.601   5.182
 5537TIP3    H216555   8.198   7.457   5.209
 5538TIP3   OH216556   6.959   7.522   0.806
 5538TIP3    H116557   6.931   7.577   0.732
 5538TIP3    H216558   6.929   7.434   0.783
 5539TIP3   OH216559   6.109   0.432   3.693
 5539TIP3    H116560   6.052   0.476   3.756
 5539TIP3    H216561   6.051   0.371   3.647
 5540TIP3   OH216562   2.371   1.078   3.231
 5540TIP3    H116563   2.328   1.128   3.301
 5540TIP3    H216564   2.316   1.001   3.220
 5541TIP3   OH216565   7.664   0.933   2.397
 5541TIP3    H116566   7.692   0.856   2.446
 5541TIP3    H216567   7.577   0.953   2.432
 5542TIP3   OH216568   0.150   6.058   2.525
 5542TIP3    H116569   0.197   5.988   2.480
 5542TIP3    H216570   0.113   6.017   2.603
 5543TIP3   OH216571   5.973   6.004   5.684
 5543TIP3    H116572   6.008   5.991   5.596
 5543TIP3    H216573   5.901   5.942   5.691
 5544TIP3   OH216574   6.364   5.763   0.516
 5544TIP3    H116575   6.314   5.797   0.591
 5544TIP3    H216576   6.415   5.691   0.552
 5545TIP3   OH216577   4.353   4.510   5.498
 5545TIP3    H116578   4.287   4.546   5.439
 5545TIP3    H216579   4.352   4.416   5.481
 5546TIP3   OH216580   0.280   7.544   5.141
 5546TIP3    H116581   0.304   7.630   5.174
 5546TIP3    H216582   0.250   7.496   5.218
 5547TIP3   OH216583   6.680   0.517   0.754
 5547TIP3    H116584   6.681   0.433   0.801
 5547TIP3    H216585   6.736   0.574   0.808
 5548TIP3   OH216586   6.172   0.856   2.976
 5548TIP3    H116587   6.095   0.802   2.996
 5548TIP3    H216588   6.149   0.943   3.010
 5549TIP3   OH216589   5.893   5.314   3.522
 5549TIP3    H116590   5.862   5.274   3.441
 5549TIP3    H216591   5.873   5.249   3.590
 5550TIP3   OH216592   0.027   6.257   3.093
 5550TIP3    H116593   0.047   6.323   3.027
 5550TIP3    H216594  -0.065   6.273   3.115
 5551TIP3   OH216595   7.953   5.827   1.718
 5551TIP3    H116596   7.967   5.878   1.798
 5551TIP3    H216597   7.875   5.774   1.737
 5552TIP3   OH216598   2.109   0.549   5.521
 5552TIP3    H116599   2.014   0.556   5.521
 5552TIP3    H216600   2.137   0.599   5.598
 5553TIP3   OH216601   4.196   6.604   0.440
 5553TIP3    H116602   4.274   6.548   0.432
 5553TIP3    H216603   4.124   6.543   0.456
 5554TIP3   OH216604   4.703   6.053   0.052
 5554TIP3    H116605   4.789   6.023   0.020
 5554TIP3    H216606   4.714   6.147   0.062
 5555TIP3   OH216607   6.364   3.023   4.202
 5555TIP3    H116608   6.354   3.038   4.108
 5555TIP3    H216609   6.388   2.931   4.210
 5556TIP3   OH216610   6.740   0.491   3.888
 5556TIP3    H116611   6.790   0.464   3.965
 5556TIP3    H216612   6.653   0.453   3.901
 5557TIP3   OH216613   2.838   6.627   4.239
 5557TIP3    H116614   2.897   6.702   4.244
 5557TIP3    H216615   2.812   6.623   4.147
 5558TIP3   OH216616   3.985   6.959   0.220
 5558TIP3    H116617   3.914   6.895   0.213
 5558TIP3    H216618   3.957   7.018   0.290
 5559TIP3   OH216619   3.395   4.616   3.055
 5559TIP3    H116620   3.387   4.564   2.975
 5559TIP3    H216621   3.364   4.557   3.124
 5560TIP3   OH216622   0.980   0.341   3.995
 5560TIP3    H116623   0.896   0.299   3.976
 5560TIP3    H216624   0.971   0.429   3.959
 5561TIP3   OH216625   6.584   1.032   5.806
 5561TIP3    H116626   6.655   1.096   5.813
 5561TIP3    H216627   6.567   1.026   5.712
 5562TIP3   OH216628   7.210   4.712   2.537
 5562TIP3    H116629   7.245   4.656   2.607
 5562TIP3    H216630   7.283   4.723   2.476
 5563TIP3   OH216631   0.117   3.866   2.148
 5563TIP3    H116632   0.204   3.888   2.115
 5563TIP3    H216633   0.132   3.793   2.208
 5564TIP3   OH216634   3.330   0.948   2.055
 5564TIP3    H116635   3.391   0.970   2.125
 5564TIP3    H216636   3.354   0.860   2.028
 5565TIP3   OH216637   5.816   0.702   1.062
 5565TIP3    H116638   5.876   0.635   1.030
 5565TIP3    H216639   5.736   0.688   1.011
 5566TIP3   OH216640   6.029   6.029   2.188
 5566TIP3    H116641   5.982   6.106   2.222
 5566TIP3    H216642   6.102   6.066   2.139
 5567TIP3   OH216643   6.669   1.133   0.204
 5567TIP3    H116644   6.650   1.044   0.175
 5567TIP3    H216645   6.762   1.132   0.226
 5568TIP3   OH216646   7.592   3.313   3.912
 5568TIP3    H116647   7.645   3.385   3.880
 5568TIP3    H216648   7.640   3.279   3.987
 5569TIP3   OH216649   2.749   2.684   6.466
 5569TIP3    H116650   2.721   2.678   6.557
 5569TIP3    H216651   2.669   2.700   6.416
 5570TIP3   OH216652   5.764   4.521   3.930
 5570TIP3    H116653   5.674   4.546   3.952
 5570TIP3    H216654   5.755   4.436   3.887
 5571TIP3   OH216655   2.354   0.724   2.297
 5571TIP3    H116656   2.289   0.794   2.296
 5571TIP3    H216657   2.396   0.727   2.211
 5572TIP3   OH216658   4.863   0.631   2.946
 5572TIP3    H116659   4.846   0.656   2.855
 5572TIP3    H216660   4.789   0.576   2.971
 5573TIP3   OH216661   2.536   1.266   0.690
 5573TIP3    H116662   2.466   1.327   0.670
 5573TIP3    H216663   2.543   1.269   0.786
 5574TIP3   OH216664   2.375   6.663   3.524
 5574TIP3    H116665   2.368   6.728   3.454
 5574TIP3    H216666   2.323   6.589   3.493
 5575TIP3   OH216667   0.580   4.991   1.555
 5575TIP3    H116668   0.673   4.998   1.537
 5575TIP3    H216669   0.573   4.928   1.627
 5576TIP3   OH216670   3.730   6.584   4.730
 5576TIP3    H116671   3.647   6.617   4.764
 5576TIP3    H216672   3.738   6.622   4.643
 5577TIP3   OH216673   7.653   5.453   0.720
 5577TIP3    H116674   7.680   5.365   0.744
 5577TIP3    H216675   7.649   5.452   0.624
 5578TIP3   OH216676   6.835   3.235   0.693
 5578TIP3    H116677   6.902   3.277   0.639
 5578TIP3    H216678   6.825   3.148   0.655
 5579TIP3   OH216679   2.494   3.658   1.955
 5579TIP3    H116680   2.554   3.704   2.013
 5579TIP3    H216681   2.547   3.635   1.878
 5580TIP3   OH216682   3.537   0.168   1.276
 5580TIP3    H116683   3.494   0.175   1.361
 5580TIP3    H216684   3.592   0.090   1.283
 5581TIP3   OH216685   7.106   4.665   2.126
 5581TIP3    H116686   7.049   4.696   2.196
 5581TIP3    H216687   7.194   4.668   2.163
 5582TIP3   OH216688   2.847   1.640   4.423
 5582TIP3    H116689   2.887   1.713   4.472
 5582TIP3    H216690   2.800   1.590   4.489
 5583TIP3   OH216691   7.151   6.759   4.320
 5583TIP3    H116692   7.062   6.725   4.311
 5583TIP3    H216693   7.168   6.803   4.236
 5584TIP3   OH216694   1.154   3.614   1.273
 5584TIP3    H116695   1.105   3.656   1.203
 5584TIP3    H216696   1.088   3.586   1.336
 5585TIP3   OH216697   3.695   4.836   3.996
 5585TIP3    H116698   3.747   4.896   3.943
 5585TIP3    H216699   3.636   4.893   4.046
 5586TIP3   OH216700   3.048   7.063   4.979
 5586TIP3    H116701   3.034   7.157   4.990
 5586TIP3    H216702   2.986   7.022   5.040
 5587TIP3   OH216703   0.412   4.954   4.249
 5587TIP3    H116704   0.436   4.959   4.157
 5587TIP3    H216705   0.424   5.043   4.282
 5588TIP3   OH216706   6.730   6.283   3.200
 5588TIP3    H116707   6.812   6.249   3.236
 5588TIP3    H216708   6.663   6.258   3.264
 5589TIP3   OH216709   6.975   1.718   3.712
 5589TIP3    H116710   6.994   1.771   3.789
 5589TIP3    H216711   6.903   1.763   3.668
 5590TIP3   OH216712   5.174   6.773   3.412
 5590TIP3    H116713   5.177   6.690   3.460
 5590TIP3    H216714   5.133   6.834   3.473
 5591TIP3   OH216715   3.901   3.695   1.493
 5591TIP3    H116716   3.869   3.738   1.572
 5591TIP3    H216717   3.937   3.612   1.523
 5592TIP3   OH216718   1.712   5.632   0.916
 5592TIP3    H116719   1.673   5.717   0.901
 5592TIP3    H216720   1.655   5.589   0.980
 5593TIP3   OH216721   7.590   2.945   6.616
 5593TIP3    H116722   7.503   2.985   6.622
 5593TIP3    H216723   7.572   2.851   6.607
 5594TIP3   OH216724   7.244   5.463   3.219
 5594TIP3    H116725   7.252   5.385   3.163
 5594TIP3    H216726   7.256   5.537   3.159
 5595TIP3   OH216727   7.879   3.851   4.947
 5595TIP3    H116728   7.836   3.840   4.861
 5595TIP3    H216729   7.971   3.862   4.926
 5596TIP3   OH216730   7.035   3.064   6.333
 5596TIP3    H116731   6.980   3.034   6.261
 5596TIP3    H216732   7.125   3.046   6.303
 5597TIP3   OH216733   4.660   0.887   5.683
 5597TIP3    H116734   4.642   0.912   5.773
 5597TIP3    H216735   4.672   0.792   5.686
 5598TIP3   OH216736   3.719   3.668   2.226
 5598TIP3    H116737   3.725   3.582   2.184
 5598TIP3    H216738   3.632   3.670   2.265
 5599TIP3   OH216739   2.489   5.814   4.760
 5599TIP3    H116740   2.520   5.730   4.727
 5599TIP3    H216741   2.488   5.804   4.855
 5600TIP3   OH216742   4.256   4.847   5.520
 5600TIP3    H116743   4.206   4.919   5.560
 5600TIP3    H216744   4.329   4.890   5.475
 5601TIP3   OH216745   2.491   5.479   2.196
 5601TIP3    H116746   2.518   5.569   2.178
 5601TIP3    H216747   2.571   5.436   2.227
 5602TIP3   OH216748   0.242   3.659   0.991
 5602TIP3    H116749   0.178   3.587   0.996
 5602TIP3    H216750   0.271   3.671   1.081
 5603TIP3   OH216751   0.637   0.886   1.843
 5603TIP3    H116752   0.606   0.916   1.928
 5603TIP3    H216753   0.658   0.967   1.795
 5604TIP3   OH216754   6.885   1.239   2.705
 5604TIP3    H116755   6.899   1.221   2.798
 5604TIP3    H216756   6.809   1.297   2.703
 5605TIP3   OH216757   4.759   2.240   1.371
 5605TIP3    H116758   4.740   2.147   1.362
 5605TIP3    H216759   4.690   2.274   1.428
 5606TIP3   OH216760   2.690   3.354   4.341
 5606TIP3    H116761   2.712   3.268   4.306
 5606TIP3    H216762   2.628   3.335   4.412
 5607TIP3   OH216763   3.393   4.626   2.155
 5607TIP3    H116764   3.380   4.606   2.248
 5607TIP3    H216765   3.434   4.712   2.155
 5608TIP3   OH216766   5.072   2.661   2.094
 5608TIP3    H116767   5.126   2.686   2.169
 5608TIP3    H216768   5.132   2.665   2.019
 5609TIP3   OH216769   6.410   5.531   4.889
 5609TIP3    H116770   6.362   5.592   4.944
 5609TIP3    H216771   6.419   5.452   4.942
 5610TIP3   OH216772   5.756   6.791   1.622
 5610TIP3    H116773   5.690   6.848   1.582
 5610TIP3    H216774   5.706   6.727   1.672
 5611TIP3   OH216775   4.444   6.411   1.580
 5611TIP3    H116776   4.497   6.475   1.627
 5611TIP3    H216777   4.364   6.458   1.556
 5612TIP3   OH216778   1.029   3.845   0.172
 5612TIP3    H116779   1.013   3.908   0.102
 5612TIP3    H216780   1.071   3.897   0.242
 5613TIP3   OH216781   4.732   3.074   0.546
 5613TIP3    H116782   4.805   3.092   0.487
 5613TIP3    H216783   4.725   3.151   0.601
 5614TIP3   OH216784   6.953   0.350   4.024
 5614TIP3    H116785   6.967   0.287   3.953
 5614TIP3    H216786   6.916   0.297   4.095
 5615TIP3   OH216787   4.035   1.885   1.687
 5615TIP3    H116788   3.999   1.970   1.663
 5615TIP3    H216789   3.981   1.857   1.761
 5616TIP3   OH216790   5.885   6.436   6.741
 5616TIP3    H116791   5.891   6.484   6.658
 5616TIP3    H216792   5.935   6.356   6.727
 5617TIP3   OH216793   0.698   3.144   5.156
 5617TIP3    H116794   0.757   3.147   5.231
 5617TIP3    H216795   0.685   3.051   5.138
 5618TIP3   OH216796   6.916   7.565   2.428
 5618TIP3    H116797   6.883   7.594   2.343
 5618TIP3    H216798   6.876   7.479   2.441
 5619TIP3   OH216799   5.737   7.228   3.809
 5619TIP3    H116800   5.798   7.164   3.846
 5619TIP3    H216801   5.792   7.301   3.782
 5620TIP3   OH216802   3.131   4.853   3.087
 5620TIP3    H116803   3.051   4.892   3.051
 5620TIP3    H216804   3.101   4.795   3.157
 5621TIP3   OH216805   7.916   0.882   4.860
 5621TIP3    H116806   7.967   0.862   4.939
 5621TIP3    H216807   7.872   0.965   4.881
 5622TIP3   OH216808   0.661   3.508   2.103
 5622TIP3    H116809   0.701   3.454   2.171
 5622TIP3    H216810   0.572   3.523   2.135
 5623TIP3   OH216811   0.551   5.243   5.703
 5623TIP3    H116812   0.603   5.177   5.750
 5623TIP3    H216813   0.606   5.321   5.701
 5624TIP3   OH216814   4.042   4.802   2.822
 5624TIP3    H116815   4.120   4.826   2.772
 5624TIP3    H216816   4.075   4.748   2.894
 5625TIP3   OH216817   1.606   6.255   2.107
 5625TIP3    H116818   1.556   6.218   2.034
 5625TIP3    H216819   1.696   6.255   2.076
 5626TIP3   OH216820   4.112   3.804   2.272
 5626TIP3    H116821   4.154   3.781   2.189
 5626TIP3    H216822   4.026   3.838   2.246
 5627TIP3   OH216823   2.510   5.210   1.469
 5627TIP3    H116824   2.509   5.286   1.411
 5627TIP3    H216825   2.429   5.217   1.518
 5628TIP3   OH216826   6.015   2.169   3.391
 5628TIP3    H116827   6.012   2.134   3.480
 5628TIP3    H216828   5.924   2.177   3.365
 5629TIP3   OH216829   7.830   5.207   5.087
 5629TIP3    H116830   7.922   5.187   5.107
 5629TIP3    H216831   7.833   5.243   4.998
 5630TIP3   OH216832   7.028   4.949   3.245
 5630TIP3    H116833   6.966   5.015   3.215
 5630TIP3    H216834   7.112   4.979   3.210
 5631TIP3   OH216835   7.467   5.184   2.884
 5631TIP3    H116836   7.497   5.094   2.896
 5631TIP3    H216837   7.547   5.234   2.872
 5632TIP3   OH216838   0.355   4.509   1.513
 5632TIP3    H116839   0.425   4.460   1.556
 5632TIP3    H216840   0.288   4.444   1.493
 5633TIP3   OH216841   5.108   1.748   3.727
 5633TIP3    H116842   5.066   1.760   3.641
 5633TIP3    H216843   5.131   1.655   3.729
 5634TIP3   OH216844   5.060   6.252   5.780
 5634TIP3    H116845   5.143   6.255   5.828
 5634TIP3    H216846   5.078   6.199   5.703
 5635TIP3   OH216847   0.380   3.757   2.832
 5635TIP3    H116848   0.446   3.736   2.766
 5635TIP3    H216849   0.318   3.684   2.828
 5636TIP3   OH216850   2.206   1.943   6.368
 5636TIP3    H116851   2.227   1.898   6.286
 5636TIP3    H216852   2.283   1.930   6.423
 5637TIP3   OH216853   6.945   0.177   5.954
 5637TIP3    H116854   6.933   0.256   5.902
 5637TIP3    H216855   6.910   0.106   5.900
 5638TIP3   OH216856   2.351   1.024   0.966
 5638TIP3    H116857   2.368   0.951   0.906
 5638TIP3    H216858   2.272   1.065   0.931
 5639TIP3   OH216859   7.847   5.336   1.177
 5639TIP3    H116860   7.871   5.427   1.192
 5639TIP3    H216861   7.787   5.315   1.249
 5640TIP3   OH216862   0.440   7.756   1.113
 5640TIP3    H116863   0.422   7.812   1.188
 5640TIP3    H216864   0.456   7.669   1.151
 5641TIP3   OH216865   0.425   6.526   5.830
 5641TIP3    H116866   0.348   6.472   5.809
 5641TIP3    H216867   0.389   6.604   5.872
 5642TIP3   OH216868   6.415   7.246   6.282
 5642TIP3    H116869   6.348   7.185   6.312
 5642TIP3    H216870   6.498   7.206   6.311
 5643TIP3   OH216871   5.109   6.427   1.816
 5643TIP3    H116872   5.084   6.353   1.871
 5643TIP3    H216873   5.030   6.482   1.815
 5644TIP3   OH216874   4.986   4.242   3.719
 5644TIP3    H116875   4.965   4.169   3.777
 5644TIP3    H216876   4.974   4.207   3.631
 5645TIP3   OH216877   1.312   0.002   4.332
 5645TIP3    H116878   1.342   0.002   4.241
 5645TIP3    H216879   1.292   0.093   4.351
 5646TIP3   OH216880   0.977   5.247   3.859
 5646TIP3    H116881   1.070   5.253   3.838
 5646TIP3    H216882   0.968   5.294   3.942
 5647TIP3   OH216883   3.058   6.777   3.775
 5647TIP3    H116884   2.997   6.710   3.745
 5647TIP3    H216885   3.043   6.851   3.717
 5648TIP3   OH216886   7.599   2.919   5.810
 5648TIP3    H116887   7.573   2.882   5.895
 5648TIP3    H216888   7.684   2.961   5.827
 5649TIP3   OH216889   5.549   6.985   1.693
 5649TIP3    H116890   5.504   7.060   1.732
 5649TIP3    H216891   5.479   6.925   1.669
 5650TIP3   OH216892   3.889   1.987   5.721
 5650TIP3    H116893   3.816   1.942   5.679
 5650TIP3    H216894   3.850   2.039   5.790
 5651TIP3   OH216895   3.244   6.682   4.822
 5651TIP3    H116896   3.204   6.595   4.832
 5651TIP3    H216897   3.178   6.742   4.856
 5652TIP3   OH216898   3.523   7.550   2.624
 5652TIP3    H116899   3.502   7.470   2.576
 5652TIP3    H216900   3.597   7.526   2.679
 5653TIP3   OH216901   2.816   1.731   2.991
 5653TIP3    H116902   2.874   1.686   3.053
 5653TIP3    H216903   2.869   1.803   2.957
 5654TIP3   OH216904   1.151   3.328   1.261
 5654TIP3    H116905   1.150   3.423   1.253
 5654TIP3    H216906   1.144   3.312   1.355
 5655TIP3   OH216907   8.175   2.303   1.529
 5655TIP3    H116908   8.090   2.259   1.527
 5655TIP3    H216909   8.237   2.236   1.557
 5656TIP3   OH216910   7.190   5.907   4.572
 5656TIP3    H116911   7.198   5.932   4.480
 5656TIP3    H216912   7.139   5.977   4.612
 5657TIP3   OH216913   2.761   5.012   4.921
 5657TIP3    H116914   2.708   4.939   4.953
 5657TIP3    H216915   2.815   4.974   4.852
 5658TIP3   OH216916   8.193   1.961   1.915
 5658TIP3    H116917   8.157   1.948   2.002
 5658TIP3    H216918   8.286   1.978   1.929
 5659TIP3   OH216919   2.572   1.674   3.654
 5659TIP3    H116920   2.537   1.763   3.644
 5659TIP3    H216921   2.618   1.658   3.572
 5660TIP3   OH216922   7.847   4.748   4.712
 5660TIP3    H116923   7.917   4.685   4.729
 5660TIP3    H216924   7.766   4.696   4.719
 5661TIP3   OH216925   4.541   5.249   6.219
 5661TIP3    H116926   4.463   5.194   6.222
 5661TIP3    H216927   4.532   5.308   6.293
 5662TIP3   OH216928   8.055   6.234   6.468
 5662TIP3    H116929   7.994   6.298   6.432
 5662TIP3    H216930   8.141   6.264   6.440
 5663TIP3   OH216931   7.624   1.764   1.862
 5663TIP3    H116932   7.630   1.678   1.820
 5663TIP3    H216933   7.680   1.821   1.809
 5664TIP3   OH216934   0.615   7.256   5.344
 5664TIP3    H116935   0.608   7.351   5.353
 5664TIP3    H216936   0.552   7.233   5.276
 5665TIP3   OH216937   6.602   1.648   5.096
 5665TIP3    H116938   6.564   1.724   5.053
 5665TIP3    H216939   6.675   1.622   5.039
 5666TIP3   OH216940   4.645   0.746   0.827
 5666TIP3    H116941   4.646   0.748   0.731
 5666TIP3    H216942   4.610   0.660   0.848
 5667TIP3   OH216943   1.218   5.353   3.158
 5667TIP3    H116944   1.206   5.331   3.250
 5667TIP3    H216945   1.178   5.279   3.111
 5668TIP3   OH216946   5.742   4.447   0.763
 5668TIP3    H116947   5.780   4.458   0.676
 5668TIP3    H216948   5.739   4.535   0.799
 5669TIP3   OH216949   1.138   2.778   0.280
 5669TIP3    H116950   1.151   2.697   0.231
 5669TIP3    H216951   1.070   2.825   0.231
 5670TIP3   OH216952   7.324   3.447   3.939
 5670TIP3    H116953   7.418   3.453   3.918
 5670TIP3    H216954   7.293   3.372   3.889
 5671TIP3   OH216955   2.564   6.610   4.329
 5671TIP3    H116956   2.500   6.628   4.259
 5671TIP3    H216957   2.646   6.644   4.295
 5672TIP3   OH216958   6.314   5.897   5.233
 5672TIP3    H116959   6.360   5.817   5.206
 5672TIP3    H216960   6.272   5.928   5.153
 5673TIP3   OH216961   6.346   7.215   3.712
 5673TIP3    H116962   6.274   7.256   3.663
 5673TIP3    H216963   6.379   7.147   3.653
 5674TIP3   OH216964   3.001   3.595   4.012
 5674TIP3    H116965   2.981   3.563   4.100
 5674TIP3    H216966   3.000   3.691   4.021
 5675TIP3   OH216967   6.643   4.443   2.089
 5675TIP3    H116968   6.565   4.498   2.100
 5675TIP3    H216969   6.707   4.501   2.047
 5676TIP3   OH216970   6.564   5.917   3.084
 5676TIP3    H116971   6.575   6.003   3.043
 5676TIP3    H216972   6.629   5.861   3.041
 5677TIP3   OH216973   2.552   2.499   3.439
 5677TIP3    H116974   2.486   2.491   3.508
 5677TIP3    H216975   2.514   2.455   3.363
 5678TIP3   OH216976   6.294  -0.002   6.431
 5678TIP3    H116977   6.305  -0.074   6.493
 5678TIP3    H216978   6.230   0.056   6.473
 5679TIP3   OH216979   7.266   1.641   5.277
 5679TIP3    H116980   7.183   1.637   5.228
 5679TIP3    H216981   7.250   1.707   5.345
 5680TIP3   OH216982   2.818   3.566   6.114
 5680TIP3    H116983   2.901   3.597   6.151
 5680TIP3    H216984   2.805   3.480   6.153
 5681TIP3   OH216985   2.702   5.349   4.932
 5681TIP3    H116986   2.672   5.287   4.998
 5681TIP3    H216987   2.703   5.299   4.851
 5682TIP3   OH216988   5.820   3.305   0.522
 5682TIP3    H116989   5.853   3.358   0.594
 5682TIP3    H216990   5.734   3.341   0.502
 5683TIP3   OH216991   0.299   3.967   5.680
 5683TIP3    H116992   0.368   4.020   5.642
 5683TIP3    H216993   0.267   3.913   5.608
 5684TIP3   OH216994   1.654   2.618   3.650
 5684TIP3    H116995   1.716   2.606   3.722
 5684TIP3    H216996   1.589   2.679   3.685
 5685TIP3   OH216997   3.829   5.269   4.198
 5685TIP3    H116998   3.885   5.192   4.206
 5685TIP3    H216999   3.881   5.341   4.235
 5686TIP3   OH217000   4.505   0.131   1.586
 5686TIP3    H117001   4.465   0.206   1.629
 5686TIP3    H217002   4.466   0.055   1.630
 5687TIP3   OH217003   3.888   7.333   0.016
 5687TIP3    H117004   3.892   7.297   0.105
 5687TIP3    H217005   3.967   7.386   0.008
 5688TIP3   OH217006   8.098   7.348   2.263
 5688TIP3    H117007   8.019   7.298   2.240
 5688TIP3    H217008   8.105   7.414   2.194
 5689TIP3   OH217009   4.990   3.352   5.470
 5689TIP3    H117010   4.953   3.386   5.551
 5689TIP3    H217011   4.970   3.258   5.472
 5690TIP3   OH217012   0.975   3.389   4.380
 5690TIP3    H117013   1.063   3.353   4.388
 5690TIP3    H217014   0.980   3.476   4.420
 5691TIP3   OH217015   1.290   1.666   4.679
 5691TIP3    H117016   1.376   1.691   4.646
 5691TIP3    H217017   1.234   1.741   4.659
 5692TIP3   OH217018   4.420   2.569   3.251
 5692TIP3    H117019   4.360   2.629   3.295
 5692TIP3    H217020   4.506   2.588   3.290
 5693TIP3   OH217021   7.750   6.166   5.647
 5693TIP3    H117022   7.737   6.259   5.627
 5693TIP3    H217023   7.844   6.153   5.638
 5694TIP3   OH217024   7.238   4.906   6.487
 5694TIP3    H117025   7.196   4.910   6.573
 5694TIP3    H217026   7.168   4.880   6.427
 5695TIP3   OH217027   6.477   1.875   2.120
 5695TIP3    H117028   6.503   1.959   2.159
 5695TIP3    H217029   6.556   1.822   2.123
 5696TIP3   OH217030   2.183   1.297   1.632
 5696TIP3    H117031   2.152   1.363   1.693
 5696TIP3    H217032   2.274   1.283   1.655
 5697TIP3   OH217033   1.309   4.036   3.297
 5697TIP3    H117034   1.376   4.001   3.239
 5697TIP3    H217035   1.303   4.129   3.274
 5698TIP3   OH217036   1.330   0.026   1.351
 5698TIP3    H117037   1.401   0.021   1.288
 5698TIP3    H217038   1.335   0.115   1.386
 5699TIP3   OH217039   1.742   1.601   2.813
 5699TIP3    H117040   1.655   1.563   2.799
 5699TIP3    H217041   1.755   1.594   2.908
 5700TIP3   OH217042   2.484   2.123   5.124
 5700TIP3    H117043   2.536   2.065   5.067
 5700TIP3    H217044   2.522   2.210   5.111
 5701TIP3   OH217045   7.041   2.547   1.936
 5701TIP3    H117046   6.949   2.567   1.952
 5701TIP3    H217047   7.089   2.619   1.977
 5702TIP3   OH217048   8.274   2.536   1.585
 5702TIP3    H117049   8.235   2.456   1.551
 5702TIP3    H217050   8.200   2.587   1.617
 5703TIP3   OH217051   0.519   2.280   6.357
 5703TIP3    H117052   0.468   2.353   6.322
 5703TIP3    H217053   0.603   2.319   6.380
 5704TIP3   OH217054   4.966   1.570   6.473
 5704TIP3    H117055   4.888   1.624   6.457
 5704TIP3    H217056   5.016   1.575   6.392
 5705TIP3   OH217057   2.718   6.104   6.806
 5705TIP3    H117058   2.670   6.123   6.725
 5705TIP3    H217059   2.810   6.112   6.782
 5706TIP3   OH217060   6.105   5.772   0.064
 5706TIP3    H117061   6.055   5.691   0.066
 5706TIP3    H217062   6.039   5.841   0.065
 5707TIP3   OH217063   4.799   1.172   3.846
 5707TIP3    H117064   4.824   1.127   3.926
 5707TIP3    H217065   4.727   1.120   3.810
 5708TIP3   OH217066   5.759   5.542   5.116
 5708TIP3    H117067   5.725   5.466   5.068
 5708TIP3    H217068   5.804   5.594   5.049
 5709TIP3   OH217069   6.269   0.368   5.499
 5709TIP3    H117070   6.208   0.377   5.426
 5709TIP3    H217071   6.242   0.436   5.561
 5710TIP3   OH217072   6.544   3.883   0.127
 5710TIP3    H117073   6.578   3.969   0.101
 5710TIP3    H217074   6.502   3.897   0.212
 5711TIP3   OH217075   3.681   1.370   6.165
 5711TIP3    H117076   3.691   1.336   6.076
 5711TIP3    H217077   3.756   1.334   6.212
 5712TIP3   OH217078   3.520   2.462   2.550
 5712TIP3    H117079   3.499   2.440   2.459
 5712TIP3    H217080   3.573   2.388   2.581
 5713TIP3   OH217081   0.201   7.190   4.819
 5713TIP3    H117082   0.272   7.129   4.838
 5713TIP3    H217083   0.149   7.147   4.752
 5714TIP3   OH217084   6.488   5.936   6.613
 5714TIP3    H117085   6.444   5.874   6.671
 5714TIP3    H217086   6.423   5.959   6.548
 5715TIP3   OH217087   2.146   2.044   2.027
 5715TIP3    H117088   2.128   1.952   2.008
 5715TIP3    H217089   2.204   2.072   1.955
 5716TIP3   OH217090   0.747   6.460   6.324
 5716TIP3    H117091   0.691   6.522   6.277
 5716TIP3    H217092   0.732   6.478   6.416
 5717TIP3   OH217093   6.402   5.631   1.828
 5717TIP3    H117094   6.471   5.578   1.868
 5717TIP3    H217095   6.323   5.609   1.876
 5718TIP3   OH217096   6.591   3.083   3.870
 5718TIP3    H117097   6.627   3.069   3.783
 5718TIP3    H217098   6.662   3.123   3.920
 5719TIP3   OH217099   0.773   3.732   2.000
 5719TIP3    H117100   0.836   3.699   1.936
 5719TIP3    H217101   0.757   3.658   2.058
 5720TIP3   OH217102   6.510   3.252   1.950
 5720TIP3    H117103   6.530   3.188   1.881
 5720TIP3    H217104   6.422   3.283   1.928
 5721TIP3   OH217105   8.321   5.289   4.926
 5721TIP3    H117106   8.226   5.302   4.916
 5721TIP3    H217107   8.351   5.266   4.838
 5722TIP3   OH217108   4.304   6.619   1.503
 5722TIP3    H117109   4.273   6.570   1.427
 5722TIP3    H217110   4.224   6.647   1.548
 5723TIP3   OH217111   0.620   5.649   1.657
 5723TIP3    H117112   0.705   5.692   1.662
 5723TIP3    H217113   0.602   5.622   1.747
 5724TIP3   OH217114   1.645   7.100   2.121
 5724TIP3    H117115   1.684   7.077   2.206
 5724TIP3    H217116   1.695   7.048   2.057
 5725TIP3   OH217117   0.466   1.874   4.027
 5725TIP3    H117118   0.451   1.912   4.114
 5725TIP3    H217119   0.401   1.915   3.971
 5726TIP3   OH217120   0.856   5.937   0.442
 5726TIP3    H117121   0.912   5.936   0.365
 5726TIP3    H217122   0.802   5.858   0.434
 5727TIP3   OH217123   2.571   6.107   5.986
 5727TIP3    H117124   2.494   6.160   5.967
 5727TIP3    H217125   2.537   6.018   5.999
 5728TIP3   OH217126   7.378   5.315   3.425
 5728TIP3    H117127   7.368   5.356   3.511
 5728TIP3    H217128   7.335   5.376   3.364
 5729TIP3   OH217129   3.321   5.956   1.898
 5729TIP3    H117130   3.290   6.042   1.869
 5729TIP3    H217131   3.269   5.893   1.848
 5730TIP3   OH217132   3.771   7.438   2.780
 5730TIP3    H117133   3.824   7.374   2.732
 5730TIP3    H217134   3.826   7.517   2.783
 5731TIP3   OH217135   8.216   1.571   4.801
 5731TIP3    H117136   8.286   1.553   4.738
 5731TIP3    H217137   8.146   1.610   4.748
 5732TIP3   OH217138   7.890   1.921   1.201
 5732TIP3    H117139   7.919   2.005   1.238
 5732TIP3    H217140   7.953   1.903   1.132
 5733TIP3   OH217141   7.071   3.257   5.259
 5733TIP3    H117142   7.155   3.278   5.218
 5733TIP3    H217143   7.039   3.341   5.291
 5734TIP3   OH217144   2.274   5.749   0.497
 5734TIP3    H117145   2.205   5.741   0.431
 5734TIP3    H217146   2.239   5.703   0.573
 5735TIP3   OH217147   7.937   3.751   5.578
 5735TIP3    H117148   7.986   3.731   5.498
 5735TIP3    H217149   7.849   3.774   5.547
 5736TIP3   OH217150   3.762   2.846   1.148
 5736TIP3    H117151   3.811   2.905   1.204
 5736TIP3    H217152   3.755   2.892   1.064
 5737TIP3   OH217153   5.836   0.982   1.043
 5737TIP3    H117154   5.825   0.889   1.061
 5737TIP3    H217155   5.830   0.989   0.947
 5738TIP3   OH217156   3.769   2.710   5.553
 5738TIP3    H117157   3.739   2.733   5.641
 5738TIP3    H217158   3.731   2.776   5.496
 5739TIP3   OH217159   4.579   6.139   1.259
 5739TIP3    H117160   4.600   6.197   1.186
 5739TIP3    H217161   4.662   6.093   1.277
 5740TIP3   OH217162   2.370   2.826   0.436
 5740TIP3    H117163   2.385   2.740   0.398
 5740TIP3    H217164   2.275   2.834   0.442
 5741TIP3   OH217165   5.703   2.100   2.177
 5741TIP3    H117166   5.640   2.165   2.145
 5741TIP3    H217167   5.650   2.033   2.219
 5742TIP3   OH217168   4.744   2.895   2.012
 5742TIP3    H117169   4.756   2.974   2.065
 5742TIP3    H217170   4.733   2.825   2.076
 5743TIP3   OH217171   5.415   0.555   0.619
 5743TIP3    H117172   5.473   0.479   0.614
 5743TIP3    H217173   5.342   0.526   0.673
 5744TIP3   OH217174   7.053   6.118   4.714
 5744TIP3    H117175   7.051   6.169   4.794
 5744TIP3    H217176   6.965   6.083   4.705
 5745TIP3   OH217177   7.299   7.740   0.255
 5745TIP3    H117178   7.366   7.712   0.193
 5745TIP3    H217179   7.271   7.826   0.223
 5746TIP3   OH217180   1.133   7.149   3.698
 5746TIP3    H117181   1.195   7.114   3.762
 5746TIP3    H217182   1.058   7.090   3.703
 5747TIP3   OH217183   6.878   7.413   5.585
 5747TIP3    H117184   6.895   7.342   5.523
 5747TIP3    H217185   6.918   7.385   5.667
 5748TIP3   OH217186   1.021   3.371   0.890
 5748TIP3    H117187   1.028   3.423   0.810
 5748TIP3    H217188   0.954   3.306   0.871
 5749TIP3   OH217189   0.968   7.157   6.063
 5749TIP3    H117190   0.959   7.063   6.077
 5749TIP3    H217191   1.058   7.168   6.033
 5750TIP3   OH217192   0.514   1.400   2.414
 5750TIP3    H117193   0.573   1.455   2.363
 5750TIP3    H217194   0.427   1.439   2.401
 5751TIP3   OH217195   3.796   5.578   1.419
 5751TIP3    H117196   3.780   5.626   1.500
 5751TIP3    H217197   3.709   5.566   1.381
 5752TIP3   OH217198   6.416   3.387   6.115
 5752TIP3    H117199   6.323   3.370   6.126
 5752TIP3    H217200   6.425   3.408   6.022
 5753TIP3   OH217201   6.627   2.630   0.293
 5753TIP3    H117202   6.691   2.623   0.364
 5753TIP3    H217203   6.556   2.570   0.319
 5754TIP3   OH217204   2.364   4.657   1.101
 5754TIP3    H117205   2.281   4.662   1.054
 5754TIP3    H217206   2.343   4.683   1.191
 5755TIP3   OH217207   1.256   7.134   5.989
 5755TIP3    H117208   1.338   7.089   5.970
 5755TIP3    H217209   1.244   7.123   6.084
 5756TIP3   OH217210   6.461   6.772   5.826
 5756TIP3    H117211   6.492   6.800   5.740
 5756TIP3    H217212   6.523   6.704   5.852
 5757TIP3   OH217213   0.748   2.206   3.154
 5757TIP3    H117214   0.795   2.282   3.120
 5757TIP3    H217215   0.811   2.134   3.147
 5758TIP3   OH217216   4.972   6.173   3.877
 5758TIP3    H117217   4.901   6.225   3.914
 5758TIP3    H217218   5.033   6.161   3.950
 5759TIP3   OH217219   4.000   2.155   6.358
 5759TIP3    H117220   4.081   2.109   6.334
 5759TIP3    H217221   3.998   2.150   6.454
 5760TIP3   OH217222   3.757   3.347   0.064
 5760TIP3    H117223   3.679   3.392   0.032
 5760TIP3    H217224   3.724   3.282   0.126
 5761TIP3   OH217225   8.067   7.031   3.791
 5761TIP3    H117226   8.063   7.124   3.814
 5761TIP3    H217227   8.016   7.024   3.710
 5762TIP3   OH217228  -0.029   5.334   2.643
 5762TIP3    H117229  -0.117   5.347   2.679
 5762TIP3    H217230   0.010   5.422   2.645
 5763TIP3   OH217231   6.675   3.011   6.288
 5763TIP3    H117232   6.644   3.072   6.220
 5763TIP3    H217233   6.754   2.972   6.251
 5764TIP3   OH217234   2.028   4.638   3.126
 5764TIP3    H117235   1.953   4.695   3.142
 5764TIP3    H217236   2.024   4.573   3.196
 5765TIP3   OH217237   0.588   6.320   3.284
 5765TIP3    H117238   0.518   6.336   3.221
 5765TIP3    H217239   0.569   6.234   3.321
 5766TIP3   OH217240   7.887   7.289   0.994
 5766TIP3    H117241   7.914   7.293   0.902
 5766TIP3    H217242   7.932   7.363   1.035
 5767TIP3   OH217243   2.594   5.585   5.947
 5767TIP3    H117244   2.552   5.668   5.974
 5767TIP3    H217245   2.660   5.569   6.015
 5768TIP3   OH217246   6.112   4.172   4.647
 5768TIP3    H117247   6.144   4.228   4.577
 5768TIP3    H217248   6.176   4.101   4.653
 5769TIP3   OH217249   3.993   7.329   4.843
 5769TIP3    H117250   3.945   7.327   4.926
 5769TIP3    H217251   3.946   7.393   4.790
 5770TIP3   OH217252   3.376   3.633   3.839
 5770TIP3    H117253   3.456   3.581   3.831
 5770TIP3    H217254   3.337   3.630   3.752
 5771TIP3   OH217255   0.910   6.336   2.281
 5771TIP3    H117256   0.905   6.333   2.377
 5771TIP3    H217257   0.931   6.427   2.261
 5772TIP3   OH217258   4.677   0.578   1.466
 5772TIP3    H117259   4.738   0.597   1.395
 5772TIP3    H217260   4.590   0.582   1.424
 5773TIP3   OH217261   2.604   1.315   6.609
 5773TIP3    H117262   2.584   1.252   6.540
 5773TIP3    H217263   2.544   1.293   6.680
 5774TIP3   OH217264   1.433   6.549   0.812
 5774TIP3    H117265   1.487   6.565   0.734
 5774TIP3    H217266   1.409   6.457   0.806
 5775TIP3   OH217267   5.163   4.431   6.425
 5775TIP3    H117268   5.177   4.357   6.484
 5775TIP3    H217269   5.183   4.508   6.480
 5776TIP3   OH217270   2.989   1.594   3.600
 5776TIP3    H117271   3.071   1.594   3.649
 5776TIP3    H217272   2.924   1.627   3.662
 5777TIP3   OH217273   5.459   4.143   6.427
 5777TIP3    H117274   5.448   4.112   6.517
 5777TIP3    H217275   5.425   4.072   6.373
 5778TIP3   OH217276   3.648   1.679   5.079
 5778TIP3    H117277   3.573   1.621   5.066
 5778TIP3    H217278   3.642   1.742   5.007
 5779TIP3   OH217279   0.415   6.593   3.420
 5779TIP3    H117280   0.482   6.526   3.418
 5779TIP3    H217281   0.390   6.600   3.512
 5780TIP3   OH217282   5.289   0.295   3.941
 5780TIP3    H117283   5.325   0.257   3.861
 5780TIP3    H217284   5.361   0.344   3.980
 5781TIP3   OH217285   4.498   5.823   1.789
 5781TIP3    H117286   4.584   5.852   1.818
 5781TIP3    H217287   4.462   5.776   1.865
 5782TIP3   OH217288   5.835   5.790   6.682
 5782TIP3    H117289   5.809   5.721   6.620
 5782TIP3    H217290   5.903   5.749   6.736
 5783TIP3   OH217291   0.574   2.788   3.717
 5783TIP3    H117292   0.636   2.748   3.778
 5783TIP3    H217293   0.565   2.725   3.646
 5784TIP3   OH217294   4.334   0.745   1.892
 5784TIP3    H117295   4.250   0.780   1.863
 5784TIP3    H217296   4.394   0.819   1.887
 5785TIP3   OH217297   4.268   7.810   1.418
 5785TIP3    H117298   4.188   7.757   1.420
 5785TIP3    H217299   4.295   7.810   1.327
 5786TIP3   OH217300   2.538   0.687   6.634
 5786TIP3    H117301   2.632   0.683   6.616
 5786TIP3    H217302   2.497   0.655   6.554
 5787TIP3   OH217303   6.531   7.520   0.465
 5787TIP3    H117304   6.484   7.587   0.416
 5787TIP3    H217305   6.617   7.515   0.422
 5788TIP3   OH217306   5.897   0.575   3.855
 5788TIP3    H117307   5.954   0.626   3.912
 5788TIP3    H217308   5.816   0.565   3.904
 5789TIP3   OH217309   7.236   6.181   2.141
 5789TIP3    H117310   7.289   6.101   2.148
 5789TIP3    H217311   7.256   6.229   2.221
 5790TIP3   OH217312   0.562   0.748   6.751
 5790TIP3    H117313   0.539   0.808   6.680
 5790TIP3    H217314   0.646   0.780   6.784
 5791TIP3   OH217315   7.791   3.478   2.075
 5791TIP3    H117316   7.837   3.439   2.149
 5791TIP3    H217317   7.703   3.439   2.078
 5792TIP3   OH217318   0.187   1.952   0.959
 5792TIP3    H117319   0.108   1.908   0.928
 5792TIP3    H217320   0.258   1.912   0.907
 5793TIP3   OH217321   4.535   2.248   6.018
 5793TIP3    H117322   4.550   2.197   5.938
 5793TIP3    H217323   4.598   2.212   6.080
 5794TIP3   OH217324   1.332   4.657   0.186
 5794TIP3    H117325   1.427   4.657   0.177
 5794TIP3    H217326   1.310   4.747   0.210
 5795TIP3   OH217327   5.404   1.690   3.931
 5795TIP3    H117328   5.431   1.782   3.934
 5795TIP3    H217329   5.413   1.665   3.839
 5796TIP3   OH217330   0.638   7.756   5.202
 5796TIP3    H117331   0.660   7.711   5.120
 5796TIP3    H217332   0.720   7.797   5.229
 5797TIP3   OH217333   6.206   2.272   2.720
 5797TIP3    H117334   6.151   2.222   2.781
 5797TIP3    H217335   6.217   2.357   2.762
 5798TIP3   OH217336   5.317   3.506   2.760
 5798TIP3    H117337   5.295   3.413   2.747
 5798TIP3    H217338   5.380   3.525   2.691
 5799TIP3   OH217339   6.724   6.482   3.660
 5799TIP3    H117340   6.729   6.558   3.718
 5799TIP3    H217341   6.700   6.409   3.717
 5800TIP3   OH217342   7.497   4.315   3.878
 5800TIP3    H117343   7.517   4.399   3.837
 5800TIP3    H217344   7.451   4.339   3.958
 5801TIP3   OH217345   1.335   5.919   2.582
 5801TIP3    H117346   1.376   6.005   2.584
 5801TIP3    H217347   1.333   5.890   2.673
 5802TIP3   OH217348   8.067   6.295   4.709
 5802TIP3    H117349   8.153   6.274   4.746
 5802TIP3    H217350   8.013   6.218   4.728
 5803TIP3   OH217351   5.812   3.091   3.312
 5803TIP3    H117352   5.774   3.005   3.328
 5803TIP3    H217353   5.749   3.152   3.349
 5804TIP3   OH217354   7.083   5.301   3.702
 5804TIP3    H117355   7.106   5.246   3.627
 5804TIP3    H217356   7.164   5.347   3.724
 5805TIP3   OH217357   8.103   5.159   3.499
 5805TIP3    H117358   8.118   5.094   3.430
 5805TIP3    H217359   8.071   5.108   3.573
 5806TIP3   OH217360   5.503   4.093   1.688
 5806TIP3    H117361   5.570   4.161   1.679
 5806TIP3    H217362   5.435   4.117   1.626
 5807TIP3   OH217363   4.722   1.508   6.267
 5807TIP3    H117364   4.811   1.534   6.293
 5807TIP3    H217365   4.718   1.415   6.289
 5808TIP3   OH217366   6.455   3.694   4.527
 5808TIP3    H117367   6.457   3.754   4.602
 5808TIP3    H217368   6.390   3.628   4.552
 5809TIP3   OH217369   2.269   1.195   4.717
 5809TIP3    H117370   2.231   1.282   4.726
 5809TIP3    H217371   2.273   1.161   4.807
 5810TIP3   OH217372   3.013   5.365   3.703
 5810TIP3    H117373   3.045   5.353   3.792
 5810TIP3    H217374   2.963   5.446   3.706
 5811TIP3   OH217375   2.263   0.248   3.472
 5811TIP3    H117376   2.270   0.223   3.380
 5811TIP3    H217377   2.340   0.304   3.487
 5812TIP3   OH217378   3.013   1.710   4.004
 5812TIP3    H117379   2.975   1.656   3.934
 5812TIP3    H217380   2.938   1.752   4.046
 5813TIP3   OH217381   8.256   7.526   3.122
 5813TIP3    H117382   8.259   7.613   3.163
 5813TIP3    H217383   8.178   7.527   3.068
 5814TIP3   OH217384   3.062   7.219   1.859
 5814TIP3    H117385   2.998   7.243   1.791
 5814TIP3    H217386   3.145   7.252   1.825
 5815TIP3   OH217387   5.355   2.532   1.259
 5815TIP3    H117388   5.308   2.502   1.181
 5815TIP3    H217389   5.297   2.507   1.332
 5816TIP3   OH217390   8.265   6.011   1.382
 5816TIP3    H117391   8.227   5.963   1.308
 5816TIP3    H217392   8.211   6.090   1.390
 5817TIP3   OH217393   5.439   6.098   5.157
 5817TIP3    H117394   5.362   6.152   5.138
 5817TIP3    H217395   5.512   6.160   5.156
 5818TIP3   OH217396   5.244   5.102   5.851
 5818TIP3    H117397   5.170   5.050   5.883
 5818TIP3    H217398   5.215   5.192   5.859
 5819TIP3   OH217399   1.508   5.091   4.347
 5819TIP3    H117400   1.493   4.996   4.349
 5819TIP3    H217401   1.600   5.099   4.320
 5820TIP3   OH217402   0.089   6.967   5.732
 5820TIP3    H117403   0.082   7.053   5.775
 5820TIP3    H217404   0.162   6.978   5.671
 5821TIP3   OH217405   2.617   4.685   2.877
 5821TIP3    H117406   2.671   4.660   2.952
 5821TIP3    H217407   2.544   4.623   2.878
 5822TIP3   OH217408   3.337   3.652   5.484
 5822TIP3    H117409   3.335   3.651   5.388
 5822TIP3    H217410   3.289   3.732   5.508
 5823TIP3   OH217411   3.007   1.001   0.951
 5823TIP3    H117412   2.942   1.031   0.888
 5823TIP3    H217413   3.090   1.035   0.917
 5824TIP3   OH217414   7.837   4.955   0.074
 5824TIP3    H117415   7.795   5.040   0.085
 5824TIP3    H217416   7.767   4.891   0.089
 5825TIP3   OH217417   4.874   6.734   1.523
 5825TIP3    H117418   4.819   6.753   1.448
 5825TIP3    H217419   4.933   6.809   1.530
 5826TIP3   OH217420   4.456   5.233   2.628
 5826TIP3    H117421   4.513   5.309   2.629
 5826TIP3    H217422   4.385   5.255   2.688
 5827TIP3   OH217423   5.163   4.879   0.017
 5827TIP3    H117424   5.243   4.892  -0.035
 5827TIP3    H217425   5.167   4.787   0.044
 5828TIP3   OH217426   3.658   0.226   2.679
 5828TIP3    H117427   3.751   0.248   2.674
 5828TIP3    H217428   3.657   0.133   2.698
 5829TIP3   OH217429   7.816   4.044   0.817
 5829TIP3    H117430   7.850   3.956   0.837
 5829TIP3    H217431   7.894   4.096   0.796
 5830TIP3   OH217432   4.591   0.068   2.345
 5830TIP3    H117433   4.565   0.086   2.436
 5830TIP3    H217434   4.510   0.079   2.295
 5831TIP3   OH217435   6.750   3.226   5.687
 5831TIP3    H117436   6.791   3.263   5.766
 5831TIP3    H217437   6.753   3.132   5.700
 5832TIP3   OH217438   7.374   3.998   6.186
 5832TIP3    H117439   7.392   4.002   6.092
 5832TIP3    H217440   7.345   4.086   6.209
 5833TIP3   OH217441   2.708   1.339   5.371
 5833TIP3    H117442   2.681   1.247   5.367
 5833TIP3    H217443   2.798   1.335   5.403
 5834TIP3   OH217444   1.092   7.715   3.312
 5834TIP3    H117445   1.132   7.787   3.360
 5834TIP3    H217446   1.105   7.737   3.220
 5835TIP3   OH217447   2.972   5.892   2.773
 5835TIP3    H117448   2.936   5.809   2.739
 5835TIP3    H217449   3.028   5.866   2.846
 5836TIP3   OH217450   3.314   3.914   4.695
 5836TIP3    H117451   3.248   3.871   4.749
 5836TIP3    H217452   3.281   4.004   4.685
 5837TIP3   OH217453   7.861   0.524   2.592
 5837TIP3    H117454   7.880   0.437   2.556
 5837TIP3    H217455   7.844   0.510   2.685
 5838TIP3   OH217456   7.940   3.828   4.329
 5838TIP3    H117457   8.025   3.799   4.361
 5838TIP3    H217458   7.959   3.877   4.250
 5839TIP3   OH217459   7.873   0.565   0.980
 5839TIP3    H117460   7.824   0.609   0.910
 5839TIP3    H217461   7.821   0.581   1.058
 5840TIP3   OH217462   4.779   7.009   2.413
 5840TIP3    H117463   4.800   7.063   2.489
 5840TIP3    H217464   4.684   7.016   2.403
 5841TIP3   OH217465   3.276   3.252   5.163
 5841TIP3    H117466   3.237   3.253   5.250
 5841TIP3    H217467   3.305   3.162   5.149
 5842TIP3   OH217468   3.183   3.474   3.038
 5842TIP3    H117469   3.214   3.396   2.992
 5842TIP3    H217470   3.262   3.523   3.059
 5843TIP3   OH217471   7.347   4.687   2.271
 5843TIP3    H117472   7.394   4.768   2.250
 5843TIP3    H217473   7.406   4.639   2.329
 5844TIP3   OH217474   3.584   0.843   3.171
 5844TIP3    H117475   3.676   0.834   3.194
 5844TIP3    H217476   3.549   0.754   3.176
 5845TIP3   OH217477   7.634   0.405   3.043
 5845TIP3    H117478   7.569   0.338   3.063
 5845TIP3    H217479   7.661   0.439   3.128
 5846TIP3   OH217480   6.102   6.030   5.949
 5846TIP3    H117481   6.041   6.062   5.883
 5846TIP3    H217482   6.185   6.075   5.930
 5847TIP3   OH217483   5.843   5.871   1.219
 5847TIP3    H117484   5.804   5.955   1.242
 5847TIP3    H217485   5.833   5.864   1.125
 5848TIP3   OH217486   4.644   3.872   5.243
 5848TIP3    H117487   4.638   3.895   5.151
 5848TIP3    H217488   4.554   3.879   5.275
 5849TIP3   OH217489   7.096   0.651   5.789
 5849TIP3    H117490   7.122   0.604   5.869
 5849TIP3    H217491   7.081   0.741   5.818
 5850TIP3   OH217492   2.974   5.337   0.818
 5850TIP3    H117493   3.021   5.284   0.753
 5850TIP3    H217494   3.028   5.416   0.827
 5851TIP3   OH217495   0.803   4.203   5.350
 5851TIP3    H117496   0.768   4.288   5.377
 5851TIP3    H217497   0.768   4.142   5.415
 5852TIP3   OH217498   3.204   1.719   2.079
 5852TIP3    H117499   3.143   1.651   2.052
 5852TIP3    H217500   3.252   1.680   2.152
 5853TIP3   OH217501   2.100   3.669   4.973
 5853TIP3    H117502   2.046   3.632   4.904
 5853TIP3    H217503   2.154   3.734   4.929
 5854TIP3   OH217504   2.063   6.802   4.131
 5854TIP3    H117505   2.101   6.833   4.048
 5854TIP3    H217506   2.024   6.718   4.109
 5855TIP3   OH217507   0.731   7.166   0.267
 5855TIP3    H117508   0.792   7.176   0.195
 5855TIP3    H217509   0.777   7.112   0.331
 5856TIP3   OH217510   3.705   1.027   6.171
 5856TIP3    H117511   3.681   0.937   6.148
 5856TIP3    H217512   3.800   1.029   6.164
 5857TIP3   OH217513   5.389   4.517   1.485
 5857TIP3    H117514   5.353   4.497   1.571
 5857TIP3    H217515   5.462   4.578   1.503
 5858TIP3   OH217516   1.750   4.259   3.308
 5858TIP3    H117517   1.666   4.245   3.352
 5858TIP3    H217518   1.789   4.171   3.302
 5859TIP3   OH217519   0.676   1.944   5.061
 5859TIP3    H117520   0.704   1.930   4.970
 5859TIP3    H217521   0.591   1.900   5.067
 5860TIP3   OH217522   0.918   1.773   5.692
 5860TIP3    H117523   0.895   1.826   5.615
 5860TIP3    H217524   0.882   1.687   5.673
 5861TIP3   OH217525   7.482   2.344   4.953
 5861TIP3    H117526   7.439   2.393   4.883
 5861TIP3    H217527   7.530   2.274   4.908
 5862TIP3   OH217528   2.643   4.870   0.773
 5862TIP3    H117529   2.624   4.879   0.866
 5862TIP3    H217530   2.573   4.919   0.730
 5863TIP3   OH217531   5.630   3.821   6.195
 5863TIP3    H117532   5.683   3.823   6.115
 5863TIP3    H217533   5.595   3.732   6.198
 5864TIP3   OH217534   8.213   3.765   4.389
 5864TIP3    H117535   8.292   3.793   4.344
 5864TIP3    H217536   8.238   3.684   4.433
 5865TIP3   OH217537   5.009   1.680   2.173
 5865TIP3    H117538   4.984   1.772   2.180
 5865TIP3    H217539   5.103   1.678   2.187
 5866TIP3   OH217540   7.236   2.837   0.599
 5866TIP3    H117541   7.271   2.783   0.528
 5866TIP3    H217542   7.313   2.871   0.644
 5867TIP3   OH217543   7.549   4.567   3.775
 5867TIP3    H117544   7.554   4.662   3.786
 5867TIP3    H217545   7.577   4.551   3.685
 5868TIP3   OH217546   4.900   5.727   4.646
 5868TIP3    H117547   4.805   5.720   4.648
 5868TIP3    H217548   4.931   5.636   4.641
 5869TIP3   OH217549   2.977   4.347   0.097
 5869TIP3    H117550   2.924   4.423   0.071
 5869TIP3    H217551   3.002   4.306   0.014
 5870TIP3   OH217552   4.443   4.514   3.329
 5870TIP3    H117553   4.493   4.445   3.373
 5870TIP3    H217554   4.444   4.490   3.237
 5871TIP3   OH217555   8.112   0.297   3.976
 5871TIP3    H117556   8.044   0.233   4.001
 5871TIP3    H217557   8.189   0.270   4.025
 5872TIP3   OH217558   0.255   6.785   2.802
 5872TIP3    H117559   0.209   6.750   2.879
 5872TIP3    H217560   0.193   6.846   2.762
 5873TIP3   OH217561   4.131   3.266   3.193
 5873TIP3    H117562   4.118   3.248   3.287
 5873TIP3    H217563   4.202   3.208   3.167
 5874TIP3   OH217564   4.905   1.627   0.470
 5874TIP3    H117565   4.968   1.692   0.502
 5874TIP3    H217566   4.836   1.628   0.536
 5875TIP3   OH217567   7.671   4.446   5.568
 5875TIP3    H117568   7.619   4.518   5.604
 5875TIP3    H217569   7.721   4.412   5.642
 5876TIP3   OH217570   7.353   6.271   0.576
 5876TIP3    H117571   7.320   6.227   0.497
 5876TIP3    H217572   7.275   6.298   0.624
 5877TIP3   OH217573   4.441   2.712   0.336
 5877TIP3    H117574   4.500   2.787   0.346
 5877TIP3    H217575   4.496   2.635   0.348
 5878TIP3   OH217576   6.765   4.718   5.667
 5878TIP3    H117577   6.682   4.753   5.701
 5878TIP3    H217578   6.743   4.627   5.643
 5879TIP3   OH217579   3.018   5.357   2.559
 5879TIP3    H117580   3.083   5.420   2.527
 5879TIP3    H217581   2.995   5.305   2.483
 5880TIP3   OH217582   0.536   2.131   5.250
 5880TIP3    H117583   0.457   2.094   5.290
 5880TIP3    H217584   0.574   2.058   5.201
 5881TIP3   OH217585   2.799   1.045   1.527
 5881TIP3    H117586   2.758   1.102   1.462
 5881TIP3    H217587   2.887   1.028   1.492
 5882TIP3   OH217588   2.179   7.187   4.233
 5882TIP3    H117589   2.199   7.124   4.302
 5882TIP3    H217590   2.170   7.271   4.279
 5883TIP3   OH217591   3.619   5.045   4.162
 5883TIP3    H117592   3.560   5.118   4.142
 5883TIP3    H217593   3.707   5.082   4.152
 5884TIP3   OH217594   6.756   7.367   3.160
 5884TIP3    H117595   6.776   7.368   3.066
 5884TIP3    H217596   6.667   7.331   3.164
 5885TIP3   OH217597   2.556   3.101   2.340
 5885TIP3    H117598   2.549   3.099   2.435
 5885TIP3    H217599   2.527   3.189   2.315
 5886TIP3   OH217600   5.151   7.655   5.817
 5886TIP3    H117601   5.232   7.608   5.796
 5886TIP3    H217602   5.085   7.616   5.758
 5887TIP3   OH217603   1.966   4.434   3.718
 5887TIP3    H117604   1.965   4.477   3.632
 5887TIP3    H217605   2.052   4.391   3.722
 5888TIP3   OH217606   1.376   3.846   1.720
 5888TIP3    H117607   1.398   3.792   1.644
 5888TIP3    H217608   1.280   3.846   1.722
 5889TIP3   OH217609   2.177   1.424   2.583
 5889TIP3    H117610   2.086   1.443   2.561
 5889TIP3    H217611   2.179   1.328   2.591
 5890TIP3   OH217612   8.133   0.345   3.114
 5890TIP3    H117613   8.080   0.379   3.185
 5890TIP3    H217614   8.216   0.392   3.120
 5891TIP3   OH217615   6.473   0.702   0.676
 5891TIP3    H117616   6.547   0.650   0.706
 5891TIP3    H217617   6.463   0.769   0.744
 5892TIP3   OH217618   7.062   2.984   5.163
 5892TIP3    H117619   6.976   2.956   5.133
 5892TIP3    H217620   7.048   3.073   5.195
 5893TIP3   OH217621   1.313   7.759   3.452
 5893TIP3    H117622   1.335   7.839   3.499
 5893TIP3    H217623   1.334   7.778   3.360
 5894TIP3   OH217624   2.356   7.518   2.145
 5894TIP3    H117625   2.294   7.449   2.123
 5894TIP3    H217626   2.427   7.472   2.191
 5895TIP3   OH217627   3.749   2.408   3.420
 5895TIP3    H117628   3.841   2.431   3.412
 5895TIP3    H217629   3.749   2.321   3.461
 5896TIP3   OH217630   3.040   1.504   1.989
 5896TIP3    H117631   2.992   1.473   2.066
 5896TIP3    H217632   2.981   1.566   1.947
 5897TIP3   OH217633   2.023   3.460   3.068
 5897TIP3    H117634   2.100   3.479   3.014
 5897TIP3    H217635   2.055   3.400   3.135
 5898TIP3   OH217636   4.580   6.249   5.442
 5898TIP3    H117637   4.594   6.338   5.474
 5898TIP3    H217638   4.662   6.226   5.397
 5899TIP3   OH217639   0.722   4.730   5.893
 5899TIP3    H117640   0.795   4.733   5.831
 5899TIP3    H217641   0.645   4.711   5.838
 5900TIP3   OH217642   3.984   5.969   6.000
 5900TIP3    H117643   4.010   5.915   6.075
 5900TIP3    H217644   4.057   6.032   5.990
 5901TIP3   OH217645   6.549   4.683   0.218
 5901TIP3    H117646   6.552   4.656   0.310
 5901TIP3    H217647   6.457   4.673   0.193
 5902TIP3   OH217648   5.912   0.120   4.403
 5902TIP3    H117649   6.003   0.140   4.379
 5902TIP3    H217650   5.859   0.173   4.344
 5903TIP3   OH217651   4.764   1.810   6.418
 5903TIP3    H117652   4.813   1.889   6.397
 5903TIP3    H217653   4.682   1.818   6.369
 5904TIP3   OH217654   5.819   1.627   3.007
 5904TIP3    H117655   5.873   1.707   3.010
 5904TIP3    H217656   5.847   1.576   3.083
 5905TIP3   OH217657   2.571   1.539   0.172
 5905TIP3    H117658   2.604   1.530   0.082
 5905TIP3    H217659   2.648   1.564   0.223
 5906TIP3   OH217660   4.075   5.635   5.879
 5906TIP3    H117661   4.103   5.689   5.952
 5906TIP3    H217662   4.088   5.690   5.802
 5907TIP3   OH217663   4.530   1.321   2.075
 5907TIP3    H117664   4.578   1.294   2.153
 5907TIP3    H217665   4.557   1.412   2.061
 5908TIP3   OH217666   7.023   3.520   5.298
 5908TIP3    H117667   6.982   3.480   5.375
 5908TIP3    H217668   7.010   3.614   5.309
 5909TIP3   OH217669   3.135   2.968   0.630
 5909TIP3    H117670   3.227   2.939   0.631
 5909TIP3    H217671   3.094   2.912   0.564
 5910TIP3   OH217672   0.107   6.591   2.650
 5910TIP3    H117673   0.169   6.664   2.653
 5910TIP3    H217674   0.161   6.514   2.631
 5911TIP3   OH217675   3.221   5.020   4.015
 5911TIP3    H117676   3.296   4.976   3.974
 5911TIP3    H217677   3.162   5.040   3.942
 5912TIP3   OH217678   6.038   1.040   4.107
 5912TIP3    H117679   6.018   0.981   4.034
 5912TIP3    H217680   6.096   0.989   4.163
 5913TIP3   OH217681   4.261   3.550   2.237
 5913TIP3    H117682   4.287   3.516   2.323
 5913TIP3    H217683   4.343   3.580   2.198
 5914TIP3   OH217684   7.793   6.301   3.205
 5914TIP3    H117685   7.731   6.263   3.266
 5914TIP3    H217686   7.765   6.392   3.196
 5915TIP3   OH217687   4.731   3.671   1.592
 5915TIP3    H117688   4.689   3.612   1.530
 5915TIP3    H217689   4.801   3.713   1.541
 5916TIP3   OH217690   1.253   1.940   2.183
 5916TIP3    H117691   1.316   2.010   2.201
 5916TIP3    H217692   1.168   1.978   2.204
 5917TIP3   OH217693   4.872   6.121   4.426
 5917TIP3    H117694   4.945   6.175   4.396
 5917TIP3    H217695   4.879   6.122   4.521
 5918TIP3   OH217696   3.596   3.679   1.486
 5918TIP3    H117697   3.570   3.677   1.578
 5918TIP3    H217698   3.684   3.642   1.485
 5919TIP3   OH217699   0.820   7.775   1.744
 5919TIP3    H117700   0.836   7.695   1.695
 5919TIP3    H217701   0.799   7.745   1.833
 5920TIP3   OH217702   5.559   3.222   1.685
 5920TIP3    H117703   5.467   3.205   1.705
 5920TIP3    H217704   5.592   3.139   1.652
 5921TIP3   OH217705   0.995   4.901   0.621
 5921TIP3    H117706   1.000   4.964   0.549
 5921TIP3    H217707   1.082   4.860   0.623
 5922TIP3   OH217708   5.859   0.739   2.248
 5922TIP3    H117709   5.819   0.658   2.215
 5922TIP3    H217710   5.952   0.716   2.260
 5923TIP3   OH217711   1.644   1.962   5.875
 5923TIP3    H117712   1.551   1.947   5.857
 5923TIP3    H217713   1.655   1.941   5.968
 5924TIP3   OH217714   2.134   5.790   1.988
 5924TIP3    H117715   2.170   5.853   2.050
 5924TIP3    H217716   2.099   5.844   1.917
 5925TIP3   OH217717   4.338   2.989   1.452
 5925TIP3    H117718   4.256   3.032   1.477
 5925TIP3    H217719   4.354   2.927   1.524
 5926TIP3   OH217720   5.835   7.431   4.781
 5926TIP3    H117721   5.882   7.485   4.717
 5926TIP3    H217722   5.838   7.482   4.862
 5927TIP3   OH217723   0.409   3.361   0.586
 5927TIP3    H117724   0.337   3.393   0.641
 5927TIP3    H217725   0.406   3.266   0.597
 5928TIP3   OH217726   0.633   1.076   5.453
 5928TIP3    H117727   0.561   1.049   5.509
 5928TIP3    H217728   0.590   1.110   5.374
 5929TIP3   OH217729   0.928   0.187   6.488
 5929TIP3    H117730   1.001   0.205   6.429
 5929TIP3    H217731   0.906   0.272   6.527
 5930TIP3   OH217732   8.258   1.760   3.965
 5930TIP3    H117733   8.295   1.825   4.025
 5930TIP3    H217734   8.278   1.794   3.878
 5931TIP3   OH217735   5.934   3.362   5.527
 5931TIP3    H117736   5.841   3.377   5.509
 5931TIP3    H217737   5.934   3.316   5.612
 5932TIP3   OH217738   3.281   5.830   2.633
 5932TIP3    H117739   3.296   5.854   2.542
 5932TIP3    H217740   3.222   5.897   2.666
 5933TIP3   OH217741   5.488   4.582   6.594
 5933TIP3    H117742   5.530   4.636   6.661
 5933TIP3    H217743   5.397   4.611   6.593
 5934TIP3   OH217744   5.715   2.397   5.587
 5934TIP3    H117745   5.730   2.310   5.623
 5934TIP3    H217746   5.664   2.382   5.508
 5935TIP3   OH217747   0.168   0.303   5.012
 5935TIP3    H117748   0.158   0.358   5.090
 5935TIP3    H217749   0.085   0.255   5.006
 5936TIP3   OH217750   4.645   6.595   3.685
 5936TIP3    H117751   4.644   6.595   3.780
 5936TIP3    H217752   4.588   6.668   3.660
 5937TIP3   OH217753   7.222   1.728   2.330
 5937TIP3    H117754   7.296   1.677   2.295
 5937TIP3    H217755   7.210   1.695   2.419
 5938TIP3   OH217756   5.680   3.535   3.861
 5938TIP3    H117757   5.699   3.572   3.775
 5938TIP3    H217758   5.734   3.586   3.922
 5939TIP3   OH217759   7.841   7.138   3.640
 5939TIP3    H117760   7.874   7.180   3.561
 5939TIP3    H217761   7.786   7.066   3.608
 5940TIP3   OH217762   4.605   1.343   4.620
 5940TIP3    H117763   4.635   1.321   4.532
 5940TIP3    H217764   4.684   1.370   4.667
 5941TIP3   OH217765   2.103   0.620   1.020
 5941TIP3    H117766   2.155   0.670   1.083
 5941TIP3    H217767   2.027   0.590   1.069
 5942TIP3   OH217768   2.712   0.567   1.491
 5942TIP3    H117769   2.799   0.598   1.465
 5942TIP3    H217770   2.729   0.499   1.556
 5943TIP3   OH217771   8.199   6.754   1.237
 5943TIP3    H117772   8.242   6.668   1.236
 5943TIP3    H217773   8.133   6.748   1.167
 5944TIP3   OH217774   0.968   2.914   6.767
 5944TIP3    H117775   0.964   2.999   6.811
 5944TIP3    H217776   0.944   2.851   6.835
 5945TIP3   OH217777   8.097   2.281   3.740
 5945TIP3    H117778   8.053   2.270   3.824
 5945TIP3    H217779   8.043   2.231   3.678
 5946TIP3   OH217780   2.932   2.328   0.077
 5946TIP3    H117781   3.010   2.375   0.047
 5946TIP3    H217782   2.928   2.250   0.021
 5947TIP3   OH217783   4.934   0.300   0.880
 5947TIP3    H117784   4.881   0.291   0.800
 5947TIP3    H217785   4.947   0.395   0.888
 5948TIP3   OH217786   5.093   4.624   1.704
 5948TIP3    H117787   5.014   4.654   1.661
 5948TIP3    H217788   5.160   4.687   1.678
 5949TIP3   OH217789   1.984   5.382   3.492
 5949TIP3    H117790   1.991   5.392   3.587
 5949TIP3    H217791   1.988   5.472   3.459
 5950TIP3   OH217792   5.636   4.826   3.615
 5950TIP3    H117793   5.580   4.836   3.538
 5950TIP3    H217794   5.621   4.906   3.666
 5951TIP3   OH217795   3.616   7.847   3.225
 5951TIP3    H117796   3.617   7.846   3.130
 5951TIP3    H217797   3.571   7.767   3.250
 5952TIP3   OH217798   4.463   4.578   1.873
 5952TIP3    H117799   4.389   4.551   1.818
 5952TIP3    H217800   4.429   4.651   1.925
 5953TIP3   OH217801   3.995   2.225   5.417
 5953TIP3    H117802   4.059   2.175   5.467
 5953TIP3    H217803   3.940   2.268   5.483
 5954TIP3   OH217804   4.638   5.463   1.854
 5954TIP3    H117805   4.670   5.414   1.778
 5954TIP3    H217806   4.714   5.511   1.886
 5955TIP3   OH217807   0.801   0.379   4.507
 5955TIP3    H117808   0.818   0.324   4.430
 5955TIP3    H217809   0.830   0.326   4.581
 5956TIP3   OH217810   3.174   3.717   2.450
 5956TIP3    H117811   3.114   3.689   2.381
 5956TIP3    H217812   3.160   3.654   2.521
 5957TIP3   OH217813   7.874   4.381   4.891
 5957TIP3    H117814   7.780   4.394   4.905
 5957TIP3    H217815   7.882   4.287   4.872
 5958TIP3   OH217816   7.515   4.024   3.554
 5958TIP3    H117817   7.474   3.952   3.602
 5958TIP3    H217818   7.606   4.022   3.583
 5959TIP3   OH217819   8.072   5.701   0.182
 5959TIP3    H117820   8.167   5.694   0.188
 5959TIP3    H217821   8.044   5.727   0.270
 5960TIP3   OH217822   4.127   5.456   1.998
 5960TIP3    H117823   4.108   5.484   1.908
 5960TIP3    H217824   4.054   5.490   2.050
 5961TIP3   OH217825   6.288   0.709   4.303
 5961TIP3    H117826   6.306   0.801   4.324
 5961TIP3    H217827   6.232   0.712   4.226
 5962TIP3   OH217828   3.806   5.259   1.937
 5962TIP3    H117829   3.846   5.328   1.990
 5962TIP3    H217830   3.798   5.184   1.996
 5963TIP3   OH217831   0.622   0.897   2.146
 5963TIP3    H117832   0.598   0.982   2.184
 5963TIP3    H217833   0.718   0.894   2.155
 5964TIP3   OH217834   1.956   1.902   4.382
 5964TIP3    H117835   1.947   1.809   4.361
 5964TIP3    H217836   2.050   1.920   4.375
 5965TIP3   OH217837   3.719   7.765   3.687
 5965TIP3    H117838   3.803   7.774   3.732
 5965TIP3    H217839   3.713   7.843   3.631
 5966TIP3   OH217840   6.236   3.319   6.457
 5966TIP3    H117841   6.190   3.401   6.441
 5966TIP3    H217842   6.203   3.289   6.542
 5967TIP3   OH217843   5.311   6.708   1.465
 5967TIP3    H117844   5.308   6.770   1.392
 5967TIP3    H217845   5.308   6.763   1.543
 5968TIP3   OH217846   4.912   5.227   3.418
 5968TIP3    H117847   4.861   5.211   3.498
 5968TIP3    H217848   4.993   5.178   3.431
 5969TIP3   OH217849   3.349   4.008   5.983
 5969TIP3    H117850   3.416   4.060   5.939
 5969TIP3    H217851   3.273   4.014   5.925
 5970TIP3   OH217852   0.514   5.163   0.893
 5970TIP3    H117853   0.509   5.170   0.798
 5970TIP3    H217854   0.503   5.070   0.911
 5971TIP3   OH217855   0.743   4.651   3.585
 5971TIP3    H117856   0.694   4.733   3.587
 5971TIP3    H217857   0.833   4.676   3.609
 5972TIP3   OH217858   1.675   0.641   5.122
 5972TIP3    H117859   1.656   0.647   5.216
 5972TIP3    H217860   1.629   0.716   5.084
 5973TIP3   OH217861   7.786   0.572   6.738
 5973TIP3    H117862   7.811   0.590   6.647
 5973TIP3    H217863   7.790   0.477   6.745
 5974TIP3   OH217864   5.012   1.829   2.458
 5974TIP3    H117865   5.010   1.889   2.383
 5974TIP3    H217866   4.922   1.826   2.489
 5975TIP3   OH217867   4.751   6.219   6.246
 5975TIP3    H117868   4.756   6.124   6.235
 5975TIP3    H217869   4.657   6.237   6.246
 5976TIP3   OH217870   1.122   5.031   4.622
 5976TIP3    H117871   1.079   5.012   4.539
 5976TIP3    H217872   1.053   5.068   4.677
 5977TIP3   OH217873   7.571   6.334   5.990
 5977TIP3    H117874   7.512   6.270   5.951
 5977TIP3    H217875   7.617   6.372   5.915
 5978TIP3   OH217876   5.468   2.170   5.412
 5978TIP3    H117877   5.476   2.094   5.470
 5978TIP3    H217878   5.397   2.222   5.451
 5979TIP3   OH217879   4.927   1.859   6.074
 5979TIP3    H117880   4.836   1.841   6.098
 5979TIP3    H217881   4.973   1.776   6.090
 5980TIP3   OH217882   4.132   5.992   2.217
 5980TIP3    H117883   4.054   5.949   2.179
 5980TIP3    H217884   4.109   6.006   2.309
 5981TIP3   OH217885   4.039   4.496   4.088
 5981TIP3    H117886   3.955   4.531   4.118
 5981TIP3    H217887   4.105   4.541   4.142
 5982TIP3   OH217888   1.729   0.312   3.359
 5982TIP3    H117889   1.637   0.336   3.350
 5982TIP3    H217890   1.758   0.361   3.437
 5983TIP3   OH217891   0.553   1.513   6.044
 5983TIP3    H117892   0.495   1.579   6.007
 5983TIP3    H217893   0.509   1.485   6.124
 5984TIP3   OH217894   1.801   1.739   1.623
 5984TIP3    H117895   1.840   1.823   1.599
 5984TIP3    H217896   1.813   1.732   1.718
 5985TIP3   OH217897   5.131   1.241   0.305
 5985TIP3    H117898   5.165   1.319   0.263
 5985TIP3    H217899   5.081   1.196   0.236
 5986TIP3   OH217900   3.700   3.158   5.011
 5986TIP3    H117901   3.785   3.117   4.993
 5986TIP3    H217902   3.715   3.251   4.992
 5987TIP3   OH217903   4.470   7.817   5.634
 5987TIP3    H117904   4.413   7.742   5.618
 5987TIP3    H217905   4.476   7.823   5.730
 5988TIP3   OH217906   4.816   3.473   1.812
 5988TIP3    H117907   4.908   3.494   1.832
 5988TIP3    H217908   4.782   3.553   1.773
 5989TIP3   OH217909   7.134   7.649   2.590
 5989TIP3    H117910   7.053   7.613   2.553
 5989TIP3    H217911   7.140   7.737   2.554
 5990TIP3   OH217912   8.131   3.529   2.837
 5990TIP3    H117913   8.045   3.498   2.809
 5990TIP3    H217914   8.190   3.458   2.813
 5991TIP3   OH217915   6.338   7.073   0.259
 5991TIP3    H117916   6.347   7.029   0.344
 5991TIP3    H217917   6.252   7.114   0.263
 5992TIP3   OH217918   4.950   5.564   1.562
 5992TIP3    H117919   4.900   5.484   1.582
 5992TIP3    H217920   4.886   5.622   1.521
 5993TIP3   OH217921   0.944   5.886   5.586
 5993TIP3    H117922   0.940   5.981   5.578
 5993TIP3    H217923   1.032   5.868   5.619
 5994TIP3   OH217924   0.752   6.245   3.940
 5994TIP3    H117925   0.723   6.294   3.863
 5994TIP3    H217926   0.847   6.250   3.938
 5995TIP3   OH217927   4.875   0.724   6.650
 5995TIP3    H117928   4.863   0.648   6.708
 5995TIP3    H217929   4.873   0.799   6.708
 5996TIP3   OH217930   0.878   6.304   4.633
 5996TIP3    H117931   0.841   6.319   4.720
 5996TIP3    H217932   0.928   6.384   4.615
 5997TIP3   OH217933   3.233   0.301   1.335
 5997TIP3    H117934   3.197   0.213   1.344
 5997TIP3    H217935   3.324   0.293   1.360
 5998TIP3   OH217936   8.067   0.801   4.092
 5998TIP3    H117937   8.062   0.706   4.084
 5998TIP3    H217938   7.980   0.833   4.068
 5999TIP3   OH217939   5.668   2.578   3.692
 5999TIP3    H117940   5.647   2.527   3.613
 5999TIP3    H217941   5.631   2.527   3.764
 6000TIP3   OH217942   7.049   3.581   0.754
 6000TIP3    H117943   7.027   3.645   0.687
 6000TIP3    H217944   6.965   3.546   0.783
 6001TIP3   OH217945   6.705   6.220   0.459
 6001TIP3    H117946   6.679   6.255   0.374
 6001TIP3    H217947   6.654   6.139   0.468
 6002TIP3   OH217948   1.114   6.173   4.463
 6002TIP3    H117949   1.049   6.161   4.533
 6002TIP3    H217950   1.062   6.181   4.383
 6003TIP3   OH217951   2.186   0.066   2.526
 6003TIP3    H117952   2.260   0.066   2.587
 6003TIP3    H217953   2.118   0.017   2.571
 6004TIP3   OH217954   6.307   6.018   3.912
 6004TIP3    H117955   6.235   6.078   3.930
 6004TIP3    H217956   6.265   5.932   3.902
 6005TIP3   OH217957   3.264   6.174   4.491
 6005TIP3    H117958   3.335   6.164   4.428
 6005TIP3    H217959   3.271   6.264   4.521
 6006TIP3   OH217960   7.287   2.809   3.077
 6006TIP3    H117961   7.286   2.759   2.995
 6006TIP3    H217962   7.200   2.849   3.083
 6007TIP3   OH217963   6.887   7.369   0.207
 6007TIP3    H117964   6.964   7.342   0.158
 6007TIP3    H217965   6.865   7.293   0.261
 6008TIP3   OH217966   5.758   3.580   3.572
 6008TIP3    H117967   5.672   3.546   3.547
 6008TIP3    H217968   5.814   3.563   3.497
 6009TIP3   OH217969   2.741   7.257   0.226
 6009TIP3    H117970   2.804   7.291   0.164
 6009TIP3    H217971   2.767   7.295   0.310
 6010TIP3   OH217972   4.736   1.878   2.518
 6010TIP3    H117973   4.664   1.930   2.481
 6010TIP3    H217974   4.703   1.788   2.518
 6011TIP3   OH217975   1.937   3.899   3.841
 6011TIP3    H117976   1.930   3.863   3.753
 6011TIP3    H217977   1.868   3.854   3.891
 6012TIP3   OH217978   7.751   7.330   6.123
 6012TIP3    H117979   7.694   7.344   6.199
 6012TIP3    H217980   7.764   7.236   6.120
 6013TIP3   OH217981   0.548   1.640   6.499
 6013TIP3    H117982   0.613   1.581   6.462
 6013TIP3    H217983   0.587   1.669   6.582
 6014TIP3   OH217984   2.496   6.805   6.206
 6014TIP3    H117985   2.403   6.793   6.190
 6014TIP3    H217986   2.540   6.751   6.140
 6015TIP3   OH217987   6.495   0.532   2.367
 6015TIP3    H117988   6.424   0.467   2.370
 6015TIP3    H217989   6.496   0.561   2.276
 6016TIP3   OH217990   3.314   0.899   5.007
 6016TIP3    H117991   3.286   0.862   5.091
 6016TIP3    H217992   3.244   0.961   4.985
 6017TIP3   OH217993   7.959   0.040   1.092
 6017TIP3    H117994   7.934   0.113   1.036
 6017TIP3    H217995   7.886  -0.022   1.084
 6018TIP3   OH217996   1.388   6.096   4.206
 6018TIP3    H117997   1.295   6.111   4.190
 6018TIP3    H217998   1.394   6.004   4.230
 6019TIP3   OH217999   3.705   2.666   5.836
 6019TIP3    H118000   3.646   2.709   5.898
 6019TIP3    H218001   3.648   2.635   5.766
 6020TIP3   OH218002   7.122   4.159   0.471
 6020TIP3    H118003   7.111   4.215   0.548
 6020TIP3    H218004   7.075   4.205   0.402
 6021TIP3   OH218005   3.802   4.399   5.732
 6021TIP3    H118006   3.888   4.378   5.767
 6021TIP3    H218007   3.763   4.457   5.798
 6022TIP3   OH218008   6.408   4.749   5.514
 6022TIP3    H118009   6.457   4.782   5.590
 6022TIP3    H218010   6.470   4.756   5.441
 6023TIP3   OH218011   3.127   1.147   6.608
 6023TIP3    H118012   3.093   1.148   6.518
 6023TIP3    H218013   3.220   1.168   6.598
 6024TIP3   OH218014   7.689   5.012   6.485
 6024TIP3    H118015   7.614   4.956   6.506
 6024TIP3    H218016   7.718   5.046   6.570
 6025TIP3   OH218017   0.780   5.320   1.110
 6025TIP3    H118018   0.773   5.339   1.016
 6025TIP3    H218019   0.788   5.406   1.151
 6026TIP3   OH218020   0.701   6.852   2.110
 6026TIP3    H118021   0.734   6.776   2.061
 6026TIP3    H218022   0.767   6.867   2.177
 6027TIP3   OH218023   1.719   7.026   2.819
 6027TIP3    H118024   1.660   7.060   2.886
 6027TIP3    H218025   1.666   7.019   2.740
 6028TIP3   OH218026   5.085   2.707   5.795
 6028TIP3    H118027   5.035   2.682   5.873
 6028TIP3    H218028   5.156   2.644   5.791
 6029TIP3   OH218029   4.535   4.496   3.024
 6029TIP3    H118030   4.541   4.549   2.945
 6029TIP3    H218031   4.587   4.418   3.005
 6030TIP3   OH218032   2.619   3.718   5.570
 6030TIP3    H118033   2.567   3.756   5.499
 6030TIP3    H218034   2.706   3.705   5.532
 6031TIP3   OH218035   3.773   4.074   1.481
 6031TIP3    H118036   3.727   4.087   1.564
 6031TIP3    H218037   3.848   4.019   1.504
 6032TIP3   OH218038   2.920   5.907   6.197
 6032TIP3    H118039   2.913   5.838   6.264
 6032TIP3    H218040   3.015   5.921   6.188
 6033TIP3   OH218041   1.099   4.942   1.231
 6033TIP3    H118042   1.029   4.907   1.285
 6033TIP3    H218043   1.132   4.867   1.182
 6034TIP3   OH218044   2.222   6.358   1.447
 6034TIP3    H118045   2.240   6.269   1.478
 6034TIP3    H218046   2.300   6.407   1.472
 6035TIP3   OH218047   4.057   7.661   1.685
 6035TIP3    H118048   4.020   7.734   1.637
 6035TIP3    H218049   4.135   7.697   1.727
 6036TIP3   OH218050   3.882   2.604   1.103
 6036TIP3    H118051   3.955   2.666   1.095
 6036TIP3    H218052   3.804   2.656   1.088
 6037TIP3   OH218053   2.742   5.846   5.413
 6037TIP3    H118054   2.789   5.921   5.450
 6037TIP3    H218055   2.736   5.784   5.486
 6038TIP3   OH218056   3.904   5.631   5.288
 6038TIP3    H118057   3.844   5.614   5.215
 6038TIP3    H218058   3.850   5.675   5.354
 6039TIP3   OH218059   3.743   0.065   2.433
 6039TIP3    H118060   3.820   0.016   2.407
 6039TIP3    H218061   3.762   0.156   2.408
 6040TIP3   OH218062   5.146   2.120   2.059
 6040TIP3    H118063   5.239   2.145   2.056
 6040TIP3    H218064   5.124   2.099   1.968
 6041TIP3   OH218065   7.644   4.139   5.590
 6041TIP3    H118066   7.728   4.116   5.551
 6041TIP3    H218067   7.615   4.216   5.542
 6042TIP3   OH218068   8.136   2.482   0.572
 6042TIP3    H118069   8.218   2.438   0.595
 6042TIP3    H218070   8.097   2.505   0.656
 6043TIP3   OH218071   1.977   3.960   5.181
 6043TIP3    H118072   2.037   4.025   5.218
 6043TIP3    H218073   2.005   3.877   5.218
 6044TIP3   OH218074   6.961   5.673   5.464
 6044TIP3    H118075   7.052   5.653   5.483
 6044TIP3    H218076   6.962   5.764   5.434
 6045TIP3   OH218077   4.207   3.642   5.262
 6045TIP3    H118078   4.249   3.590   5.194
 6045TIP3    H218079   4.271   3.645   5.333
 6046TIP3   OH218080   5.320   1.797   6.693
 6046TIP3    H118081   5.309   1.817   6.786
 6046TIP3    H218082   5.255   1.852   6.649
 6047TIP3   OH218083   6.746   3.048   1.246
 6047TIP3    H118084   6.795   3.126   1.273
 6047TIP3    H218085   6.752   2.989   1.320
 6048TIP3   OH218086   5.674   3.743   4.876
 6048TIP3    H118087   5.670   3.770   4.967
 6048TIP3    H218088   5.622   3.808   4.829
 6049TIP3   OH218089   4.675   4.769   4.816
 6049TIP3    H118090   4.586   4.771   4.780
 6049TIP3    H218091   4.711   4.685   4.787
 6050TIP3   OH218092   1.388   5.210   5.437
 6050TIP3    H118093   1.316   5.158   5.400
 6050TIP3    H218094   1.345   5.291   5.467
 6051TIP3   OH218095   1.052   6.034   1.193
 6051TIP3    H118096   1.092   6.120   1.203
 6051TIP3    H218097   1.120   5.973   1.225
 6052TIP3   OH218098   5.374   0.464   1.329
 6052TIP3    H118099   5.357   0.375   1.358
 6052TIP3    H218100   5.306   0.516   1.370
 6053TIP3   OH218101   1.522   2.359   3.648
 6053TIP3    H118102   1.566   2.442   3.630
 6053TIP3    H218103   1.436   2.385   3.682
 6054TIP3   OH218104   6.008   2.362   6.002
 6054TIP3    H118105   5.915   2.353   6.020
 6054TIP3    H218106   6.014   2.373   5.907
 6055TIP3   OH218107   5.771   7.443   0.137
 6055TIP3    H118108   5.764   7.479   0.048
 6055TIP3    H218109   5.851   7.391   0.136
 6056TIP3   OH218110   0.242   4.831   0.812
 6056TIP3    H118111   0.240   4.904   0.874
 6056TIP3    H218112   0.305   4.857   0.745
 6057TIP3   OH218113   0.604   2.040   4.570
 6057TIP3    H118114   0.550   1.990   4.508
 6057TIP3    H218115   0.593   2.131   4.543
 6058TIP3   OH218116   3.140   4.252   3.242
 6058TIP3    H118117   3.202   4.198   3.193
 6058TIP3    H218118   3.086   4.294   3.175
 6059TIP3   OH218119   2.316   0.950   2.871
 6059TIP3    H118120   2.366   1.030   2.888
 6059TIP3    H218121   2.299   0.914   2.958
 6060TIP3   OH218122   3.108   7.348   5.718
 6060TIP3    H118123   3.098   7.278   5.782
 6060TIP3    H218124   3.128   7.426   5.771
 6061TIP3   OH218125   6.268   7.214   1.150
 6061TIP3    H118126   6.210   7.140   1.132
 6061TIP3    H218127   6.258   7.230   1.243
 6062TIP3   OH218128   2.544   6.429   0.834
 6062TIP3    H118129   2.451   6.450   0.828
 6062TIP3    H218130   2.586   6.513   0.852
 6063TIP3   OH218131   4.630   2.268   0.934
 6063TIP3    H118132   4.698   2.297   0.994
 6063TIP3    H218133   4.604   2.347   0.886
 6064TIP3   OH218134   7.331   6.103   3.102
 6064TIP3    H118135   7.238   6.086   3.086
 6064TIP3    H218136   7.359   6.157   3.029
 6065TIP3   OH218137   0.995   4.577   0.304
 6065TIP3    H118138   0.902   4.581   0.323
 6065TIP3    H218139   1.017   4.664   0.270
 6066TIP3   OH218140   5.929   2.046   2.025
 6066TIP3    H118141   5.858   2.050   2.090
 6066TIP3    H218142   5.996   1.993   2.066
 6067TIP3   OH218143   7.596   0.902   5.013
 6067TIP3    H118144   7.668   0.854   5.056
 6067TIP3    H218145   7.531   0.915   5.082
 6068TIP3   OH218146   0.377   4.416   2.704
 6068TIP3    H118147   0.401   4.332   2.665
 6068TIP3    H218148   0.414   4.481   2.645
 6069TIP3   OH218149   0.569   3.055   3.768
 6069TIP3    H118150   0.570   2.960   3.752
 6069TIP3    H218151   0.640   3.088   3.713
 6070TIP3   OH218152   7.674   0.263   4.758
 6070TIP3    H118153   7.696   0.170   4.760
 6070TIP3    H218154   7.635   0.281   4.844
 6071TIP3   OH218155   1.962   5.443   6.699
 6071TIP3    H118156   1.967   5.472   6.790
 6071TIP3    H218157   1.997   5.516   6.648
 6072TIP3   OH218158   1.258   7.829   6.510
 6072TIP3    H118159   1.173   7.868   6.527
 6072TIP3    H218160   1.239   7.749   6.460
 6073TIP3   OH218161   1.727   6.806   6.436
 6073TIP3    H118162   1.632   6.817   6.438
 6073TIP3    H218163   1.759   6.864   6.506
 6074TIP3   OH218164   1.453   1.074   5.648
 6074TIP3    H118165   1.497   1.159   5.647
 6074TIP3    H218166   1.440   1.052   5.556
 6075TIP3   OH218167   7.313   1.266   4.338
 6075TIP3    H118168   7.222   1.248   4.361
 6075TIP3    H218169   7.318   1.361   4.332
 6076TIP3   OH218170   0.868   1.301   4.411
 6076TIP3    H118171   0.874   1.337   4.500
 6076TIP3    H218172   0.780   1.264   4.406
 6077TIP3   OH218173   5.776   3.137   3.052
 6077TIP3    H118174   5.777   3.109   3.143
 6077TIP3    H218175   5.861   3.110   3.017
 6078TIP3   OH218176   4.015   6.630   5.756
 6078TIP3    H118177   4.085   6.576   5.792
 6078TIP3    H218178   4.005   6.701   5.820
 6079TIP3   OH218179   5.936   1.253   4.710
 6079TIP3    H118180   5.918   1.176   4.656
 6079TIP3    H218181   6.019   1.233   4.754
 6080TIP3   OH218182   8.131   6.058   2.598
 6080TIP3    H118183   8.211   6.025   2.639
 6080TIP3    H218184   8.124   6.149   2.627
 6081TIP3   OH218185   1.850   3.586   5.089
 6081TIP3    H118186   1.917   3.623   5.147
 6081TIP3    H218187   1.852   3.492   5.107
 6082TIP3   OH218188   6.066   1.370   3.182
 6082TIP3    H118189   5.997   1.420   3.224
 6082TIP3    H218190   6.129   1.435   3.151
 6083TIP3   OH218191   2.771   1.102   0.828
 6083TIP3    H118192   2.712   1.097   0.903
 6083TIP3    H218193   2.715   1.088   0.752
 6084TIP3   OH218194   5.444   5.114   2.017
 6084TIP3    H118195   5.492   5.146   1.941
 6084TIP3    H218196   5.464   5.020   2.020
 6085TIP3   OH218197   5.576   2.552   0.897
 6085TIP3    H118198   5.621   2.586   0.974
 6085TIP3    H218199   5.569   2.458   0.912
 6086TIP3   OH218200   7.876   0.891   3.490
 6086TIP3    H118201   7.882   0.795   3.489
 6086TIP3    H218202   7.935   0.919   3.420
 6087TIP3   OH218203   5.477   4.421   1.976
 6087TIP3    H118204   5.557   4.465   2.004
 6087TIP3    H218205   5.472   4.343   2.031
 6088TIP3   OH218206   4.896   3.680   5.930
 6088TIP3    H118207   4.815   3.702   5.883
 6088TIP3    H218208   4.962   3.673   5.861
 6089TIP3   OH218209   5.442   2.629   0.664
 6089TIP3    H118210   5.512   2.592   0.718
 6089TIP3    H218211   5.406   2.553   0.617
 6090TIP3   OH218212   5.941   1.070   3.536
 6090TIP3    H118213   5.934   1.105   3.447
 6090TIP3    H218214   6.023   1.022   3.537
 6091TIP3   OH218215   4.631   5.890   5.470
 6091TIP3    H118216   4.651   5.976   5.432
 6091TIP3    H218217   4.688   5.883   5.546
 6092TIP3   OH218218   2.053   5.614   3.365
 6092TIP3    H118219   2.044   5.565   3.284
 6092TIP3    H218220   2.029   5.703   3.342
 6093TIP3   OH218221   4.755   0.506   3.698
 6093TIP3    H118222   4.833   0.552   3.729
 6093TIP3    H218223   4.789   0.424   3.662
 6094TIP3   OH218224   4.010   4.036   1.694
 6094TIP3    H118225   4.012   4.120   1.648
 6094TIP3    H218226   4.081   3.985   1.654
 6095TIP3   OH218227   2.841   2.223   2.522
 6095TIP3    H118228   2.935   2.213   2.512
 6095TIP3    H218229   2.810   2.257   2.438
 6096TIP3   OH218230   1.018   4.760   4.611
 6096TIP3    H118231   0.955   4.768   4.540
 6096TIP3    H218232   1.058   4.847   4.618
 6097TIP3   OH218233   6.715   1.421   0.213
 6097TIP3    H118234   6.644   1.390   0.157
 6097TIP3    H218235   6.750   1.343   0.254
 6098TIP3   OH218236   3.610   3.526   6.761
 6098TIP3    H118237   3.561   3.451   6.795
 6098TIP3    H218238   3.577   3.537   6.671
 6099TIP3   OH218239   1.549   0.165   6.480
 6099TIP3    H118240   1.613   0.129   6.418
 6099TIP3    H218241   1.592   0.240   6.519
 6100TIP3   OH218242   0.825   0.688   4.098
 6100TIP3    H118243   0.799   0.632   4.025
 6100TIP3    H218244   0.745   0.734   4.123
 6101TIP3   OH218245   3.618   5.126   0.088
 6101TIP3    H118246   3.631   5.099   0.179
 6101TIP3    H218247   3.706   5.125   0.050
 6102TIP3   OH218248   0.811   6.377   0.977
 6102TIP3    H118249   0.718   6.401   0.969
 6102TIP3    H218250   0.840   6.365   0.886
 6103TIP3   OH218251   4.131   6.313   4.868
 6103TIP3    H118252   4.088   6.276   4.791
 6103TIP3    H218253   4.059   6.335   4.928
 6104TIP3   OH218254   6.563   6.180   2.987
 6104TIP3    H118255   6.522   6.245   2.930
 6104TIP3    H218256   6.605   6.230   3.056
 6105TIP3   OH218257   4.887   0.717   2.173
 6105TIP3    H118258   4.967   0.665   2.184
 6105TIP3    H218259   4.871   0.715   2.079
 6106TIP3   OH218260   6.948   5.088   6.495
 6106TIP3    H118261   6.895   5.011   6.514
 6106TIP3    H218262   6.964   5.128   6.580
 6107TIP3   OH218263   0.458   6.160   3.744
 6107TIP3    H118264   0.445   6.108   3.824
 6107TIP3    H218265   0.507   6.101   3.686
 6108TIP3   OH218266   4.030   6.648   5.473
 6108TIP3    H118267   3.940   6.646   5.440
 6108TIP3    H218268   4.023   6.628   5.566
 6109TIP3   OH218269   1.560   6.151   5.071
 6109TIP3    H118270   1.499   6.224   5.074
 6109TIP3    H218271   1.537   6.103   4.991
 6110TIP3   OH218272   3.196   6.883   5.920
 6110TIP3    H118273   3.196   6.876   6.015
 6110TIP3    H218274   3.238   6.803   5.889
 6111TIP3   OH218275   6.735   4.647   4.583
 6111TIP3    H118276   6.690   4.692   4.655
 6111TIP3    H218277   6.674   4.652   4.510
 6112TIP3   OH218278   5.630   0.186   4.575
 6112TIP3    H118279   5.583   0.114   4.618
 6112TIP3    H218280   5.700   0.143   4.525
 6113TIP3   OH218281   8.261   3.614   3.290
 6113TIP3    H118282   8.234   3.650   3.206
 6113TIP3    H218283   8.182   3.574   3.326
 6114TIP3   OH218284   3.789   1.123   1.889
 6114TIP3    H118285   3.860   1.098   1.949
 6114TIP3    H218286   3.830   1.125   1.803
 6115TIP3   OH218287   0.374   4.483   6.348
 6115TIP3    H118288   0.333   4.569   6.344
 6115TIP3    H218289   0.342   4.444   6.429
 6116TIP3   OH218290   0.781   4.164   5.063
 6116TIP3    H118291   0.753   4.179   5.153
 6116TIP3    H218292   0.736   4.232   5.012
 6117TIP3   OH218293   5.917   6.757   3.865
 6117TIP3    H118294   5.929   6.822   3.796
 6117TIP3    H218295   5.967   6.681   3.836
 6118TIP3   OH218296   5.768   5.768   2.345
 6118TIP3    H118297   5.690   5.712   2.343
 6118TIP3    H218298   5.736   5.851   2.380
 6119TIP3   OH218299   6.762   0.817   5.422
 6119TIP3    H118300   6.789   0.727   5.442
 6119TIP3    H218301   6.802   0.870   5.491
 6120TIP3   OH218302   6.031   2.345   2.057
 6120TIP3    H118303   6.002   2.276   2.116
 6120TIP3    H218304   6.071   2.299   1.983
 6121TIP3   OH218305   7.544   1.339   1.897
 6121TIP3    H118306   7.515   1.321   1.807
 6121TIP3    H218307   7.614   1.404   1.886
 6122TIP3   OH218308   8.119   5.374   5.808
 6122TIP3    H118309   8.036   5.337   5.838
 6122TIP3    H218310   8.170   5.385   5.888
 6123TIP3   OH218311   2.457   5.523   0.904
 6123TIP3    H118312   2.516   5.459   0.944
 6123TIP3    H218313   2.514   5.575   0.846
 6124TIP3   OH218314   5.705   5.038   1.189
 6124TIP3    H118315   5.655   4.986   1.126
 6124TIP3    H218316   5.640   5.098   1.227
 6125TIP3   OH218317   6.704   3.351   3.702
 6125TIP3    H118318   6.770   3.290   3.669
 6125TIP3    H218319   6.712   3.428   3.646
 6126TIP3   OH218320   0.203   2.856   3.954
 6126TIP3    H118321   0.138   2.805   4.003
 6126TIP3    H218322   0.204   2.816   3.867
 6127TIP3   OH218323   6.464   7.286   3.194
 6127TIP3    H118324   6.384   7.337   3.181
 6127TIP3    H218325   6.461   7.219   3.126
 6128TIP3   OH218326   0.418   4.361   4.379
 6128TIP3    H118327   0.377   4.287   4.333
 6128TIP3    H218328   0.467   4.320   4.450
 6129TIP3   OH218329   5.293   7.563   3.652
 6129TIP3    H118330   5.340   7.500   3.597
 6129TIP3    H218331   5.292   7.644   3.600
 6130TIP3   OH218332   2.729   2.458   0.815
 6130TIP3    H118333   2.808   2.418   0.850
 6130TIP3    H218334   2.760   2.520   0.749
 6131TIP3   OH218335   5.539   1.259   4.465
 6131TIP3    H118336   5.512   1.168   4.477
 6131TIP3    H218337   5.597   1.276   4.539
 6132TIP3   OH218338   6.429   4.146   3.416
 6132TIP3    H118339   6.354   4.129   3.474
 6132TIP3    H218340   6.413   4.233   3.381
 6133TIP3   OH218341   6.256   4.385   1.354
 6133TIP3    H118342   6.226   4.473   1.333
 6133TIP3    H218343   6.311   4.396   1.432
 6134TIP3   OH218344   5.621   7.339   6.180
 6134TIP3    H118345   5.552   7.272   6.187
 6134TIP3    H218346   5.616   7.387   6.263
 6135TIP3   OH218347   0.354   6.258   3.079
 6135TIP3    H118348   0.271   6.304   3.072
 6135TIP3    H218349   0.390   6.259   2.990
 6136TIP3   OH218350   2.868   1.917   2.488
 6136TIP3    H118351   2.829   1.905   2.575
 6136TIP3    H218352   2.927   1.842   2.478
 6137TIP3   OH218353   3.469   2.651   3.756
 6137TIP3    H118354   3.492   2.630   3.665
 6137TIP3    H218355   3.524   2.593   3.809
 6138TIP3   OH218356   5.587   4.353   2.945
 6138TIP3    H118357   5.549   4.429   2.901
 6138TIP3    H218358   5.593   4.287   2.877
 6139TIP3   OH218359   6.249   5.610   5.736
 6139TIP3    H118360   6.289   5.525   5.755
 6139TIP3    H218361   6.246   5.614   5.641
 6140TIP3   OH218362   4.107   5.875   0.776
 6140TIP3    H118363   4.093   5.790   0.735
 6140TIP3    H218364   4.027   5.891   0.826
 6141TIP3   OH218365   2.104   7.561   5.452
 6141TIP3    H118366   2.110   7.522   5.539
 6141TIP3    H218367   2.195   7.575   5.425
 6142TIP3   OH218368   7.200   6.588   2.687
 6142TIP3    H118369   7.293   6.588   2.668
 6142TIP3    H218370   7.164   6.515   2.636
 6143TIP3   OH218371   3.313   1.257   5.277
 6143TIP3    H118372   3.376   1.186   5.287
 6143TIP3    H218373   3.275   1.242   5.190
 6144TIP3   OH218374   4.999   0.838   4.023
 6144TIP3    H118375   4.987   0.771   4.089
 6144TIP3    H218376   4.922   0.893   4.029
 6145TIP3   OH218377   6.833   6.698   6.714
 6145TIP3    H118378   6.887   6.636   6.763
 6145TIP3    H218379   6.854   6.784   6.752
 6146TIP3   OH218380   4.444   7.188   0.561
 6146TIP3    H118381   4.479   7.099   0.555
 6146TIP3    H218382   4.350   7.177   0.547
 6147TIP3   OH218383   4.792   6.492   5.178
 6147TIP3    H118384   4.872   6.491   5.231
 6147TIP3    H218385   4.722   6.509   5.241
 6148TIP3   OH218386   3.766   2.588   4.373
 6148TIP3    H118387   3.696   2.573   4.436
 6148TIP3    H218388   3.794   2.500   4.346
 6149TIP3   OH218389   4.689   6.402   1.271
 6149TIP3    H118390   4.657   6.373   1.357
 6149TIP3    H218391   4.784   6.403   1.280
 6150TIP3   OH218392   1.180   0.031   2.040
 6150TIP3    H118393   1.161   0.000   1.952
 6150TIP3    H218394   1.232   0.110   2.027
 6151TIP3   OH218395   1.324   6.533   2.363
 6151TIP3    H118396   1.314   6.483   2.444
 6151TIP3    H218397   1.407   6.502   2.326
 6152TIP3   OH218398   0.051   2.835   4.564
 6152TIP3    H118399  -0.025   2.789   4.599
 6152TIP3    H218400   0.122   2.771   4.569
 6153TIP3   OH218401   3.562   5.514   1.261
 6153TIP3    H118402   3.471   5.495   1.235
 6153TIP3    H218403   3.595   5.571   1.191
 6154TIP3   OH218404   6.149   3.938   1.494
 6154TIP3    H118405   6.166   3.992   1.571
 6154TIP3    H218406   6.158   3.999   1.420
 6155TIP3   OH218407   5.413   4.679   4.473
 6155TIP3    H118408   5.330   4.644   4.441
 6155TIP3    H218409   5.429   4.757   4.420
 6156TIP3   OH218410   1.246   1.333   4.125
 6156TIP3    H118411   1.184   1.261   4.116
 6156TIP3    H218412   1.196   1.402   4.170
 6157TIP3   OH218413   0.693   5.515   5.934
 6157TIP3    H118414   0.634   5.466   5.991
 6157TIP3    H218415   0.636   5.549   5.865
 6158TIP3   OH218416   2.550   0.819   4.439
 6158TIP3    H118417   2.610   0.751   4.470
 6158TIP3    H218418   2.600   0.901   4.448
 6159TIP3   OH218419   6.347   0.758   4.795
 6159TIP3    H118420   6.327   0.813   4.871
 6159TIP3    H218421   6.403   0.813   4.740
 6160TIP3   OH218422   5.327   6.713   6.379
 6160TIP3    H118423   5.232   6.701   6.381
 6160TIP3    H218424   5.339   6.799   6.339
 6161TIP3   OH218425   7.556   7.284   2.968
 6161TIP3    H118426   7.546   7.195   2.936
 6161TIP3    H218427   7.577   7.275   3.061
 6162TIP3   OH218428   7.005   3.201   0.165
 6162TIP3    H118429   6.933   3.163   0.114
 6162TIP3    H218430   7.055   3.125   0.196
 6163TIP3   OH218431   8.241   3.760   6.626
 6163TIP3    H118432   8.317   3.782   6.680
 6163TIP3    H218433   8.213   3.843   6.589
 6164TIP3   OH218434   4.850   6.820   5.324
 6164TIP3    H118435   4.783   6.752   5.324
 6164TIP3    H218436   4.822   6.880   5.254
 6165TIP3   OH218437   1.316   0.707   3.408
 6165TIP3    H118438   1.246   0.643   3.398
 6165TIP3    H218439   1.364   0.705   3.326
 6166TIP3   OH218440   5.974   3.400   5.263
 6166TIP3    H118441   5.983   3.392   5.358
 6166TIP3    H218442   6.058   3.369   5.229
 6167TIP3   OH218443   0.821   3.976   1.896
 6167TIP3    H118444   0.762   4.015   1.960
 6167TIP3    H218445   0.834   3.886   1.926
 6168TIP3   OH218446   4.685   7.643   2.634
 6168TIP3    H118447   4.673   7.548   2.629
 6168TIP3    H218448   4.700   7.670   2.544
 6169TIP3   OH218449   1.122   1.897   4.651
 6169TIP3    H118450   1.072   1.962   4.602
 6169TIP3    H218451   1.174   1.948   4.713
 6170TIP3   OH218452   6.814   1.198   5.765
 6170TIP3    H118453   6.855   1.264   5.822
 6170TIP3    H218454   6.784   1.248   5.689
 6171TIP3   OH218455   0.136   3.219   5.610
 6171TIP3    H118456   0.041   3.207   5.614
 6171TIP3    H218457   0.165   3.156   5.543
 6172TIP3   OH218458   6.395   7.050   1.469
 6172TIP3    H118459   6.431   7.137   1.487
 6172TIP3    H218460   6.412   7.036   1.376
 6173TIP3   OH218461   2.456   6.206   5.418
 6173TIP3    H118462   2.412   6.278   5.375
 6173TIP3    H218463   2.438   6.218   5.511
 6174TIP3   OH218464   2.528   2.889   4.948
 6174TIP3    H118465   2.602   2.834   4.923
 6174TIP3    H218466   2.513   2.945   4.871
 6175TIP3   OH218467   3.184   1.126   4.306
 6175TIP3    H118468   3.154   1.164   4.389
 6175TIP3    H218469   3.137   1.044   4.299
 6176TIP3   OH218470   4.730   7.174   4.464
 6176TIP3    H118471   4.670   7.121   4.516
 6176TIP3    H218472   4.807   7.185   4.521
 6177TIP3   OH218473   6.332   6.003   4.541
 6177TIP3    H118474   6.302   5.944   4.610
 6177TIP3    H218475   6.297   5.966   4.461
 6178TIP3   OH218476   5.360   3.039   0.350
 6178TIP3    H118477   5.420   2.972   0.385
 6178TIP3    H218478   5.319   3.077   0.427
 6179TIP3   OH218479   3.301   5.304   5.210
 6179TIP3    H118480   3.231   5.369   5.214
 6179TIP3    H218481   3.382   5.356   5.204
 6180TIP3   OH218482   5.562   5.858   2.149
 6180TIP3    H118483   5.622   5.818   2.211
 6180TIP3    H218484   5.579   5.952   2.156
 6181TIP3   OH218485   5.646   1.152   6.379
 6181TIP3    H118486   5.610   1.113   6.459
 6181TIP3    H218487   5.679   1.077   6.329
 6182TIP3   OH218488   4.020   3.783   4.232
 6182TIP3    H118489   4.089   3.797   4.297
 6182TIP3    H218490   3.952   3.736   4.279
 6183TIP3   OH218491   6.715   0.884   0.392
 6183TIP3    H118492   6.738   0.815   0.454
 6183TIP3    H218493   6.757   0.962   0.426
 6184TIP3   OH218494   1.177   0.967   3.413
 6184TIP3    H118495   1.232   0.889   3.409
 6184TIP3    H218496   1.209   1.022   3.341
 6185TIP3   OH218497   0.281   2.067   0.141
 6185TIP3    H118498   0.303   2.159   0.156
 6185TIP3    H218499   0.345   2.018   0.193
 6186TIP3   OH218500   3.811   4.597   4.535
 6186TIP3    H118501   3.893   4.596   4.584
 6186TIP3    H218502   3.767   4.516   4.561
 6187TIP3   OH218503   3.490   5.264   3.430
 6187TIP3    H118504   3.551   5.337   3.424
 6187TIP3    H218505   3.412   5.302   3.472
 6188TIP3   OH218506   6.233   1.883   5.126
 6188TIP3    H118507   6.284   1.897   5.206
 6188TIP3    H218508   6.202   1.970   5.102
 6189TIP3   OH218509   3.705   4.723   3.014
 6189TIP3    H118510   3.778   4.668   3.043
 6189TIP3    H218511   3.627   4.669   3.030
 6190TIP3   OH218512   5.216   7.125   5.841
 6190TIP3    H118513   5.167   7.159   5.767
 6190TIP3    H218514   5.292   7.081   5.801
 6191TIP3   OH218515   6.118   1.314   2.806
 6191TIP3    H118516   6.059   1.367   2.753
 6191TIP3    H218517   6.126   1.232   2.757
 6192TIP3   OH218518   3.278   3.676   3.212
 6192TIP3    H118519   3.192   3.692   3.175
 6192TIP3    H218520   3.270   3.589   3.253
 6193TIP3   OH218521   8.091   3.206   1.737
 6193TIP3    H118522   8.168   3.171   1.783
 6193TIP3    H218523   8.070   3.287   1.784
 6194TIP3   OH218524   7.988   0.707   3.307
 6194TIP3    H118525   7.898   0.726   3.278
 6194TIP3    H218526   7.998   0.613   3.290
 6195TIP3   OH218527   0.657   2.687   4.303
 6195TIP3    H118528   0.626   2.643   4.224
 6195TIP3    H218529   0.597   2.659   4.372
 6196TIP3   OH218530   8.253   2.515   0.924
 6196TIP3    H118531   8.332   2.515   0.869
 6196TIP3    H218532   8.189   2.565   0.874
 6197TIP3   OH218533   1.670   7.690   1.757
 6197TIP3    H118534   1.747   7.634   1.747
 6197TIP3    H218535   1.598   7.630   1.774
 6198TIP3   OH218536   7.330   0.769   3.002
 6198TIP3    H118537   7.354   0.686   3.043
 6198TIP3    H218538   7.330   0.751   2.908
 6199TIP3   OH218539   2.171   3.318   5.736
 6199TIP3    H118540   2.251   3.360   5.771
 6199TIP3    H218541   2.198   3.229   5.716
 6200TIP3   OH218542   6.169   5.702   0.761
 6200TIP3    H118543   6.172   5.640   0.834
 6200TIP3    H218544   6.083   5.690   0.723
 6201TIP3   OH218545   1.268   5.967   1.015
 6201TIP3    H118546   1.201   6.009   1.069
 6201TIP3    H218547   1.219   5.902   0.964
 6202TIP3   OH218548   6.886   6.874   5.575
 6202TIP3    H118549   6.970   6.833   5.596
 6202TIP3    H218550   6.834   6.803   5.536
 6203TIP3   OH218551   3.222   5.667   5.199
 6203TIP3    H118552   3.271   5.623   5.130
 6203TIP3    H218553   3.182   5.596   5.249
 6204TIP3   OH218554   6.578   2.333   6.251
 6204TIP3    H118555   6.540   2.277   6.319
 6204TIP3    H218556   6.516   2.405   6.242
 6205TIP3   OH218557   5.336   1.450   4.495
 6205TIP3    H118558   5.390   1.509   4.547
 6205TIP3    H218559   5.394   1.377   4.472
 6206TIP3   OH218560   4.913   1.680   1.102
 6206TIP3    H118561   4.877   1.667   1.189
 6206TIP3    H218562   4.904   1.595   1.059
 6207TIP3   OH218563   3.276   7.009   0.349
 6207TIP3    H118564   3.189   7.048   0.355
 6207TIP3    H218565   3.284   6.982   0.258
 6208TIP3   OH218566   7.892   4.473   2.630
 6208TIP3    H118567   7.967   4.503   2.579
 6208TIP3    H218568   7.835   4.550   2.635
 6209TIP3   OH218569   6.262   7.792   3.780
 6209TIP3    H118570   6.325   7.720   3.783
 6209TIP3    H218571   6.218   7.782   3.696
 6210TIP3   OH218572   3.606   3.912   1.342
 6210TIP3    H118573   3.628   3.825   1.377
 6210TIP3    H218574   3.646   3.973   1.404
 6211TIP3   OH218575   6.561   4.498   3.614
 6211TIP3    H118576   6.649   4.508   3.649
 6211TIP3    H218577   6.522   4.584   3.623
 6212TIP3   OH218578   8.140   5.103   3.110
 6212TIP3    H118579   8.079   5.075   3.179
 6212TIP3    H218580   8.083   5.137   3.041
 6213TIP3   OH218581   5.582   0.330   6.067
 6213TIP3    H118582   5.672   0.311   6.042
 6213TIP3    H218583   5.575   0.297   6.157
 6214TIP3   OH218584   3.404   5.449   2.584
 6214TIP3    H118585   3.309   5.460   2.577
 6214TIP3    H218586   3.421   5.449   2.679
 6215TIP3   OH218587   6.390   0.562   6.195
 6215TIP3    H118588   6.409   0.478   6.153
 6215TIP3    H218589   6.335   0.608   6.132
 6216TIP3   OH218590   6.033   2.394   5.714
 6216TIP3    H118591   5.973   2.320   5.722
 6216TIP3    H218592   6.072   2.384   5.628
 6217TIP3   OH218593   5.282   6.199   1.652
 6217TIP3    H118594   5.299   6.105   1.652
 6217TIP3    H218595   5.223   6.213   1.726
 6218TIP3   OH218596   6.858   3.771   3.074
 6218TIP3    H118597   6.935   3.808   3.115
 6218TIP3    H218598   6.879   3.678   3.062
 6219TIP3   OH218599   3.080   6.658   5.625
 6219TIP3    H118600   3.169   6.661   5.661
 6219TIP3    H218601   3.024   6.671   5.701
 6220TIP3   OH218602   2.791   0.544   0.050
 6220TIP3    H118603   2.752   0.623   0.087
 6220TIP3    H218604   2.759   0.541  -0.040
 6221TIP3   OH218605   7.113   3.866   2.217
 6221TIP3    H118606   7.086   3.957   2.211
 6221TIP3    H218607   7.036   3.816   2.188
 6222TIP3   OH218608   6.491   2.394   2.915
 6222TIP3    H118609   6.554   2.464   2.899
 6222TIP3    H218610   6.442   2.422   2.992
 6223TIP3   OH218611   7.299   2.785   6.720
 6223TIP3    H118612   7.299   2.853   6.652
 6223TIP3    H218613   7.216   2.798   6.767
 6224TIP3   OH218614   6.409   2.732   5.273
 6224TIP3    H118615   6.459   2.776   5.342
 6224TIP3    H218616   6.349   2.675   5.321
 6225TIP3   OH218617   7.963   2.720   2.173
 6225TIP3    H118618   7.944   2.733   2.080
 6225TIP3    H218619   7.915   2.791   2.217
 6226TIP3   OH218620   3.897   3.431   5.888
 6226TIP3    H118621   3.988   3.439   5.917
 6226TIP3    H218622   3.902   3.435   5.792
 6227TIP3   OH218623   6.569   1.712   2.413
 6227TIP3    H118624   6.625   1.759   2.351
 6227TIP3    H218625   6.573   1.621   2.384
 6228TIP3   OH218626   4.038   1.812   4.646
 6228TIP3    H118627   4.105   1.798   4.712
 6228TIP3    H218628   3.955   1.806   4.694
 6229TIP3   OH218629   3.584   2.883   5.414
 6229TIP3    H118630   3.636   2.925   5.344
 6229TIP3    H218631   3.566   2.953   5.476
 6230TIP3   OH218632   7.215   5.903   3.880
 6230TIP3    H118633   7.170   5.822   3.906
 6230TIP3    H218634   7.241   5.943   3.963
 6231TIP3   OH218635   5.606   7.470   4.074
 6231TIP3    H118636   5.557   7.403   4.122
 6231TIP3    H218637   5.544   7.502   4.008
 6232TIP3   OH218638   2.655   4.773   5.031
 6232TIP3    H118639   2.749   4.766   5.048
 6232TIP3    H218640   2.620   4.689   5.060
 6233TIP3   OH218641   4.028   3.927   1.252
 6233TIP3    H118642   4.088   3.873   1.304
 6233TIP3    H218643   4.044   4.016   1.282
 6234TIP3   OH218644   0.742   1.073   5.776
 6234TIP3    H118645   0.675   1.128   5.735
 6234TIP3    H218646   0.803   1.053   5.705
 6235TIP3   OH218647   7.321   6.976   3.359
 6235TIP3    H118648   7.316   6.928   3.442
 6235TIP3    H218649   7.286   7.062   3.380
 6236TIP3   OH218650   6.914   4.237   2.767
 6236TIP3    H118651   6.921   4.164   2.705
 6236TIP3    H218652   6.863   4.202   2.839
 6237TIP3   OH218653   0.907   6.057   3.604
 6237TIP3    H118654   0.946   6.011   3.531
 6237TIP3    H218655   0.941   6.013   3.682
 6238TIP3   OH218656   1.186   0.035   2.311
 6238TIP3    H118657   1.134   0.010   2.235
 6238TIP3    H218658   1.275   0.006   2.291
 6239TIP3   OH218659   1.622   5.782   3.211
 6239TIP3    H118660   1.616   5.796   3.116
 6239TIP3    H218661   1.557   5.714   3.229
 6240TIP3   OH218662   1.855   2.537   0.179
 6240TIP3    H118663   1.946   2.532   0.208
 6240TIP3    H218664   1.804   2.533   0.260
 6241TIP3   OH218665   5.800   2.582   1.543
 6241TIP3    H118666   5.819   2.527   1.619
 6241TIP3    H218667   5.871   2.563   1.481
 6242TIP3   OH218668   3.917   3.234   6.681
 6242TIP3    H118669   3.941   3.326   6.686
 6242TIP3    H218670   3.881   3.213   6.767
 6243TIP3   OH218671   8.337   4.870   6.181
 6243TIP3    H118672   8.331   4.805   6.110
 6243TIP3    H218673   8.279   4.836   6.249
 6244TIP3   OH218674   7.134   6.157   5.244
 6244TIP3    H118675   7.087   6.221   5.190
 6244TIP3    H218676   7.170   6.209   5.316
 6245TIP3   OH218677   1.579   5.927   1.646
 6245TIP3    H118678   1.656   5.903   1.594
 6245TIP3    H218679   1.595   5.890   1.732
 6246TIP3   OH218680   6.094   5.112   1.371
 6246TIP3    H118681   6.148   5.132   1.295
 6246TIP3    H218682   6.134   5.160   1.443
 6247TIP3   OH218683   2.731   7.788   4.672
 6247TIP3    H118684   2.744   7.752   4.760
 6247TIP3    H218685   2.636   7.799   4.666
 6248TIP3   OH218686   8.163   5.877   1.180
 6248TIP3    H118687   8.076   5.837   1.180
 6248TIP3    H218688   8.213   5.825   1.116
 6249TIP3   OH218689   1.897   1.164   5.046
 6249TIP3    H118690   1.926   1.143   5.134
 6249TIP3    H218691   1.804   1.141   5.045
 6250TIP3   OH218692   6.826   2.392   2.184
 6250TIP3    H118693   6.913   2.354   2.189
 6250TIP3    H218694   6.841   2.486   2.173
 6251TIP3   OH218695   1.816   5.184   4.973
 6251TIP3    H118696   1.801   5.238   5.051
 6251TIP3    H218697   1.762   5.224   4.905
 6252TIP3   OH218698   0.378   4.457   1.177
 6252TIP3    H118699   0.359   4.529   1.117
 6252TIP3    H218700   0.465   4.479   1.213
 6253TIP3   OH218701   3.621   7.421   0.061
 6253TIP3    H118702   3.690   7.477   0.095
 6253TIP3    H218703   3.663   7.371  -0.009
 6254TIP3   OH218704   5.035   2.463   3.608
 6254TIP3    H118705   4.973   2.511   3.662
 6254TIP3    H218706   5.063   2.390   3.664
 6255TIP3   OH218707   1.406   4.448   4.088
 6255TIP3    H118708   1.501   4.457   4.098
 6255TIP3    H218709   1.393   4.437   3.994
 6256TIP3   OH218710   7.308   3.646   5.216
 6256TIP3    H118711   7.337   3.713   5.154
 6256TIP3    H218712   7.323   3.685   5.302
 6257TIP3   OH218713   6.687   5.159   5.908
 6257TIP3    H118714   6.734   5.076   5.902
 6257TIP3    H218715   6.639   5.165   5.826
 6258TIP3   OH218716   1.224   0.993   1.326
 6258TIP3    H118717   1.184   0.957   1.405
 6258TIP3    H218718   1.299   0.936   1.308
 6259TIP3   OH218719   5.963   6.993   2.496
 6259TIP3    H118720   5.903   6.923   2.522
 6259TIP3    H218721   6.018   6.954   2.428
 6260TIP3   OH218722   1.663   0.308   6.699
 6260TIP3    H118723   1.620   0.320   6.783
 6260TIP3    H218724   1.738   0.252   6.717
 6261TIP3   OH218725   1.236   2.047   1.548
 6261TIP3    H118726   1.227   2.118   1.611
 6261TIP3    H218727   1.330   2.043   1.531
 6262TIP3   OH218728   3.832   4.226   6.649
 6262TIP3    H118729   3.790   4.147   6.616
 6262TIP3    H218730   3.762   4.291   6.653
 6263TIP3   OH218731   0.070   7.688   1.904
 6263TIP3    H118732   0.129   7.709   1.831
 6263TIP3    H218733   0.120   7.713   1.982
 6264TIP3   OH218734   7.733   4.635   6.068
 6264TIP3    H118735   7.658   4.694   6.063
 6264TIP3    H218736   7.804   4.690   6.103
 6265TIP3   OH218737   5.620   5.341   0.871
 6265TIP3    H118738   5.538   5.387   0.889
 6265TIP3    H218739   5.672   5.355   0.950
 6266TIP3   OH218740   5.480   6.100   1.346
 6266TIP3    H118741   5.480   6.011   1.382
 6266TIP3    H218742   5.543   6.098   1.275
 6267TIP3   OH218743   2.204   3.909   1.639
 6267TIP3    H118744   2.195   3.851   1.714
 6267TIP3    H218745   2.242   3.854   1.571
 6268TIP3   OH218746   7.175   2.550   2.384
 6268TIP3    H118747   7.084   2.549   2.354
 6268TIP3    H218748   7.188   2.640   2.415
 6269TIP3   OH218749   3.776   2.140   1.472
 6269TIP3    H118750   3.731   2.055   1.467
 6269TIP3    H218751   3.840   2.129   1.542
 6270TIP3   OH218752   0.293   1.979   2.637
 6270TIP3    H118753   0.287   1.903   2.695
 6270TIP3    H218754   0.232   1.958   2.566
 6271TIP3   OH218755   5.402   1.217   1.084
 6271TIP3    H118756   5.474   1.156   1.099
 6271TIP3    H218757   5.324   1.161   1.084
 6272TIP3   OH218758   1.062   4.259   5.222
 6272TIP3    H118759   1.095   4.262   5.312
 6272TIP3    H218760   0.967   4.261   5.232
 6273TIP3   OH218761   7.225   4.211   6.217
 6273TIP3    H118762   7.137   4.210   6.179
 6273TIP3    H218763   7.260   4.297   6.194
 6274TIP3   OH218764   1.449   0.124   0.055
 6274TIP3    H118765   1.418   0.211   0.030
 6274TIP3    H218766   1.488   0.089  -0.025
 6275TIP3   OH218767   7.861   1.942   6.369
 6275TIP3    H118768   7.931   1.940   6.435
 6275TIP3    H218769   7.862   1.854   6.330
 6276TIP3   OH218770   0.399   3.918   4.377
 6276TIP3    H118771   0.430   3.950   4.292
 6276TIP3    H218772   0.479   3.907   4.429
 6277TIP3   OH218773   2.256   1.102   0.024
 6277TIP3    H118774   2.322   1.115   0.091
 6277TIP3    H218775   2.173   1.117   0.069
 6278TIP3   OH218776   0.755   5.411   0.314
 6278TIP3    H118777   0.729   5.462   0.237
 6278TIP3    H218778   0.815   5.345   0.280
 6279TIP3   OH218779   2.585   5.323   0.575
 6279TIP3    H118780   2.649   5.386   0.543
 6279TIP3    H218781   2.511   5.329   0.514
 6280TIP3   OH218782   3.060   5.060   3.804
 6280TIP3    H118783   3.020   5.143   3.778
 6280TIP3    H218784   2.986   5.002   3.822
 6281TIP3   OH218785   6.071   5.051   2.177
 6281TIP3    H118786   6.075   4.956   2.165
 6281TIP3    H218787   6.091   5.064   2.270
 6282TIP3   OH218788   4.170   4.791   0.391
 6282TIP3    H118789   4.117   4.764   0.316
 6282TIP3    H218790   4.240   4.844   0.353
 6283TIP3   OH218791   3.188   0.675   1.043
 6283TIP3    H118792   3.221   0.762   1.065
 6283TIP3    H218793   3.264   0.617   1.052
 6284TIP3   OH218794   4.292   7.080   2.261
 6284TIP3    H118795   4.215   7.129   2.290
 6284TIP3    H218796   4.300   7.103   2.168
 6285TIP3   OH218797   2.633   0.749   4.087
 6285TIP3    H118798   2.621   0.782   3.998
 6285TIP3    H218799   2.546   0.757   4.127
 6286TIP3   OH218800   3.014   6.588   0.104
 6286TIP3    H118801   3.024   6.527   0.032
 6286TIP3    H218802   2.974   6.666   0.064
 6287TIP3   OH218803   2.005   6.416   0.488
 6287TIP3    H118804   1.933   6.459   0.535
 6287TIP3    H218805   2.055   6.489   0.449
 6288TIP3   OH218806   1.145   3.550   5.338
 6288TIP3    H118807   1.161   3.461   5.308
 6288TIP3    H218808   1.125   3.600   5.259
 6289TIP3   OH218809   6.028   2.783   3.027
 6289TIP3    H118810   6.045   2.762   2.935
 6289TIP3    H218811   6.112   2.813   3.061
 6290TIP3   OH218812   1.449   2.959   3.249
 6290TIP3    H118813   1.515   3.014   3.290
 6290TIP3    H218814   1.492   2.874   3.236
 6291TIP3   OH218815   6.435   1.907   5.320
 6291TIP3    H118816   6.488   1.832   5.292
 6291TIP3    H218817   6.458   1.920   5.412
 6292TIP3   OH218818   7.977   4.678   0.671
 6292TIP3    H118819   7.991   4.584   0.682
 6292TIP3    H218820   7.991   4.714   0.759
 6293TIP3   OH218821   1.457   0.637   6.414
 6293TIP3    H118822   1.518   0.640   6.487
 6293TIP3    H218823   1.502   0.585   6.347
 6294TIP3   OH218824   5.470   3.827   5.462
 6294TIP3    H118825   5.469   3.743   5.416
 6294TIP3    H218826   5.549   3.871   5.430
 6295TIP3   OH218827   6.025   0.694   6.097
 6295TIP3    H118828   5.933   0.680   6.119
 6295TIP3    H218829   6.060   0.607   6.079
 6296TIP3   OH218830   5.349   1.323   5.494
 6296TIP3    H118831   5.349   1.249   5.556
 6296TIP3    H218832   5.256   1.336   5.474
 6297TIP3   OH218833   0.663   7.004   1.744
 6297TIP3    H118834   0.677   7.020   1.838
 6297TIP3    H218835   0.582   7.052   1.724
 6298TIP3   OH218836   5.579   1.942   2.349
 6298TIP3    H118837   5.484   1.947   2.341
 6298TIP3    H218838   5.599   1.983   2.433
 6299TIP3   OH218839   2.415   7.298   4.855
 6299TIP3    H118840   2.478   7.315   4.925
 6299TIP3    H218841   2.334   7.273   4.901
 6300TIP3   OH218842   6.161   1.187   0.610
 6300TIP3    H118843   6.123   1.103   0.586
 6300TIP3    H218844   6.256   1.172   0.609
 6301TIP3   OH218845   2.295   6.982   0.932
 6301TIP3    H118846   2.350   7.011   0.859
 6301TIP3    H218847   2.355   6.937   0.991
 6302TIP3   OH218848   6.242   3.966   4.336
 6302TIP3    H118849   6.217   4.036   4.276
 6302TIP3    H218850   6.337   3.971   4.341
 6303TIP3   OH218851   2.608   0.289   5.356
 6303TIP3    H118852   2.597   0.197   5.329
 6303TIP3    H218853   2.585   0.339   5.277
 6304TIP3   OH218854   8.109   3.685   3.857
 6304TIP3    H118855   8.159   3.739   3.918
 6304TIP3    H218856   8.126   3.595   3.884
 6305TIP3   OH218857   0.097   2.459   6.674
 6305TIP3    H118858   0.045   2.382   6.649
 6305TIP3    H218859   0.068   2.528   6.614
 6306TIP3   OH218860   7.726   2.108   6.570
 6306TIP3    H118861   7.643   2.141   6.535
 6306TIP3    H218862   7.746   2.031   6.516
 6307TIP3   OH218863   0.825   6.847   5.274
 6307TIP3    H118864   0.909   6.803   5.276
 6307TIP3    H218865   0.775   6.807   5.345
 6308TIP3   OH218866   5.500   2.085   6.325
 6308TIP3    H118867   5.448   2.115   6.400
 6308TIP3    H218868   5.586   2.066   6.362
 6309TIP3   OH218869   7.956   7.749   5.883
 6309TIP3    H118870   7.922   7.699   5.808
 6309TIP3    H218871   8.004   7.685   5.935
 6310TIP3   OH218872   4.443   0.935   6.117
 6310TIP3    H118873   4.484   0.945   6.203
 6310TIP3    H218874   4.388   1.013   6.108
 6311TIP3   OH218875   2.031   2.349   0.903
 6311TIP3    H118876   1.936   2.343   0.892
 6311TIP3    H218877   2.062   2.260   0.888
 6312TIP3   OH218878   0.517   4.020   4.155
 6312TIP3    H118879   0.602   3.977   4.151
 6312TIP3    H218880   0.523   4.090   4.090
 6313TIP3   OH218881   2.128   6.576   5.444
 6313TIP3    H118882   2.128   6.672   5.442
 6313TIP3    H218883   2.095   6.551   5.358
 6314TIP3   OH218884   7.898   5.169   4.212
 6314TIP3    H118885   7.811   5.156   4.250
 6314TIP3    H218886   7.926   5.081   4.185
 6315TIP3   OH218887   2.920   4.880   2.920
 6315TIP3    H118888   2.939   4.849   2.832
 6315TIP3    H218889   2.871   4.961   2.907
 6316TIP3   OH218890   2.211   6.640   3.229
 6316TIP3    H118891   2.164   6.642   3.146
 6316TIP3    H218892   2.142   6.628   3.295
 6317TIP3   OH218893   7.228   4.062   5.631
 6317TIP3    H118894   7.321   4.043   5.645
 6317TIP3    H218895   7.185   4.029   5.709
 6318TIP3   OH218896   7.812   6.929   2.413
 6318TIP3    H118897   7.847   6.988   2.480
 6318TIP3    H218898   7.753   6.984   2.360
 6319TIP3   OH218899   2.575   4.670   3.582
 6319TIP3    H118900   2.593   4.593   3.636
 6319TIP3    H218901   2.532   4.635   3.504
 6320TIP3   OH218902   5.543   3.443   6.151
 6320TIP3    H118903   5.469   3.404   6.103
 6320TIP3    H218904   5.556   3.384   6.226
 6321TIP3   OH218905   1.735   5.052   1.162
 6321TIP3    H118906   1.737   4.959   1.139
 6321TIP3    H218907   1.642   5.075   1.160
 6322TIP3   OH218908   0.763   6.193   5.294
 6322TIP3    H118909   0.691   6.133   5.315
 6322TIP3    H218910   0.832   6.170   5.356
 6323TIP3   OH218911   6.056   4.790   0.689
 6323TIP3    H118912   6.116   4.862   0.709
 6323TIP3    H218913   6.013   4.817   0.608
 6324TIP3   OH218914   3.475   4.033   3.874
 6324TIP3    H118915   3.498   4.012   3.783
 6324TIP3    H218916   3.509   3.959   3.925
 6325TIP3   OH218917   4.927   5.646   2.226
 6325TIP3    H118918   4.971   5.563   2.204
 6325TIP3    H218919   4.835   5.623   2.232
 6326TIP3   OH218920   1.952   7.397   6.615
 6326TIP3    H118921   2.029   7.433   6.660
 6326TIP3    H218922   1.939   7.311   6.655
 6327TIP3   OH218923   7.879   1.267   1.944
 6327TIP3    H118924   7.873   1.262   2.039
 6327TIP3    H218925   7.849   1.182   1.913
 6328TIP3   OH218926   1.324   1.658   1.594
 6328TIP3    H118927   1.391   1.621   1.536
 6328TIP3    H218928   1.374   1.701   1.664
 6329TIP3   OH218929   8.091   7.360   4.393
 6329TIP3    H118930   8.088   7.306   4.472
 6329TIP3    H218931   8.183   7.361   4.367
 6330TIP3   OH218932   0.168   6.779   4.061
 6330TIP3    H118933   0.133   6.743   3.980
 6330TIP3    H218934   0.188   6.702   4.115
 6331TIP3   OH218935   6.165   1.291   3.593
 6331TIP3    H118936   6.123   1.377   3.580
 6331TIP3    H218937   6.108   1.230   3.547
 6332TIP3   OH218938   3.973   5.880   1.496
 6332TIP3    H118939   3.938   5.969   1.499
 6332TIP3    H218940   4.027   5.878   1.417
 6333TIP3   OH218941   1.737   7.767   0.918
 6333TIP3    H118942   1.731   7.672   0.931
 6333TIP3    H218943   1.669   7.787   0.854
 6334TIP3   OH218944   0.272   0.518   2.031
 6334TIP3    H118945   0.180   0.495   2.019
 6334TIP3    H218946   0.279   0.545   2.123
 6335TIP3   OH218947   1.165   0.377   4.324
 6335TIP3    H118948   1.256   0.360   4.350
 6335TIP3    H218949   1.171   0.445   4.257
 6336TIP3   OH218950   0.736   3.579   5.653
 6336TIP3    H118951   0.800   3.638   5.614
 6336TIP3    H218952   0.655   3.629   5.656
 6337TIP3   OH218953   1.878   3.992   2.414
 6337TIP3    H118954   1.964   4.031   2.398
 6337TIP3    H218955   1.817   4.048   2.367
 6338TIP3   OH218956   6.073   0.696   4.062
 6338TIP3    H118957   6.039   0.742   4.139
 6338TIP3    H218958   6.116   0.764   4.011
 6339TIP3   OH218959   1.764   3.664   4.842
 6339TIP3    H118960   1.814   3.735   4.802
 6339TIP3    H218961   1.802   3.654   4.929
 6340TIP3   OH218962   5.463   2.511   2.983
 6340TIP3    H118963   5.417   2.438   2.943
 6340TIP3    H218964   5.544   2.519   2.932
 6341TIP3   OH218965   7.579   0.567   6.321
 6341TIP3    H118966   7.560   0.648   6.274
 6341TIP3    H218967   7.528   0.574   6.402
 6342TIP3   OH218968   5.916   6.960   4.695
 6342TIP3    H118969   6.011   6.950   4.693
 6342TIP3    H218970   5.900   7.022   4.767
 6343TIP3   OH218971   5.266   5.920   1.167
 6343TIP3    H118972   5.283   5.980   1.239
 6343TIP3    H218973   5.244   5.976   1.093
 6344TIP3   OH218974   6.965   4.605   1.004
 6344TIP3    H118975   6.931   4.550   1.075
 6344TIP3    H218976   6.888   4.645   0.966
 6345TIP3   OH218977   7.418   0.565   4.137
 6345TIP3    H118978   7.433   0.567   4.043
 6345TIP3    H218979   7.324   0.546   4.146
 6346TIP3   OH218980   1.746   3.584   2.183
 6346TIP3    H118981   1.650   3.583   2.181
 6346TIP3    H218982   1.767   3.669   2.221
 6347TIP3   OH218983   6.980   5.994   2.517
 6347TIP3    H118984   6.962   5.904   2.543
 6347TIP3    H218985   7.045   6.025   2.581
 6348TIP3   OH218986   6.735   7.007   3.789
 6348TIP3    H118987   6.671   7.034   3.724
 6348TIP3    H218988   6.719   7.064   3.865
 6349TIP3   OH218989   0.403   1.187   5.965
 6349TIP3    H118990   0.415   1.171   6.059
 6349TIP3    H218991   0.310   1.210   5.957
 6350TIP3   OH218992   7.168   4.567   0.828
 6350TIP3    H118993   7.202   4.647   0.790
 6350TIP3    H218994   7.103   4.597   0.893
 6351TIP3   OH218995   5.442   0.560   3.563
 6351TIP3    H118996   5.528   0.538   3.599
 6351TIP3    H218997   5.444   0.526   3.473
 6352TIP3   OH218998   8.084   6.512   5.352
 6352TIP3    H118999   8.016   6.452   5.320
 6352TIP3    H219000   8.117   6.470   5.431
 6353TIP3   OH219001   4.197   5.014   6.673
 6353TIP3    H119002   4.223   5.013   6.766
 6353TIP3    H219003   4.108   5.050   6.674
 6354TIP3   OH219004   4.483   5.019   1.200
 6354TIP3    H119005   4.511   5.088   1.260
 6354TIP3    H219006   4.543   4.946   1.218
 6355TIP3   OH219007   1.724   5.784   5.591
 6355TIP3    H119008   1.776   5.735   5.654
 6355TIP3    H219009   1.775   5.864   5.575
 6356TIP3   OH219010   5.347   1.405   3.255
 6356TIP3    H119011   5.283   1.424   3.324
 6356TIP3    H219012   5.334   1.313   3.234
 6357TIP3   OH219013   6.121   7.464   2.650
 6357TIP3    H119014   6.201   7.471   2.702
 6357TIP3    H219015   6.106   7.370   2.643
 6358TIP3   OH219016   3.873   7.113   2.184
 6358TIP3    H119017   3.915   7.168   2.118
 6358TIP3    H219018   3.929   7.123   2.261
 6359TIP3   OH219019   2.061   1.238   2.339
 6359TIP3    H119020   2.109   1.202   2.264
 6359TIP3    H219021   2.101   1.195   2.415
 6360TIP3   OH219022   7.790   0.789   5.909
 6360TIP3    H119023   7.810   0.866   5.962
 6360TIP3    H219024   7.802   0.817   5.819
 6361TIP3   OH219025   4.251   2.056   6.393
 6361TIP3    H119026   4.243   1.961   6.387
 6361TIP3    H219027   4.345   2.073   6.388
 6362TIP3   OH219028   4.769   0.284   5.634
 6362TIP3    H119029   4.722   0.365   5.653
 6362TIP3    H219030   4.858   0.312   5.613
 6363TIP3   OH219031   1.455   6.275   3.528
 6363TIP3    H119032   1.511   6.206   3.494
 6363TIP3    H219033   1.369   6.234   3.537
 6364TIP3   OH219034   2.567   7.082   6.130
 6364TIP3    H119035   2.562   6.986   6.129
 6364TIP3    H219036   2.619   7.103   6.208
 6365TIP3   OH219037   3.005   3.593   5.456
 6365TIP3    H119038   2.954   3.595   5.376
 6365TIP3    H219039   3.044   3.680   5.462
 6366TIP3   OH219040   4.368   2.798   4.445
 6366TIP3    H119041   4.459   2.786   4.421
 6366TIP3    H219042   4.340   2.714   4.480
 6367TIP3   OH219043   1.325   6.682   1.802
 6367TIP3    H119044   1.419   6.699   1.808
 6367TIP3    H219045   1.316   6.623   1.727
 6368TIP3   OH219046   6.446   1.446   2.289
 6368TIP3    H119047   6.478   1.357   2.274
 6368TIP3    H219048   6.461   1.491   2.206
 6369TIP3   OH219049   4.870   1.947   5.023
 6369TIP3    H119050   4.811   1.974   5.093
 6369TIP3    H219051   4.860   2.014   4.955
 6370TIP3   OH219052   4.589   7.728   3.167
 6370TIP3    H119053   4.507   7.770   3.143
 6370TIP3    H219054   4.616   7.681   3.088
 6371TIP3   OH219055   0.531   3.272   2.593
 6371TIP3    H119056   0.503   3.183   2.572
 6371TIP3    H219057   0.452   3.315   2.626
 6372TIP3   OH219058   1.629   2.029   4.114
 6372TIP3    H119059   1.640   2.029   4.019
 6372TIP3    H219060   1.570   2.103   4.131
 6373TIP3   OH219061   7.738   4.951   5.171
 6373TIP3    H119062   7.689   4.908   5.101
 6373TIP3    H219063   7.739   5.043   5.146
 6374TIP3   OH219064   7.894   0.392   5.694
 6374TIP3    H119065   7.804   0.399   5.726
 6374TIP3    H219066   7.886   0.368   5.602
 6375TIP3   OH219067   5.905   6.166   4.796
 6375TIP3    H119068   5.883   6.228   4.727
 6375TIP3    H219069   5.884   6.212   4.878
 6376TIP3   OH219070   8.224   7.464   2.042
 6376TIP3    H119071   8.289   7.413   2.089
 6376TIP3    H219072   8.275   7.520   1.983
 6377TIP3   OH219073   5.583   7.387   4.611
 6377TIP3    H119074   5.554   7.350   4.528
 6377TIP3    H219075   5.655   7.446   4.587
 6378TIP3   OH219076   2.002   7.454   2.089
 6378TIP3    H119077   1.948   7.435   2.166
 6378TIP3    H219078   2.074   7.392   2.096
 6379TIP3   OH219079   5.093   4.163   4.079
 6379TIP3    H119080   5.064   4.085   4.126
 6379TIP3    H219081   5.030   4.173   4.008
 6380TIP3   OH219082   5.313   4.105   4.333
 6380TIP3    H119083   5.234   4.154   4.357
 6380TIP3    H219084   5.385   4.158   4.366
 6381TIP3   OH219085   4.853   2.443   2.893
 6381TIP3    H119086   4.784   2.414   2.833
 6381TIP3    H219087   4.935   2.422   2.846
 6382TIP3   OH219088   3.018   1.296   1.823
 6382TIP3    H119089   3.113   1.288   1.813
 6382TIP3    H219090   3.006   1.369   1.883
 6383TIP3   OH219091   5.852   0.893   1.336
 6383TIP3    H119092   5.791   0.929   1.401
 6383TIP3    H219093   5.838   0.799   1.338
 6384TIP3   OH219094   2.972   6.342   6.826
 6384TIP3    H119095   2.957   6.269   6.767
 6384TIP3    H219096   2.908   6.408   6.800
 6385TIP3   OH219097   1.913   4.388   2.307
 6385TIP3    H119098   1.927   4.293   2.299
 6385TIP3    H219099   1.832   4.396   2.357
 6386TIP3   OH219100   0.540   4.054   1.734
 6386TIP3    H119101   0.459   4.055   1.683
 6386TIP3    H219102   0.522   3.996   1.807
 6387TIP3   OH219103   0.204   6.946   0.624
 6387TIP3    H119104   0.204   6.929   0.719
 6387TIP3    H219105   0.277   6.893   0.591
 6388TIP3   OH219106   7.691   1.546   3.664
 6388TIP3    H119107   7.668   1.546   3.757
 6388TIP3    H219108   7.619   1.594   3.622
 6389TIP3   OH219109   5.100   1.488   3.393
 6389TIP3    H119110   5.099   1.566   3.339
 6389TIP3    H219111   5.010   1.478   3.423
 6390TIP3   OH219112   0.956   3.830   3.687
 6390TIP3    H119113   1.011   3.841   3.765
 6390TIP3    H219114   1.017   3.832   3.614
 6391TIP3   OH219115   3.172   6.248   3.879
 6391TIP3    H119116   3.217   6.270   3.960
 6391TIP3    H219117   3.081   6.273   3.895
 6392TIP3   OH219118   6.413   6.251   3.868
 6392TIP3    H119119   6.404   6.299   3.951
 6392TIP3    H219120   6.397   6.160   3.891
 6393TIP3   OH219121   3.658   4.000   3.000
 6393TIP3    H119122   3.570   3.967   2.982
 6393TIP3    H219123   3.669   3.989   3.095
 6394TIP3   OH219124   1.363   0.258   0.751
 6394TIP3    H119125   1.356   0.185   0.812
 6394TIP3    H219126   1.457   0.268   0.736
 6395TIP3   OH219127   6.775   6.717   1.319
 6395TIP3    H119128   6.825   6.635   1.325
 6395TIP3    H219129   6.684   6.690   1.319
 6396TIP3   OH219130   5.351   3.354   5.672
 6396TIP3    H119131   5.385   3.433   5.715
 6396TIP3    H219132   5.428   3.299   5.660
 6397TIP3   OH219133   1.045   6.862   4.717
 6397TIP3    H119134   1.028   6.922   4.790
 6397TIP3    H219135   1.141   6.854   4.715
 6398TIP3   OH219136   1.513   6.079   0.148
 6398TIP3    H119137   1.514   6.058   0.054
 6398TIP3    H219138   1.601   6.057   0.178
 6399TIP3   OH219139   1.341   1.456   1.069
 6399TIP3    H119140   1.340   1.374   1.119
 6399TIP3    H219141   1.275   1.444   1.001
 6400TIP3   OH219142   7.989   4.076   0.259
 6400TIP3    H119143   8.058   4.141   0.269
 6400TIP3    H219144   8.004   4.013   0.330
 6401TIP3   OH219145   6.328   3.823   3.692
 6401TIP3    H119146   6.263   3.866   3.637
 6401TIP3    H219147   6.388   3.892   3.718
 6402TIP3   OH219148   2.245   3.403   1.115
 6402TIP3    H119149   2.292   3.320   1.126
 6402TIP3    H219150   2.309   3.470   1.137
 6403TIP3   OH219151   0.897   5.374   6.595
 6403TIP3    H119152   0.863   5.450   6.642
 6403TIP3    H219153   0.823   5.343   6.543
 6404TIP3   OH219154   4.016   1.494   1.259
 6404TIP3    H119155   4.050   1.544   1.333
 6404TIP3    H219156   4.094   1.463   1.213
 6405TIP3   OH219157   0.718   3.786   2.742
 6405TIP3    H119158   0.781   3.724   2.705
 6405TIP3    H219159   0.633   3.758   2.706
 6406TIP3   OH219160   6.911   4.581   6.170
 6406TIP3    H119161   6.844   4.520   6.200
 6406TIP3    H219162   6.947   4.541   6.090
 6407TIP3   OH219163   0.992   1.561   3.904
 6407TIP3    H119164   0.921   1.563   3.968
 6407TIP3    H219165   0.967   1.625   3.837
 6408TIP3   OH219166   3.025   4.136   0.280
 6408TIP3    H119167   2.997   4.060   0.230
 6408TIP3    H219168   3.014   4.210   0.220
 6409TIP3   OH219169   2.735   3.623   0.185
 6409TIP3    H119170   2.705   3.579   0.265
 6409TIP3    H219171   2.736   3.553   0.119
 6410TIP3   OH219172   0.325   6.743   5.983
 6410TIP3    H119173   0.362   6.829   5.963
 6410TIP3    H219174   0.311   6.744   6.078
 6411TIP3   OH219175   1.051   7.678   2.237
 6411TIP3    H119176   1.069   7.771   2.220
 6411TIP3    H219177   1.121   7.651   2.296
 6412TIP3   OH219178   0.360   3.288   3.504
 6412TIP3    H119179   0.273   3.327   3.496
 6412TIP3    H219180   0.394   3.323   3.587
 6413TIP3   OH219181   0.322   2.814   6.419
 6413TIP3    H119182   0.416   2.832   6.422
 6413TIP3    H219183   0.310   2.741   6.479
 6414TIP3   OH219184   2.340   6.432   5.290
 6414TIP3    H119185   2.288   6.430   5.209
 6414TIP3    H219186   2.297   6.499   5.344
 6415TIP3   OH219187   3.639   1.796   0.754
 6415TIP3    H119188   3.701   1.789   0.682
 6415TIP3    H219189   3.580   1.868   0.728
 6416TIP3   OH219190   8.268   4.604   1.857
 6416TIP3    H119191   8.287   4.693   1.827
 6416TIP3    H219192   8.173   4.603   1.873
 6417TIP3   OH219193   4.727   4.173   2.002
 6417TIP3    H119194   4.753   4.082   2.017
 6417TIP3    H219195   4.659   4.189   2.067
 6418TIP3   OH219196   6.492   6.272   0.640
 6418TIP3    H119197   6.587   6.270   0.628
 6418TIP3    H219198   6.466   6.180   0.639
 6419TIP3   OH219199   6.478   2.872   0.868
 6419TIP3    H119200   6.442   2.862   0.780
 6419TIP3    H219201   6.568   2.900   0.854
 6420TIP3   OH219202   0.816   5.386   3.321
 6420TIP3    H119203   0.788   5.407   3.410
 6420TIP3    H219204   0.795   5.293   3.310
 6421TIP3   OH219205   2.765   4.247   2.614
 6421TIP3    H119206   2.853   4.284   2.623
 6421TIP3    H219207   2.769   4.193   2.535
 6422TIP3   OH219208   3.403   6.322   5.162
 6422TIP3    H119209   3.438   6.408   5.138
 6422TIP3    H219210   3.416   6.268   5.084
 6423TIP3   OH219211   5.574   5.079   0.841
 6423TIP3    H119212   5.658   5.045   0.812
 6423TIP3    H219213   5.591   5.172   0.858
 6424TIP3   OH219214   3.684   2.889   3.659
 6424TIP3    H119215   3.689   2.795   3.670
 6424TIP3    H219216   3.683   2.924   3.748
 6425TIP3   OH219217   1.492   5.166   0.849
 6425TIP3    H119218   1.561   5.219   0.809
 6425TIP3    H219219   1.417   5.226   0.857
 6426TIP3   OH219220   6.717   5.166   3.504
 6426TIP3    H119221   6.744   5.191   3.592
 6426TIP3    H219222   6.621   5.161   3.509
 6427TIP3   OH219223   6.449   0.914   0.467
 6427TIP3    H119224   6.471   0.852   0.537
 6427TIP3    H219225   6.524   0.912   0.408
 6428TIP3   OH219226   4.668   6.229   0.428
 6428TIP3    H119227   4.600   6.162   0.428
 6428TIP3    H219228   4.687   6.245   0.521
 6429TIP3   OH219229   1.453   7.746   6.296
 6429TIP3    H119230   1.420   7.785   6.377
 6429TIP3    H219231   1.429   7.653   6.302
 6430TIP3   OH219232   0.604   3.982   4.898
 6430TIP3    H119233   0.572   3.932   4.822
 6430TIP3    H219234   0.691   3.946   4.914
 6431TIP3   OH219235   4.576   0.944   3.960
 6431TIP3    H119236   4.604   0.855   3.941
 6431TIP3    H219237   4.527   0.937   4.042
 6432TIP3   OH219238   4.491   2.989   5.432
 6432TIP3    H119239   4.482   2.902   5.393
 6432TIP3    H219240   4.401   3.018   5.447
 6433TIP3   OH219241   6.690   2.191   5.843
 6433TIP3    H119242   6.656   2.249   5.774
 6433TIP3    H219243   6.632   2.206   5.918
 6434TIP3   OH219244   4.263   0.929   0.964
 6434TIP3    H119245   4.289   0.920   0.872
 6434TIP3    H219246   4.338   0.972   1.006
 6435TIP3   OH219247   7.440   5.974   3.702
 6435TIP3    H119248   7.508   6.041   3.706
 6435TIP3    H219249   7.412   5.963   3.793
 6436TIP3   OH219250   1.631   0.748   2.552
 6436TIP3    H119251   1.618   0.707   2.466
 6436TIP3    H219252   1.631   0.842   2.535
 6437TIP3   OH219253   3.731   6.104   6.682
 6437TIP3    H119254   3.668   6.175   6.676
 6437TIP3    H219255   3.678   6.025   6.688
 6438TIP3   OH219256   6.734   7.632   4.467
 6438TIP3    H119257   6.753   7.710   4.416
 6438TIP3    H219258   6.762   7.654   4.556
 6439TIP3   OH219259   7.331   6.352   5.048
 6439TIP3    H119260   7.366   6.442   5.045
 6439TIP3    H219261   7.237   6.364   5.063
 6440TIP3   OH219262   6.534   6.130   1.943
 6440TIP3    H119263   6.503   6.050   1.900
 6440TIP3    H219264   6.607   6.102   1.997
 6441TIP3   OH219265   3.032   2.175   3.107
 6441TIP3    H119266   2.969   2.113   3.145
 6441TIP3    H219267   3.062   2.227   3.182
 6442TIP3   OH219268   6.139   6.856   2.284
 6442TIP3    H119269   6.080   6.835   2.211
 6442TIP3    H219270   6.212   6.902   2.244
 6443TIP3   OH219271   3.031   0.151   3.847
 6443TIP3    H119272   3.093   0.105   3.791
 6443TIP3    H219273   2.971   0.083   3.878
 6444TIP3   OH219274   6.686   4.006   1.944
 6444TIP3    H119275   6.611   3.993   1.887
 6444TIP3    H219276   6.740   4.072   1.900
 6445TIP3   OH219277   1.387   6.597   1.549
 6445TIP3    H119278   1.449   6.525   1.537
 6445TIP3    H219279   1.321   6.582   1.481
 6446TIP3   OH219280   2.917   2.163   4.020
 6446TIP3    H119281   2.993   2.134   4.071
 6446TIP3    H219282   2.848   2.099   4.040
 6447TIP3   OH219283   3.387   5.802   4.695
 6447TIP3    H119284   3.309   5.765   4.736
 6447TIP3    H219285   3.378   5.897   4.710
 6448TIP3   OH219286   2.685   3.675   0.986
 6448TIP3    H119287   2.606   3.709   0.944
 6448TIP3    H219288   2.753   3.740   0.967
 6449TIP3   OH219289   2.895   0.084   2.384
 6449TIP3    H119290   2.941   0.056   2.464
 6449TIP3    H219291   2.818   0.131   2.416
 6450TIP3   OH219292   3.843   3.671   0.583
 6450TIP3    H119293   3.770   3.707   0.633
 6450TIP3    H219294   3.842   3.720   0.501
 6451TIP3   OH219295   3.237   3.817   4.960
 6451TIP3    H119296   3.213   3.726   4.977
 6451TIP3    H219297   3.328   3.812   4.929
 6452TIP3   OH219298   1.705   4.382   5.852
 6452TIP3    H119299   1.732   4.413   5.766
 6452TIP3    H219300   1.616   4.348   5.839
 6453TIP3   OH219301   3.483   2.618   6.041
 6453TIP3    H119302   3.543   2.636   6.114
 6453TIP3    H219303   3.404   2.667   6.064
 6454TIP3   OH219304   2.170   6.807   5.804
 6454TIP3    H119305   2.111   6.879   5.824
 6454TIP3    H219306   2.240   6.846   5.751
 6455TIP3   OH219307   2.654   6.230   5.123
 6455TIP3    H119308   2.604   6.281   5.187
 6455TIP3    H219309   2.639   6.139   5.149
 6456TIP3   OH219310   4.729   1.842   0.888
 6456TIP3    H119311   4.706   1.800   0.971
 6456TIP3    H219312   4.789   1.781   0.845
 6457TIP3   OH219313   6.798   2.750   6.467
 6457TIP3    H119314   6.748   2.711   6.538
 6457TIP3    H219315   6.832   2.832   6.503
 6458TIP3   OH219316   1.940   2.208   3.610
 6458TIP3    H119317   1.963   2.138   3.671
 6458TIP3    H219318   1.865   2.173   3.562
 6459TIP3   OH219319   1.490   5.540   4.918
 6459TIP3    H119320   1.531   5.606   4.861
 6459TIP3    H219321   1.398   5.567   4.923
 6460TIP3   OH219322   5.993   7.104   3.163
 6460TIP3    H119323   6.074   7.076   3.207
 6460TIP3    H219324   5.930   7.036   3.184
 6461TIP3   OH219325   0.867   4.472   1.391
 6461TIP3    H119326   0.851   4.381   1.368
 6461TIP3    H219327   0.854   4.475   1.486
 6462TIP3   OH219328   0.518   4.956   6.500
 6462TIP3    H119329   0.538   4.911   6.418
 6462TIP3    H219330   0.487   5.042   6.473
 6463TIP3   OH219331   6.672   4.375   5.328
 6463TIP3    H119332   6.636   4.451   5.282
 6463TIP3    H219333   6.613   4.304   5.306
 6464TIP3   OH219334   5.568   6.174   3.512
 6464TIP3    H119335   5.605   6.112   3.449
 6464TIP3    H219336   5.483   6.138   3.535
 6465TIP3   OH219337   0.579   0.186   0.865
 6465TIP3    H119338   0.607   0.100   0.834
 6465TIP3    H219339   0.543   0.229   0.788
 6466TIP3   OH219340   3.054   0.536   2.307
 6466TIP3    H119341   2.991   0.590   2.355
 6466TIP3    H219342   3.086   0.474   2.372
 6467TIP3   OH219343   5.462   6.462   3.744
 6467TIP3    H119344   5.538   6.430   3.696
 6467TIP3    H219345   5.494   6.541   3.789
 6468TIP3   OH219346   5.456   0.810   1.132
 6468TIP3    H119347   5.362   0.796   1.121
 6468TIP3    H219348   5.497   0.744   1.076
 6469TIP3   OH219349   4.240   5.636   4.346
 6469TIP3    H119350   4.236   5.731   4.350
 6469TIP3    H219351   4.275   5.617   4.259
 6470TIP3   OH219352   7.049   1.865   3.456
 6470TIP3    H119353   7.026   1.815   3.534
 6470TIP3    H219354   7.138   1.894   3.472
 6471TIP3   OH219355   3.596   1.056   0.323
 6471TIP3    H119356   3.594   1.151   0.307
 6471TIP3    H219357   3.537   1.019   0.258
 6472TIP3   OH219358   1.057   3.234   6.285
 6472TIP3    H119359   1.070   3.184   6.366
 6472TIP3    H219360   1.139   3.281   6.272
 6473TIP3   OH219361   1.045   4.725   5.271
 6473TIP3    H119362   0.960   4.727   5.314
 6473TIP3    H219363   1.105   4.688   5.337
 6474TIP3   OH219364   3.857   3.419   3.274
 6474TIP3    H119365   3.944   3.383   3.289
 6474TIP3    H219366   3.802   3.342   3.256
 6475TIP3   OH219367   2.505   2.265   3.719
 6475TIP3    H119368   2.465   2.187   3.756
 6475TIP3    H219369   2.431   2.320   3.693
 6476TIP3   OH219370   2.658   2.710   6.739
 6476TIP3    H119371   2.661   2.700   6.834
 6476TIP3    H219372   2.629   2.800   6.725
 6477TIP3   OH219373   7.629   0.042   2.602
 6477TIP3    H119374   7.549  -0.009   2.590
 6477TIP3    H219375   7.605   0.112   2.663
 6478TIP3   OH219376   1.032   3.970   6.293
 6478TIP3    H119377   0.943   3.993   6.268
 6478TIP3    H219378   1.072   3.938   6.212
 6479TIP3   OH219379   3.034   4.258   4.480
 6479TIP3    H119380   3.099   4.278   4.413
 6479TIP3    H219381   2.986   4.339   4.492
 6480TIP3   OH219382   0.853   1.557   5.533
 6480TIP3    H119383   0.797   1.496   5.581
 6480TIP3    H219384   0.917   1.501   5.489
 6481TIP3   OH219385   4.246   1.214   4.452
 6481TIP3    H119386   4.271   1.126   4.479
 6481TIP3    H219387   4.212   1.202   4.363
 6482TIP3   OH219388   1.846   0.448   6.236
 6482TIP3    H119389   1.905   0.399   6.179
 6482TIP3    H219390   1.900   0.471   6.312
 6483TIP3   OH219391   6.678   0.544   0.112
 6483TIP3    H119392   6.631   0.582   0.187
 6483TIP3    H219393   6.617   0.480   0.075
 6484TIP3   OH219394   8.158   1.036   1.464
 6484TIP3    H119395   8.224   0.967   1.467
 6484TIP3    H219396   8.149   1.065   1.555
 6485TIP3   OH219397   8.272   5.440   1.075
 6485TIP3    H119398   8.328   5.474   1.144
 6485TIP3    H219399   8.283   5.501   1.002
 6486TIP3   OH219400   3.365   1.227   4.749
 6486TIP3    H119401   3.279   1.269   4.747
 6486TIP3    H219402   3.422   1.287   4.700
 6487TIP3   OH219403   3.216   5.123   3.534
 6487TIP3    H119404   3.124   5.139   3.555
 6487TIP3    H219405   3.264   5.147   3.614
 6488TIP3   OH219406   0.368   7.201   6.246
 6488TIP3    H119407   0.308   7.180   6.175
 6488TIP3    H219408   0.366   7.296   6.252
 6489TIP3   OH219409   4.094   1.503   1.638
 6489TIP3    H119410   4.062   1.513   1.728
 6489TIP3    H219411   4.095   1.592   1.603
 6490TIP3   OH219412   1.586   4.173   0.366
 6490TIP3    H119413   1.499   4.184   0.404
 6490TIP3    H219414   1.634   4.252   0.394
 6491TIP3   OH219415   3.143   4.703   4.659
 6491TIP3    H119416   3.220   4.683   4.606
 6491TIP3    H219417   3.074   4.723   4.595
 6492TIP3   OH219418   4.029   4.152   1.997
 6492TIP3    H119419   4.097   4.116   1.940
 6492TIP3    H219420   4.012   4.239   1.963
 6493TIP3   OH219421   5.146   4.630   0.398
 6493TIP3    H119422   5.191   4.714   0.408
 6493TIP3    H219423   5.209   4.574   0.354
 6494TIP3   OH219424   2.129   2.270   6.421
 6494TIP3    H119425   2.056   2.329   6.401
 6494TIP3    H219426   2.156   2.295   6.510
 6495TIP3   OH219427   2.099   2.284   5.506
 6495TIP3    H119428   2.128   2.334   5.582
 6495TIP3    H219429   2.115   2.343   5.432
 6496TIP3   OH219430   0.298   2.510   6.300
 6496TIP3    H119431   0.283   2.426   6.256
 6496TIP3    H219432   0.296   2.575   6.230
 6497TIP3   OH219433   5.917   1.088   5.289
 6497TIP3    H119434   5.922   1.100   5.194
 6497TIP3    H219435   5.876   1.003   5.301
 6498TIP3   OH219436   0.894   4.475   6.154
 6498TIP3    H119437   0.810   4.482   6.198
 6498TIP3    H219438   0.942   4.408   6.204
 6499TIP3   OH219439   3.947   4.287   4.639
 6499TIP3    H119440   3.951   4.193   4.626
 6499TIP3    H219441   3.854   4.309   4.629
 6500TIP3   OH219442   0.121   5.830   5.765
 6500TIP3    H119443   0.083   5.798   5.846
 6500TIP3    H219444   0.115   5.925   5.772
 6501TIP3   OH219445   2.484   1.041   2.529
 6501TIP3    H119446   2.560   1.074   2.576
 6501TIP3    H219447   2.483   0.947   2.547
 6502TIP3   OH219448   5.307   6.978   6.572
 6502TIP3    H119449   5.332   6.951   6.660
 6502TIP3    H219450   5.359   7.057   6.556
 6503TIP3   OH219451   6.744   1.542   4.901
 6503TIP3    H119452   6.811   1.482   4.935
 6503TIP3    H219453   6.794   1.606   4.850
 6504TIP3   OH219454   4.877   0.241   3.811
 6504TIP3    H119455   4.927   0.312   3.773
 6504TIP3    H219456   4.942   0.183   3.851
 6505TIP3   OH219457   5.849   0.175   1.259
 6505TIP3    H119458   5.890   0.152   1.176
 6505TIP3    H219459   5.892   0.119   1.324
 6506TIP3   OH219460   2.569   0.211   1.054
 6506TIP3    H119461   2.586   0.117   1.051
 6506TIP3    H219462   2.655   0.251   1.062
 6507TIP3   OH219463   4.346   7.585   6.717
 6507TIP3    H119464   4.271   7.575   6.658
 6507TIP3    H219465   4.312   7.556   6.802
 6508TIP3   OH219466   4.722   3.412   2.091
 6508TIP3    H119467   4.806   3.448   2.121
 6508TIP3    H219468   4.727   3.418   1.995
 6509TIP3   OH219469   2.715   4.611   5.625
 6509TIP3    H119470   2.731   4.517   5.614
 6509TIP3    H219471   2.743   4.629   5.714
 6510TIP3   OH219472   0.000   7.542   6.375
 6510TIP3    H119473   0.030   7.515   6.462
 6510TIP3    H219474   0.073   7.521   6.317
 6511TIP3   OH219475   5.832   0.236   6.041
 6511TIP3    H119476   5.908   0.294   6.050
 6511TIP3    H219477   5.849   0.184   5.963
 6512TIP3   OH219478   3.000   7.482   3.635
 6512TIP3    H119479   3.012   7.492   3.730
 6512TIP3    H219480   2.906   7.492   3.622
 6513TIP3   OH219481   4.624   5.965   0.941
 6513TIP3    H119482   4.630   5.879   0.983
 6513TIP3    H219483   4.709   6.006   0.958
 6514TIP3   OH219484   5.678   0.337   5.246
 6514TIP3    H119485   5.710   0.326   5.336
 6514TIP3    H219486   5.645   0.427   5.244
 6515TIP3   OH219487   6.175   6.746   4.734
 6515TIP3    H119488   6.229   6.667   4.741
 6515TIP3    H219489   6.158   6.771   4.824
 6516TIP3   OH219490   7.459   0.239   2.023
 6516TIP3    H119491   7.495   0.202   1.942
 6516TIP3    H219492   7.515   0.314   2.042
 6517TIP3   OH219493   7.964   7.141   5.006
 6517TIP3    H119494   8.037   7.180   4.959
 6517TIP3    H219495   7.886   7.181   4.969
 6518TIP3   OH219496   3.300   1.634   4.108
 6518TIP3    H119497   3.269   1.570   4.172
 6518TIP3    H219498   3.224   1.689   4.090
 6519TIP3   OH219499   2.263   6.404   1.820
 6519TIP3    H119500   2.298   6.457   1.749
 6519TIP3    H219501   2.207   6.464   1.870
 6520TIP3   OH219502   2.650   6.385   4.472
 6520TIP3    H119503   2.561   6.351   4.482
 6520TIP3    H219504   2.638   6.475   4.441
 6521TIP3   OH219505   6.004   3.072   2.945
 6521TIP3    H119506   5.995   2.996   2.887
 6521TIP3    H219507   6.092   3.105   2.927
 6522TIP3   OH219508   2.552   4.480   0.534
 6522TIP3    H119509   2.577   4.458   0.444
 6522TIP3    H219510   2.458   4.498   0.529
 6523TIP3   OH219511   7.977   3.376   6.369
 6523TIP3    H119512   8.021   3.460   6.358
 6523TIP3    H219513   7.896   3.397   6.416
 6524TIP3   OH219514   4.931   6.383   2.181
 6524TIP3    H119515   4.988   6.432   2.240
 6524TIP3    H219516   4.850   6.435   2.177
 6525TIP3   OH219517   2.510   2.129   1.857
 6525TIP3    H119518   2.535   2.145   1.948
 6525TIP3    H219519   2.571   2.182   1.806
 6526TIP3   OH219520   1.593   6.744   1.215
 6526TIP3    H119521   1.616   6.835   1.235
 6526TIP3    H219522   1.525   6.722   1.279
 6527TIP3   OH219523   5.160   2.796   4.528
 6527TIP3    H119524   5.234   2.841   4.488
 6527TIP3    H219525   5.092   2.796   4.461
 6528TIP3   OH219526   0.810   4.476   4.295
 6528TIP3    H119527   0.812   4.528   4.374
 6528TIP3    H219528   0.861   4.526   4.231
 6529TIP3   OH219529   4.838   4.195   4.516
 6529TIP3    H119530   4.802   4.283   4.529
 6529TIP3    H219531   4.929   4.211   4.490
 6530TIP3   OH219532   6.767   3.726   1.168
 6530TIP3    H119533   6.797   3.778   1.243
 6530TIP3    H219534   6.796   3.776   1.091
 6531TIP3   OH219535   5.980   6.901   0.604
 6531TIP3    H119536   6.025   6.838   0.662
 6531TIP3    H219537   6.022   6.985   0.623
 6532TIP3   OH219538   0.141   6.064   1.135
 6532TIP3    H119539   0.139   5.969   1.150
 6532TIP3    H219540   0.233   6.087   1.141
 6533TIP3   OH219541   5.901   2.195   0.211
 6533TIP3    H119542   5.954   2.196   0.290
 6533TIP3    H219543   5.840   2.122   0.224
 6534TIP3   OH219544   3.053   3.891   3.412
 6534TIP3    H119545   2.981   3.849   3.458
 6534TIP3    H219546   3.053   3.852   3.325
 6535TIP3   OH219547   2.942   2.193   3.733
 6535TIP3    H119548   2.926   2.099   3.728
 6535TIP3    H219549   2.964   2.209   3.825
 6536TIP3   OH219550   4.486   4.644   0.053
 6536TIP3    H119551   4.433   4.602  -0.015
 6536TIP3    H219552   4.483   4.583   0.127
 6537TIP3   OH219553   3.317   2.877   2.658
 6537TIP3    H119554   3.332   2.791   2.696
 6537TIP3    H219555   3.250   2.917   2.713
 6538TIP3   OH219556   1.958   6.073   1.203
 6538TIP3    H119557   1.990   6.157   1.170
 6538TIP3    H219558   2.032   6.036   1.251
 6539TIP3   OH219559   4.624   7.035   5.274
 6539TIP3    H119560   4.629   7.114   5.328
 6539TIP3    H219561   4.619   6.963   5.336
 6540TIP3   OH219562   6.050   0.641   4.959
 6540TIP3    H119563   6.104   0.645   5.038
 6540TIP3    H219564   5.963   0.668   4.988
 6541TIP3   OH219565   7.290   1.692   3.729
 6541TIP3    H119566   7.212   1.733   3.765
 6541TIP3    H219567   7.312   1.623   3.792
 6542TIP3   OH219568   6.698   0.307   6.402
 6542TIP3    H119569   6.764   0.287   6.335
 6542TIP3    H219570   6.627   0.244   6.385
 6543TIP3   OH219571   7.671   0.663   3.512
 6543TIP3    H119572   7.722   0.623   3.582
 6543TIP3    H219573   7.595   0.702   3.556
 6544TIP3   OH219574   6.403   6.270   1.255
 6544TIP3    H119575   6.461   6.205   1.293
 6544TIP3    H219576   6.460   6.344   1.235
 6545TIP3   OH219577   4.578   2.160   6.687
 6545TIP3    H119578   4.671   2.152   6.665
 6545TIP3    H219579   4.567   2.251   6.713
 6546TIP3   OH219580   0.786   2.482   1.147
 6546TIP3    H119581   0.723   2.430   1.197
 6546TIP3    H219582   0.847   2.417   1.112
 6547TIP3   OH219583   5.686   7.551   1.578
 6547TIP3    H119584   5.619   7.548   1.509
 6547TIP3    H219585   5.641   7.524   1.657
 6548TIP3   OH219586   7.666   4.717   1.716
 6548TIP3    H119587   7.750   4.763   1.707
 6548TIP3    H219588   7.634   4.707   1.626
 6549TIP3   OH219589   5.627   4.769   1.023
 6549TIP3    H119590   5.683   4.701   0.985
 6549TIP3    H219591   5.586   4.812   0.947
 6550TIP3   OH219592   1.826   0.209   1.321
 6550TIP3    H119593   1.870   0.158   1.388
 6550TIP3    H219594   1.883   0.285   1.307
 6551TIP3   OH219595   7.345   3.092   2.854
 6551TIP3    H119596   7.265   3.086   2.906
 6551TIP3    H219597   7.322   3.054   2.769
 6552TIP3   OH219598   0.806   0.800   1.049
 6552TIP3    H119599   0.786   0.855   0.973
 6552TIP3    H219600   0.887   0.838   1.085
 6553TIP3   OH219601   2.482   0.711   1.428
 6553TIP3    H119602   2.501   0.798   1.394
 6553TIP3    H219603   2.568   0.675   1.451
 6554TIP3   OH219604   5.147   3.521   1.164
 6554TIP3    H119605   5.236   3.494   1.140
 6554TIP3    H219606   5.099   3.439   1.171
 6555TIP3   OH219607   7.447   2.559   5.912
 6555TIP3    H119608   7.419   2.485   5.966
 6555TIP3    H219609   7.516   2.523   5.856
 6556TIP3   OH219610   0.970   0.963   5.915
 6556TIP3    H119611   1.030   0.980   5.843
 6556TIP3    H219612   0.901   1.029   5.905
 6557TIP3   OH219613   6.444   7.383   2.579
 6557TIP3    H119614   6.522   7.387   2.635
 6557TIP3    H219615   6.422   7.290   2.576
 6558TIP3   OH219616   5.864   5.315   4.670
 6558TIP3    H119617   5.790   5.349   4.720
 6558TIP3    H219618   5.881   5.229   4.708
 6559TIP3   OH219619   1.543   7.805   4.050
 6559TIP3    H119620   1.616   7.761   4.093
 6559TIP3    H219621   1.465   7.774   4.097
 6560TIP3   OH219622   6.157   6.128   0.746
 6560TIP3    H119623   6.160   6.175   0.830
 6560TIP3    H219624   6.160   6.197   0.680
 6561TIP3   OH219625   7.750   0.769   2.950
 6561TIP3    H119626   7.725   0.752   3.041
 6561TIP3    H219627   7.774   0.862   2.949
 6562TIP3   OH219628   5.512   4.007   5.220
 6562TIP3    H119629   5.446   3.937   5.224
 6562TIP3    H219630   5.518   4.029   5.127
 6563TIP3   OH219631   5.747   6.149   5.321
 6563TIP3    H119632   5.695   6.135   5.400
 6563TIP3    H219633   5.715   6.231   5.284
 6564TIP3   OH219634   2.523   5.056   2.625
 6564TIP3    H119635   2.616   5.040   2.610
 6564TIP3    H219636   2.497   5.114   2.553
 6565TIP3   OH219637   7.174   7.841   5.730
 6565TIP3    H119638   7.115   7.768   5.709
 6565TIP3    H219639   7.260   7.799   5.740
 6566TIP3   OH219640   7.562   6.275   4.734
 6566TIP3    H119641   7.638   6.253   4.788
 6566TIP3    H219642   7.493   6.217   4.767
 6567TIP3   OH219643   7.988   4.343   2.849
 6567TIP3    H119644   8.078   4.344   2.819
 6567TIP3    H219645   7.937   4.378   2.776
 6568TIP3   OH219646   3.122   5.843   2.999
 6568TIP3    H119647   3.048   5.822   3.056
 6568TIP3    H219648   3.195   5.855   3.059
 6569TIP3   OH219649   0.260   7.589   2.538
 6569TIP3    H119650   0.293   7.499   2.537
 6569TIP3    H219651   0.336   7.641   2.566
 6570TIP3   OH219652   4.082   6.440   2.363
 6570TIP3    H119653   4.106   6.478   2.447
 6570TIP3    H219654   4.165   6.409   2.326
 6571TIP3   OH219655   0.624   1.505   4.846
 6571TIP3    H119656   0.580   1.566   4.787
 6571TIP3    H219657   0.603   1.537   4.934
 6572TIP3   OH219658   6.849   6.692   6.392
 6572TIP3    H119659   6.881   6.727   6.475
 6572TIP3    H219660   6.758   6.668   6.410
 6573TIP3   OH219661   3.866   7.085   0.506
 6573TIP3    H119662   3.908   6.999   0.513
 6573TIP3    H219663   3.881   7.125   0.592
 6574TIP3   OH219664   2.718   4.304   6.234
 6574TIP3    H119665   2.766   4.229   6.270
 6574TIP3    H219666   2.739   4.303   6.140
 6575TIP3   OH219667   2.331   1.148   1.929
 6575TIP3    H119668   2.418   1.125   1.964
 6575TIP3    H219669   2.347   1.168   1.836
 6576TIP3   OH219670   1.587   4.431   5.111
 6576TIP3    H119671   1.528   4.501   5.140
 6576TIP3    H219672   1.592   4.372   5.186
 6577TIP3   OH219673   7.886   5.932   3.319
 6577TIP3    H119674   7.867   5.945   3.412
 6577TIP3    H219675   7.980   5.948   3.312
 6578TIP3   OH219676   4.189   4.431   4.673
 6578TIP3    H119677   4.176   4.523   4.693
 6578TIP3    H219678   4.101   4.394   4.668
 6579TIP3   OH219679   1.228   3.599   1.591
 6579TIP3    H119680   1.231   3.617   1.685
 6579TIP3    H219681   1.208   3.506   1.584
 6580TIP3   OH219682   4.551   6.558   2.263
 6580TIP3    H119683   4.474   6.605   2.231
 6580TIP3    H219684   4.549   6.474   2.216
 6581TIP3   OH219685   6.832   4.775   6.002
 6581TIP3    H119686   6.744   4.750   5.974
 6581TIP3    H219687   6.843   4.733   6.088
 6582TIP3   OH219688   2.540   2.345   0.504
 6582TIP3    H119689   2.470   2.385   0.453
 6582TIP3    H219690   2.605   2.414   0.514
 6583TIP3   OH219691   4.236   5.999   0.574
 6583TIP3    H119692   4.207   5.936   0.639
 6583TIP3    H219693   4.220   5.956   0.490
 6584TIP3   OH219694   1.544   0.673   5.391
 6584TIP3    H119695   1.525   0.766   5.391
 6584TIP3    H219696   1.461   0.631   5.370
 6585TIP3   OH219697   0.901   2.587   4.816
 6585TIP3    H119698   0.981   2.639   4.820
 6585TIP3    H219699   0.835   2.647   4.784
 6586TIP3   OH219700   3.749   4.966   0.775
 6586TIP3    H119701   3.670   4.916   0.797
 6586TIP3    H219702   3.815   4.899   0.755
 6587TIP3   OH219703   7.334   4.262   3.612
 6587TIP3    H119704   7.409   4.208   3.586
 6587TIP3    H219705   7.357   4.292   3.700
 6588TIP3   OH219706   3.907   4.247   5.538
 6588TIP3    H119707   3.875   4.258   5.448
 6588TIP3    H219708   3.872   4.323   5.585
 6589TIP3   OH219709   7.137   7.478   5.404
 6589TIP3    H119710   7.070   7.458   5.469
 6589TIP3    H219711   7.101   7.553   5.355
 6590TIP3   OH219712   0.376   7.781   5.259
 6590TIP3    H119713   0.468   7.766   5.240
 6590TIP3    H219714   0.375   7.828   5.342
 6591TIP3   OH219715   5.793   5.758   1.476
 6591TIP3    H119716   5.848   5.804   1.539
 6591TIP3    H219717   5.821   5.793   1.391
 6592TIP3   OH219718   4.918   4.807   1.353
 6592TIP3    H119719   4.995   4.859   1.330
 6592TIP3    H219720   4.945   4.716   1.340
 6593TIP3   OH219721   7.283   0.245   3.384
 6593TIP3    H119722   7.325   0.215   3.303
 6593TIP3    H219723   7.239   0.327   3.359
 6594TIP3   OH219724   2.892   4.508   5.870
 6594TIP3    H119725   2.877   4.595   5.907
 6594TIP3    H219726   2.817   4.456   5.898
 6595TIP3   OH219727   1.678   6.856   0.443
 6595TIP3    H119728   1.610   6.885   0.505
 6595TIP3    H219729   1.631   6.800   0.381
 6596TIP3   OH219730   5.177   4.961   3.178
 6596TIP3    H119731   5.211   4.964   3.267
 6596TIP3    H219732   5.171   5.053   3.152
 6597TIP3   OH219733   3.370   7.535   0.077
 6597TIP3    H119734   3.455   7.501   0.051
 6597TIP3    H219735   3.344   7.592   0.005
 6598TIP3   OH219736   7.279   0.480   1.349
 6598TIP3    H119737   7.270   0.503   1.256
 6598TIP3    H219738   7.257   0.561   1.395
 6599TIP3   OH219739   1.255   7.233   1.463
 6599TIP3    H119740   1.259   7.138   1.448
 6599TIP3    H219741   1.288   7.245   1.552
 6600TIP3   OH219742   5.315   0.195   5.316
 6600TIP3    H119743   5.307   0.286   5.345
 6600TIP3    H219744   5.381   0.157   5.374
 6601TIP3   OH219745   5.015   1.724   6.683
 6601TIP3    H119746   5.099   1.683   6.702
 6601TIP3    H219747   4.985   1.682   6.602
 6602TIP3   OH219748   2.801   5.117   3.307
 6602TIP3    H119749   2.882   5.156   3.341
 6602TIP3    H219750   2.735   5.140   3.372
 6603TIP3   OH219751   7.582   3.152   0.039
 6603TIP3    H119752   7.619   3.146   0.127
 6603TIP3    H219753   7.645   3.205  -0.010
 6604TIP3   OH219754   7.034   3.335   6.209
 6604TIP3    H119755   7.089   3.261   6.235
 6604TIP3    H219756   6.988   3.361   6.289
 6605TIP3   OH219757   3.212   5.936   5.119
 6605TIP3    H119758   3.190   5.844   5.132
 6605TIP3    H219759   3.307   5.939   5.118
 6606TIP3   OH219760   5.566   0.292   1.193
 6606TIP3    H119761   5.645   0.246   1.223
 6606TIP3    H219762   5.496   0.259   1.250
 6607TIP3   OH219763   4.693   2.807   1.751
 6607TIP3    H119764   4.696   2.814   1.846
 6607TIP3    H219765   4.775   2.848   1.721
 6608TIP3   OH219766   0.812   4.655   2.604
 6608TIP3    H119767   0.755   4.679   2.677
 6608TIP3    H219768   0.814   4.732   2.548
 6609TIP3   OH219769   2.620   2.488   1.647
 6609TIP3    H119770   2.532   2.450   1.642
 6609TIP3    H219771   2.677   2.414   1.665
 6610TIP3   OH219772   4.831   0.797   5.238
 6610TIP3    H119773   4.915   0.764   5.208
 6610TIP3    H219774   4.830   0.779   5.332
 6611TIP3   OH219775   1.515   6.352   5.855
 6611TIP3    H119776   1.556   6.436   5.835
 6611TIP3    H219777   1.563   6.288   5.803
 6612TIP3   OH219778   7.126   4.459   4.303
 6612TIP3    H119779   7.203   4.510   4.280
 6612TIP3    H219780   7.052   4.517   4.285
 6613TIP3   OH219781   6.359   2.552   0.509
 6613TIP3    H119782   6.290   2.615   0.491
 6613TIP3    H219783   6.351   2.486   0.440
 6614TIP3   OH219784   7.291   5.684   3.583
 6614TIP3    H119785   7.271   5.739   3.507
 6614TIP3    H219786   7.210   5.681   3.632
 6615TIP3   OH219787   8.272   4.146   4.006
 6615TIP3    H119788   8.299   4.204   3.935
 6615TIP3    H219789   8.234   4.205   4.072
 6616TIP3   OH219790   5.265   5.871   0.773
 6616TIP3    H119791   5.329   5.888   0.703
 6616TIP3    H219792   5.182   5.900   0.737
 6617TIP3   OH219793   7.702   1.680   2.616
 6617TIP3    H119794   7.672   1.590   2.603
 6617TIP3    H219795   7.777   1.672   2.675
 6618TIP3   OH219796   4.121   7.690   4.623
 6618TIP3    H119797   4.208   7.654   4.608
 6618TIP3    H219798   4.107   7.683   4.717
 6619TIP3   OH219799   1.299   7.075   0.607
 6619TIP3    H119800   1.360   7.012   0.645
 6619TIP3    H219801   1.218   7.061   0.656
 6620TIP3   OH219802   2.351   0.535   4.728
 6620TIP3    H119803   2.273   0.538   4.784
 6620TIP3    H219804   2.394   0.619   4.743
 6621TIP3   OH219805   6.512   2.277   6.543
 6621TIP3    H119806   6.435   2.267   6.487
 6621TIP3    H219807   6.495   2.357   6.593
 6622TIP3   OH219808   4.366   5.916   2.074
 6622TIP3    H119809   4.327   5.928   2.161
 6622TIP3    H219810   4.291   5.906   2.016
 6623TIP3   OH219811   7.205   4.143   1.230
 6623TIP3    H119812   7.220   4.067   1.174
 6623TIP3    H219813   7.263   4.211   1.195
 6624TIP3   OH219814   0.956   5.059   0.398
 6624TIP3    H119815   0.967   4.983   0.341
 6624TIP3    H219816   0.947   5.133   0.338
 6625TIP3   OH219817   0.970   4.814   0.990
 6625TIP3    H119818   0.995   4.882   0.927
 6625TIP3    H219819   1.052   4.791   1.033
 6626TIP3   OH219820   8.260   3.855   4.023
 6626TIP3    H119821   8.324   3.859   3.952
 6626TIP3    H219822   8.309   3.878   4.101
 6627TIP3   OH219823   5.963   1.292   6.438
 6627TIP3    H119824   5.957   1.358   6.508
 6627TIP3    H219825   5.900   1.225   6.463
 6628TIP3   OH219826   0.307   2.465   0.497
 6628TIP3    H119827   0.380   2.430   0.446
 6628TIP3    H219828   0.345   2.533   0.552
 6629TIP3   OH219829   0.749   4.490   1.652
 6629TIP3    H119830   0.715   4.401   1.643
 6629TIP3    H219831   0.775   4.498   1.743
 6630TIP3   OH219832   7.862   4.037  -0.004
 6630TIP3    H119833   7.907   4.048   0.079
 6630TIP3    H219834   7.931   4.038  -0.070
 6631TIP3   OH219835   6.477   7.463   6.112
 6631TIP3    H119836   6.452   7.391   6.170
 6631TIP3    H219837   6.513   7.529   6.170
 6632TIP3   OH219838   1.816   4.858   2.184
 6632TIP3    H119839   1.871   4.920   2.232
 6632TIP3    H219840   1.773   4.807   2.252
 6633TIP3   OH219841   5.640   1.302   5.974
 6633TIP3    H119842   5.565   1.329   5.922
 6633TIP3    H219843   5.679   1.384   6.005
 6634TIP3   OH219844   4.688   5.982   4.901
 6634TIP3    H119845   4.728   5.915   4.956
 6634TIP3    H219846   4.614   5.937   4.859
 6635TIP3   OH219847   4.943   7.462   0.968
 6635TIP3    H119848   4.981   7.545   0.996
 6635TIP3    H219849   4.884   7.486   0.896
 6636TIP3   OH219850   1.325   0.701   2.279
 6636TIP3    H119851   1.253   0.749   2.238
 6636TIP3    H219852   1.306   0.609   2.259
 6637TIP3   OH219853   3.948   0.566   3.045
 6637TIP3    H119854   3.951   0.656   3.011
 6637TIP3    H219855   3.879   0.568   3.111
 6638TIP3   OH219856   0.955   6.087   2.169
 6638TIP3    H119857   0.946   6.180   2.186
 6638TIP3    H219858   0.872   6.048   2.199
 6639TIP3   OH219859   2.424   1.727   2.453
 6639TIP3    H119860   2.442   1.636   2.429
 6639TIP3    H219861   2.422   1.727   2.549
 6640TIP3   OH219862   6.464   1.610   5.391
 6640TIP3    H119863   6.503   1.550   5.327
 6640TIP3    H219864   6.376   1.575   5.406
 6641TIP3   OH219865   5.492   0.792   6.506
 6641TIP3    H119866   5.413   0.774   6.557
 6641TIP3    H219867   5.462   0.791   6.415
 6642TIP3   OH219868   2.350   3.748   4.276
 6642TIP3    H119869   2.423   3.694   4.308
 6642TIP3    H219870   2.359   3.831   4.323
 6643TIP3   OH219871   5.315   0.779   1.778
 6643TIP3    H119872   5.249   0.812   1.839
 6643TIP3    H219873   5.398   0.814   1.811
 6644TIP3   OH219874   6.136   5.225   6.474
 6644TIP3    H119875   6.134   5.131   6.455
 6644TIP3    H219876   6.056   5.241   6.525
 6645TIP3   OH219877   5.343   2.394   0.593
 6645TIP3    H119878   5.259   2.383   0.548
 6645TIP3    H219879   5.408   2.359   0.531
 6646TIP3   OH219880   6.565   2.102   2.250
 6646TIP3    H119881   6.558   2.182   2.199
 6646TIP3    H219882   6.532   2.126   2.337
 6647TIP3   OH219883   5.415   1.150   0.816
 6647TIP3    H119884   5.470   1.215   0.772
 6647TIP3    H219885   5.399   1.187   0.902
 6648TIP3   OH219886   6.560   3.585   3.803
 6648TIP3    H119887   6.615   3.522   3.756
 6648TIP3    H219888   6.475   3.543   3.808
 6649TIP3   OH219889   6.638   7.828   1.208
 6649TIP3    H119890   6.725   7.834   1.247
 6649TIP3    H219891   6.608   7.740   1.229
 6650TIP3   OH219892   2.664   2.434   4.746
 6650TIP3    H119893   2.573   2.409   4.734
 6650TIP3    H219894   2.697   2.450   4.657
 6651TIP3   OH219895   0.774   2.978   2.518
 6651TIP3    H119896   0.792   2.994   2.611
 6651TIP3    H219897   0.822   3.046   2.472
 6652TIP3   OH219898   0.407   7.268   4.414
 6652TIP3    H119899   0.365   7.354   4.405
 6652TIP3    H219900   0.341   7.214   4.457
 6653TIP3   OH219901   5.665   1.309   4.697
 6653TIP3    H119902   5.753   1.281   4.722
 6653TIP3    H219903   5.616   1.309   4.780
 6654TIP3   OH219904   4.073   6.322   0.988
 6654TIP3    H119905   4.138   6.255   1.008
 6654TIP3    H219906   4.002   6.306   1.050
 6655TIP3   OH219907   7.380   1.609   5.023
 6655TIP3    H119908   7.301   1.578   4.977
 6655TIP3    H219909   7.350   1.626   5.112
 6656TIP3   OH219910   5.944   1.869   3.833
 6656TIP3    H119911   5.914   1.807   3.899
 6656TIP3    H219912   5.929   1.825   3.749
 6657TIP3   OH219913   6.210   1.180   5.137
 6657TIP3    H119914   6.242   1.269   5.122
 6657TIP3    H219915   6.115   1.187   5.131
 6658TIP3   OH219916   4.233   4.908   6.397
 6658TIP3    H119917   4.308   4.895   6.455
 6658TIP3    H219918   4.164   4.941   6.455
 6659TIP3   OH219919   1.450   7.076   6.507
 6659TIP3    H119920   1.435   6.981   6.509
 6659TIP3    H219921   1.366   7.113   6.479
 6660TIP3   OH219922   6.508   7.311   1.491
 6660TIP3    H119923   6.536   7.393   1.451
 6660TIP3    H219924   6.505   7.329   1.585
 6661TIP3   OH219925   0.709   6.662   0.043
 6661TIP3    H119926   0.711   6.638  -0.050
 6661TIP3    H219927   0.753   6.589   0.087
 6662TIP3   OH219928   3.307   5.459   1.151
 6662TIP3    H119929   3.220   5.495   1.166
 6662TIP3    H219930   3.301   5.418   1.065
 6663TIP3   OH219931   1.786   2.550   3.879
 6663TIP3    H119932   1.804   2.463   3.914
 6663TIP3    H219933   1.816   2.610   3.947
 6664TIP3   OH219934   7.833   0.897   1.497
 6664TIP3    H119935   7.851   0.805   1.519
 6664TIP3    H219936   7.919   0.939   1.498
 6665TIP3   OH219937   7.291   1.805   2.010
 6665TIP3    H119938   7.379   1.777   2.036
 6665TIP3    H219939   7.281   1.892   2.048
 6666TIP3   OH219940   5.710   1.415   3.973
 6666TIP3    H119941   5.660   1.403   4.054
 6666TIP3    H219942   5.658   1.370   3.906
 6667TIP3   OH219943   5.078   6.559   6.740
 6667TIP3    H119944   5.017   6.523   6.676
 6667TIP3    H219945   5.163   6.561   6.694
 6668TIP3   OH219946   2.436   6.082   1.343
 6668TIP3    H119947   2.439   6.120   1.431
 6668TIP3    H219948   2.504   6.014   1.344
 6669TIP3   OH219949   6.340   5.027   0.342
 6669TIP3    H119950   6.322   4.967   0.269
 6669TIP3    H219951   6.369   4.971   0.413
 6670TIP3   OH219952   6.633   0.855   2.809
 6670TIP3    H119953   6.641   0.793   2.736
 6670TIP3    H219954   6.626   0.941   2.766
 6671TIP3   OH219955   7.820   6.023   1.275
 6671TIP3    H119956   7.782   6.075   1.345
 6671TIP3    H219957   7.858   5.947   1.318
 6672TIP3   OH219958   0.665   0.051   2.783
 6672TIP3    H119959   0.670   0.016   2.695
 6672TIP3    H219960   0.736   0.008   2.830
 6673TIP3   OH219961   0.034   3.240   3.648
 6673TIP3    H119962   0.073   3.322   3.619
 6673TIP3    H219963  -0.052   3.237   3.605
 6674TIP3   OH219964   5.887   5.995   5.154
 6674TIP3    H119965   5.906   6.076   5.108
 6674TIP3    H219966   5.821   6.018   5.219
 6675TIP3   OH219967   2.481   5.828   4.479
 6675TIP3    H119968   2.500   5.831   4.573
 6675TIP3    H219969   2.516   5.743   4.451
 6676TIP3   OH219970   1.027   3.325   5.631
 6676TIP3    H119971   1.093   3.353   5.567
 6676TIP3    H219972   1.070   3.334   5.716
 6677TIP3   OH219973   3.231   6.660   5.316
 6677TIP3    H119974   3.137   6.662   5.335
 6677TIP3    H219975   3.255   6.568   5.323
 6678TIP3   OH219976   1.467   4.771   3.467
 6678TIP3    H119977   1.375   4.782   3.441
 6678TIP3    H219978   1.516   4.824   3.404
 6679TIP3   OH219979   4.065   1.787   5.161
 6679TIP3    H119980   4.033   1.843   5.231
 6679TIP3    H219981   4.070   1.845   5.084
 6680TIP3   OH219982   6.344   7.014   4.904
 6680TIP3    H119983   6.420   7.022   4.845
 6680TIP3    H219984   6.327   6.920   4.907
 6681TIP3   OH219985   4.567   1.843   3.194
 6681TIP3    H119986   4.562   1.826   3.288
 6681TIP3    H219987   4.489   1.802   3.158
 6682TIP3   OH219988   2.907   1.827   0.486
 6682TIP3    H119989   2.816   1.813   0.513
 6682TIP3    H219990   2.959   1.775   0.547
 6683TIP3   OH219991   0.114   6.897   5.007
 6683TIP3    H119992   0.094   6.988   5.029
 6683TIP3    H219993   0.031   6.851   5.013
 6684TIP3   OH219994   5.367   3.948   3.833
 6684TIP3    H119995   5.441   3.952   3.894
 6684TIP3    H219996   5.385   3.870   3.780
 6685TIP3   OH219997   2.781   4.242   5.939
 6685TIP3    H119998   2.872   4.216   5.952
 6685TIP3    H219999   2.775   4.261   5.846
 6686TIP3   OH220000   7.969   3.412   1.874
 6686TIP3    H120001   7.913   3.416   1.796
 6686TIP3    H220002   7.918   3.456   1.942
 6687TIP3   OH220003   2.539   2.029   0.130
 6687TIP3    H120004   2.608   2.008   0.192
 6687TIP3    H220005   2.503   2.113   0.161
 6688TIP3   OH220006   8.171   6.428   3.407
 6688TIP3    H120007   8.259   6.400   3.384
 6688TIP3    H220008   8.127   6.443   3.323
 6689TIP3   OH220009   3.614   7.364   5.215
 6689TIP3    H120010   3.547   7.297   5.224
 6689TIP3    H220011   3.566   7.443   5.190
 6690TIP3   OH220012   7.979   6.972   5.220
 6690TIP3    H120013   8.003   6.889   5.177
 6690TIP3    H220014   7.968   7.034   5.148
 6691TIP3   OH220015   7.866   4.502   1.799
 6691TIP3    H120016   7.797   4.497   1.865
 6691TIP3    H220017   7.826   4.547   1.725
 6692TIP3   OH220018   7.546   6.529   0.281
 6692TIP3    H120019   7.464   6.548   0.235
 6692TIP3    H220020   7.552   6.434   0.281
 6693TIP3   OH220021   1.024   7.084   4.528
 6693TIP3    H120022   0.934   7.101   4.556
 6693TIP3    H220023   1.021   6.996   4.492
 6694TIP3   OH220024   5.017   5.854   4.419
 6694TIP3    H120025   5.004   5.808   4.502
 6694TIP3    H220026   4.970   5.937   4.430
 6695TIP3   OH220027   7.009   2.547   4.354
 6695TIP3    H120028   7.012   2.610   4.426
 6695TIP3    H220029   6.916   2.538   4.334
 6696TIP3   OH220030   4.991   0.413   6.616
 6696TIP3    H120031   4.917   0.414   6.554
 6696TIP3    H220032   4.949   0.420   6.702
 6697TIP3   OH220033   2.239   1.400   4.463
 6697TIP3    H120034   2.262   1.486   4.430
 6697TIP3    H220035   2.206   1.416   4.552
 6698TIP3   OH220036   5.122   0.210   1.236
 6698TIP3    H120037   5.144   0.181   1.147
 6698TIP3    H220038   5.206   0.215   1.281
 6699TIP3   OH220039   2.221   2.450   2.048
 6699TIP3    H120040   2.303   2.476   2.089
 6699TIP3    H220041   2.182   2.532   2.018
 6700TIP3   OH220042   1.371   4.190   3.797
 6700TIP3    H120043   1.305   4.162   3.734
 6700TIP3    H220044   1.443   4.224   3.744
 6701TIP3   OH220045   7.973   3.253   4.846
 6701TIP3    H120046   8.064   3.267   4.871
 6701TIP3    H220047   7.967   3.289   4.757
 6702TIP3   OH220048   6.786   6.635   3.136
 6702TIP3    H120049   6.843   6.680   3.074
 6702TIP3    H220050   6.837   6.560   3.165
 6703TIP3   OH220051   0.814   2.156   5.859
 6703TIP3    H120052   0.803   2.061   5.859
 6703TIP3    H220053   0.746   2.188   5.800
 6704TIP3   OH220054   3.119   4.768   2.434
 6704TIP3    H120055   3.087   4.696   2.379
 6704TIP3    H220056   3.214   4.760   2.430
 6705TIP3   OH220057   1.439   3.379   6.010
 6705TIP3    H120058   1.415   3.405   5.921
 6705TIP3    H220059   1.500   3.447   6.040
 6706TIP3   OH220060   1.237   6.947   2.681
 6706TIP3    H120061   1.229   6.854   2.698
 6706TIP3    H220062   1.184   6.963   2.603
 6707TIP3   OH220063   5.004   3.967   1.320
 6707TIP3    H120064   5.002   4.018   1.401
 6707TIP3    H220065   5.048   3.886   1.344
 6708TIP3   OH220066   3.470   3.780   4.536
 6708TIP3    H120067   3.431   3.797   4.451
 6708TIP3    H220068   3.410   3.822   4.599
 6709TIP3   OH220069   7.569   4.887   4.491
 6709TIP3    H120070   7.536   4.797   4.498
 6709TIP3    H220071   7.497   4.942   4.522
 6710TIP3   OH220072   6.905   3.481   1.124
 6710TIP3    H120073   6.857   3.560   1.150
 6710TIP3    H220074   6.865   3.456   1.041
 6711TIP3   OH220075   5.244   2.979   3.638
 6711TIP3    H120076   5.289   2.965   3.721
 6711TIP3    H220077   5.175   2.912   3.637
 6712TIP3   OH220078   8.084   5.220   1.733
 6712TIP3    H120079   8.066   5.219   1.826
 6712TIP3    H220080   8.031   5.291   1.698
 6713TIP3   OH220081   6.460   2.567   2.646
 6713TIP3    H120082   6.492   2.622   2.717
 6713TIP3    H220083   6.525   2.497   2.638
 6714TIP3   OH220084   4.223   4.124   0.325
 6714TIP3    H120085   4.140   4.094   0.290
 6714TIP3    H220086   4.200   4.166   0.408
 6715TIP3   OH220087   5.687   6.112   0.660
 6715TIP3    H120088   5.758   6.049   0.671
 6715TIP3    H220089   5.728   6.197   0.679
 6716TIP3   OH220090   7.105   6.452   4.282
 6716TIP3    H120091   7.163   6.395   4.232
 6716TIP3    H220092   7.075   6.397   4.355
 6717TIP3   OH220093   6.952   4.385   5.765
 6717TIP3    H120094   6.898   4.351   5.693
 6717TIP3    H220095   6.988   4.307   5.807
 6718TIP3   OH220096   6.051   4.654   5.271
 6718TIP3    H120097   6.109   4.578   5.279
 6718TIP3    H220098   6.018   4.668   5.360
 6719TIP3   OH220099   2.953   3.169   5.967
 6719TIP3    H120100   3.038   3.155   5.924
 6719TIP3    H220101   2.902   3.219   5.903
 6720TIP3   OH220102   0.339   5.458   0.871
 6720TIP3    H120103   0.358   5.424   0.958
 6720TIP3    H220104   0.263   5.408   0.842
 6721TIP3   OH220105   1.301   4.336   3.465
 6721TIP3    H120106   1.273   4.297   3.382
 6721TIP3    H220107   1.236   4.307   3.529
 6722TIP3   OH220108   2.316   6.307   6.412
 6722TIP3    H120109   2.235   6.342   6.374
 6722TIP3    H220110   2.308   6.212   6.401
 6723TIP3   OH220111   0.941   3.406   6.592
 6723TIP3    H120112   0.883   3.348   6.643
 6723TIP3    H220113   1.029   3.373   6.612
 6724TIP3   OH220114   2.443   6.657   2.198
 6724TIP3    H120115   2.420   6.750   2.197
 6724TIP3    H220116   2.448   6.632   2.106
 6725TIP3   OH220117   6.165   1.681   1.843
 6725TIP3    H120118   6.211   1.708   1.923
 6725TIP3    H220119   6.203   1.596   1.821
 6726TIP3   OH220120   6.825   3.609   0.531
 6726TIP3    H120121   6.730   3.623   0.528
 6726TIP3    H220122   6.839   3.528   0.483
 6727TIP3   OH220123   0.241   3.196   0.395
 6727TIP3    H120124   0.248   3.286   0.426
 6727TIP3    H220125   0.161   3.163   0.435
 6728TIP3   OH220126   6.658   5.532   5.371
 6728TIP3    H120127   6.564   5.518   5.362
 6728TIP3    H220128   6.669   5.627   5.367
 6729TIP3   OH220129   7.286   1.488   0.413
 6729TIP3    H120130   7.346   1.521   0.480
 6729TIP3    H220131   7.222   1.559   0.402
 6730TIP3   OH220132   6.714   2.690   5.435
 6730TIP3    H120133   6.696   2.612   5.383
 6730TIP3    H220134   6.692   2.665   5.525
 6731TIP3   OH220135   2.012   5.650   3.683
 6731TIP3    H120136   1.940   5.619   3.626
 6731TIP3    H220137   2.014   5.585   3.754
 6732TIP3   OH220138   7.109   1.994   1.797
 6732TIP3    H120139   7.179   1.980   1.861
 6732TIP3    H220140   7.140   2.065   1.742
 6733TIP3   OH220141   4.086   7.606   5.475
 6733TIP3    H120142   4.150   7.635   5.409
 6733TIP3    H220143   4.044   7.529   5.435
 6734TIP3   OH220144   3.427   0.980   0.570
 6734TIP3    H120145   3.421   0.964   0.664
 6734TIP3    H220146   3.341   1.016   0.546
 6735TIP3   OH220147   7.747   6.407   5.467
 6735TIP3    H120148   7.829   6.371   5.434
 6735TIP3    H220149   7.738   6.492   5.424
 6736TIP3   OH220150   6.572   2.982   1.839
 6736TIP3    H120151   6.547   2.927   1.765
 6736TIP3    H220152   6.663   3.005   1.821
 6737TIP3   OH220153   5.966   0.851   4.283
 6737TIP3    H120154   5.884   0.805   4.298
 6737TIP3    H220155   6.012   0.844   4.367
 6738TIP3   OH220156   2.584   7.721   3.840
 6738TIP3    H120157   2.663   7.743   3.890
 6738TIP3    H220158   2.575   7.626   3.850
 6739TIP3   OH220159   0.623   3.158   1.311
 6739TIP3    H120160   0.629   3.062   1.310
 6739TIP3    H220161   0.668   3.186   1.232
 6740TIP3   OH220162   7.426   2.256   2.733
 6740TIP3    H120163   7.363   2.270   2.804
 6740TIP3    H220164   7.381   2.289   2.655
 6741TIP3   OH220165   4.811   4.808   4.398
 6741TIP3    H120166   4.871   4.873   4.360
 6741TIP3    H220167   4.857   4.775   4.475
 6742TIP3   OH220168   0.784   3.308   2.242
 6742TIP3    H120169   0.771   3.321   2.336
 6742TIP3    H220170   0.868   3.262   2.235
 6743TIP3   OH220171   0.704   0.893   1.493
 6743TIP3    H120172   0.642   0.948   1.541
 6743TIP3    H220173   0.684   0.910   1.401
 6744TIP3   OH220174   4.970   4.514   3.348
 6744TIP3    H120175   5.064   4.504   3.338
 6744TIP3    H220176   4.946   4.584   3.287
 6745TIP3   OH220177   4.789   4.950   2.648
 6745TIP3    H120178   4.736   5.029   2.637
 6745TIP3    H220179   4.818   4.928   2.559
 6746TIP3   OH220180   1.497   2.842   3.712
 6746TIP3    H120181   1.493   2.932   3.744
 6746TIP3    H220182   1.446   2.843   3.631
 6747TIP3   OH220183   0.375   0.728   1.408
 6747TIP3    H120184   0.440   0.666   1.441
 6747TIP3    H220185   0.295   0.677   1.399
 6748TIP3   OH220186   4.430   0.274   1.341
 6748TIP3    H120187   4.480   0.272   1.423
 6748TIP3    H220188   4.390   0.188   1.335
 6749TIP3   OH220189   5.241   0.486   5.063
 6749TIP3    H120190   5.331   0.474   5.095
 6749TIP3    H220191   5.247   0.562   5.005
 6750TIP3   OH220192   6.492   3.573   4.896
 6750TIP3    H120193   6.525   3.662   4.910
 6750TIP3    H220194   6.569   3.524   4.866
 6751TIP3   OH220195   5.472   4.811   2.971
 6751TIP3    H120196   5.390   4.833   2.927
 6751TIP3    H220197   5.448   4.802   3.063
 6752TIP3   OH220198   0.715   1.898   5.865
 6752TIP3    H120199   0.779   1.847   5.816
 6752TIP3    H220200   0.637   1.842   5.870
 6753TIP3   OH220201   4.514   3.843   2.369
 6753TIP3    H120202   4.577   3.910   2.394
 6753TIP3    H220203   4.449   3.843   2.439
 6754TIP3   OH220204   5.692   3.246   2.685
 6754TIP3    H120205   5.767   3.186   2.685
 6754TIP3    H220206   5.620   3.195   2.721
 6755TIP3   OH220207   3.286   6.060   4.742
 6755TIP3    H120208   3.194   6.048   4.763
 6755TIP3    H220209   3.286   6.099   4.655
 6756TIP3   OH220210   3.355   2.279   2.894
 6756TIP3    H120211   3.421   2.224   2.852
 6756TIP3    H220212   3.354   2.250   2.985
 6757TIP3   OH220213   2.732   0.070   0.626
 6757TIP3    H120214   2.680  -0.010   0.617
 6757TIP3    H220215   2.680   0.137   0.582
 6758TIP3   OH220216   4.526   2.512   5.728
 6758TIP3    H120217   4.448   2.495   5.780
 6758TIP3    H220218   4.495   2.514   5.637
 6759TIP3   OH220219   6.637   6.719   0.724
 6759TIP3    H120220   6.609   6.797   0.677
 6759TIP3    H220221   6.699   6.677   0.664
 6760TIP3   OH220222   5.966   3.237   2.420
 6760TIP3    H120223   5.924   3.155   2.446
 6760TIP3    H220224   6.045   3.242   2.474
 6761TIP3   OH220225   3.730   5.925   0.829
 6761TIP3    H120226   3.663   5.865   0.862
 6761TIP3    H220227   3.781   5.949   0.906
 6762TIP3   OH220228   1.687   0.166   4.851
 6762TIP3    H120229   1.733   0.083   4.865
 6762TIP3    H220230   1.598   0.141   4.828
 6763TIP3   OH220231   4.648   1.509   1.957
 6763TIP3    H120232   4.711   1.535   2.025
 6763TIP3    H220233   4.695   1.445   1.904
 6764TIP3   OH220234   1.402   3.832   2.743
 6764TIP3    H120235   1.441   3.886   2.675
 6764TIP3    H220236   1.348   3.893   2.794
 6765TIP3   OH220237   4.659   3.746   3.134
 6765TIP3    H120238   4.648   3.832   3.094
 6765TIP3    H220239   4.569   3.715   3.149
 6766TIP3   OH220240   5.144   7.183   5.596
 6766TIP3    H120241   5.231   7.213   5.571
 6766TIP3    H220242   5.116   7.127   5.524
 6767TIP3   OH220243   0.104   2.503   2.713
 6767TIP3    H120244   0.159   2.444   2.765
 6767TIP3    H220245   0.054   2.553   2.778
 6768TIP3   OH220246   0.843   0.057   5.856
 6768TIP3    H120247   0.886  -0.018   5.897
 6768TIP3    H220248   0.857   0.129   5.917
 6769TIP3   OH220249   4.964   2.257   1.775
 6769TIP3    H120250   4.883   2.309   1.771
 6769TIP3    H220251   5.028   2.316   1.814
 6770TIP3   OH220252   1.741   2.061   2.549
 6770TIP3    H120253   1.771   2.069   2.639
 6770TIP3    H220254   1.717   1.969   2.539
 6771TIP3   OH220255   4.074   3.122   1.157
 6771TIP3    H120256   3.982   3.149   1.159
 6771TIP3    H220257   4.080   3.064   1.081
 6772TIP3   OH220258   5.954   5.127   1.118
 6772TIP3    H120259   5.870   5.082   1.114
 6772TIP3    H220260   5.998   5.089   1.194
 6773TIP3   OH220261   5.905   1.699   5.911
 6773TIP3    H120262   5.845   1.625   5.921
 6773TIP3    H220263   5.974   1.683   5.976
 6774TIP3   OH220264   2.215   4.867   0.717
 6774TIP3    H120265   2.310   4.880   0.709
 6774TIP3    H220266   2.198   4.788   0.666
 6775TIP3   OH220267   2.968   3.622   3.600
 6775TIP3    H120268   2.925   3.622   3.515
 6775TIP3    H220269   2.923   3.692   3.649
 6776TIP3   OH220270   5.544   7.204   2.216
 6776TIP3    H120271   5.552   7.142   2.144
 6776TIP3    H220272   5.628   7.200   2.261
 6777TIP3   OH220273   7.531   6.939   4.590
 6777TIP3    H120274   7.582   6.859   4.605
 6777TIP3    H220275   7.440   6.908   4.583
 6778TIP3   OH220276   4.454   2.817   2.071
 6778TIP3    H120277   4.398   2.763   2.013
 6778TIP3    H220278   4.495   2.753   2.129
 6779TIP3   OH220279   4.707   2.676   0.055
 6779TIP3    H120280   4.782   2.691  -0.002
 6779TIP3    H220281   4.714   2.742   0.123
 6780TIP3   OH220282   1.416   4.044   0.197
 6780TIP3    H120283   1.427   3.961   0.244
 6780TIP3    H220284   1.471   4.106   0.244
 6781TIP3   OH220285   3.746   4.996   1.099
 6781TIP3    H120286   3.820   5.054   1.080
 6781TIP3    H220287   3.748   4.931   1.029
 6782TIP3   OH220288   7.070   5.059   1.080
 6782TIP3    H120289   7.066   5.055   0.985
 6782TIP3    H220290   7.081   4.967   1.107
 6783TIP3   OH220291   2.118   0.698   4.459
 6783TIP3    H120292   2.029   0.732   4.471
 6783TIP3    H220293   2.175   0.762   4.500
 6784TIP3   OH220294   1.983   0.950   5.912
 6784TIP3    H120295   2.008   0.892   5.984
 6784TIP3    H220296   2.066   0.974   5.871
 6785TIP3   OH220297   6.147   0.545   0.097
 6785TIP3    H120298   6.211   0.615   0.101
 6785TIP3    H220299   6.063   0.589   0.109
 6786TIP3   OH220300   4.049   5.919   4.140
 6786TIP3    H120301   4.059   5.824   4.129
 6786TIP3    H220302   3.981   5.943   4.078
 6787TIP3   OH220303   6.521   2.020   1.903
 6787TIP3    H120304   6.593   1.990   1.848
 6787TIP3    H220305   6.529   1.969   1.984
 6788TIP3   OH220306   5.748   6.529   1.349
 6788TIP3    H120307   5.795   6.464   1.402
 6788TIP3    H220308   5.656   6.519   1.374
 6789TIP3   OH220309   3.952   6.653   4.236
 6789TIP3    H120310   3.864   6.617   4.237
 6789TIP3    H220311   3.992   6.621   4.317
 6790TIP3   OH220312   0.267   0.867   0.392
 6790TIP3    H120313   0.267   0.784   0.440
 6790TIP3    H220314   0.238   0.932   0.456
 6791TIP3   OH220315   4.878   2.959   1.445
 6791TIP3    H120316   4.893   2.973   1.538
 6791TIP3    H220317   4.788   2.988   1.430
 6792TIP3   OH220318   7.963   6.240   0.710
 6792TIP3    H120319   8.017   6.240   0.789
 6792TIP3    H220320   7.884   6.289   0.734
 6793TIP3   OH220321   3.463   0.732   5.574
 6793TIP3    H120322   3.506   0.682   5.504
 6793TIP3    H220323   3.430   0.811   5.531
 6794TIP3   OH220324   3.211   7.117   2.251
 6794TIP3    H120325   3.206   7.208   2.220
 6794TIP3    H220326   3.128   7.078   2.224
 6795TIP3   OH220327   3.791   6.285   3.577
 6795TIP3    H120328   3.810   6.348   3.646
 6795TIP3    H220329   3.708   6.315   3.540
 6796TIP3   OH220330   1.629   6.435   1.516
 6796TIP3    H120331   1.639   6.446   1.611
 6796TIP3    H220332   1.715   6.460   1.481
 6797TIP3   OH220333   0.831   5.334   3.599
 6797TIP3    H120334   0.880   5.322   3.680
 6797TIP3    H220335   0.754   5.278   3.608
 6798TIP3   OH220336   4.515   0.014   0.107
 6798TIP3    H120337   4.592   0.006   0.164
 6798TIP3    H220338   4.448  -0.038   0.150
 6799TIP3   OH220339   5.660   6.128   2.122
 6799TIP3    H120340   5.624   6.150   2.208
 6799TIP3    H220341   5.602   6.172   2.060
 6800TIP3   OH220342   0.626   5.985   3.623
 6800TIP3    H120343   0.719   6.004   3.634
 6800TIP3    H220344   0.619   5.891   3.640
 6801TIP3   OH220345   8.034   5.130   6.541
 6801TIP3    H120346   7.982   5.110   6.463
 6801TIP3    H220347   7.998   5.213   6.572
 6802TIP3   OH220348   7.841   7.636   0.177
 6802TIP3    H120349   7.925   7.591   0.186
 6802TIP3    H220350   7.799   7.625   0.262
 6803TIP3   OH220351   0.606   7.397   1.898
 6803TIP3    H120352   0.691   7.353   1.895
 6803TIP3    H220353   0.549   7.337   1.946
 6804TIP3   OH220354   1.054   6.782   3.241
 6804TIP3    H120355   1.132   6.803   3.293
 6804TIP3    H220356   1.006   6.865   3.237
 6805TIP3   OH220357   3.555   0.828   3.790
 6805TIP3    H120358   3.511   0.912   3.800
 6805TIP3    H220359   3.517   0.772   3.857
 6806TIP3   OH220360   8.045   1.263   0.897
 6806TIP3    H120361   7.995   1.300   0.825
 6806TIP3    H220362   7.994   1.188   0.927
 6807TIP3   OH220363   7.857   1.631   4.817
 6807TIP3    H120364   7.913   1.559   4.847
 6807TIP3    H220365   7.769   1.596   4.821
 6808TIP3   OH220366   4.493   6.811   3.607
 6808TIP3    H120367   4.523   6.768   3.526
 6808TIP3    H220368   4.510   6.904   3.592
 6809TIP3   OH220369   1.690   6.570   2.696
 6809TIP3    H120370   1.732   6.487   2.715
 6809TIP3    H220371   1.621   6.578   2.761
 6810TIP3   OH220372   1.146   3.471   3.117
 6810TIP3    H120373   1.141   3.385   3.077
 6810TIP3    H220374   1.060   3.485   3.156
 6811TIP3   OH220375   2.229   6.828   0.047
 6811TIP3    H120376   2.145   6.842   0.091
 6811TIP3    H220377   2.213   6.853  -0.044
 6812TIP3   OH220378   1.282   7.722   0.364
 6812TIP3    H120379   1.206   7.766   0.403
 6812TIP3    H220380   1.273   7.630   0.391
 6813TIP3   OH220381   6.074   5.985   5.355
 6813TIP3    H120382   6.033   5.989   5.269
 6813TIP3    H220383   6.164   5.958   5.337
 6814TIP3   OH220384   7.795   2.085   2.312
 6814TIP3    H120385   7.712   2.041   2.331
 6814TIP3    H220386   7.784   2.173   2.348
 6815TIP3   OH220387   7.702   5.842   5.487
 6815TIP3    H120388   7.655   5.877   5.563
 6815TIP3    H220389   7.788   5.817   5.521
 6816TIP3   OH220390   6.583   6.954   6.392
 6816TIP3    H120391   6.523   6.882   6.373
 6816TIP3    H220392   6.620   6.932   6.477
 6817TIP3   OH220393   1.283   0.512   0.678
 6817TIP3    H120394   1.278   0.425   0.717
 6817TIP3    H220395   1.192   0.541   0.672
 6818TIP3   OH220396   6.102   0.236   6.236
 6818TIP3    H120397   6.112   0.323   6.196
 6818TIP3    H220398   6.026   0.245   6.294
 6819TIP3   OH220399   3.717   0.410   4.449
 6819TIP3    H120400   3.683   0.500   4.446
 6819TIP3    H220401   3.681   0.373   4.529
 6820TIP3   OH220402   0.672   1.940   3.320
 6820TIP3    H120403   0.689   1.995   3.396
 6820TIP3    H220404   0.742   1.962   3.258
 6821TIP3   OH220405   6.212   4.577   4.636
 6821TIP3    H120406   6.134   4.592   4.690
 6821TIP3    H220407   6.285   4.580   4.698
 6822TIP3   OH220408   3.141   2.461   5.106
 6822TIP3    H120409   3.080   2.392   5.080
 6822TIP3    H220410   3.187   2.426   5.182
 6823TIP3   OH220411   2.828   3.379   4.957
 6823TIP3    H120412   2.760   3.329   5.002
 6823TIP3    H220413   2.779   3.441   4.903
 6824TIP3   OH220414   2.210   4.888   5.883
 6824TIP3    H120415   2.143   4.944   5.843
 6824TIP3    H220416   2.162   4.837   5.950
 6825TIP3   OH220417   2.970   3.812   3.119
 6825TIP3    H120418   2.918   3.779   3.046
 6825TIP3    H220419   2.993   3.901   3.094
 6826TIP3   OH220420   5.797   7.023   6.548
 6826TIP3    H120421   5.779   6.942   6.596
 6826TIP3    H220422   5.812   7.088   6.617
 6827TIP3   OH220423   4.072   2.990   6.040
 6827TIP3    H120424   3.981   2.963   6.035
 6827TIP3    H220425   4.076   3.044   6.119
 6828TIP3   OH220426   3.701   1.753   0.493
 6828TIP3    H120427   3.707   1.761   0.398
 6828TIP3    H220428   3.737   1.666   0.512
 6829TIP3   OH220429   4.708   3.750   6.813
 6829TIP3    H120430   4.764   3.743   6.736
 6829TIP3    H220431   4.632   3.695   6.792
 6830TIP3   OH220432   3.811   3.888   5.977
 6830TIP3    H120433   3.807   3.971   5.929
 6830TIP3    H220434   3.797   3.821   5.910
 6831TIP3   OH220435   2.852   5.136   1.709
 6831TIP3    H120436   2.897   5.057   1.682
 6831TIP3    H220437   2.908   5.208   1.680
 6832TIP3   OH220438   3.872   3.514   3.017
 6832TIP3    H120439   3.904   3.432   2.977
 6832TIP3    H220440   3.859   3.492   3.109
 6833TIP3   OH220441   2.102   1.776   6.628
 6833TIP3    H120442   2.172   1.785   6.693
 6833TIP3    H220443   2.068   1.865   6.617
 6834TIP3   OH220444   7.503   7.212   3.572
 6834TIP3    H120445   7.497   7.307   3.574
 6834TIP3    H220446   7.536   7.188   3.659
 6835TIP3   OH220447   2.755   6.108   6.177
 6835TIP3    H120448   2.806   6.027   6.171
 6835TIP3    H220449   2.717   6.119   6.090
 6836TIP3   OH220450   0.707   5.034   1.218
 6836TIP3    H120451   0.719   5.048   1.124
 6836TIP3    H220452   0.695   5.122   1.253
 6837TIP3   OH220453   6.496   1.374   4.467
 6837TIP3    H120454   6.555   1.307   4.503
 6837TIP3    H220455   6.489   1.352   4.374
 6838TIP3   OH220456   6.178   2.780   5.077
 6838TIP3    H120457   6.239   2.847   5.108
 6838TIP3    H220458   6.233   2.710   5.042
 6839TIP3   OH220459   4.437   2.703   1.403
 6839TIP3    H120460   4.390   2.671   1.326
 6839TIP3    H220461   4.521   2.657   1.401
 6840TIP3   OH220462   4.426   3.783   1.686
 6840TIP3    H120463   4.401   3.737   1.766
 6840TIP3    H220464   4.477   3.719   1.636
 6841TIP3   OH220465   4.606   4.016   0.989
 6841TIP3    H120466   4.616   4.083   1.057
 6841TIP3    H220467   4.511   4.005   0.980
 6842TIP3   OH220468   1.043   6.239   3.110
 6842TIP3    H120469   1.130   6.264   3.077
 6842TIP3    H220470   0.988   6.235   3.032
 6843TIP3   OH220471   2.362   6.753   0.646
 6843TIP3    H120472   2.346   6.842   0.677
 6843TIP3    H220473   2.457   6.743   0.651
 6844TIP3   OH220474   0.391   1.661   1.642
 6844TIP3    H120475   0.338   1.705   1.707
 6844TIP3    H220476   0.338   1.662   1.562
 6845TIP3   OH220477   0.112   7.787   1.360
 6845TIP3    H120478   0.074   7.874   1.351
 6845TIP3    H220479   0.050   7.729   1.315
 6846TIP3   OH220480   5.129   1.018   0.568
 6846TIP3    H120481   5.123   1.054   0.479
 6846TIP3    H220482   5.189   0.944   0.559
 6847TIP3   OH220483   2.314   1.991   4.151
 6847TIP3    H120484   2.355   2.021   4.232
 6847TIP3    H220485   2.222   1.976   4.175
 6848TIP3   OH220486   3.151   4.683   1.663
 6848TIP3    H120487   3.231   4.655   1.619
 6848TIP3    H220488   3.172   4.678   1.756
 6849TIP3   OH220489   3.643   4.669   6.220
 6849TIP3    H120490   3.655   4.583   6.261
 6849TIP3    H220491   3.728   4.687   6.178
 6850TIP3   OH220492   8.120   1.365   2.470
 6850TIP3    H120493   8.137   1.286   2.521
 6850TIP3    H220494   8.088   1.429   2.533
 6851TIP3   OH220495   5.652   6.521   1.086
 6851TIP3    H120496   5.707   6.516   1.165
 6851TIP3    H220497   5.642   6.615   1.071
 6852TIP3   OH220498   7.946   4.817   0.913
 6852TIP3    H120499   8.017   4.805   0.976
 6852TIP3    H220500   7.870   4.775   0.953
 6853TIP3   OH220501   6.963   6.815   3.032
 6853TIP3    H120502   7.012   6.880   2.982
 6853TIP3    H220503   6.907   6.867   3.091
 6854TIP3   OH220504   4.083   0.899   4.231
 6854TIP3    H120505   4.089   0.994   4.222
 6854TIP3    H220506   4.166   0.867   4.195
 6855TIP3   OH220507   0.689   7.790   3.355
 6855TIP3    H120508   0.669   7.739   3.433
 6855TIP3    H220509   0.782   7.812   3.364
 6856TIP3   OH220510   7.800   4.057   5.887
 6856TIP3    H120511   7.860   4.048   5.812
 6856TIP3    H220512   7.767   3.969   5.902
 6857TIP3   OH220513   2.105   2.818   1.044
 6857TIP3    H120514   2.192   2.791   1.015
 6857TIP3    H220515   2.049   2.743   1.026
 6858TIP3   OH220516   3.009   0.147   4.432
 6858TIP3    H120517   3.082   0.087   4.416
 6858TIP3    H220518   2.939   0.115   4.375
 6859TIP3   OH220519   3.868   2.235   3.894
 6859TIP3    H120520   3.867   2.143   3.868
 6859TIP3    H220521   3.933   2.276   3.837
 6860TIP3   OH220522   7.386   1.626   5.986
 6860TIP3    H120523   7.472   1.628   6.028
 6860TIP3    H220524   7.327   1.667   6.049
 6861TIP3   OH220525   7.707   6.163   6.159
 6861TIP3    H120526   7.707   6.185   6.253
 6861TIP3    H220527   7.657   6.233   6.118
 6862TIP3   OH220528   4.997   2.337   6.633
 6862TIP3    H120529   4.912   2.338   6.590
 6862TIP3    H220530   5.032   2.250   6.616
 6863TIP3   OH220531   1.958   3.160   0.398
 6863TIP3    H120532   2.003   3.220   0.457
 6863TIP3    H220533   1.907   3.216   0.340
 6864TIP3   OH220534   3.529   6.334   6.201
 6864TIP3    H120535   3.541   6.408   6.143
 6864TIP3    H220536   3.583   6.264   6.164
 6865TIP3   OH220537   4.846   6.857   1.071
 6865TIP3    H120538   4.811   6.939   1.035
 6865TIP3    H220539   4.806   6.850   1.157
 6866TIP3   OH220540   6.807   7.311   1.340
 6866TIP3    H120541   6.843   7.246   1.401
 6866TIP3    H220542   6.852   7.392   1.363
 6867TIP3   OH220543   8.111   4.187   2.211
 6867TIP3    H120544   8.127   4.267   2.261
 6867TIP3    H220545   8.097   4.119   2.277
 6868TIP3   OH220546   2.610   2.632   5.822
 6868TIP3    H120547   2.567   2.677   5.895
 6868TIP3    H220548   2.571   2.545   5.822
 6869TIP3   OH220549   2.130   4.083   2.095
 6869TIP3    H120550   2.169   4.158   2.050
 6869TIP3    H220551   2.077   4.040   2.028
 6870TIP3   OH220552   5.647   0.463   4.608
 6870TIP3    H120553   5.618   0.475   4.518
 6870TIP3    H220554   5.640   0.369   4.624
 6871TIP3   OH220555   5.358   3.880   6.308
 6871TIP3    H120556   5.353   3.789   6.339
 6871TIP3    H220557   5.443   3.885   6.265
 6872TIP3   OH220558   1.719   3.998   0.554
 6872TIP3    H120559   1.672   4.051   0.490
 6872TIP3    H220560   1.715   3.909   0.519
 6873TIP3   OH220561   5.219   0.971   0.815
 6873TIP3    H120562   5.169   0.972   0.733
 6873TIP3    H220563   5.291   1.032   0.801
 6874TIP3   OH220564   6.691   5.891   1.480
 6874TIP3    H120565   6.676   5.798   1.496
 6874TIP3    H220566   6.641   5.911   1.401
 6875TIP3   OH220567   1.136   3.746   6.476
 6875TIP3    H120568   1.144   3.801   6.397
 6875TIP3    H220569   1.051   3.703   6.466
 6876TIP3   OH220570   6.048   4.751   1.093
 6876TIP3    H120571   5.991   4.712   1.159
 6876TIP3    H220572   6.136   4.745   1.131
 6877TIP3   OH220573   6.753   2.977   0.309
 6877TIP3    H120574   6.827   2.935   0.353
 6877TIP3    H220575   6.733   3.054   0.362
 6878TIP3   OH220576   4.294   7.173   4.042
 6878TIP3    H120577   4.348   7.109   3.995
 6878TIP3    H220578   4.322   7.166   4.133
 6879TIP3   OH220579   4.181   3.865   1.568
 6879TIP3    H120580   4.130   3.784   1.569
 6879TIP3    H220581   4.269   3.839   1.596
 6880TIP3   OH220582   1.877   6.290   4.575
 6880TIP3    H120583   1.927   6.214   4.544
 6880TIP3    H220584   1.911   6.363   4.524
 6881TIP3   OH220585   0.402   2.445   5.506
 6881TIP3    H120586   0.337   2.376   5.491
 6881TIP3    H220587   0.421   2.440   5.600
 6882TIP3   OH220588   2.460   2.050   0.663
 6882TIP3    H120589   2.521   2.102   0.715
 6882TIP3    H220590   2.435   2.107   0.590
 6883TIP3   OH220591   5.490   4.448   5.468
 6883TIP3    H120592   5.424   4.496   5.518
 6883TIP3    H220593   5.517   4.509   5.399
 6884TIP3   OH220594   4.350   1.377   5.640
 6884TIP3    H120595   4.374   1.345   5.727
 6884TIP3    H220596   4.358   1.472   5.645
 6885TIP3   OH220597   4.229   7.331   6.156
 6885TIP3    H120598   4.294   7.399   6.144
 6885TIP3    H220599   4.177   7.360   6.232
 6886TIP3   OH220600   6.069   3.461   4.002
 6886TIP3    H120601   6.128   3.528   4.036
 6886TIP3    H220602   6.051   3.488   3.912
 6887TIP3   OH220603   3.632   6.079   4.540
 6887TIP3    H120604   3.655   6.044   4.627
 6887TIP3    H220605   3.582   6.009   4.499
 6888TIP3   OH220606   5.962   7.535   1.718
 6888TIP3    H120607   5.918   7.524   1.803
 6888TIP3    H220608   5.891   7.530   1.654
 6889TIP3   OH220609   3.101   2.709   2.997
 6889TIP3    H120610   3.094   2.636   3.058
 6889TIP3    H220611   3.094   2.669   2.911
 6890TIP3   OH220612   7.844   0.913   2.660
 6890TIP3    H120613   7.890   0.917   2.744
 6890TIP3    H220614   7.751   0.917   2.684
 6891TIP3   OH220615   0.551   5.614   4.901
 6891TIP3    H120616   0.524   5.667   4.976
 6891TIP3    H220617   0.491   5.641   4.831
 6892TIP3   OH220618   7.612   2.037   3.724
 6892TIP3    H120619   7.528   2.080   3.713
 6892TIP3    H220620   7.619   1.977   3.650
 6893TIP3   OH220621   7.617   2.669   1.090
 6893TIP3    H120622   7.535   2.626   1.114
 6893TIP3    H220623   7.636   2.635   1.002
 6894TIP3   OH220624  -0.010   0.145   3.029
 6894TIP3    H120625   0.034   0.123   3.112
 6894TIP3    H220626  -0.069   0.216   3.052
 6895TIP3   OH220627   5.003   2.393   3.114
 6895TIP3    H120628   5.048   2.323   3.067
 6895TIP3    H220629   4.947   2.434   3.048
 6896TIP3   OH220630   1.416   7.692   5.471
 6896TIP3    H120631   1.394   7.668   5.561
 6896TIP3    H220632   1.388   7.783   5.462
 6897TIP3   OH220633   1.432   0.357   0.486
 6897TIP3    H120634   1.385   0.410   0.549
 6897TIP3    H220635   1.369   0.340   0.416
 6898TIP3   OH220636   5.014   5.257   6.641
 6898TIP3    H120637   5.042   5.328   6.699
 6898TIP3    H220638   5.079   5.188   6.653
 6899TIP3   OH220639   7.234   2.319   2.520
 6899TIP3    H120640   7.206   2.231   2.493
 6899TIP3    H220641   7.198   2.377   2.452
 6900TIP3   OH220642   4.270   2.183   6.099
 6900TIP3    H120643   4.291   2.157   6.189
 6900TIP3    H220644   4.354   2.211   6.062
 6901TIP3   OH220645   2.912   0.978   6.618
 6901TIP3    H120646   2.975   0.924   6.665
 6901TIP3    H220647   2.950   1.066   6.619
 6902TIP3   OH220648   0.866   5.304   2.314
 6902TIP3    H120649   0.922   5.300   2.236
 6902TIP3    H220650   0.855   5.397   2.331
 6903TIP3   OH220651   3.951   7.803   1.455
 6903TIP3    H120652   3.871   7.769   1.495
 6903TIP3    H220653   3.993   7.725   1.418
 6904TIP3   OH220654   3.035   3.265   6.663
 6904TIP3    H120655   3.031   3.360   6.646
 6904TIP3    H220656   3.129   3.245   6.658
 6905TIP3   OH220657   4.413   1.619   0.784
 6905TIP3    H120658   4.356   1.638   0.859
 6905TIP3    H220659   4.413   1.699   0.732
 6906TIP3   OH220660   7.030   7.246   3.249
 6906TIP3    H120661   6.952   7.274   3.201
 6906TIP3    H220662   7.084   7.325   3.254
 6907TIP3   OH220663   6.180   3.746   2.247
 6907TIP3    H120664   6.093   3.780   2.224
 6907TIP3    H220665   6.186   3.663   2.199
 6908TIP3   OH220666   1.443   3.809   0.335
 6908TIP3    H120667   1.460   3.718   0.312
 6908TIP3    H220668   1.403   3.806   0.421
 6909TIP3   OH220669   6.848   4.707   1.554
 6909TIP3    H120670   6.930   4.727   1.599
 6909TIP3    H220671   6.828   4.786   1.503
 6910TIP3   OH220672   5.382   5.620   3.120
 6910TIP3    H120673   5.463   5.633   3.071
 6910TIP3    H220674   5.389   5.679   3.195
 6911TIP3   OH220675   1.181   3.972   0.368
 6911TIP3    H120676   1.179   4.026   0.447
 6911TIP3    H220677   1.264   3.994   0.326
 6912TIP3   OH220678   4.417   4.155   2.585
 6912TIP3    H120679   4.482   4.086   2.582
 6912TIP3    H220680   4.468   4.236   2.586
 6913TIP3   OH220681   3.332   1.503   0.533
 6913TIP3    H120682   3.383   1.499   0.614
 6913TIP3    H220683   3.327   1.412   0.503
 6914TIP3   OH220684   7.150   7.472   6.510
 6914TIP3    H120685   7.199   7.411   6.565
 6914TIP3    H220686   7.196   7.556   6.520
 6915TIP3   OH220687   5.204   6.718   3.148
 6915TIP3    H120688   5.269   6.776   3.110
 6915TIP3    H220689   5.224   6.719   3.242
 6916TIP3   OH220690   7.128   2.548   1.533
 6916TIP3    H120691   7.149   2.455   1.529
 6916TIP3    H220692   7.209   2.592   1.508
 6917TIP3   OH220693   6.337   3.008   3.872
 6917TIP3    H120694   6.418   3.058   3.861
 6917TIP3    H220695   6.268   3.075   3.870
 6918TIP3   OH220696   1.216   1.621   5.374
 6918TIP3    H120697   1.301   1.581   5.389
 6918TIP3    H220698   1.234   1.715   5.371
 6919TIP3   OH220699   3.212   1.999   1.711
 6919TIP3    H120700   3.249   2.016   1.798
 6919TIP3    H220701   3.288   1.987   1.654
 6920TIP3   OH220702   1.828   6.676   1.686
 6920TIP3    H120703   1.917   6.642   1.680
 6920TIP3    H220704   1.822   6.740   1.614
 6921TIP3   OH220705   0.637   2.989   3.304
 6921TIP3    H120706   0.549   2.956   3.318
 6921TIP3    H220707   0.657   2.966   3.213
 6922TIP3   OH220708   7.981   7.003   3.257
 6922TIP3    H120709   7.969   7.076   3.197
 6922TIP3    H220710   8.076   6.999   3.271
 6923TIP3   OH220711   3.215   3.229   2.218
 6923TIP3    H120712   3.244   3.247   2.307
 6923TIP3    H220713   3.290   3.252   2.163
 6924TIP3   OH220714   7.417   7.647   1.005
 6924TIP3    H120715   7.492   7.685   1.051
 6924TIP3    H220716   7.352   7.631   1.074
 6925TIP3   OH220717   5.726   6.431   3.928
 6925TIP3    H120718   5.668   6.506   3.941
 6925TIP3    H220719   5.730   6.420   3.833
 6926TIP3   OH220720   1.791   7.037   0.675
 6926TIP3    H120721   1.804   7.070   0.586
 6926TIP3    H220722   1.879   7.016   0.706
 6927TIP3   OH220723   4.015   7.291   5.507
 6927TIP3    H120724   3.984   7.266   5.419
 6927TIP3    H220725   3.942   7.267   5.565
 6928TIP3   OH220726   6.213   3.781   3.939
 6928TIP3    H120727   6.258   3.792   3.855
 6928TIP3    H220728   6.172   3.866   3.956
 6929TIP3   OH220729   3.905   4.424   1.860
 6929TIP3    H120730   3.901   4.497   1.797
 6929TIP3    H220731   3.874   4.462   1.942
 6930TIP3   OH220732   4.423   3.370   5.844
 6930TIP3    H120733   4.406   3.295   5.788
 6930TIP3    H220734   4.515   3.363   5.869
 6931TIP3   OH220735   0.850   5.999   4.344
 6931TIP3    H120736   0.835   5.921   4.292
 6931TIP3    H220737   0.892   5.968   4.424
 6932TIP3   OH220738   5.569   5.093   1.500
 6932TIP3    H120739   5.639   5.030   1.487
 6932TIP3    H220740   5.537   5.113   1.412
 6933TIP3   OH220741   8.100   2.055   4.846
 6933TIP3    H120742   8.080   2.021   4.759
 6933TIP3    H220743   8.020   2.039   4.897
 6934TIP3   OH220744   7.820   5.670   6.044
 6934TIP3    H120745   7.767   5.628   5.976
 6934TIP3    H220746   7.831   5.602   6.111
 6935TIP3   OH220747   4.521   6.932   2.266
 6935TIP3    H120748   4.501   6.854   2.215
 6935TIP3    H220749   4.438   6.980   2.269
 6936TIP3   OH220750   2.991   6.993   5.619
 6936TIP3    H120751   3.051   6.937   5.569
 6936TIP3    H220752   2.938   6.932   5.669
 6937TIP3   OH220753   7.722   1.324   0.964
 6937TIP3    H120754   7.719   1.417   0.983
 6937TIP3    H220755   7.756   1.318   0.875
 6938TIP3   OH220756   1.439   1.025   4.062
 6938TIP3    H120757   1.369   1.073   4.107
 6938TIP3    H220758   1.401   1.002   3.977
 6939TIP3   OH220759   1.573   0.434   0.228
 6939TIP3    H120760   1.524   0.512   0.202
 6939TIP3    H220761   1.599   0.452   0.319
 6940TIP3   OH220762   1.670   2.998   3.993
 6940TIP3    H120763   1.757   2.960   4.008
 6940TIP3    H220764   1.617   2.925   3.961
 6941TIP3   OH220765   6.310   7.313   4.481
 6941TIP3    H120766   6.372   7.240   4.483
 6941TIP3    H220767   6.345   7.371   4.414
 6942TIP3   OH220768   4.034   5.652   4.113
 6942TIP3    H120769   4.011   5.634   4.204
 6942TIP3    H220770   4.013   5.571   4.067
 6943TIP3   OH220771   7.251   2.964   6.084
 6943TIP3    H120772   7.271   3.048   6.043
 6943TIP3    H220773   7.241   2.903   6.011
 6944TIP3   OH220774   1.997   7.466   1.449
 6944TIP3    H120775   1.917   7.486   1.400
 6944TIP3    H220776   1.979   7.382   1.491
 6945TIP3   OH220777   3.674   5.383   3.107
 6945TIP3    H120778   3.709   5.320   3.043
 6945TIP3    H220779   3.580   5.369   3.105
 6946TIP3   OH220780   2.678   7.395   5.651
 6946TIP3    H120781   2.700   7.302   5.644
 6946TIP3    H220782   2.706   7.432   5.568
 6947TIP3   OH220783   4.447   7.375   5.820
 6947TIP3    H120784   4.357   7.402   5.805
 6947TIP3    H220785   4.450   7.284   5.792
 6948TIP3   OH220786   7.670   5.165   2.304
 6948TIP3    H120787   7.708   5.250   2.280
 6948TIP3    H220788   7.655   5.172   2.399
 6949TIP3   OH220789   2.001   3.853   1.934
 6949TIP3    H120790   1.952   3.873   1.855
 6949TIP3    H220791   1.938   3.809   1.991
 6950TIP3   OH220792   6.221   4.270   5.961
 6950TIP3    H120793   6.184   4.183   5.950
 6950TIP3    H220794   6.157   4.316   6.016
 6951TIP3   OH220795   2.036   6.958   1.775
 6951TIP3    H120796   1.981   6.929   1.702
 6951TIP3    H220797   2.093   7.024   1.737
 6952TIP3   OH220798   4.944   0.008   2.608
 6952TIP3    H120799   4.897   0.085   2.575
 6952TIP3    H220800   4.875  -0.050   2.639
 6953TIP3   OH220801   0.647   3.469   5.367
 6953TIP3    H120802   0.638   3.444   5.275
 6953TIP3    H220803   0.704   3.545   5.366
 6954TIP3   OH220804   1.319   5.154   1.989
 6954TIP3    H120805   1.298   5.248   1.989
 6954TIP3    H220806   1.403   5.148   1.944
 6955TIP3   OH220807   4.124   4.566   0.993
 6955TIP3    H120808   4.120   4.660   0.974
 6955TIP3    H220809   4.166   4.528   0.916
 6956TIP3   OH220810   5.781   0.557   0.772
 6956TIP3    H120811   5.741   0.543   0.858
 6956TIP3    H220812   5.875   0.547   0.788
 6957TIP3   OH220813   6.484   7.282   3.467
 6957TIP3    H120814   6.480   7.282   3.372
 6957TIP3    H220815   6.493   7.374   3.491
 6958TIP3   OH220816   6.990   2.148   4.917
 6958TIP3    H120817   7.017   2.097   4.840
 6958TIP3    H220818   6.943   2.086   4.972
 6959TIP3   OH220819   7.068   5.258   5.201
 6959TIP3    H120820   7.121   5.330   5.168
 6959TIP3    H220821   6.978   5.282   5.178
 6960TIP3   OH220822   6.852   3.803   2.059
 6960TIP3    H120823   6.827   3.724   2.010
 6960TIP3    H220824   6.795   3.872   2.024
 6961TIP3   OH220825   6.571   1.116   2.747
 6961TIP3    H120826   6.537   1.100   2.659
 6961TIP3    H220827   6.494   1.141   2.798
 6962TIP3   OH220828   4.532   1.305   3.498
 6962TIP3    H120829   4.582   1.227   3.523
 6962TIP3    H220830   4.567   1.375   3.552
 6963TIP3   OH220831   4.031   0.782   0.880
 6963TIP3    H120832   3.969   0.848   0.911
 6963TIP3    H220833   4.116   0.825   0.885
 6964TIP3   OH220834   6.400   3.103   6.601
 6964TIP3    H120835   6.366   3.066   6.520
 6964TIP3    H220836   6.495   3.099   6.591
 6965TIP3   OH220837   6.614   6.415   1.922
 6965TIP3    H120838   6.548   6.466   1.970
 6965TIP3    H220839   6.588   6.324   1.934
 6966TIP3   OH220840   3.444   4.596   4.583
 6966TIP3    H120841   3.427   4.589   4.489
 6966TIP3    H220842   3.433   4.507   4.616
 6967TIP3   OH220843   3.444   1.529   6.175
 6967TIP3    H120844   3.419   1.567   6.260
 6967TIP3    H220845   3.519   1.473   6.195
 6968TIP3   OH220846   3.043   5.371   0.189
 6968TIP3    H120847   3.012   5.309   0.255
 6968TIP3    H220848   3.041   5.456   0.234
 6969TIP3   OH220849   3.799   2.951   5.988
 6969TIP3    H120850   3.769   2.909   6.068
 6969TIP3    H220851   3.806   3.044   6.011
 6970TIP3   OH220852   7.644   6.870   0.960
 6970TIP3    H120853   7.706   6.915   1.017
 6970TIP3    H220854   7.646   6.778   0.989
 6971TIP3   OH220855   0.507   5.926   5.533
 6971TIP3    H120856   0.549   5.935   5.619
 6971TIP3    H220857   0.423   5.971   5.544
 6972TIP3   OH220858   2.751   2.165   0.503
 6972TIP3    H120859   2.773   2.233   0.439
 6972TIP3    H220860   2.668   2.194   0.541
 6973TIP3   OH220861   2.174   2.610   4.734
 6973TIP3    H120862   2.166   2.554   4.811
 6973TIP3    H220863   2.120   2.686   4.753
 6974TIP3   OH220864   6.434   7.256   2.891
 6974TIP3    H120865   6.355   7.307   2.911
 6974TIP3    H220866   6.410   7.205   2.814
 6975TIP3   OH220867   7.932   4.913   4.494
 6975TIP3    H120868   8.020   4.935   4.527
 6975TIP3    H220869   7.878   4.905   4.572
 6976TIP3   OH220870   4.107   2.794   4.984
 6976TIP3    H120871   4.158   2.773   4.905
 6976TIP3    H220872   4.162   2.766   5.056
 6977TIP3   OH220873   3.230   3.158   0.894
 6977TIP3    H120874   3.138   3.143   0.874
 6977TIP3    H220875   3.261   3.076   0.933
 6978TIP3   OH220876  -0.051   6.722   5.729
 6978TIP3    H120877  -0.017   6.802   5.770
 6978TIP3    H220878   0.009   6.653   5.756
 6979TIP3   OH220879   5.421   2.194   6.574
 6979TIP3    H120880   5.347   2.136   6.590
 6979TIP3    H220881   5.385   2.283   6.580
 6980TIP3   OH220882   4.400   5.952   5.883
 6980TIP3    H120883   4.464   6.022   5.870
 6980TIP3    H220884   4.331   5.971   5.819
 6981TIP3   OH220885   3.887   5.713   3.752
 6981TIP3    H120886   3.823   5.718   3.823
 6981TIP3    H220887   3.954   5.778   3.775
 6982TIP3   OH220888   2.750   0.452   1.003
 6982TIP3    H120889   2.824   0.453   1.063
 6982TIP3    H220890   2.674   0.466   1.060
 6983TIP3   OH220891   6.250   4.282   2.011
 6983TIP3    H120892   6.285   4.196   2.038
 6983TIP3    H220893   6.310   4.311   1.943
 6984TIP3   OH220894   2.779   7.795   3.604
 6984TIP3    H120895   2.867   7.815   3.637
 6984TIP3    H220896   2.750   7.721   3.656
 6985TIP3   OH220897   6.110   0.084   2.574
 6985TIP3    H120898   6.177   0.037   2.524
 6985TIP3    H220899   6.135   0.176   2.567
 6986TIP3   OH220900   2.767   6.467   0.182
 6986TIP3    H120901   2.858   6.495   0.173
 6986TIP3    H220902   2.732   6.520   0.254
 6987TIP3   OH220903   1.826   3.469   1.936
 6987TIP3    H120904   1.799   3.505   2.021
 6987TIP3    H220905   1.900   3.412   1.956
 6988TIP3   OH220906   4.911   2.035   4.270
 6988TIP3    H120907   4.931   1.954   4.316
 6988TIP3    H220908   4.828   2.018   4.225
 6989TIP3   OH220909   3.967   5.187   3.058
 6989TIP3    H120910   3.892   5.132   3.084
 6989TIP3    H220911   3.930   5.248   2.994
 6990TIP3   OH220912   4.874   0.575   5.928
 6990TIP3    H120913   4.951   0.541   5.973
 6990TIP3    H220914   4.822   0.616   5.998
 6991TIP3   OH220915   4.925   1.407   1.947
 6991TIP3    H120916   4.917   1.415   1.852
 6991TIP3    H220917   4.883   1.323   1.967
 6992TIP3   OH220918   5.780   5.658   6.019
 6992TIP3    H120919   5.868   5.665   6.055
 6992TIP3    H220920   5.791   5.673   5.925
 6993TIP3   OH220921   3.102   4.246   5.289
 6993TIP3    H120922   3.131   4.198   5.212
 6993TIP3    H220923   3.020   4.203   5.314
 6994TIP3   OH220924   1.965   5.573   2.575
 6994TIP3    H120925   2.000   5.595   2.489
 6994TIP3    H220926   1.880   5.533   2.557
 6995TIP3   OH220927   4.307   7.716   4.318
 6995TIP3    H120928   4.228   7.668   4.294
 6995TIP3    H220929   4.349   7.737   4.234
 6996TIP3   OH220930   7.750   1.523   1.760
 6996TIP3    H120931   7.780   1.525   1.669
 6996TIP3    H220932   7.827   1.498   1.811
 6997TIP3   OH220933   7.044   1.037   4.028
 6997TIP3    H120934   7.120   1.013   4.080
 6997TIP3    H220935   7.014   0.955   3.989
 6998TIP3   OH220936   6.975   0.203   1.927
 6998TIP3    H120937   7.046   0.222   1.989
 6998TIP3    H220938   6.977   0.275   1.865
 6999TIP3   OH220939   0.570   7.554   5.700
 6999TIP3    H120940   0.478   7.529   5.700
 6999TIP3    H220941   0.595   7.555   5.607
 7000TIP3   OH220942   0.393   3.585   2.126
 7000TIP3    H120943   0.354   3.558   2.209
 7000TIP3    H220944   0.383   3.680   2.125
 7001TIP3   OH220945   2.088   0.477   3.396
 7001TIP3    H120946   2.092   0.426   3.477
 7001TIP3    H220947   2.098   0.412   3.327
 7002TIP3   OH220948   3.963   1.568   6.410
 7002TIP3    H120949   3.967   1.606   6.498
 7002TIP3    H220950   3.896   1.619   6.365
 7003TIP3   OH220951   7.820   2.330   0.064
 7003TIP3    H120952   7.737   2.346   0.020
 7003TIP3    H220953   7.863   2.263   0.010
 7004TIP3   OH220954   5.612   1.412   6.494
 7004TIP3    H120955   5.542   1.453   6.443
 7004TIP3    H220956   5.628   1.328   6.450
 7005TIP3   OH220957   8.080   5.911   5.844
 7005TIP3    H120958   8.091   5.823   5.879
 7005TIP3    H220959   8.003   5.945   5.889
 7006TIP3   OH220960   3.498   3.808   4.906
 7006TIP3    H120961   3.544   3.891   4.891
 7006TIP3    H220962   3.547   3.744   4.854
 7007TIP3   OH220963   5.954   4.751   3.343
 7007TIP3    H120964   5.875   4.714   3.304
 7007TIP3    H220965   6.026   4.705   3.301
 7008TIP3   OH220966   5.058   1.935   5.789
 7008TIP3    H120967   5.046   2.030   5.798
 7008TIP3    H220968   5.092   1.907   5.874
 7009TIP3   OH220969   4.829   7.669   6.281
 7009TIP3    H120970   4.896   7.675   6.214
 7009TIP3    H220971   4.749   7.647   6.234
 7010TIP3   OH220972   3.799   1.297   5.294
 7010TIP3    H120973   3.857   1.286   5.369
 7010TIP3    H220974   3.824   1.382   5.258
 7011TIP3   OH220975   3.647   7.797   2.961
 7011TIP3    H120976   3.632   7.871   2.903
 7011TIP3    H220977   3.587   7.729   2.930
 7012TIP3   OH220978   7.584   0.518   1.683
 7012TIP3    H120979   7.652   0.473   1.733
 7012TIP3    H220980   7.613   0.513   1.592
 7013TIP3   OH220981   7.791   5.289   2.565
 7013TIP3    H120982   7.885   5.298   2.552
 7013TIP3    H220983   7.756   5.377   2.549
 7014TIP3   OH220984   3.184   6.802   4.262
 7014TIP3    H120985   3.263   6.818   4.210
 7014TIP3    H220986   3.183   6.873   4.326
 7015TIP3   OH220987   1.166   5.358   0.582
 7015TIP3    H120988   1.245   5.312   0.556
 7015TIP3    H220989   1.138   5.315   0.663
 7016TIP3   OH220990   5.259   7.307   4.792
 7016TIP3    H120991   5.172   7.337   4.817
 7016TIP3    H220992   5.312   7.320   4.871
 7017TIP3   OH220993   7.615   6.354   4.462
 7017TIP3    H120994   7.620   6.335   4.556
 7017TIP3    H220995   7.522   6.355   4.443
 7018TIP3   OH220996   5.029   7.439   4.863
 7018TIP3    H120997   5.045   7.477   4.950
 7018TIP3    H220998   5.018   7.515   4.806
 7019TIP3   OH220999   2.273   5.604   0.724
 7019TIP3    H121000   2.350   5.562   0.763
 7019TIP3    H221001   2.250   5.674   0.785
 7020TIP3   OH221002   0.152   1.115   6.356
 7020TIP3    H121003   0.198   1.194   6.329
 7020TIP3    H221004   0.127   1.072   6.275
 7021TIP3   OH221005   2.357   1.119   6.107
 7021TIP3    H121006   2.297   1.076   6.168
 7021TIP3    H221007   2.354   1.212   6.131
 7022TIP3   OH221008   6.048   5.273   5.656
 7022TIP3    H121009   5.975   5.311   5.608
 7022TIP3    H221010   6.041   5.310   5.744
 7023TIP3   OH221011   4.473   6.847   0.913
 7023TIP3    H121012   4.557   6.862   0.871
 7023TIP3    H221013   4.489   6.776   0.975
 7024TIP3   OH221014   3.759   1.765   6.444
 7024TIP3    H121015   3.779   1.815   6.523
 7024TIP3    H221016   3.767   1.829   6.373
 7025TIP3   OH221017   1.338   7.372   4.070
 7025TIP3    H121018   1.290   7.392   3.989
 7025TIP3    H221019   1.404   7.441   4.076
 7026TIP3   OH221020   6.526   5.513   4.638
 7026TIP3    H121021   6.469   5.534   4.712
 7026TIP3    H221022   6.466   5.492   4.567
 7027TIP3   OH221023   5.556   3.358   0.462
 7027TIP3    H121024   5.573   3.448   0.435
 7027TIP3    H221025   5.467   3.341   0.432
 7028TIP3   OH221026   5.700   4.618   3.047
 7028TIP3    H121027   5.751   4.558   2.992
 7028TIP3    H221028   5.743   4.612   3.133
 7029TIP3   OH221029   0.794   3.886   6.742
 7029TIP3    H121030   0.706   3.866   6.711
 7029TIP3    H221031   0.789   3.878   6.837
 7030TIP3   OH221032   3.520   3.224   3.488
 7030TIP3    H121033   3.486   3.173   3.561
 7030TIP3    H221034   3.490   3.314   3.506
 7031TIP3   OH221035   3.103   5.315   4.642
 7031TIP3    H121036   3.164   5.358   4.582
 7031TIP3    H221037   3.149   5.314   4.726
 7032TIP3   OH221038   4.447   6.263   3.892
 7032TIP3    H121039   4.409   6.336   3.844
 7032TIP3    H221040   4.430   6.187   3.836
 7033TIP3   OH221041   8.055   4.864  -0.068
 7033TIP3    H121042   8.137   4.828  -0.033
 7033TIP3    H221043   8.001   4.879   0.010
 7034TIP3   OH221044   1.992   6.656   6.014
 7034TIP3    H121045   1.930   6.681   6.083
 7034TIP3    H221046   1.962   6.705   5.937
 7035TIP3   OH221047   4.407   0.556   1.424
 7035TIP3    H121048   4.346   0.597   1.363
 7035TIP3    H221049   4.410   0.464   1.398
 7036TIP3   OH221050   4.558   6.622   1.132
 7036TIP3    H121051   4.516   6.693   1.181
 7036TIP3    H221052   4.619   6.583   1.194
 7037TIP3   OH221053   2.905   6.263   2.582
 7037TIP3    H121054   2.957   6.199   2.631
 7037TIP3    H221055   2.937   6.255   2.492
 7038TIP3   OH221056   5.101   0.243   5.025
 7038TIP3    H121057   5.150   0.322   5.048
 7038TIP3    H221058   5.163   0.172   5.038
 7039TIP3   OH221059   3.535   1.971   0.045
 7039TIP3    H121060   3.452   2.001   0.009
 7039TIP3    H221061   3.535   1.877   0.031
 7040TIP3   OH221062   0.467   3.926   2.303
 7040TIP3    H121063   0.453   3.909   2.210
 7040TIP3    H221064   0.434   4.015   2.317
 7041TIP3   OH221065   4.518   3.598   6.523
 7041TIP3    H121066   4.513   3.614   6.617
 7041TIP3    H221067   4.433   3.627   6.489
 7042TIP3   OH221068   8.104   5.209   1.097
 7042TIP3    H121069   8.174   5.272   1.089
 7042TIP3    H221070   8.030   5.259   1.133
 7043TIP3   OH221071   1.355   2.792   5.321
 7043TIP3    H121072   1.280   2.848   5.300
 7043TIP3    H221073   1.418   2.809   5.252
 7044TIP3   OH221074   5.695   3.150   4.901
 7044TIP3    H121075   5.755   3.145   4.976
 7044TIP3    H221076   5.710   3.069   4.853
 7045TIP3   OH221077   2.768   4.891   1.239
 7045TIP3    H121078   2.688   4.858   1.197
 7045TIP3    H221079   2.738   4.961   1.297
 7046TIP3   OH221080   2.806   3.955   4.821
 7046TIP3    H121081   2.714   3.977   4.810
 7046TIP3    H221082   2.814   3.867   4.783
 7047TIP3   OH221083   2.693   6.124   3.509
 7047TIP3    H121084   2.769   6.105   3.453
 7047TIP3    H221085   2.720   6.203   3.558
 7048TIP3   OH221086   4.726   2.886   5.522
 7048TIP3    H121087   4.646   2.933   5.547
 7048TIP3    H221088   4.737   2.820   5.589
 7049TIP3   OH221089   8.047   2.139   2.767
 7049TIP3    H121090   8.106   2.214   2.762
 7049TIP3    H221091   8.038   2.110   2.676
 7050TIP3   OH221092   0.087   2.309   5.025
 7050TIP3    H121093   0.120   2.230   4.982
 7050TIP3    H221094   0.110   2.380   4.965
 7051TIP3   OH221095   6.591   2.225   5.387
 7051TIP3    H121096   6.534   2.212   5.311
 7051TIP3    H221097   6.570   2.314   5.418
 7052TIP3   OH221098   3.188   6.232   3.103
 7052TIP3    H121099   3.140   6.157   3.140
 7052TIP3    H221100   3.180   6.300   3.171
 7053TIP3   OH221101   3.280   7.305   3.719
 7053TIP3    H121102   3.310   7.381   3.768
 7053TIP3    H221103   3.211   7.266   3.774
 7054TIP3   OH221104   6.988   1.514   2.711
 7054TIP3    H121105   6.972   1.419   2.714
 7054TIP3    H221106   6.933   1.549   2.782
 7055TIP3   OH221107   1.457   4.597   0.710
 7055TIP3    H121108   1.491   4.580   0.798
 7055TIP3    H221109   1.534   4.616   0.657
 7056TIP3   OH221110   6.431   1.145   4.936
 7056TIP3    H121111   6.524   1.127   4.948
 7056TIP3    H221112   6.387   1.081   4.992
 7057TIP3   OH221113   2.947   3.557   5.726
 7057TIP3    H121114   2.935   3.584   5.635
 7057TIP3    H221115   3.038   3.580   5.746
 7058TIP3   OH221116   5.394   7.560   3.910
 7058TIP3    H121117   5.340   7.583   3.985
 7058TIP3    H221118   5.332   7.543   3.840
 7059TIP3   OH221119   5.387   1.595   5.604
 7059TIP3    H121120   5.343   1.536   5.542
 7059TIP3    H221121   5.331   1.673   5.608
 7060TIP3   OH221122   1.891   3.487   6.754
 7060TIP3    H121123   1.948   3.519   6.685
 7060TIP3    H221124   1.923   3.399   6.773
 7061TIP3   OH221125   2.410   2.322   5.392
 7061TIP3    H121126   2.431   2.238   5.432
 7061TIP3    H221127   2.405   2.383   5.465
 7062TIP3   OH221128   4.532   1.893   6.264
 7062TIP3    H121129   4.438   1.905   6.251
 7062TIP3    H221130   4.551   1.809   6.224
 7063TIP3   OH221131   3.433   5.730   2.077
 7063TIP3    H121132   3.418   5.822   2.055
 7063TIP3    H221133   3.350   5.687   2.056
 7064TIP3   OH221134   8.195   7.747   4.558
 7064TIP3    H121135   8.226   7.817   4.615
 7064TIP3    H221136   8.245   7.670   4.585
 7065TIP3   OH221137   2.226   6.449   0.207
 7065TIP3    H121138   2.246   6.527   0.258
 7065TIP3    H221139   2.242   6.376   0.268
 7066TIP3   OH221140   3.301   3.902   6.350
 7066TIP3    H121141   3.365   3.869   6.287
 7066TIP3    H221142   3.352   3.917   6.430
 7067TIP3   OH221143   4.676   1.782   5.426
 7067TIP3    H121144   4.620   1.775   5.504
 7067TIP3    H221145   4.642   1.717   5.365
 7068TIP3   OH221146   6.985   1.401   4.404
 7068TIP3    H121147   6.899   1.435   4.429
 7068TIP3    H221148   7.048   1.458   4.449
 7069TIP3   OH221149   8.095   5.674   5.985
 7069TIP3    H121150   8.144   5.595   6.008
 7069TIP3    H221151   8.010   5.662   6.029
 7070TIP3   OH221152   3.922   2.702   3.411
 7070TIP3    H121153   3.932   2.790   3.447
 7070TIP3    H221154   3.864   2.714   3.335
 7071TIP3   OH221155   8.288   1.315   0.811
 7071TIP3    H121156   8.294   1.408   0.833
 7071TIP3    H221157   8.203   1.288   0.846
 7072TIP3   OH221158   6.141   0.430   1.997
 7072TIP3    H121159   6.060   0.477   1.977
 7072TIP3    H221160   6.140   0.355   1.939
 7073TIP3   OH221161   7.861   2.636   4.393
 7073TIP3    H121162   7.946   2.648   4.436
 7073TIP3    H221163   7.816   2.719   4.406
 7074TIP3   OH221164   0.474   1.330   6.509
 7074TIP3    H121165   0.536   1.399   6.533
 7074TIP3    H221166   0.388   1.369   6.522
 7075TIP3   OH221167   2.407   4.370   5.298
 7075TIP3    H121168   2.331   4.425   5.318
 7075TIP3    H221169   2.430   4.392   5.208
 7076TIP3   OH221170   2.146   1.679   5.847
 7076TIP3    H121171   2.075   1.721   5.799
 7076TIP3    H221172   2.120   1.587   5.855
 7077TIP3   OH221173   3.668   7.620   4.990
 7077TIP3    H121174   3.652   7.664   5.073
 7077TIP3    H221175   3.619   7.671   4.925
 7078TIP3   OH221176   7.568   7.651   5.040
 7078TIP3    H121177   7.604   7.656   5.129
 7078TIP3    H221178   7.644   7.647   4.983
 7079TIP3   OH221179   4.953   1.123   2.587
 7079TIP3    H121180   5.032   1.161   2.549
 7079TIP3    H221181   4.881   1.163   2.539
 7080TIP3   OH221182   6.715   1.562   3.187
 7080TIP3    H121183   6.762   1.523   3.261
 7080TIP3    H221184   6.625   1.531   3.196
 7081TIP3   OH221185   3.478   6.248   3.262
 7081TIP3    H121186   3.524   6.258   3.178
 7081TIP3    H221187   3.390   6.282   3.246
 7082TIP3   OH221188   1.193   0.167   3.245
 7082TIP3    H121189   1.231   0.195   3.162
 7082TIP3    H221190   1.267   0.129   3.293
 7083TIP3   OH221191   7.141   0.068   3.146
 7083TIP3    H121192   7.113   0.129   3.077
 7083TIP3    H221193   7.105   0.103   3.226
 7084TIP3   OH221194   1.377   6.926   4.363
 7084TIP3    H121195   1.353   6.933   4.271
 7084TIP3    H221196   1.311   6.867   4.400
 7085TIP3   OH221197   1.144   4.540   4.401
 7085TIP3    H121198   1.055   4.569   4.420
 7085TIP3    H221199   1.150   4.454   4.442
 7086TIP3   OH221200   6.240   1.765   4.155
 7086TIP3    H121201   6.288   1.814   4.222
 7086TIP3    H221202   6.252   1.673   4.180
 7087TIP3   OH221203   3.727   6.189   5.679
 7087TIP3    H121204   3.635   6.168   5.662
 7087TIP3    H221205   3.774   6.109   5.658
 7088TIP3   OH221206   5.404   7.808   5.790
 7088TIP3    H121207   5.383   7.820   5.697
 7088TIP3    H221208   5.374   7.719   5.810
 7089TIP3   OH221209   6.133   7.241   2.959
 7089TIP3    H121210   6.091   7.326   2.946
 7089TIP3    H221211   6.081   7.199   3.028
 7090TIP3   OH221212   7.791   3.095   1.098
 7090TIP3    H121213   7.703   3.126   1.118
 7090TIP3    H221214   7.829   3.072   1.183
 7091TIP3   OH221215   2.440   6.927   1.338
 7091TIP3    H121216   2.523   6.966   1.367
 7091TIP3    H221217   2.453   6.913   1.244
 7092TIP3   OH221218   7.136   0.820   6.361
 7092TIP3    H121219   7.203   0.810   6.293
 7092TIP3    H221220   7.087   0.738   6.359
 7093TIP3   OH221221   7.038   2.317   6.196
 7093TIP3    H121222   7.117   2.351   6.238
 7093TIP3    H221223   7.069   2.274   6.117
 7094TIP3   OH221224   1.030   6.262   6.027
 7094TIP3    H121225   1.058   6.175   6.056
 7094TIP3    H221226   1.019   6.311   6.108
 7095TIP3   OH221227   1.419   1.702   2.931
 7095TIP3    H121228   1.343   1.661   2.891
 7095TIP3    H221229   1.459   1.632   2.984
 7096TIP3   OH221230   5.348   0.603   0.349
 7096TIP3    H121231   5.421   0.607   0.288
 7096TIP3    H221232   5.385   0.563   0.428
 7097TIP3   OH221233   1.842   5.283   5.229
 7097TIP3    H121234   1.751   5.269   5.256
 7097TIP3    H221235   1.853   5.378   5.228
 7098TIP3   OH221236   7.565   1.080   1.031
 7098TIP3    H121237   7.639   1.140   1.021
 7098TIP3    H221238   7.495   1.134   1.069
 7099TIP3   OH221239   6.156   5.532   2.325
 7099TIP3    H121240   6.196   5.468   2.266
 7099TIP3    H221241   6.063   5.532   2.301
 7100TIP3   OH221242   3.422   6.850   4.147
 7100TIP3    H121243   3.450   6.932   4.188
 7100TIP3    H221244   3.430   6.865   4.053
 7101TIP3   OH221245   6.731   0.943   3.054
 7101TIP3    H121246   6.809   0.998   3.039
 7101TIP3    H221247   6.704   0.916   2.966
 7102TIP3   OH221248   0.586   0.173   5.756
 7102TIP3    H121249   0.626   0.202   5.674
 7102TIP3    H221250   0.660   0.147   5.811
 7103TIP3   OH221251   2.459   3.274   2.011
 7103TIP3    H121252   2.407   3.219   1.952
 7103TIP3    H221253   2.540   3.226   2.024
 7104TIP3   OH221254   1.175   7.602   1.137
 7104TIP3    H121255   1.233   7.670   1.102
 7104TIP3    H221256   1.213   7.579   1.221
 7105TIP3   OH221257   2.289   0.917   5.912
 7105TIP3    H121258   2.381   0.891   5.914
 7105TIP3    H221259   2.278   0.971   5.990
 7106TIP3   OH221260   1.315   6.858   4.690
 7106TIP3    H121261   1.392   6.885   4.741
 7106TIP3    H221262   1.350   6.832   4.605
 7107TIP3   OH221263   7.157   1.174   1.764
 7107TIP3    H121264   7.210   1.253   1.752
 7107TIP3    H221265   7.067   1.208   1.770
 7108TIP3   OH221266   1.478   6.025   4.858
 7108TIP3    H121267   1.439   6.068   4.782
 7108TIP3    H221268   1.410   5.963   4.887
 7109TIP3   OH221269   2.383   4.095   3.540
 7109TIP3    H121270   2.433   4.094   3.458
 7109TIP3    H221271   2.292   4.107   3.512
 7110TIP3   OH221272   1.126   1.416   6.601
 7110TIP3    H121273   1.205   1.450   6.558
 7110TIP3    H221274   1.112   1.475   6.675
 7111TIP3   OH221275   2.245   2.961   3.135
 7111TIP3    H121276   2.310   3.025   3.108
 7111TIP3    H221277   2.191   3.007   3.200
 7112TIP3   OH221278   3.563   5.876   6.640
 7112TIP3    H121279   3.541   5.783   6.643
 7112TIP3    H221280   3.495   5.915   6.584
 7113TIP3   OH221281   2.278   2.769   5.456
 7113TIP3    H121282   2.340   2.841   5.443
 7113TIP3    H221283   2.201   2.810   5.496
 7114TIP3   OH221284   0.837   2.910   0.899
 7114TIP3    H121285   0.805   2.858   0.973
 7114TIP3    H221286   0.759   2.930   0.848
 7115TIP3   OH221287   4.688   0.276   4.919
 7115TIP3    H121288   4.699   0.185   4.891
 7115TIP3    H221289   4.680   0.325   4.837
 7116TIP3   OH221290   3.628   7.670   6.092
 7116TIP3    H121291   3.711   7.700   6.055
 7116TIP3    H221292   3.652   7.634   6.178
 7117TIP3   OH221293   0.760   4.875   6.156
 7117TIP3    H121294   0.688   4.837   6.206
 7117TIP3    H221295   0.741   4.852   6.065
 7118TIP3   OH221296   0.624   6.734   1.734
 7118TIP3    H121297   0.654   6.739   1.643
 7118TIP3    H221298   0.629   6.824   1.766
 7119TIP3   OH221299   0.843   3.725   0.839
 7119TIP3    H121300   0.872   3.810   0.808
 7119TIP3    H221301   0.757   3.742   0.879
 7120TIP3   OH221302   5.590   6.257   0.240
 7120TIP3    H121303   5.499   6.245   0.211
 7120TIP3    H221304   5.608   6.349   0.224
 7121TIP3   OH221305   6.086   2.848   2.479
 7121TIP3    H121306   6.046   2.873   2.396
 7121TIP3    H221307   6.169   2.806   2.454
 7122TIP3   OH221308   6.236   4.245   4.189
 7122TIP3    H121309   6.261   4.252   4.281
 7122TIP3    H221310   6.248   4.333   4.154
 7123TIP3   OH221311   5.293   7.217   2.283
 7123TIP3    H121312   5.380   7.186   2.259
 7123TIP3    H221313   5.241   7.206   2.203
 7124TIP3   OH221314   6.432   2.576   6.630
 7124TIP3    H121315   6.355   2.539   6.673
 7124TIP3    H221316   6.399   2.647   6.576
 7125TIP3   OH221317   4.675   6.561   0.885
 7125TIP3    H121318   4.619   6.576   0.961
 7125TIP3    H221319   4.743   6.501   0.916
 7126TIP3   OH221320   6.381   2.550   2.189
 7126TIP3    H121321   6.320   2.587   2.125
 7126TIP3    H221322   6.379   2.612   2.262
 7127TIP3   OH221323   3.888   4.550   3.122
 7127TIP3    H121324   3.959   4.540   3.059
 7127TIP3    H221325   3.917   4.500   3.199
 7128TIP3   OH221326   3.653   1.827   3.671
 7128TIP3    H121327   3.594   1.881   3.723
 7128TIP3    H221328   3.637   1.737   3.701
 7129TIP3   OH221329   5.170   5.448   3.113
 7129TIP3    H121330   5.098   5.485   3.164
 7129TIP3    H221331   5.238   5.516   3.115
 7130TIP3   OH221332   2.960   0.567   1.358
 7130TIP3    H121333   2.987   0.554   1.266
 7130TIP3    H221334   3.041   0.591   1.403
 7131TIP3   OH221335   5.567   0.876   3.936
 7131TIP3    H121336   5.472   0.866   3.942
 7131TIP3    H221337   5.587   0.860   3.844
 7132TIP3   OH221338   3.273   6.590   1.212
 7132TIP3    H121339   3.277   6.594   1.308
 7132TIP3    H221340   3.349   6.539   1.186
 7133TIP3   OH221341   3.720   2.551   2.860
 7133TIP3    H121342   3.748   2.460   2.872
 7133TIP3    H221343   3.625   2.548   2.861
 7134TIP3   OH221344   3.636   3.589   4.771
 7134TIP3    H121345   3.728   3.593   4.745
 7134TIP3    H221346   3.636   3.535   4.851
 7135TIP3   OH221347   1.845   2.086   1.961
 7135TIP3    H121348   1.875   2.143   2.032
 7135TIP3    H221349   1.926   2.057   1.918
 7136TIP3   OH221350   5.253   0.421   6.636
 7136TIP3    H121351   5.275   0.511   6.660
 7136TIP3    H221352   5.161   0.424   6.612
 7137TIP3   OH221353   2.916   4.933   2.337
 7137TIP3    H121354   2.992   4.880   2.362
 7137TIP3    H221355   2.843   4.872   2.334
 7138TIP3   OH221356   7.812   4.930   2.598
 7138TIP3    H121357   7.788   4.888   2.516
 7138TIP3    H221358   7.895   4.975   2.579
 7139TIP3   OH221359   3.088   5.925   0.576
 7139TIP3    H121360   3.098   5.892   0.665
 7139TIP3    H221361   3.169   5.898   0.532
 7140TIP3   OH221362   6.007   0.478   6.350
 7140TIP3    H121363   6.032   0.554   6.403
 7140TIP3    H221364   5.923   0.503   6.311
 7141TIP3   OH221365   1.870   6.592   0.652
 7141TIP3    H121366   1.880   6.540   0.732
 7141TIP3    H221367   1.876   6.683   0.682
 7142TIP3   OH221368   1.908   0.136   4.080
 7142TIP3    H121369   1.867   0.203   4.024
 7142TIP3    H221370   1.990   0.175   4.109
 7143TIP3   OH221371   7.675   6.235   6.440
 7143TIP3    H121372   7.581   6.240   6.422
 7143TIP3    H221373   7.686   6.153   6.487
 7144TIP3   OH221374   1.565   5.362   1.877
 7144TIP3    H121375   1.515   5.436   1.841
 7144TIP3    H221376   1.549   5.290   1.815
 7145TIP3   OH221377   4.148   3.309   4.769
 7145TIP3    H121378   4.212   3.373   4.738
 7145TIP3    H221379   4.111   3.348   4.848
 7146TIP3   OH221380   2.527   7.162   3.518
 7146TIP3    H121381   2.600   7.102   3.505
 7146TIP3    H221382   2.478   7.160   3.436
 7147TIP3   OH221383   2.792   1.988   0.809
 7147TIP3    H121384   2.739   1.928   0.756
 7147TIP3    H221385   2.839   2.042   0.745
 7148TIP3   OH221386   6.187   1.432   4.269
 7148TIP3    H121387   6.275   1.470   4.270
 7148TIP3    H221388   6.197   1.351   4.218
 7149TIP3   OH221389   1.248   6.155   5.560
 7149TIP3    H121390   1.266   6.150   5.653
 7149TIP3    H221391   1.302   6.227   5.528
 7150TIP3   OH221392   0.617   5.211   1.711
 7150TIP3    H121393   0.595   5.142   1.648
 7150TIP3    H221394   0.711   5.224   1.699
 7151TIP3   OH221395   7.390   0.837   3.327
 7151TIP3    H121396   7.453   0.904   3.354
 7151TIP3    H221397   7.340   0.817   3.406
 7152TIP3   OH221398   4.002   1.684   6.669
 7152TIP3    H121399   4.068   1.746   6.701
 7152TIP3    H221400   3.924   1.737   6.653
 7153TIP3   OH221401   2.380   2.706   1.784
 7153TIP3    H121402   2.408   2.780   1.730
 7153TIP3    H221403   2.321   2.656   1.727
 7154TIP3   OH221404   6.864   5.250   4.242
 7154TIP3    H121405   6.838   5.317   4.306
 7154TIP3    H221406   6.865   5.168   4.292
 7155TIP3   OH221407   6.013   0.093   5.571
 7155TIP3    H121408   5.960   0.096   5.491
 7155TIP3    H221409   6.088   0.039   5.546
 7156TIP3   OH221410   6.625   4.110   2.704
 7156TIP3    H121411   6.567   4.088   2.631
 7156TIP3    H221412   6.683   4.034   2.712
 7157TIP3   OH221413   3.432   0.103   1.031
 7157TIP3    H121414   3.456   0.162   1.102
 7157TIP3    H221415   3.347   0.067   1.058
 7158TIP3   OH221416   3.244   0.166   2.859
 7158TIP3    H121417   3.229   0.091   2.916
 7158TIP3    H221418   3.199   0.239   2.903
 7159TIP3   OH221419   6.444   1.795   6.723
 7159TIP3    H121420   6.501   1.763   6.653
 7159TIP3    H221421   6.498   1.792   6.802
 7160TIP3   OH221422   4.703   6.749   4.514
 7160TIP3    H121423   4.662   6.703   4.441
 7160TIP3    H221424   4.630   6.774   4.570
 7161TIP3   OH221425   6.591   0.845   3.566
 7161TIP3    H121426   6.605   0.834   3.472
 7161TIP3    H221427   6.630   0.766   3.605
 7162TIP3   OH221428   6.215   0.239   1.749
 7162TIP3    H121429   6.168   0.158   1.728
 7162TIP3    H221430   6.221   0.284   1.665
 7163TIP3   OH221431   4.356   5.696   1.303
 7163TIP3    H121432   4.355   5.600   1.312
 7163TIP3    H221433   4.349   5.728   1.393
 7164TIP3   OH221434   2.817   1.399   4.627
 7164TIP3    H121435   2.731   1.364   4.654
 7164TIP3    H221436   2.879   1.358   4.687
 7165TIP3   OH221437   4.853   0.027   1.887
 7165TIP3    H121438   4.806   0.110   1.895
 7165TIP3    H221439   4.830  -0.021   1.967
 7166TIP3   OH221440   4.945   7.581   0.671
 7166TIP3    H121441   4.915   7.559   0.583
 7166TIP3    H221442   5.039   7.561   0.669
 7167TIP3   OH221443   6.262   6.355   3.140
 7167TIP3    H121444   6.282   6.262   3.150
 7167TIP3    H221445   6.348   6.397   3.129
 7168TIP3   OH221446   6.625   4.588   1.486
 7168TIP3    H121447   6.582   4.668   1.516
 7168TIP3    H221448   6.719   4.606   1.497
 7169TIP3   OH221449   5.507   3.490   6.528
 7169TIP3    H121450   5.598   3.519   6.514
 7169TIP3    H221451   5.511   3.395   6.523
 7170TIP3   OH221452   4.897   1.756   1.905
 7170TIP3    H121453   4.963   1.737   1.971
 7170TIP3    H221454   4.878   1.850   1.916
 7171TIP3   OH221455   5.623   7.268   1.831
 7171TIP3    H121456   5.671   7.185   1.834
 7171TIP3    H221457   5.685   7.333   1.864
 7172TIP3   OH221458   6.884   2.040   3.339
 7172TIP3    H121459   6.820   2.084   3.396
 7172TIP3    H221460   6.922   1.972   3.394
 7173TIP3   OH221461   4.390   5.134   0.776
 7173TIP3    H121462   4.431   5.213   0.812
 7173TIP3    H221463   4.368   5.082   0.853
 7174TIP3   OH221464   3.750   5.618   0.602
 7174TIP3    H121465   3.829   5.668   0.623
 7174TIP3    H221466   3.782   5.529   0.586
 7175TIP3   OH221467   7.261   7.084   2.442
 7175TIP3    H121468   7.329   7.071   2.507
 7175TIP3    H221469   7.247   6.997   2.404
 7176TIP3   OH221470   1.559   6.091   2.665
 7176TIP3    H121471   1.635   6.149   2.657
 7176TIP3    H221472   1.520   6.114   2.750
 7177TIP3   OH221473   3.295   0.588   5.725
 7177TIP3    H121474   3.249   0.649   5.783
 7177TIP3    H221475   3.341   0.645   5.663
 7178TIP3   OH221476   3.278   2.012   2.026
 7178TIP3    H121477   3.306   2.039   2.113
 7178TIP3    H221478   3.255   1.920   2.036
 7179TIP3   OH221479   1.852   7.257   1.138
 7179TIP3    H121480   1.857   7.337   1.086
 7179TIP3    H221481   1.927   7.205   1.110
 7180TIP3   OH221482   7.472   6.055   2.253
 7180TIP3    H121483   7.556   6.052   2.298
 7180TIP3    H221484   7.415   5.999   2.304
 7181TIP3   OH221485   0.667   5.273   1.401
 7181TIP3    H121486   0.676   5.348   1.343
 7181TIP3    H221487   0.616   5.305   1.475
 7182TIP3   OH221488   2.353   3.921   2.172
 7182TIP3    H121489   2.288   3.906   2.241
 7182TIP3    H221490   2.304   3.913   2.090
 7183TIP3   OH221491   6.610   2.507   1.535
 7183TIP3    H121492   6.549   2.493   1.462
 7183TIP3    H221493   6.675   2.569   1.501
 7184TIP3   OH221494   5.755   3.005   2.403
 7184TIP3    H121495   5.716   2.975   2.321
 7184TIP3    H221496   5.737   3.099   2.404
 7185TIP3   OH221497   1.367   6.980   2.093
 7185TIP3    H121498   1.454   7.015   2.112
 7185TIP3    H221499   1.369   6.890   2.123
 7186TIP3   OH221500   2.999   5.513   1.250
 7186TIP3    H121501   2.947   5.580   1.207
 7186TIP3    H221502   2.987   5.435   1.195
 7187TIP3   OH221503   6.987   0.739   5.153
 7187TIP3    H121504   7.053   0.797   5.114
 7187TIP3    H221505   6.951   0.789   5.226
 7188TIP3   OH221506   1.037   7.384   1.064
 7188TIP3    H121507   1.084   7.461   1.097
 7188TIP3    H221508   1.033   7.397   0.969
 7189TIP3   OH221509   4.818   1.188   3.558
 7189TIP3    H121510   4.830   1.095   3.578
 7189TIP3    H221511   4.823   1.231   3.643
 7190TIP3   OH221512   3.546   2.006   1.196
 7190TIP3    H121513   3.526   2.022   1.104
 7190TIP3    H221514   3.559   2.093   1.234
 7191TIP3   OH221515   4.224   0.816   3.824
 7191TIP3    H121516   4.249   0.897   3.779
 7191TIP3    H221517   4.296   0.756   3.806
 7192TIP3   OH221518   0.996   6.446   1.181
 7192TIP3    H121519   1.075   6.395   1.197
 7192TIP3    H221520   0.939   6.387   1.132
 7193TIP3   OH221521   3.053   2.970   3.038
 7193TIP3    H121522   3.041   2.986   3.132
 7193TIP3    H221523   3.057   2.874   3.030
 7194TIP3   OH221524   7.810   0.858   4.479
 7194TIP3    H121525   7.870   0.911   4.427
 7194TIP3    H221526   7.748   0.822   4.416
 7195TIP3   OH221527   2.201   0.858   5.333
 7195TIP3    H121528   2.142   0.782   5.333
 7195TIP3    H221529   2.247   0.852   5.417
 7196TIP3   OH221530   7.927   2.979   1.656
 7196TIP3    H121531   7.965   3.064   1.675
 7196TIP3    H221532   7.881   2.954   1.736
 7197TIP3   OH221533   7.082   3.909   0.814
 7197TIP3    H121534   7.110   3.928   0.725
 7197TIP3    H221535   7.162   3.916   0.866
 7198TIP3   OH221536   8.022   7.203   1.512
 7198TIP3    H121537   7.980   7.164   1.588
 7198TIP3    H221538   8.051   7.128   1.459
 7199TIP3   OH221539   5.953   5.271   5.317
 7199TIP3    H121540   6.034   5.225   5.338
 7199TIP3    H221541   5.884   5.207   5.334
 7200TIP3   OH221542   1.281   5.578   0.907
 7200TIP3    H121543   1.247   5.495   0.939
 7200TIP3    H221544   1.216   5.608   0.843
 7201TIP3   OH221545   4.639   5.497   3.988
 7201TIP3    H121546   4.546   5.473   3.996
 7201TIP3    H221547   4.655   5.554   4.063
 7202TIP3   OH221548   4.810   4.193   2.444
 7202TIP3    H121549   4.902   4.218   2.449
 7202TIP3    H221550   4.765   4.273   2.415
 7203TIP3   OH221551   7.731   2.474   0.910
 7203TIP3    H121552   7.787   2.528   0.853
 7203TIP3    H221553   7.773   2.388   0.908
 7204TIP3   OH221554   7.390   2.546   4.088
 7204TIP3    H121555   7.295   2.543   4.080
 7204TIP3    H221556   7.407   2.547   4.182
 7205TIP3   OH221557   6.263   4.756   4.423
 7205TIP3    H121558   6.196   4.703   4.466
 7205TIP3    H221559   6.333   4.764   4.488
 7206TIP3   OH221560   6.180   6.309   4.635
 7206TIP3    H121561   6.125   6.255   4.578
 7206TIP3    H221562   6.193   6.256   4.713
 7207TIP3   OH221563   7.376   1.872   0.880
 7207TIP3    H121564   7.362   1.933   0.952
 7207TIP3    H221565   7.435   1.918   0.821
 7208TIP3   OH221566   5.586   3.611   1.354
 7208TIP3    H121567   5.580   3.682   1.418
 7208TIP3    H221568   5.560   3.532   1.403
 7209TIP3   OH221569   7.541   1.732   2.138
 7209TIP3    H121570   7.547   1.793   2.212
 7209TIP3    H221571   7.593   1.773   2.069
 7210TIP3   OH221572   1.448   3.956   3.988
 7210TIP3    H121573   1.420   3.991   3.903
 7210TIP3    H221574   1.417   4.019   4.052
 7211TIP3   OH221575   8.263   2.231   5.472
 7211TIP3    H121576   8.188   2.269   5.427
 7211TIP3    H221577   8.226   2.159   5.523
 7212TIP3   OH221578   4.480   0.525   0.854
 7212TIP3    H121579   4.463   0.501   0.945
 7212TIP3    H221580   4.396   0.517   0.810
 7213TIP3   OH221581   6.322   3.851   6.266
 7213TIP3    H121582   6.301   3.944   6.265
 7213TIP3    H221583   6.407   3.846   6.311
 7214TIP3   OH221584   2.885   6.028   3.853
 7214TIP3    H121585   2.925   5.965   3.912
 7214TIP3    H221586   2.800   6.049   3.893
 7215TIP3   OH221587   1.513   7.056   3.271
 7215TIP3    H121588   1.540   7.110   3.345
 7215TIP3    H221589   1.434   7.011   3.302
 7216TIP3   OH221590   5.569   0.671   0.914
 7216TIP3    H121591   5.555   0.756   0.873
 7216TIP3    H221592   5.535   0.608   0.850
 7217TIP3   OH221593   1.908   6.903   1.527
 7217TIP3    H121594   1.991   6.926   1.485
 7217TIP3    H221595   1.841   6.939   1.470
 7218TIP3   OH221596   0.936   6.977   3.647
 7218TIP3    H121597   1.003   6.918   3.612
 7218TIP3    H221598   0.899   6.930   3.721
 7219TIP3   OH221599   2.044   7.125   0.175
 7219TIP3    H121600   2.034   7.116   0.270
 7219TIP3    H221601   1.975   7.071   0.138
 7220TIP3   OH221602   6.137   2.026   3.158
 7220TIP3    H121603   6.087   2.081   3.219
 7220TIP3    H221604   6.219   2.073   3.145
 7221TIP3   OH221605   7.857   2.312   4.667
 7221TIP3    H121606   7.817   2.398   4.679
 7221TIP3    H221607   7.933   2.329   4.611
 7222TIP3   OH221608   5.028   6.231   6.281
 7222TIP3    H121609   4.935   6.232   6.301
 7222TIP3    H221610   5.040   6.157   6.222
 7223TIP3   OH221611   1.107   1.599   5.816
 7223TIP3    H121612   1.096   1.634   5.727
 7223TIP3    H221613   1.041   1.531   5.823
 7224TIP3   OH221614   4.764   6.755   4.148
 7224TIP3    H121615   4.816   6.709   4.213
 7224TIP3    H221616   4.805   6.841   4.140
 7225TIP3   OH221617   0.279   5.051   0.281
 7225TIP3    H121618   0.303   5.126   0.335
 7225TIP3    H221619   0.353   5.039   0.222
 7226TIP3   OH221620   6.171   1.405   0.426
 7226TIP3    H121621   6.266   1.421   0.427
 7226TIP3    H221622   6.157   1.340   0.495
 7227TIP3   OH221623   3.774   1.630   6.169
 7227TIP3    H121624   3.740   1.543   6.188
 7227TIP3    H221625   3.784   1.632   6.074
 7228TIP3   OH221626   2.612   1.901   2.274
 7228TIP3    H121627   2.534   1.860   2.312
 7228TIP3    H221628   2.681   1.888   2.339
 7229TIP3   OH221629   4.099   3.023   0.906
 7229TIP3    H121630   4.043   3.081   0.856
 7229TIP3    H221631   4.188   3.055   0.891
 7230TIP3   OH221632   7.621   2.096   1.558
 7230TIP3    H121633   7.585   2.010   1.581
 7230TIP3    H221634   7.566   2.126   1.486
 7231TIP3   OH221635   5.015   1.370   6.656
 7231TIP3    H121636   5.110   1.359   6.652
 7231TIP3    H221637   4.997   1.442   6.596
 7232TIP3   OH221638   5.485   0.090   2.147
 7232TIP3    H121639   5.513   0.039   2.070
 7232TIP3    H221640   5.464   0.024   2.213
 7233TIP3   OH221641   2.237   1.230   3.718
 7233TIP3    H121642   2.293   1.304   3.741
 7233TIP3    H221643   2.298   1.165   3.680
 7234TIP3   OH221644   2.584   2.633   1.165
 7234TIP3    H121645   2.510   2.595   1.118
 7234TIP3    H221646   2.577   2.598   1.254
 7235TIP3   OH221647   6.997   4.436   2.585
 7235TIP3    H121648   7.016   4.515   2.636
 7235TIP3    H221649   6.961   4.375   2.649
 7236TIP3   OH221650   3.571   7.570   3.824
 7236TIP3    H121651   3.620   7.651   3.807
 7236TIP3    H221652   3.636   7.510   3.859
 7237TIP3   OH221653   7.850   6.905   1.993
 7237TIP3    H121654   7.809   6.893   1.907
 7237TIP3    H221655   7.849   6.817   2.032
 7238TIP3   OH221656   5.450   3.773   4.550
 7238TIP3    H121657   5.433   3.740   4.639
 7238TIP3    H221658   5.488   3.860   4.564
 7239TIP3   OH221659   6.513   3.745   4.039
 7239TIP3    H121660   6.419   3.755   4.030
 7239TIP3    H221661   6.538   3.685   3.968
 7240TIP3   OH221662   1.785   5.675   3.524
 7240TIP3    H121663   1.814   5.708   3.439
 7240TIP3    H221664   1.771   5.754   3.576
 7241TIP3   OH221665   5.780   7.747   6.421
 7241TIP3    H121666   5.786   7.757   6.516
 7241TIP3    H221667   5.812   7.831   6.386
 7242TIP3   OH221668   7.662   5.662   1.215
 7242TIP3    H121669   7.578   5.708   1.214
 7242TIP3    H221670   7.657   5.605   1.292
 7243TIP3   OH221671   0.310   3.507   0.340
 7243TIP3    H121672   0.373   3.519   0.411
 7243TIP3    H221673   0.225   3.529   0.379
 7244TIP3   OH221674   8.329   7.399   2.423
 7244TIP3    H121675   8.248   7.380   2.377
 7244TIP3    H221676   8.327   7.493   2.440
 7245TIP3   OH221677   4.418   4.085   2.979
 7245TIP3    H121678   4.484   4.028   3.017
 7245TIP3    H221679   4.458   4.171   2.977
 7246TIP3   OH221680   7.816   5.389   2.219
 7246TIP3    H121681   7.746   5.454   2.229
 7246TIP3    H221682   7.873   5.425   2.151
 7247TIP3   OH221683   8.269   6.457   0.991
 7247TIP3    H121684   8.188   6.409   0.979
 7247TIP3    H221685   8.277   6.468   1.086
 7248TIP3   OH221686   7.626   4.748   4.139
 7248TIP3    H121687   7.614   4.831   4.094
 7248TIP3    H221688   7.706   4.711   4.102
 7249TIP3   OH221689   0.967   5.272   1.807
 7249TIP3    H121690   0.908   5.239   1.875
 7249TIP3    H221691   1.053   5.276   1.850
 7250TIP3   OH221692   1.117   6.699   2.270
 7250TIP3    H121693   1.119   6.709   2.175
 7250TIP3    H221694   1.185   6.634   2.289
 7251TIP3   OH221695   2.599   1.926   5.716
 7251TIP3    H121696   2.625   1.896   5.629
 7251TIP3    H221697   2.542   2.001   5.700
 7252TIP3   OH221698   5.390   0.111   1.670
 7252TIP3    H121699   5.350   0.180   1.617
 7252TIP3    H221700   5.327   0.096   1.741
 7253TIP3   OH221701   7.287   0.004   4.150
 7253TIP3    H121702   7.320   0.056   4.076
 7253TIP3    H221703   7.295   0.062   4.226
 7254TIP3   OH221704   6.967   5.749   0.021
 7254TIP3    H121705   6.986   5.826   0.076
 7254TIP3    H221706   7.047   5.696   0.026
 7255TIP3   OH221707   5.517  -0.029   6.540
 7255TIP3    H121708   5.581   0.036   6.569
 7255TIP3    H221709   5.436   0.021   6.532
 7256TIP3   OH221710   0.803   3.295   2.526
 7256TIP3    H121711   0.708   3.307   2.537
 7256TIP3    H221712   0.839   3.307   2.614
 7257TIP3   OH221713   0.673   5.911   5.774
 7257TIP3    H121714   0.750   5.967   5.780
 7257TIP3    H221715   0.707   5.826   5.745
 7258TIP3   OH221716   5.410   4.442   0.354
 7258TIP3    H121717   5.365   4.374   0.404
 7258TIP3    H221718   5.420   4.514   0.416
 7259TIP3   OH221719   2.959   1.003   4.706
 7259TIP3    H121720   2.925   0.921   4.741
 7259TIP3    H221721   2.894   1.031   4.641
 7260TIP3   OH221722   1.813   1.592   4.768
 7260TIP3    H121723   1.875   1.539   4.818
 7260TIP3    H221724   1.868   1.646   4.711
 7261TIP3   OH221725   3.506   5.718   0.494
 7261TIP3    H121726   3.451   5.739   0.570
 7261TIP3    H221727   3.576   5.665   0.530
 7262TIP3   OH221728   1.096   0.975  -0.037
 7262TIP3    H121729   1.062   1.045   0.019
 7262TIP3    H221730   1.080   0.894   0.013
 7263TIP3   OH221731   6.710   6.731   3.818
 7263TIP3    H121732   6.718   6.827   3.821
 7263TIP3    H221733   6.732   6.703   3.907
 7264TIP3   OH221734   6.213   0.951   5.326
 7264TIP3    H121735   6.266   1.005   5.268
 7264TIP3    H221736   6.131   1.000   5.336
 7265TIP3   OH221737   3.871   6.424   2.844
 7265TIP3    H121738   3.885   6.453   2.935
 7265TIP3    H221739   3.815   6.347   2.852
 7266TIP3   OH221740   4.489   0.303   3.053
 7266TIP3    H121741   4.417   0.307   2.989
 7266TIP3    H221742   4.559   0.353   3.011
 7267TIP3   OH221743   3.200   0.225   4.661
 7267TIP3    H121744   3.122   0.174   4.644
 7267TIP3    H221745   3.252   0.171   4.721
 7268TIP3   OH221746   1.563   1.274   3.870
 7268TIP3    H121747   1.625   1.288   3.798
 7268TIP3    H221748   1.618   1.240   3.942
 7269TIP3   OH221749   8.255   4.873   3.817
 7269TIP3    H121750   8.343   4.836   3.807
 7269TIP3    H221751   8.207   4.807   3.866
 7270TIP3   OH221752   1.740   5.912   1.173
 7270TIP3    H121753   1.833   5.937   1.169
 7270TIP3    H221754   1.740   5.830   1.223
 7271TIP3   OH221755   3.722   0.182   1.863
 7271TIP3    H121756   3.670   0.210   1.938
 7271TIP3    H221757   3.682   0.099   1.837
 7272TIP3   OH221758   7.851   2.517   5.007
 7272TIP3    H121759   7.946   2.508   5.012
 7272TIP3    H221760   7.818   2.455   5.072
 7273TIP3   OH221761   1.243   3.644   0.105
 7273TIP3    H121762   1.172   3.689   0.151
 7273TIP3    H221763   1.262   3.567   0.160
 7274TIP3   OH221764   1.899   2.682   2.987
 7274TIP3    H121765   1.899   2.680   2.892
 7274TIP3    H221766   1.992   2.684   3.011
 7275TIP3   OH221767   6.087   6.409   0.639
 7275TIP3    H121768   6.098   6.457   0.557
 7275TIP3    H221769   6.145   6.453   0.701
 7276TIP3   OH221770   6.533   7.192   1.094
 7276TIP3    H121771   6.541   7.237   1.179
 7276TIP3    H221772   6.440   7.168   1.089
 7277TIP3   OH221773   4.483   0.630   4.521
 7277TIP3    H121774   4.395   0.656   4.546
 7277TIP3    H221775   4.494   0.542   4.557
 7278TIP3   OH221776   4.016   3.434   0.444
 7278TIP3    H121777   4.058   3.350   0.425
 7278TIP3    H221778   3.958   3.449   0.370
 7279TIP3   OH221779   0.753   3.350   1.476
 7279TIP3    H121780   0.719   3.437   1.454
 7279TIP3    H221781   0.685   3.290   1.447
 7280TIP3   OH221782   2.696   1.940   4.373
 7280TIP3    H121783   2.714   1.859   4.421
 7280TIP3    H221784   2.750   2.006   4.416
 7281TIP3   OH221785   0.519   3.555   5.039
 7281TIP3    H121786   0.600   3.507   5.056
 7281TIP3    H221787   0.521   3.573   4.945
 7282TIP3   OH221788   4.498   1.035   4.294
 7282TIP3    H121789   4.411   0.999   4.276
 7282TIP3    H221790   4.533   0.981   4.365
 7283TIP3   OH221791   2.103   5.772   6.280
 7283TIP3    H121792   2.020   5.726   6.285
 7283TIP3    H221793   2.110   5.801   6.189
 7284TIP3   OH221794   3.158   4.998   6.669
 7284TIP3    H121795   3.094   4.946   6.619
 7284TIP3    H221796   3.122   5.086   6.670
 7285TIP3   OH221797   2.527   7.485   0.229
 7285TIP3    H121798   2.614   7.525   0.237
 7285TIP3    H221799   2.534   7.402   0.276
 7286TIP3   OH221800   5.194   4.498   0.755
 7286TIP3    H121801   5.159   4.526   0.839
 7286TIP3    H221802   5.188   4.403   0.757
 7287TIP3   OH221803   1.421   5.408   3.972
 7287TIP3    H121804   1.384   5.406   4.060
 7287TIP3    H221805   1.472   5.489   3.968
 7288TIP3   OH221806   8.313   1.284   2.695
 7288TIP3    H121807   8.289   1.358   2.751
 7288TIP3    H221808   8.369   1.229   2.749
 7289TIP3   OH221809   4.714   1.628   1.313
 7289TIP3    H121810   4.657   1.563   1.273
 7289TIP3    H221811   4.718   1.602   1.405
 7290TIP3   OH221812   4.881   2.006   3.853
 7290TIP3    H121813   4.920   2.041   3.773
 7290TIP3    H221814   4.786   2.015   3.840
 7291TIP3   OH221815   7.175   4.982   4.746
 7291TIP3    H121816   7.139   4.896   4.769
 7291TIP3    H221817   7.207   5.017   4.829
 7292TIP3   OH221818   1.489   4.763   4.188
 7292TIP3    H121819   1.479   4.747   4.282
 7292TIP3    H221820   1.401   4.757   4.152
 7293TIP3   OH221821   6.373   1.388   3.376
 7293TIP3    H121822   6.414   1.385   3.290
 7293TIP3    H221823   6.318   1.310   3.379
 7294TIP3   OH221824   4.699   5.154   0.782
 7294TIP3    H121825   4.684   5.230   0.839
 7294TIP3    H221826   4.686   5.078   0.840
 7295TIP3   OH221827   4.646   5.653   4.697
 7295TIP3    H121828   4.574   5.712   4.716
 7295TIP3    H221829   4.606   5.567   4.685
 7296TIP3   OH221830   0.766   0.222   3.907
 7296TIP3    H121831   0.766   0.280   3.830
 7296TIP3    H221832   0.766   0.134   3.870
 7297TIP3   OH221833   3.549   1.990   5.019
 7297TIP3    H121834   3.567   2.007   4.926
 7297TIP3    H221835   3.458   1.961   5.021
 7298TIP3   OH221836   5.825   0.924   4.785
 7298TIP3    H121837   5.849   0.961   4.700
 7298TIP3    H221838   5.786   0.839   4.763
 7299TIP3   OH221839   5.588   6.640   0.213
 7299TIP3    H121840   5.578   6.735   0.214
 7299TIP3    H221841   5.537   6.610   0.288
 7300TIP3   OH221842   0.585   0.168   4.801
 7300TIP3    H121843   0.643   0.100   4.835
 7300TIP3    H221844   0.546   0.129   4.723
 7301TIP3   OH221845   1.538   2.454   4.967
 7301TIP3    H121846   1.620   2.430   5.009
 7301TIP3    H221847   1.470   2.409   5.018
 7302TIP3   OH221848   0.417   6.091   1.242
 7302TIP3    H121849   0.505   6.110   1.208
 7302TIP3    H221850   0.423   6.111   1.335
 7303TIP3   OH221851   7.254   6.782   2.088
 7303TIP3    H121852   7.209   6.865   2.101
 7303TIP3    H221853   7.342   6.807   2.059
 7304TIP3   OH221854   5.652   5.811   3.693
 7304TIP3    H121855   5.702   5.734   3.722
 7304TIP3    H221856   5.563   5.794   3.723
 7305TIP3   OH221857   2.082   0.981   3.887
 7305TIP3    H121858   2.167   0.961   3.926
 7305TIP3    H221859   2.103   1.032   3.809
 7306TIP3   OH221860   6.214   4.942   5.869
 7306TIP3    H121861   6.170   4.906   5.793
 7306TIP3    H221862   6.293   4.983   5.834
 7307TIP3   OH221863   4.397   7.046   0.227
 7307TIP3    H121864   4.335   6.991   0.273
 7307TIP3    H221865   4.345   7.091   0.160
 7308TIP3   OH221866   4.154   1.776   0.401
 7308TIP3    H121867   4.235   1.751   0.445
 7308TIP3    H221868   4.089   1.712   0.432
 7309TIP3   OH221869   4.863   1.416   1.010
 7309TIP3    H121870   4.858   1.322   1.025
 7309TIP3    H221871   4.899   1.424   0.921
 7310TIP3   OH221872   5.056   0.128   3.385
 7310TIP3    H121873   5.071   0.215   3.423
 7310TIP3    H221874   5.070   0.068   3.458
 7311TIP3   OH221875   0.848   7.552   5.715
 7311TIP3    H121876   0.858   7.646   5.730
 7311TIP3    H221877   0.754   7.538   5.710
 7312TIP3   OH221878   0.357   0.985   6.256
 7312TIP3    H121879   0.338   0.950   6.343
 7312TIP3    H221880   0.417   1.058   6.271
 7313TIP3   OH221881   2.465   7.714   4.159
 7313TIP3    H121882   2.473   7.719   4.063
 7313TIP3    H221883   2.424   7.629   4.175
 7314TIP3   OH221884   8.228   6.289   2.050
 7314TIP3    H121885   8.208   6.377   2.020
 7314TIP3    H221886   8.233   6.296   2.146
 7315TIP3   OH221887   3.238   4.700   4.366
 7315TIP3    H121888   3.215   4.668   4.279
 7315TIP3    H221889   3.312   4.759   4.350
 7316TIP3   OH221890   6.838   7.277   0.804
 7316TIP3    H121891   6.750   7.255   0.774
 7316TIP3    H221892   6.845   7.237   0.890
 7317TIP3   OH221893   2.966   6.729   5.297
 7317TIP3    H121894   2.937   6.716   5.387
 7317TIP3    H221895   2.921   6.660   5.248
 7318TIP3   OH221896   4.929   2.666   6.011
 7318TIP3    H121897   4.922   2.662   6.107
 7318TIP3    H221898   4.859   2.608   5.980
 7319TIP3   OH221899   0.680   6.679   5.925
 7319TIP3    H121900   0.703   6.720   5.841
 7319TIP3    H221901   0.750   6.706   5.985
 7320TIP3   OH221902   7.423   4.601   0.976
 7320TIP3    H121903   7.470   4.533   1.025
 7320TIP3    H221904   7.374   4.552   0.910
 7321TIP3   OH221905   7.643   1.858   2.410
 7321TIP3    H121906   7.661   1.782   2.465
 7321TIP3    H221907   7.580   1.911   2.460
 7322TIP3   OH221908   2.031   3.849   2.640
 7322TIP3    H121909   1.976   3.907   2.586
 7322TIP3    H221910   1.971   3.783   2.673
 7323TIP3   OH221911   3.045   2.609   4.266
 7323TIP3    H121912   2.989   2.542   4.228
 7323TIP3    H221913   3.116   2.561   4.308
 7324TIP3   OH221914   6.983   1.749   1.768
 7324TIP3    H121915   7.014   1.840   1.777
 7324TIP3    H221916   6.999   1.727   1.676
 7325TIP3   OH221917   1.191   2.341   1.626
 7325TIP3    H121918   1.238   2.354   1.708
 7325TIP3    H221919   1.237   2.396   1.563
 7326TIP3   OH221920   3.049   4.215   0.545
 7326TIP3    H121921   3.021   4.306   0.553
 7326TIP3    H221922   3.016   4.187   0.459
 7327TIP3   OH221923   2.080   5.779   4.325
 7327TIP3    H121924   2.168   5.745   4.339
 7327TIP3    H221925   2.062   5.761   4.232
 7328TIP3   OH221926   3.315   2.408   3.763
 7328TIP3    H121927   3.258   2.480   3.789
 7328TIP3    H221928   3.353   2.435   3.680
 7329TIP3   OH221929   0.328   2.731   3.068
 7329TIP3    H121930   0.370   2.730   3.155
 7329TIP3    H221931   0.398   2.756   3.008
 7330TIP3   OH221932   2.891   1.164   3.244
 7330TIP3    H121933   2.955   1.118   3.299
 7330TIP3    H221934   2.944   1.222   3.189
 7331TIP3   OH221935   2.484   1.907   3.541
 7331TIP3    H121936   2.548   1.969   3.505
 7331TIP3    H221937   2.402   1.956   3.544
 7332TIP3   OH221938   3.810   2.197   1.894
 7332TIP3    H121939   3.823   2.292   1.901
 7332TIP3    H221940   3.839   2.162   1.978
 7333TIP3   OH221941   4.570   2.069   4.735
 7333TIP3    H121942   4.648   2.025   4.701
 7333TIP3    H221943   4.602   2.154   4.766
 7334TIP3   OH221944   5.856   2.415   1.747
 7334TIP3    H121945   5.873   2.354   1.675
 7334TIP3    H221946   5.942   2.432   1.785
 7335TIP3   OH221947   2.685   4.657   4.267
 7335TIP3    H121948   2.743   4.593   4.224
 7335TIP3    H221949   2.661   4.614   4.350
 7336TIP3   OH221950   5.880   5.512   1.323
 7336TIP3    H121951   5.973   5.513   1.348
 7336TIP3    H221952   5.850   5.602   1.341
 7337TIP3   OH221953   7.429   5.401   1.278
 7337TIP3    H121954   7.415   5.486   1.237
 7337TIP3    H221955   7.343   5.358   1.276
 7338TIP3   OH221956   2.961   6.966   1.839
 7338TIP3    H121957   3.038   6.914   1.816
 7338TIP3    H221958   2.994   7.055   1.851
 7339TIP3   OH221959   6.041   2.727   2.737
 7339TIP3    H121960   5.981   2.682   2.679
 7339TIP3    H221961   6.034   2.819   2.714
 7340TIP3   OH221962   4.019   0.454   6.505
 7340TIP3    H121963   4.030   0.421   6.416
 7340TIP3    H221964   4.051   0.383   6.561
 7341TIP3   OH221965   1.961   1.773   4.631
 7341TIP3    H121966   2.049   1.811   4.631
 7341TIP3    H221967   1.903   1.848   4.646
 7342TIP3   OH221968   1.724   6.501   1.106
 7342TIP3    H121969   1.783   6.473   1.176
 7342TIP3    H221970   1.681   6.579   1.141
 7343TIP3   OH221971   6.320   3.555   1.141
 7343TIP3    H121972   6.299   3.508   1.222
 7343TIP3    H221973   6.380   3.624   1.169
 7344TIP3   OH221974   7.383   3.744   0.116
 7344TIP3    H121975   7.442   3.806   0.159
 7344TIP3    H221976   7.418   3.658   0.141
 7345TIP3   OH221977   7.010   6.886   1.352
 7345TIP3    H121978   6.957   6.935   1.416
 7345TIP3    H221979   6.946   6.856   1.287
 7346TIP3   OH221980   7.685   0.239   0.274
 7346TIP3    H121981   7.708   0.300   0.344
 7346TIP3    H221982   7.626   0.289   0.217
 7347TIP3   OH221983   2.738   0.577   1.859
 7347TIP3    H121984   2.726   0.608   1.949
 7347TIP3    H221985   2.723   0.655   1.805
 7348TIP3   OH221986   7.870   4.576   1.451
 7348TIP3    H121987   7.952   4.559   1.406
 7348TIP3    H221988   7.848   4.666   1.428
 7349TIP3   OH221989   0.264   1.601   3.273
 7349TIP3    H121990   0.331   1.669   3.271
 7349TIP3    H221991   0.215   1.617   3.354
 7350TIP3   OH221992   6.349   6.165   5.987
 7350TIP3    H121993   6.303   6.232   5.937
 7350TIP3    H221994   6.436   6.202   6.001
 7351TIP3   OH221995   4.437   6.226   6.326
 7351TIP3    H121996   4.405   6.224   6.417
 7351TIP3    H221997   4.445   6.134   6.302
 7352TIP3   OH221998   5.516   2.701   3.424
 7352TIP3    H121999   5.449   2.668   3.484
 7352TIP3    H222000   5.582   2.741   3.481
 7353TIP3   OH222001   7.116   4.722   4.837
 7353TIP3    H122002   7.190   4.709   4.896
 7353TIP3    H222003   7.046   4.668   4.874
 7354TIP3   OH222004   2.162   5.484   5.297
 7354TIP3    H122005   2.166   5.572   5.259
 7354TIP3    H222006   2.140   5.428   5.223
 7355TIP3   OH222007   4.443   2.493   6.176
 7355TIP3    H122008   4.462   2.517   6.267
 7355TIP3    H222009   4.513   2.432   6.153
 7356TIP3   OH222010   2.620   0.650   4.824
 7356TIP3    H122011   2.614   0.639   4.729
 7356TIP3    H222012   2.679   0.580   4.852
 7357TIP3   OH222013   4.446   5.385   4.258
 7357TIP3    H122014   4.503   5.461   4.242
 7357TIP3    H222015   4.411   5.363   4.171
 7358TIP3   OH222016   6.070   0.358   0.480
 7358TIP3    H122017   5.993   0.407   0.452
 7358TIP3    H222018   6.034   0.283   0.529
 7359TIP3   OH222019   5.950   5.929   4.222
 7359TIP3    H122020   5.886   5.982   4.174
 7359TIP3    H222021   5.923   5.839   4.205
 7360TIP3   OH222022   2.761   0.682   5.789
 7360TIP3    H122023   2.847   0.662   5.825
 7360TIP3    H222024   2.780   0.739   5.714
 7361TIP3   OH222025   6.666   4.138   6.560
 7361TIP3    H122026   6.589   4.187   6.531
 7361TIP3    H222027   6.665   4.058   6.508
 7362TIP3   OH222028   4.612   0.446   6.216
 7362TIP3    H122029   4.692   0.420   6.260
 7362TIP3    H222030   4.585   0.369   6.167
 7363TIP3   OH222031   0.236   5.325   5.676
 7363TIP3    H122032   0.307   5.263   5.697
 7363TIP3    H222033   0.274   5.411   5.694
 7364TIP3   OH222034   3.199   4.586   3.716
 7364TIP3    H122035   3.199   4.546   3.629
 7364TIP3    H222036   3.259   4.533   3.767
 7365TIP3   OH222037   7.296   0.793   6.611
 7365TIP3    H122038   7.220   0.815   6.556
 7365TIP3    H222039   7.339   0.721   6.564
 7366TIP3   OH222040   4.754   3.762   1.845
 7366TIP3    H122041   4.834   3.814   1.839
 7366TIP3    H222042   4.731   3.742   1.754
 7367TIP3   OH222043   4.217   5.456   0.497
 7367TIP3    H122044   4.247   5.372   0.532
 7367TIP3    H222045   4.288   5.484   0.440
 7368TIP3   OH222046   2.072   3.713   4.549
 7368TIP3    H122047   1.996   3.751   4.504
 7368TIP3    H222048   2.141   3.779   4.539
 7369TIP3   OH222049   0.343   1.177   4.388
 7369TIP3    H122050   0.266   1.137   4.347
 7369TIP3    H222051   0.389   1.103   4.428
 7370TIP3   OH222052   2.203   7.758   5.057
 7370TIP3    H122053   2.128   7.722   5.104
 7370TIP3    H222054   2.210   7.848   5.089
 7371TIP3   OH222055   1.272   7.645   4.674
 7371TIP3    H122056   1.338   7.694   4.722
 7371TIP3    H222057   1.320   7.576   4.629
 7372TIP3   OH222058   4.819   3.809   2.322
 7372TIP3    H122059   4.804   3.859   2.403
 7372TIP3    H222060   4.754   3.843   2.261
 7373TIP3   OH222061   1.603   7.712   2.319
 7373TIP3    H122062   1.516   7.751   2.322
 7373TIP3    H222063   1.630   7.718   2.228
 7374TIP3   OH222064   0.244   5.007   1.015
 7374TIP3    H122065   0.302   5.038   1.085
 7374TIP3    H222066   0.156   5.017   1.051
 7375TIP3   OH222067   8.160   0.590   0.915
 7375TIP3    H122068   8.070   0.561   0.931
 7375TIP3    H222069   8.151   0.671   0.865
 7376TIP3   OH222070   0.205   0.046   5.489
 7376TIP3    H122071   0.198   0.116   5.553
 7376TIP3    H222072   0.139   0.067   5.422
 7377TIP3   OH222073   3.794   3.182   1.370
 7377TIP3    H122074   3.759   3.170   1.282
 7377TIP3    H222075   3.873   3.128   1.372
 7378TIP3   OH222076   7.279   6.524   5.815
 7378TIP3    H122077   7.210   6.545   5.878
 7378TIP3    H222078   7.290   6.429   5.823
 7379TIP3   OH222079   7.019   2.088   0.810
 7379TIP3    H122080   7.082   2.139   0.758
 7379TIP3    H222081   6.968   2.154   0.857
 7380TIP3   OH222082   6.191   0.690   5.226
 7380TIP3    H122083   6.270   0.640   5.244
 7380TIP3    H222084   6.203   0.772   5.274
 7381TIP3   OH222085   6.431   0.852   5.939
 7381TIP3    H122086   6.453   0.878   6.029
 7381TIP3    H222087   6.480   0.913   5.884
 7382TIP3   OH222088   1.601   4.411   2.146
 7382TIP3    H122089   1.508   4.428   2.130
 7382TIP3    H222090   1.610   4.409   2.241
 7383TIP3   OH222091   3.820   6.355   5.325
 7383TIP3    H122092   3.725   6.362   5.331
 7383TIP3    H222093   3.852   6.376   5.412
 7384TIP3   OH222094   4.639   6.546   1.747
 7384TIP3    H122095   4.673   6.595   1.821
 7384TIP3    H222096   4.696   6.469   1.741
 7385TIP3   OH222097   4.830   6.912   3.288
 7385TIP3    H122098   4.766   6.856   3.332
 7385TIP3    H222099   4.879   6.954   3.359
 7386TIP3   OH222100   1.220   4.684   0.805
 7386TIP3    H122101   1.290   4.635   0.761
 7386TIP3    H222102   1.151   4.619   0.820
 7387TIP3   OH222103   3.647   2.915   0.618
 7387TIP3    H122104   3.613   2.955   0.698
 7387TIP3    H222105   3.637   2.821   0.633
 7388TIP3   OH222106   0.737   7.484   0.087
 7388TIP3    H122107   0.738   7.558   0.026
 7388TIP3    H222108   0.753   7.407   0.032
 7389TIP3   OH222109   3.164   7.607   4.790
 7389TIP3    H122110   3.161   7.687   4.843
 7389TIP3    H222111   3.143   7.636   4.702
 7390TIP3   OH222112   4.998   0.966   0.186
 7390TIP3    H122113   5.048   0.884   0.189
 7390TIP3    H222114   5.004   0.995   0.095
 7391TIP3   OH222115   3.174   4.323   5.856
 7391TIP3    H122116   3.248   4.276   5.817
 7391TIP3    H222117   3.210   4.407   5.882
 7392TIP3   OH222118   5.057   4.217   3.127
 7392TIP3    H122119   4.989   4.231   3.194
 7392TIP3    H222120   5.043   4.128   3.097
 7393TIP3   OH222121   6.891   2.503   6.021
 7393TIP3    H122122   6.929   2.560   6.088
 7393TIP3    H222123   6.950   2.428   6.016
 7394TIP3   OH222124   7.681   1.610   6.013
 7394TIP3    H122125   7.721   1.596   6.099
 7394TIP3    H222126   7.651   1.524   5.986
 7395TIP3   OH222127   7.464   3.838   1.255
 7395TIP3    H122128   7.497   3.810   1.341
 7395TIP3    H222129   7.392   3.897   1.275
 7396TIP3   OH222130   4.775   2.605   6.753
 7396TIP3    H122131   4.742   2.690   6.724
 7396TIP3    H222132   4.863   2.600   6.717
 7397TIP3   OH222133   5.811   2.449   2.572
 7397TIP3    H122134   5.885   2.399   2.605
 7397TIP3    H222135   5.842   2.487   2.490
 7398TIP3   OH222136   3.010   5.279   4.254
 7398TIP3    H122137   2.994   5.373   4.268
 7398TIP3    H222138   2.959   5.258   4.176
 7399TIP3   OH222139   5.594   5.916   6.475
 7399TIP3    H122140   5.630   5.856   6.409
 7399TIP3    H222141   5.538   5.860   6.530
 7400TIP3   OH222142   2.747   7.668   4.913
 7400TIP3    H122143   2.670   7.683   4.968
 7400TIP3    H222144   2.821   7.696   4.967
 7401TIP3   OH222145   5.103   4.086   6.426
 7401TIP3    H122146   5.166   4.067   6.496
 7401TIP3    H222147   5.021   4.104   6.472
 7402TIP3   OH222148   5.781   5.734   5.741
 7402TIP3    H122149   5.692   5.765   5.725
 7402TIP3    H222150   5.828   5.754   5.659
 7403TIP3   OH222151   6.665   0.419   4.167
 7403TIP3    H122152   6.618   0.382   4.241
 7403TIP3    H222153   6.596   0.447   4.106
 7404TIP3   OH222154   2.761   3.064   6.516
 7404TIP3    H122155   2.730   3.155   6.514
 7404TIP3    H222156   2.722   3.028   6.596
 7405TIP3   OH222157   3.599   6.645   5.852
 7405TIP3    H122158   3.597   6.727   5.902
 7405TIP3    H222159   3.671   6.595   5.891
 7406TIP3   OH222160   1.147   2.657   3.464
 7406TIP3    H122161   1.210   2.729   3.467
 7406TIP3    H222162   1.180   2.600   3.395
 7407TIP3   OH222163   5.402   0.448   1.037
 7407TIP3    H122164   5.434   0.398   1.112
 7407TIP3    H222165   5.365   0.527   1.075
 7408TIP3   OH222166   4.273   1.145   0.007
 7408TIP3    H122167   4.282   1.051   0.023
 7408TIP3    H222168   4.328   1.186   0.073
 7409TIP3   OH222169   4.806   4.743   0.372
 7409TIP3    H122170   4.829   4.831   0.402
 7409TIP3    H222171   4.837   4.685   0.441
 7410TIP3   OH222172   3.316   0.058   5.711
 7410TIP3    H122173   3.246  -0.007   5.701
 7410TIP3    H222174   3.340   0.053   5.803
 7411TIP3   OH222175   7.918   3.135   0.473
 7411TIP3    H122176   7.934   3.226   0.498
 7411TIP3    H222177   7.974   3.121   0.396
 7412TIP3   OH222178   5.067   6.836   2.184
 7412TIP3    H122179   4.973   6.816   2.190
 7412TIP3    H222180   5.101   6.774   2.121
 7413TIP3   OH222181   0.719   2.199   0.345
 7413TIP3    H122182   0.710   2.131   0.278
 7413TIP3    H222183   0.751   2.152   0.422
 7414TIP3   OH222184   7.156   6.005   3.622
 7414TIP3    H122185   7.213   5.961   3.558
 7414TIP3    H222186   7.190   5.978   3.707
 7415TIP3   OH222187   0.625   6.092   2.170
 7415TIP3    H122188   0.640   6.019   2.110
 7415TIP3    H222189   0.583   6.159   2.117
 7416TIP3   OH222190   3.990   5.082   5.280
 7416TIP3    H122191   3.919   5.065   5.218
 7416TIP3    H222192   3.970   5.027   5.356
 7417TIP3   OH222193   2.138   0.953   6.637
 7417TIP3    H122194   2.053   0.919   6.667
 7417TIP3    H222195   2.191   0.958   6.716
 7418TIP3   OH222196   0.520   3.809   6.669
 7418TIP3    H122197   0.482   3.883   6.717
 7418TIP3    H222198   0.448   3.777   6.614
 7419TIP3   OH222199   3.769   5.747   6.329
 7419TIP3    H122200   3.861   5.763   6.305
 7419TIP3    H222201   3.758   5.653   6.318
 7420TIP3   OH222202   0.860   1.231   5.101
 7420TIP3    H122203   0.911   1.311   5.092
 7420TIP3    H222204   0.795   1.236   5.030
 7421TIP3   OH222205   0.060   4.810   4.788
 7421TIP3    H122206  -0.034   4.804   4.772
 7421TIP3    H222207   0.101   4.765   4.714
 7422TIP3   OH222208   5.847   2.976   1.208
 7422TIP3    H122209   5.768   3.024   1.232
 7422TIP3    H222210   5.887   3.028   1.139
 7423TIP3   OH222211   7.274   0.256   2.321
 7423TIP3    H122212   7.240   0.168   2.304
 7423TIP3    H222213   7.266   0.267   2.415
 7424TIP3   OH222214   5.991   1.334   6.155
 7424TIP3    H122215   5.933   1.266   6.119
 7424TIP3    H222216   5.963   1.344   6.246
 7425TIP3   OH222217   5.771   0.496   2.719
 7425TIP3    H122218   5.763   0.568   2.781
 7425TIP3    H222219   5.865   0.487   2.705
 7426TIP3   OH222220   6.962   7.111   6.164
 7426TIP3    H122221   7.032   7.045   6.163
 7426TIP3    H222222   6.882   7.059   6.165
 7427TIP3   OH222223   3.287   2.914   0.988
 7427TIP3    H122224   3.364   2.860   0.968
 7427TIP3    H222225   3.258   2.882   1.073
 7428TIP3   OH222226   6.676   5.894   4.551
 7428TIP3    H122227   6.697   5.816   4.603
 7428TIP3    H222228   6.619   5.861   4.482
 7429TIP3   OH222229   4.167   6.420   5.440
 7429TIP3    H122230   4.098   6.479   5.470
 7429TIP3    H222231   4.179   6.359   5.513
 7430TIP3   OH222232   7.745   5.231   3.970
 7430TIP3    H122233   7.809   5.191   4.029
 7430TIP3    H222234   7.774   5.204   3.883
 7431TIP3   OH222235   5.149   1.037   2.200
 7431TIP3    H122236   5.056   1.033   2.219
 7431TIP3    H222237   5.188   1.072   2.280
 7432TIP3   OH222238   6.483   0.125   2.714
 7432TIP3    H122239   6.577   0.139   2.704
 7432TIP3    H222240   6.463   0.052   2.656
 7433TIP3   OH222241   6.043   5.905   4.512
 7433TIP3    H122242   6.110   5.953   4.463
 7433TIP3    H222243   5.961   5.927   4.469
 7434TIP3   OH222244   3.489   0.566   2.684
 7434TIP3    H122245   3.583   0.551   2.684
 7434TIP3    H222246   3.453   0.494   2.736
 7435TIP3   OH222247   6.071   2.495   4.753
 7435TIP3    H122248   5.979   2.470   4.741
 7435TIP3    H222249   6.120   2.429   4.704
 7436TIP3   OH222250   6.341   1.020   4.376
 7436TIP3    H122251   6.263   1.065   4.408
 7436TIP3    H222252   6.384   1.084   4.318
 7437TIP3   OH222253   5.662   0.223   3.893
 7437TIP3    H122254   5.610   0.153   3.852
 7437TIP3    H222255   5.753   0.200   3.875
 7438TIP3   OH222256   6.701   5.936   3.913
 7438TIP3    H122257   6.750   5.970   3.838
 7438TIP3    H222258   6.736   5.983   3.988
 7439TIP3   OH222259   4.894   6.012   4.719
 7439TIP3    H122260   4.914   5.920   4.703
 7439TIP3    H222261   4.829   6.011   4.790
 7440TIP3   OH222262   7.913   2.123   3.635
 7440TIP3    H122263   7.957   2.062   3.576
 7440TIP3    H222264   7.820   2.101   3.628
 7441TIP3   OH222265   1.098   2.390   1.253
 7441TIP3    H122266   1.077   2.450   1.325
 7441TIP3    H222267   1.102   2.304   1.295
 7442TIP3   OH222268   6.560   0.379   5.178
 7442TIP3    H122269   6.655   0.385   5.181
 7442TIP3    H222270   6.540   0.371   5.084
 7443TIP3   OH222271   5.675   6.103   1.173
 7443TIP3    H122272   5.718   6.188   1.186
 7443TIP3    H222273   5.634   6.111   1.087
 7444TIP3   OH222274   3.573   2.100   5.991
 7444TIP3    H122275   3.557   2.194   5.979
 7444TIP3    H222276   3.666   2.088   5.971
 7445TIP3   OH222277   4.997   3.359   1.434
 7445TIP3    H122278   4.918   3.327   1.478
 7445TIP3    H222279   5.038   3.419   1.496
 7446TIP3   OH222280   5.077   3.034   0.263
 7446TIP3    H122281   5.049   3.119   0.298
 7446TIP3    H222282   5.173   3.037   0.268
 7447TIP3   OH222283   7.223   1.106   1.190
 7447TIP3    H122284   7.207   1.013   1.174
 7447TIP3    H222285   7.237   1.112   1.285
 7448TIP3   OH222286   4.365   7.488   2.884
 7448TIP3    H122287   4.352   7.544   2.960
 7448TIP3    H222288   4.276   7.469   2.853
 7449TIP3   OH222289   0.187   6.920   3.507
 7449TIP3    H122290   0.111   6.895   3.559
 7449TIP3    H222291   0.262   6.905   3.564
 7450TIP3   OH222292   0.389   7.684   6.375
 7450TIP3    H122293   0.459   7.746   6.355
 7450TIP3    H222294   0.366   7.701   6.466
 7451TIP3   OH222295   5.794   1.553   1.722
 7451TIP3    H122296   5.710   1.518   1.692
 7451TIP3    H222297   5.859   1.492   1.688
 7452TIP3   OH222298   2.467   5.272   1.992
 7452TIP3    H122299   2.475   5.343   2.056
 7452TIP3    H222300   2.388   5.226   2.018
 7453TIP3   OH222301   0.452   5.566   0.629
 7453TIP3    H122302   0.425   5.522   0.710
 7453TIP3    H222303   0.370   5.597   0.590
 7454TIP3   OH222304   4.262   2.146   1.663
 7454TIP3    H122305   4.279   2.150   1.758
 7454TIP3    H222306   4.348   2.157   1.623
 7455TIP3   OH222307   5.824   7.147   5.894
 7455TIP3    H122308   5.835   7.215   5.960
 7455TIP3    H222309   5.743   7.102   5.919
 7456TIP3   OH222310   2.003   1.418   5.953
 7456TIP3    H122311   2.036   1.419   6.043
 7456TIP3    H222312   1.918   1.461   5.958
 7457TIP3   OH222313   1.812   2.330   6.005
 7457TIP3    H122314   1.776   2.387   6.073
 7457TIP3    H222315   1.738   2.314   5.946
 7458TIP3   OH222316   4.671   3.597   5.206
 7458TIP3    H122317   4.624   3.541   5.268
 7458TIP3    H222318   4.646   3.686   5.230
 7459TIP3   OH222319   6.326   7.753   1.112
 7459TIP3    H122320   6.349   7.669   1.074
 7459TIP3    H222321   6.319   7.736   1.206
 7460TIP3   OH222322   0.722   7.136   5.560
 7460TIP3    H122323   0.688   7.160   5.474
 7460TIP3    H222324   0.751   7.218   5.599
 7461TIP3   OH222325   3.127   5.931   0.109
 7461TIP3    H122326   3.206   5.977   0.135
 7461TIP3    H222327   3.075   5.926   0.189
 7462TIP3   OH222328   1.735   4.159   5.298
 7462TIP3    H122329   1.726   4.109   5.217
 7462TIP3    H222330   1.657   4.137   5.348
 7463TIP3   OH222331   1.811   3.226   0.841
 7463TIP3    H122332   1.765   3.156   0.796
 7463TIP3    H222333   1.876   3.181   0.895
 7464TIP3   OH222334   4.823   6.283   0.680
 7464TIP3    H122335   4.879   6.255   0.752
 7464TIP3    H222336   4.880   6.336   0.625
 7465TIP3   OH222337   7.318   2.777   4.717
 7465TIP3    H122338   7.404   2.791   4.758
 7465TIP3    H222339   7.255   2.798   4.786
 7466TIP3   OH222340   5.658   0.818   1.646
 7466TIP3    H122341   5.675   0.743   1.702
 7466TIP3    H222342   5.597   0.786   1.580
 7467TIP3   OH222343   6.309   3.911   2.857
 7467TIP3    H122344   6.261   3.983   2.815
 7467TIP3    H222345   6.363   3.874   2.787
 7468TIP3   OH222346   5.712   2.471   3.224
 7468TIP3    H122347   5.752   2.558   3.220
 7468TIP3    H222348   5.618   2.487   3.210
 7469TIP3   OH222349   3.087   2.243   2.836
 7469TIP3    H122350   3.048   2.234   2.923
 7469TIP3    H222351   3.181   2.231   2.851
 7470TIP3   OH222352   4.097   6.703   5.099
 7470TIP3    H122353   4.150   6.782   5.093
 7470TIP3    H222354   4.011   6.734   5.127
 7471TIP3   OH222355   1.319   5.032   1.601
 7471TIP3    H122356   1.305   5.026   1.507
 7471TIP3    H222357   1.235   5.060   1.636
 7472TIP3   OH222358   3.267   5.826   0.386
 7472TIP3    H122359   3.276   5.890   0.316
 7472TIP3    H222360   3.357   5.801   0.407
 7473TIP3   OH222361   0.309   7.583   3.633
 7473TIP3    H122362   0.264   7.658   3.672
 7473TIP3    H222363   0.381   7.622   3.583
 7474TIP3   OH222364   0.941   7.462   2.125
 7474TIP3    H122365   0.970   7.393   2.184
 7474TIP3    H222366   0.998   7.537   2.146
 7475TIP3   OH222367   6.613   6.446   2.769
 7475TIP3    H122368   6.697   6.423   2.810
 7475TIP3    H222369   6.638   6.505   2.697
 7476TIP3   OH222370   3.573   4.385   1.357
 7476TIP3    H122371   3.520   4.317   1.398
 7476TIP3    H222372   3.564   4.368   1.263
 7477TIP3   OH222373   5.318   4.265   3.155
 7477TIP3    H122374   5.347   4.356   3.161
 7477TIP3    H222375   5.225   4.270   3.131
 7478TIP3   OH222376   0.736   0.545   6.455
 7478TIP3    H122377   0.797   0.523   6.525
 7478TIP3    H222378   0.773   0.624   6.415
 7479TIP3   OH222379   1.936   7.217   1.569
 7479TIP3    H122380   1.972   7.232   1.657
 7479TIP3    H222381   2.003   7.164   1.525
 7480TIP3   OH222382   8.251   6.292   0.196
 7480TIP3    H122383   8.187   6.347   0.241
 7480TIP3    H222384   8.202   6.214   0.170
 7481TIP3   OH222385   5.705   5.358   2.214
 7481TIP3    H122386   5.710   5.285   2.152
 7481TIP3    H222387   5.632   5.411   2.183
 7482TIP3   OH222388   6.290   4.423   6.252
 7482TIP3    H122389   6.235   4.452   6.324
 7482TIP3    H222390   6.244   4.451   6.173
 7483TIP3   OH222391   4.262   6.823   5.878
 7483TIP3    H122392   4.334   6.760   5.872
 7483TIP3    H222393   4.303   6.908   5.861
 7484TIP3   OH222394   1.489   3.043   6.427
 7484TIP3    H122395   1.410   3.059   6.478
 7484TIP3    H222396   1.557   3.024   6.492
 7485TIP3   OH222397   0.116   1.948   1.477
 7485TIP3    H122398   0.061   1.973   1.551
 7485TIP3    H222399   0.061   1.963   1.400
 7486TIP3   OH222400   1.793   5.329   5.644
 7486TIP3    H122401   1.747   5.403   5.683
 7486TIP3    H222402   1.860   5.368   5.589
 7487TIP3   OH222403   8.242   1.558   0.894
 7487TIP3    H122404   8.243   1.643   0.851
 7487TIP3    H222405   8.189   1.570   0.972
 7488TIP3   OH222406   6.882   3.723   5.720
 7488TIP3    H122407   6.920   3.793   5.773
 7488TIP3    H222408   6.940   3.716   5.644
 7489TIP3   OH222409   7.290   4.073   6.645
 7489TIP3    H122410   7.375   4.117   6.649
 7489TIP3    H222411   7.278   4.036   6.732
 7490TIP3   OH222412   0.303   5.446   2.209
 7490TIP3    H122413   0.275   5.511   2.273
 7490TIP3    H222414   0.318   5.367   2.261
 7491TIP3   OH222415   6.978   6.199   3.555
 7491TIP3    H122416   7.053   6.150   3.521
 7491TIP3    H222417   6.964   6.163   3.643
 7492TIP3   OH222418   2.159   6.974   2.249
 7492TIP3    H122419   2.154   6.941   2.159
 7492TIP3    H222420   2.111   6.910   2.301
 7493TIP3   OH222421   4.013   2.662   2.128
 7493TIP3    H122422   4.084   2.723   2.146
 7493TIP3    H222423   3.934   2.706   2.161
 7494TIP3   OH222424   6.355   4.585   0.924
 7494TIP3    H122425   6.339   4.514   0.985
 7494TIP3    H222426   6.284   4.578   0.860
 7495TIP3   OH222427   1.533   1.455   1.471
 7495TIP3    H122428   1.607   1.509   1.441
 7495TIP3    H222429   1.535   1.378   1.414
 7496TIP3   OH222430   0.874   5.269   5.177
 7496TIP3    H122431   0.882   5.217   5.257
 7496TIP3    H222432   0.897   5.208   5.106
 7497TIP3   OH222433   4.591   6.306   2.158
 7497TIP3    H122434   4.586   6.223   2.111
 7497TIP3    H222435   4.633   6.283   2.241
 7498TIP3   OH222436   1.136   7.423   4.764
 7498TIP3    H122437   1.099   7.476   4.834
 7498TIP3    H222438   1.181   7.485   4.707
 7499TIP3   OH222439   4.510   1.905   1.908
 7499TIP3    H122440   4.425   1.884   1.946
 7499TIP3    H222441   4.566   1.922   1.984
 7500TIP3   OH222442   5.732   2.539   5.833
 7500TIP3    H122443   5.651   2.590   5.829
 7500TIP3    H222444   5.710   2.457   5.788
 7501TIP3   OH222445   1.831   1.167   6.026
 7501TIP3    H122446   1.868   1.090   5.982
 7501TIP3    H222447   1.902   1.200   6.080
 7502TIP3   OH222448   8.105   0.959   6.790
 7502TIP3    H122449   8.146   0.918   6.714
 7502TIP3    H222450   8.136   0.907   6.865
 7503TIP3   OH222451   5.852   6.903   6.043
 7503TIP3    H122452   5.761   6.886   6.020
 7503TIP3    H222453   5.848   6.973   6.109
 7504TIP3   OH222454   7.454   1.249   0.727
 7504TIP3    H122455   7.523   1.244   0.794
 7504TIP3    H222456   7.493   1.299   0.656
 7505TIP3   OH222457   7.220   4.907   3.472
 7505TIP3    H122458   7.256   4.908   3.560
 7505TIP3    H222459   7.244   4.992   3.435
 7506TIP3   OH222460   4.178   5.019   3.177
 7506TIP3    H122461   4.127   4.942   3.153
 7506TIP3    H222462   4.126   5.093   3.147
 7507TIP3   OH222463   6.788   0.789   4.672
 7507TIP3    H122464   6.775   0.834   4.589
 7507TIP3    H222465   6.816   0.858   4.733
 7508TIP3   OH222466   4.212   4.044   5.064
 7508TIP3    H122467   4.199   3.987   5.140
 7508TIP3    H222468   4.241   3.985   4.995
 7509TIP3   OH222469   1.722   6.767   4.982
 7509TIP3    H122470   1.747   6.704   4.914
 7509TIP3    H222471   1.656   6.721   5.034
 7510TIP3   OH222472   7.341   5.814   4.858
 7510TIP3    H122473   7.381   5.736   4.897
 7510TIP3    H222474   7.362   5.884   4.919
 7511TIP3   OH222475   3.436   6.685   3.663
 7511TIP3    H122476   3.432   6.771   3.623
 7511TIP3    H222477   3.529   6.671   3.682
 7512TIP3   OH222478   3.095   6.425   4.848
 7512TIP3    H122479   3.030   6.371   4.802
 7512TIP3    H222480   3.128   6.368   4.917
 7513TIP3   OH222481   2.654   1.046   0.588
 7513TIP3    H122482   2.612   0.962   0.609
 7513TIP3    H222483   2.589   1.112   0.611
 7514TIP3   OH222484   2.646   3.319   1.356
 7514TIP3    H122485   2.566   3.270   1.376
 7514TIP3    H222486   2.713   3.251   1.343
 7515TIP3   OH222487   4.772   0.091   4.704
 7515TIP3    H122488   4.709   0.138   4.650
 7515TIP3    H222489   4.731   0.006   4.720
 7516TIP3   OH222490   7.528   2.271   5.813
 7516TIP3    H122491   7.500   2.263   5.904
 7516TIP3    H222492   7.484   2.199   5.768
 7517TIP3   OH222493   4.200   4.229   2.922
 7517TIP3    H122494   4.268   4.163   2.938
 7517TIP3    H222495   4.159   4.202   2.840
 7518TIP3   OH222496   7.146   6.012   1.080
 7518TIP3    H122497   7.149   5.925   1.039
 7518TIP3    H222498   7.230   6.022   1.124
 7519TIP3   OH222499   2.062   5.376   2.798
 7519TIP3    H122500   2.155   5.353   2.804
 7519TIP3    H222501   2.051   5.407   2.708
 7520TIP3   OH222502   5.323   3.342   4.630
 7520TIP3    H122503   5.375   3.332   4.710
 7520TIP3    H222504   5.368   3.410   4.580
 7521TIP3   OH222505   6.081   4.967   6.106
 7521TIP3    H122506   6.121   4.948   6.021
 7521TIP3    H222507   6.045   4.884   6.134
 7522TIP3   OH222508   0.199   1.959   2.057
 7522TIP3    H122509   0.163   1.933   2.142
 7522TIP3    H222510   0.290   1.930   2.060
 7523TIP3   OH222511   7.858   5.355   0.915
 7523TIP3    H122512   7.856   5.329   1.008
 7523TIP3    H222513   7.884   5.447   0.917
 7524TIP3   OH222514   3.382   0.646   3.261
 7524TIP3    H122515   3.381   0.679   3.351
 7524TIP3    H222516   3.377   0.551   3.270
 7525TIP3   OH222517   8.198   2.213   0.861
 7525TIP3    H122518   8.182   2.307   0.853
 7525TIP3    H222519   8.288   2.202   0.831
 7526TIP3   OH222520   3.322   1.859   1.276
 7526TIP3    H122521   3.250   1.917   1.249
 7526TIP3    H222522   3.398   1.917   1.281
 7527TIP3   OH222523   0.339   5.442   2.718
 7527TIP3    H122524   0.293   5.395   2.648
 7527TIP3    H222525   0.386   5.512   2.672
 7528TIP3   OH222526   8.202   4.538   5.253
 7528TIP3    H122527   8.132   4.484   5.291
 7528TIP3    H222528   8.221   4.603   5.320
 7529TIP3   OH222529   2.775   7.444   5.396
 7529TIP3    H122530   2.797   7.510   5.330
 7529TIP3    H222531   2.859   7.415   5.430
 7530TIP3   OH222532   1.632   1.411   6.255
 7530TIP3    H122533   1.715   1.448   6.285
 7530TIP3    H222534   1.577   1.488   6.239
 7531TIP3   OH222535   7.843   0.095   5.754
 7531TIP3    H122536   7.859   0.011   5.798
 7531TIP3    H222537   7.874   0.161   5.816
 7532TIP3   OH222538   6.576   4.228   5.712
 7532TIP3    H122539   6.481   4.224   5.696
 7532TIP3    H222540   6.611   4.151   5.668
 7533TIP3   OH222541   0.398   0.935   4.152
 7533TIP3    H122542   0.487   0.962   4.132
 7533TIP3    H222543   0.343   0.994   4.100
 7534TIP3   OH222544   7.696   2.661   2.543
 7534TIP3    H122545   7.611   2.650   2.501
 7534TIP3    H222546   7.711   2.579   2.589
 7535TIP3   OH222547   0.427   7.507   1.398
 7535TIP3    H122548   0.332   7.496   1.390
 7535TIP3    H222549   0.444   7.502   1.492
 7536TIP3   OH222550   4.214   3.753   3.694
 7536TIP3    H122551   4.185   3.721   3.779
 7536TIP3    H222552   4.249   3.676   3.649
 7537TIP3   OH222553   5.531   1.486   1.451
 7537TIP3    H122554   5.566   1.397   1.462
 7537TIP3    H222555   5.478   1.500   1.530
 7538TIP3   OH222556   6.655   4.050   6.278
 7538TIP3    H122557   6.610   4.064   6.194
 7538TIP3    H222558   6.709   4.128   6.289
 7539TIP3   OH222559   1.466   4.967   6.118
 7539TIP3    H122560   1.530   5.027   6.157
 7539TIP3    H222561   1.519   4.907   6.065
 7540TIP3   OH222562   3.721   5.110   3.439
 7540TIP3    H122563   3.746   5.097   3.347
 7540TIP3    H222564   3.637   5.154   3.434
 7541TIP3   OH222565   6.622   6.385   5.705
 7541TIP3    H122566   6.615   6.290   5.705
 7541TIP3    H222567   6.556   6.415   5.643
 7542TIP3   OH222568   1.256   6.366   2.626
 7542TIP3    H122569   1.187   6.312   2.588
 7542TIP3    H222570   1.297   6.310   2.692
 7543TIP3   OH222571   3.105   7.426   0.562
 7543TIP3    H122572   3.180   7.422   0.503
 7543TIP3    H222573   3.068   7.513   0.547
 7544TIP3   OH222574   7.738   6.814   6.262
 7544TIP3    H122575   7.814   6.816   6.321
 7544TIP3    H222576   7.665   6.844   6.316
 7545TIP3   OH222577   2.237   6.789   6.117
 7545TIP3    H122578   2.200   6.789   6.206
 7545TIP3    H222579   2.161   6.776   6.060
 7546TIP3   OH222580  -0.017   7.729   0.377
 7546TIP3    H122581   0.075   7.712   0.357
 7546TIP3    H222582  -0.021   7.823   0.394
 7547TIP3   OH222583   8.320   6.323   6.125
 7547TIP3    H122584   8.234   6.284   6.112
 7547TIP3    H222585   8.328   6.332   6.220
 7548TIP3   OH222586   2.387   6.256   4.603
 7548TIP3    H122587   2.456   6.203   4.642
 7548TIP3    H222588   2.306   6.206   4.618
 7549TIP3   OH222589   2.303   5.500   4.905
 7549TIP3    H122590   2.280   5.424   4.958
 7549TIP3    H222591   2.233   5.564   4.923
 7550TIP3   OH222592   6.909   6.131   3.831
 7550TIP3    H122593   6.835   6.192   3.825
 7550TIP3    H222594   6.970   6.173   3.892
 7551TIP3   OH222595   7.703   1.976   5.236
 7551TIP3    H122596   7.634   1.996   5.299
 7551TIP3    H222597   7.657   1.967   5.152
 7552TIP3   OH222598   2.104   6.570   1.623
 7552TIP3    H122599   2.141   6.522   1.549
 7552TIP3    H222600   2.180   6.608   1.667
 7553TIP3   OH222601   4.128   5.740   5.631
 7553TIP3    H122602   4.213   5.755   5.590
 7553TIP3    H222603   4.098   5.657   5.594
 7554TIP3   OH222604   3.044   1.289   4.754
 7554TIP3    H122605   3.047   1.193   4.758
 7554TIP3    H222606   3.051   1.317   4.845
 7555TIP3   OH222607   5.908   6.527   6.465
 7555TIP3    H122608   5.990   6.507   6.418
 7555TIP3    H222609   5.900   6.622   6.460
 7556TIP3   OH222610   8.261   0.519   6.235
 7556TIP3    H122611   8.345   0.546   6.273
 7556TIP3    H222612   8.228   0.598   6.192
 7557TIP3   OH222613   7.818   6.012   0.543
 7557TIP3    H122614   7.737   5.981   0.503
 7557TIP3    H222615   7.824   6.104   0.516
 7558TIP3   OH222616   2.402   1.402   6.073
 7558TIP3    H122617   2.332   1.419   6.136
 7558TIP3    H222618   2.403   1.480   6.017
 7559TIP3   OH222619   4.811   6.627   2.220
 7559TIP3    H122620   4.720   6.617   2.250
 7559TIP3    H222621   4.860   6.650   2.299
 7560TIP3   OH222622   0.527   2.208   2.166
 7560TIP3    H122623   0.483   2.139   2.215
 7560TIP3    H222624   0.605   2.228   2.218
 7561TIP3   OH222625   3.349   5.712   1.774
 7561TIP3    H122626   3.340   5.635   1.830
 7561TIP3    H222627   3.432   5.751   1.800
 7562TIP3   OH222628   6.247   5.590   3.485
 7562TIP3    H122629   6.164   5.546   3.467
 7562TIP3    H222630   6.313   5.535   3.444
 7563TIP3   OH222631   3.982   6.192   4.668
 7563TIP3    H122632   3.915   6.240   4.715
 7563TIP3    H222633   3.948   6.103   4.662
 7564TIP3   OH222634   2.219   5.310   5.069
 7564TIP3    H122635   2.220   5.221   5.106
 7564TIP3    H222636   2.297   5.351   5.104
 7565TIP3   OH222637   5.846   3.729   3.986
 7565TIP3    H122638   5.924   3.694   4.030
 7565TIP3    H222639   5.802   3.781   4.054
 7566TIP3   OH222640   8.038   6.224   6.170
 7566TIP3    H122641   8.032   6.320   6.164
 7566TIP3    H222642   7.948   6.194   6.166
 7567TIP3   OH222643   4.688   2.843   0.315
 7567TIP3    H122644   4.783   2.827   0.316
 7567TIP3    H222645   4.679   2.935   0.291
 7568TIP3   OH222646   5.399   1.718   1.025
 7568TIP3    H122647   5.319   1.720   1.079
 7568TIP3    H222648   5.424   1.626   1.024
 7569TIP3   OH222649   3.253   1.244   6.153
 7569TIP3    H122650   3.189   1.293   6.205
 7569TIP3    H222651   3.328   1.234   6.211
 7570TIP3   OH222652   4.840   6.273   4.823
 7570TIP3    H122653   4.869   6.201   4.766
 7570TIP3    H222654   4.781   6.324   4.768
 7571TIP3   OH222655   1.668   6.850   4.351
 7571TIP3    H122656   1.581   6.862   4.389
 7571TIP3    H222657   1.651   6.828   4.259
 7572TIP3   OH222658   2.730   3.155   3.601
 7572TIP3    H122659   2.777   3.073   3.588
 7572TIP3    H222660   2.796   3.223   3.588
 7573TIP3   OH222661   6.621   1.739   6.526
 7573TIP3    H122662   6.601   1.832   6.530
 7573TIP3    H222663   6.716   1.735   6.529
 7574TIP3   OH222664   5.565   6.186   5.726
 7574TIP3    H122665   5.531   6.249   5.789
 7574TIP3    H222666   5.624   6.130   5.778
 7575TIP3   OH222667   7.906   5.685   6.594
 7575TIP3    H122668   7.850   5.732   6.532
 7575TIP3    H222669   7.847   5.623   6.637
 7576TIP3   OH222670   0.425   6.027   0.049
 7576TIP3    H122671   0.459   6.106   0.091
 7576TIP3    H222672   0.331   6.031   0.063
 7577TIP3   OH222673   2.445   7.548   2.880
 7577TIP3    H122674   2.398   7.489   2.938
 7577TIP3    H222675   2.416   7.635   2.906
 7578TIP3   OH222676   3.878   4.428   0.715
 7578TIP3    H122677   3.891   4.375   0.793
 7578TIP3    H222678   3.802   4.389   0.671
 7579TIP3   OH222679   5.803   0.726   5.090
 7579TIP3    H122680   5.815   0.731   5.185
 7579TIP3    H222681   5.721   0.773   5.074
 7580TIP3   OH222682   6.753   5.861   6.605
 7580TIP3    H122683   6.746   5.781   6.658
 7580TIP3    H222684   6.665   5.877   6.572
 7581TIP3   OH222685   1.534   2.379   2.125
 7581TIP3    H122686   1.576   2.307   2.171
 7581TIP3    H222687   1.461   2.404   2.181
 7582TIP3   OH222688   7.149   2.408   0.281
 7582TIP3    H122689   7.059   2.421   0.251
 7582TIP3    H222690   7.201   2.402   0.201
 7583TIP3   OH222691   0.594   0.639   2.966
 7583TIP3    H122692   0.564   0.730   2.961
 7583TIP3    H222693   0.544   0.594   2.897
 7584TIP3   OH222694   5.600   3.685   2.112
 7584TIP3    H122695   5.653   3.697   2.191
 7584TIP3    H222696   5.597   3.772   2.072
 7585TIP3   OH222697   0.548   3.184   1.010
 7585TIP3    H122698   0.604   3.222   0.943
 7585TIP3    H222699   0.574   3.092   1.013
 7586TIP3   OH222700   3.040   7.264   0.049
 7586TIP3    H122701   3.029   7.260  -0.046
 7586TIP3    H222702   3.121   7.216   0.066
 7587TIP3   OH222703   1.710   5.185   5.913
 7587TIP3    H122704   1.713   5.219   5.824
 7587TIP3    H222705   1.632   5.226   5.951
 7588TIP3   OH222706   4.639   1.269   1.480
 7588TIP3    H122707   4.548   1.260   1.451
 7588TIP3    H222708   4.655   1.189   1.530
 7589TIP3   OH222709   6.337   0.715   2.111
 7589TIP3    H122710   6.285   0.748   2.038
 7589TIP3    H222711   6.426   0.709   2.075
 7590TIP3   OH222712   6.943   0.445   2.564
 7590TIP3    H122713   6.850   0.443   2.543
 7590TIP3    H222714   6.987   0.441   2.479
 7591TIP3   OH222715   1.347   1.146   5.165
 7591TIP3    H122716   1.336   1.240   5.152
 7591TIP3    H222717   1.300   1.105   5.092
 7592TIP3   OH222718   3.020   3.304   0.508
 7592TIP3    H122719   3.008   3.239   0.438
 7592TIP3    H222720   3.111   3.293   0.536
 7593TIP3   OH222721   1.868   5.557   6.274
 7593TIP3    H122722   1.873   5.582   6.182
 7593TIP3    H222723   1.875   5.461   6.274
 7594TIP3   OH222724   3.618   1.897   5.722
 7594TIP3    H122725   3.613   1.850   5.806
 7594TIP3    H222726   3.576   1.981   5.739
 7595TIP3   OH222727   4.735   7.335   2.406
 7595TIP3    H122728   4.772   7.332   2.494
 7595TIP3    H222729   4.644   7.309   2.417
 7596TIP3   OH222730   6.320   7.102   6.034
 7596TIP3    H122731   6.246   7.088   5.975
 7596TIP3    H222732   6.293   7.174   6.091
 7597TIP3   OH222733   3.219   3.554   1.631
 7597TIP3    H122734   3.199   3.647   1.624
 7597TIP3    H222735   3.281   3.548   1.704
 7598TIP3   OH222736   6.677   0.741   1.343
 7598TIP3    H122737   6.664   0.836   1.341
 7598TIP3    H222738   6.702   0.719   1.254
 7599TIP3   OH222739   1.402   1.081   6.067
 7599TIP3    H122740   1.433   1.008   6.120
 7599TIP3    H222741   1.379   1.148   6.131
 7600TIP3   OH222742   6.590   6.797   0.977
 7600TIP3    H122743   6.579   6.788   0.883
 7600TIP3    H222744   6.508   6.833   1.008
 7601TIP3   OH222745   2.584   0.709   0.256
 7601TIP3    H122746   2.540   0.625   0.242
 7601TIP3    H222747   2.551   0.765   0.186
 7602TIP3   OH222748   5.375   3.682   1.654
 7602TIP3    H122749   5.375   3.672   1.749
 7602TIP3    H222750   5.467   3.672   1.629
 7603TIP3   OH222751   2.876   4.608   1.663
 7603TIP3    H122752   2.969   4.622   1.676
 7603TIP3    H222753   2.840   4.696   1.650
 7604TIP3   OH222754   5.232   0.344   1.616
 7604TIP3    H122755   5.222   0.434   1.584
 7604TIP3    H222756   5.146   0.321   1.650
 7605TIP3   OH222757   7.670   0.424   2.074
 7605TIP3    H122758   7.632   0.441   2.160
 7605TIP3    H222759   7.653   0.504   2.024
 7606TIP3   OH222760   6.797   0.120   3.432
 7606TIP3    H122761   6.879   0.105   3.384
 7606TIP3    H222762   6.744   0.043   3.414
 7607TIP3   OH222763   3.256   2.452   4.107
 7607TIP3    H122764   3.211   2.495   4.035
 7607TIP3    H222765   3.347   2.447   4.079
 7608TIP3   OH222766   4.509   4.405   2.647
 7608TIP3    H122767   4.579   4.438   2.591
 7608TIP3    H222768   4.439   4.470   2.640
 7609TIP3   OH222769   6.933   0.208   1.557
 7609TIP3    H122770   6.951   0.133   1.501
 7609TIP3    H222771   7.020   0.242   1.580
 7610TIP3   OH222772   2.818   7.513   6.190
 7610TIP3    H122773   2.779   7.600   6.193
 7610TIP3    H222774   2.912   7.529   6.198
 7611TIP3   OH222775   5.216   4.302   0.177
 7611TIP3    H122776   5.189   4.237   0.113
 7611TIP3    H222777   5.134   4.335   0.214
 7612TIP3   OH222778   7.348   6.962   0.782
 7612TIP3    H122779   7.310   7.027   0.723
 7612TIP3    H222780   7.326   6.878   0.742
 7613TIP3   OH222781   4.070   0.535   5.830
 7613TIP3    H122782   4.050   0.499   5.743
 7613TIP3    H222783   4.127   0.469   5.870
 7614TIP3   OH222784   5.291   5.565   4.547
 7614TIP3    H122785   5.288   5.505   4.622
 7614TIP3    H222786   5.288   5.652   4.586
 7615TIP3   OH222787   0.113   5.673   6.479
 7615TIP3    H122788   0.045   5.709   6.536
 7615TIP3    H222789   0.191   5.726   6.498
 7616TIP3   OH222790   2.518   5.583   6.772
 7616TIP3    H122791   2.513   5.568   6.866
 7616TIP3    H222792   2.432   5.555   6.740
 7617TIP3   OH222793   5.243   4.096   5.357
 7617TIP3    H122794   5.160   4.144   5.354
 7617TIP3    H222795   5.279   4.105   5.269
 7618TIP3   OH222796   6.047   5.334   4.402
 7618TIP3    H122797   6.035   5.429   4.408
 7618TIP3    H222798   5.972   5.299   4.451
 7619TIP3   OH222799   8.149   2.652   5.283
 7619TIP3    H122800   8.115   2.596   5.213
 7619TIP3    H222801   8.154   2.595   5.359
 7620TIP3   OH222802   3.705   0.317   6.327
 7620TIP3    H122803   3.687   0.409   6.307
 7620TIP3    H222804   3.777   0.294   6.268
 7621TIP3   OH222805   0.797   0.665   4.473
 7621TIP3    H122806   0.821   0.573   4.467
 7621TIP3    H222807   0.749   0.672   4.556
 7622TIP3   OH222808   7.343   3.940   4.649
 7622TIP3    H122809   7.420   3.995   4.666
 7622TIP3    H222810   7.298   3.936   4.733
 7623TIP3   OH222811   2.953   1.710   3.363
 7623TIP3    H122812   2.977   1.676   3.449
 7623TIP3    H222813   2.976   1.641   3.302
 7624TIP3   OH222814   7.405   3.479   2.997
 7624TIP3    H122815   7.337   3.432   3.047
 7624TIP3    H222816   7.481   3.422   3.002
 7625TIP3   OH222817   0.848   3.285   1.160
 7625TIP3    H122818   0.779   3.339   1.121
 7625TIP3    H222819   0.890   3.342   1.224
 7626TIP3   OH222820   5.384   3.712   4.810
 7626TIP3    H122821   5.290   3.725   4.820
 7626TIP3    H222822   5.424   3.781   4.864
 7627TIP3   OH222823   6.706   1.897   2.596
 7627TIP3    H122824   6.637   1.895   2.529
 7627TIP3    H222825   6.759   1.820   2.577
 7628TIP3   OH222826   5.922   7.314   3.587
 7628TIP3    H122827   5.864   7.283   3.517
 7628TIP3    H222828   5.998   7.256   3.583
 7629TIP3   OH222829   3.775   2.954   5.726
 7629TIP3    H122830   3.680   2.960   5.719
 7629TIP3    H222831   3.792   2.951   5.820
 7630TIP3   OH222832   8.195   1.835   5.385
 7630TIP3    H122833   8.241   1.853   5.303
 7630TIP3    H222834   8.142   1.913   5.400
 7631TIP3   OH222835   4.739   0.177   6.398
 7631TIP3    H122836   4.680   0.108   6.368
 7631TIP3    H222837   4.811   0.178   6.335
 7632TIP3   OH222838   3.490   6.651   0.573
 7632TIP3    H122839   3.480   6.612   0.660
 7632TIP3    H222840   3.447   6.736   0.581
 7633TIP3   OH222841   2.251   3.245   2.210
 7633TIP3    H122842   2.336   3.270   2.174
 7633TIP3    H222843   2.226   3.319   2.265
 7634TIP3   OH222844   1.701   4.673   0.594
 7634TIP3    H122845   1.726   4.683   0.686
 7634TIP3    H222846   1.753   4.737   0.547
 7635TIP3   OH222847   0.676   2.608   6.740
 7635TIP3    H122848   0.678   2.553   6.818
 7635TIP3    H222849   0.756   2.585   6.692
 7636TIP3   OH222850   0.181   4.139   3.569
 7636TIP3    H122851   0.270   4.161   3.544
 7636TIP3    H222852   0.131   4.143   3.487
 7637TIP3   OH222853   1.218   7.154   4.725
 7637TIP3    H122854   1.173   7.096   4.664
 7637TIP3    H222855   1.171   7.237   4.718
 7638TIP3   OH222856   1.934   1.273   0.295
 7638TIP3    H122857   1.945   1.363   0.263
 7638TIP3    H222858   1.969   1.218   0.225
 7639TIP3   OH222859   6.244   1.364   5.775
 7639TIP3    H122860   6.181   1.406   5.716
 7639TIP3    H222861   6.330   1.395   5.746
 7640TIP3   OH222862   5.238   3.426   3.179
 7640TIP3    H122863   5.249   3.342   3.224
 7640TIP3    H222864   5.191   3.404   3.098
 7641TIP3   OH222865   7.129   6.612   4.896
 7641TIP3    H122866   7.094   6.532   4.934
 7641TIP3    H222867   7.196   6.582   4.835
 7642TIP3   OH222868   2.662   0.179   2.478
 7642TIP3    H122869   2.680   0.179   2.572
 7642TIP3    H222870   2.585   0.235   2.469
 7643TIP3   OH222871   0.737   5.299   0.828
 7643TIP3    H122872   0.724   5.298   0.733
 7643TIP3    H222873   0.648   5.290   0.865
 7644TIP3   OH222874   3.061   7.656   0.216
 7644TIP3    H122875   3.079   7.730   0.273
 7644TIP3    H222876   3.104   7.582   0.259
 7645TIP3   OH222877   0.403   3.036   0.244
 7645TIP3    H122878   0.352   3.082   0.311
 7645TIP3    H222879   0.491   3.074   0.250
 7646TIP3   OH222880   2.913   4.704   4.043
 7646TIP3    H122881   2.861   4.631   4.077
 7646TIP3    H222882   2.906   4.695   3.948
 7647TIP3   OH222883   5.921   1.148   1.459
 7647TIP3    H122884   5.884   1.098   1.532
 7647TIP3    H222885   5.915   1.239   1.487
 7648TIP3   OH222886   0.510   7.655   2.603
 7648TIP3    H122887   0.572   7.588   2.574
 7648TIP3    H222888   0.551   7.695   2.679
 7649TIP3   OH222889   3.330   7.361   5.142
 7649TIP3    H122890   3.308   7.279   5.187
 7649TIP3    H222891   3.250   7.413   5.146
 7650TIP3   OH222892   5.080   1.797   5.085
 7650TIP3    H122893   5.002   1.853   5.092
 7650TIP3    H222894   5.111   1.811   4.996
 7651TIP3   OH222895   8.096   7.259   5.567
 7651TIP3    H122896   8.002   7.244   5.564
 7651TIP3    H222897   8.134   7.180   5.530
 7652TIP3   OH222898   4.162   6.180   1.644
 7652TIP3    H122899   4.132   6.270   1.650
 7652TIP3    H222900   4.248   6.186   1.604
 7653TIP3   OH222901   0.312   5.287   3.232
 7653TIP3    H122902   0.383   5.224   3.241
 7653TIP3    H222903   0.233   5.234   3.230
 7654TIP3   OH222904   7.170   1.500   0.771
 7654TIP3    H122905   7.081   1.493   0.735
 7654TIP3    H222906   7.207   1.412   0.758
 7655TIP3   OH222907   2.121   2.720   1.997
 7655TIP3    H122908   2.042   2.769   2.020
 7655TIP3    H222909   2.190   2.786   1.995
 7656TIP3   OH222910   6.888   2.944   6.128
 7656TIP3    H122911   6.944   2.868   6.143
 7656TIP3    H222912   6.924   2.986   6.050
 7657TIP3   OH222913   1.201   0.272   5.112
 7657TIP3    H122914   1.157   0.280   5.197
 7657TIP3    H222915   1.289   0.308   5.128
 7658TIP3   OH222916   7.285   2.258   3.957
 7658TIP3    H122917   7.317   2.169   3.971
 7658TIP3    H222918   7.291   2.300   4.043
 7659TIP3   OH222919   5.768   6.483   0.059
 7659TIP3    H122920   5.718   6.401   0.062
 7659TIP3    H222921   5.709   6.548   0.097
 7660TIP3   OH222922   4.486   4.730   6.132
 7660TIP3    H122923   4.481   4.678   6.051
 7660TIP3    H222924   4.543   4.803   6.110
 7661TIP3   OH222925   2.052   3.403   0.586
 7661TIP3    H122926   2.081   3.333   0.645
 7661TIP3    H222927   2.048   3.480   0.642
 7662TIP3   OH222928   1.033   4.570   3.277
 7662TIP3    H122929   1.021   4.524   3.360
 7662TIP3    H222930   0.983   4.519   3.214
 7663TIP3   OH222931   1.303   5.969   1.351
 7663TIP3    H122932   1.356   5.895   1.323
 7663TIP3    H222933   1.366   6.033   1.384
 7664TIP3   OH222934   3.852   1.966   3.803
 7664TIP3    H122935   3.779   1.939   3.747
 7664TIP3    H222936   3.878   1.886   3.849
 7665TIP3   OH222937   0.214   2.503   5.845
 7665TIP3    H122938   0.281   2.453   5.798
 7665TIP3    H222939   0.208   2.585   5.797
 7666TIP3   OH222940   0.327   4.128   4.762
 7666TIP3    H122941   0.300   4.041   4.731
 7666TIP3    H222942   0.261   4.187   4.726
 7667TIP3   OH222943   1.848   7.410   2.334
 7667TIP3    H122944   1.920   7.413   2.397
 7667TIP3    H222945   1.799   7.331   2.358
 7668TIP3   OH222946   2.629   2.868   2.149
 7668TIP3    H122947   2.637   2.915   2.232
 7668TIP3    H222948   2.710   2.817   2.143
 7669TIP3   OH222949   6.815   0.671   0.538
 7669TIP3    H122950   6.772   0.630   0.614
 7669TIP3    H222951   6.789   0.616   0.464
 7670TIP3   OH222952   5.328   6.418   4.010
 7670TIP3    H122953   5.240   6.390   4.035
 7670TIP3    H222954   5.327   6.417   3.914
 7671TIP3   OH222955   2.577   0.366   2.833
 7671TIP3    H122956   2.668   0.368   2.802
 7671TIP3    H222957   2.560   0.273   2.849
 7672TIP3   OH222958   3.483   7.611   3.320
 7672TIP3    H122959   3.480   7.595   3.414
 7672TIP3    H222960   3.485   7.523   3.280
 7673TIP3   OH222961   4.171   1.756   4.886
 7673TIP3    H122962   4.265   1.765   4.903
 7673TIP3    H222963   4.149   1.670   4.922
 7674TIP3   OH222964   7.234   4.986   1.558
 7674TIP3    H122965   7.197   5.058   1.609
 7674TIP3    H222966   7.162   4.957   1.502
 7675TIP3   OH222967   7.559   3.262   6.165
 7675TIP3    H122968   7.642   3.264   6.117
 7675TIP3    H222969   7.507   3.196   6.121
 7676TIP3   OH222970   0.882   0.905   2.183
 7676TIP3    H122971   0.958   0.931   2.235
 7676TIP3    H222972   0.875   0.972   2.115
 7677TIP3   OH222973   3.560   6.800   1.288
 7677TIP3    H122974   3.579   6.746   1.211
 7677TIP3    H222975   3.523   6.739   1.352
 7678TIP3   OH222976   0.004   4.565   3.939
 7678TIP3    H122977   0.090   4.566   3.898
 7678TIP3    H222978  -0.041   4.491   3.898
 7679TIP3   OH222979   3.691   2.593   6.241
 7679TIP3    H122980   3.646   2.509   6.253
 7679TIP3    H222981   3.755   2.596   6.312
 7680TIP3   OH222982   0.720   6.247   3.055
 7680TIP3    H122983   0.719   6.314   2.987
 7680TIP3    H222984   0.689   6.291   3.134
 7681TIP3   OH222985   7.904   3.990   6.162
 7681TIP3    H122986   7.816   3.960   6.140
 7681TIP3    H222987   7.943   4.013   6.078
 7682TIP3   OH222988   0.633   5.229   3.977
 7682TIP3    H122989   0.608   5.308   3.928
 7682TIP3    H222990   0.585   5.237   4.059
 7683TIP3   OH222991   1.799   0.977   4.250
 7683TIP3    H122992   1.751   0.965   4.167
 7683TIP3    H222993   1.755   0.919   4.311
 7684TIP3   OH222994   3.418   4.472   5.903
 7684TIP3    H122995   3.503   4.511   5.923
 7684TIP3    H222996   3.400   4.413   5.976
 7685TIP3   OH222997   4.830   3.514   2.382
 7685TIP3    H122998   4.916   3.476   2.400
 7685TIP3    H222999   4.849   3.605   2.359
 7686TIP3   OH223000   4.000   3.146   1.943
 7686TIP3    H123001   4.058   3.070   1.937
 7686TIP3    H223002   4.049   3.209   1.996
 7687TIP3   OH223003   5.242   7.699   4.586
 7687TIP3    H123004   5.181   7.658   4.525
 7687TIP3    H223005   5.186   7.756   4.640
 7688TIP3   OH223006   3.046   6.613   3.351
 7688TIP3    H123007   3.043   6.566   3.435
 7688TIP3    H223008   2.966   6.587   3.306
 7689TIP3   OH223009   0.174   3.438   1.538
 7689TIP3    H123010   0.109   3.427   1.469
 7689TIP3    H223011   0.163   3.360   1.593
 7690TIP3   OH223012   4.055   5.911   3.781
 7690TIP3    H123013   4.092   5.982   3.729
 7690TIP3    H223014   4.130   5.874   3.828
 7691TIP3   OH223015   7.088   4.067   4.109
 7691TIP3    H123016   7.147   4.071   4.034
 7691TIP3    H223017   7.093   3.977   4.140
 7692TIP3   OH223018   2.813   7.256   6.002
 7692TIP3    H123019   2.790   7.339   6.043
 7692TIP3    H223020   2.869   7.212   6.067
 7693TIP3   OH223021   3.966   2.941   1.315
 7693TIP3    H123022   4.007   2.854   1.316
 7693TIP3    H223023   4.036   3.000   1.287
 7694TIP3   OH223024   4.572   5.318   1.248
 7694TIP3    H123025   4.480   5.322   1.221
 7694TIP3    H223026   4.576   5.370   1.328
 7695TIP3   OH223027   5.209   7.323   5.253
 7695TIP3    H123028   5.155   7.401   5.265
 7695TIP3    H223029   5.154   7.263   5.203
 7696TIP3   OH223030   6.808   7.627   2.172
 7696TIP3    H123031   6.758   7.704   2.146
 7696TIP3    H223032   6.892   7.637   2.129
 7697TIP3   OH223033   1.783   5.948   2.035
 7697TIP3    H123034   1.757   6.040   2.031
 7697TIP3    H223035   1.859   5.947   2.094
 7698TIP3   OH223036   4.515   7.021   3.963
 7698TIP3    H123037   4.567   7.022   4.043
 7698TIP3    H223038   4.578   7.007   3.893
 7699TIP3   OH223039   7.511   7.051   6.340
 7699TIP3    H123040   7.450   7.068   6.269
 7699TIP3    H223041   7.465   6.991   6.398
 7700TIP3   OH223042   0.139   3.030   3.185
 7700TIP3    H123043   0.145   2.981   3.103
 7700TIP3    H223044   0.221   3.010   3.230
 7701TIP3   OH223045   3.260   2.842   0.299
 7701TIP3    H123046   3.241   2.892   0.220
 7701TIP3    H223047   3.324   2.777   0.271
 7702TIP3   OH223048   1.667   5.159   4.046
 7702TIP3    H123049   1.722   5.107   3.988
 7702TIP3    H223050   1.578   5.146   4.012
 7703TIP3   OH223051   0.529   2.319   0.783
 7703TIP3    H123052   0.487   2.375   0.717
 7703TIP3    H223053   0.512   2.230   0.753
 7704TIP3   OH223054   0.421   6.246   6.742
 7704TIP3    H123055   0.351   6.312   6.742
 7704TIP3    H223056   0.404   6.194   6.821
 7705TIP3   OH223057   7.692   2.821   4.501
 7705TIP3    H123058   7.706   2.822   4.595
 7705TIP3    H223059   7.715   2.910   4.472
 7706TIP3   OH223060   0.563   5.554   2.543
 7706TIP3    H123061   0.623   5.518   2.609
 7706TIP3    H223062   0.544   5.480   2.486
 7707TIP3   OH223063   2.483   5.083   1.171
 7707TIP3    H123064   2.401   5.127   1.147
 7707TIP3    H223065   2.481   5.078   1.266
 7708TIP3   OH223066   0.463   3.853   1.097
 7708TIP3    H123067   0.478   3.785   1.162
 7708TIP3    H223068   0.464   3.807   1.013
 7709TIP3   OH223069   4.646   6.893   3.036
 7709TIP3    H123070   4.682   6.844   2.962
 7709TIP3    H223071   4.717   6.896   3.100
 7710TIP3   OH223072   4.096   2.700   6.587
 7710TIP3    H123073   4.191   2.685   6.583
 7710TIP3    H223074   4.059   2.636   6.525
 7711TIP3   OH223075   7.584   6.939   3.277
 7711TIP3    H123076   7.588   7.035   3.274
 7711TIP3    H223077   7.494   6.918   3.255
 7712TIP3   OH223078   4.177   6.646   2.753
 7712TIP3    H123079   4.156   6.579   2.689
 7712TIP3    H223080   4.189   6.598   2.835
 7713TIP3   OH223081   3.210   5.930   3.421
 7713TIP3    H123082   3.171   5.915   3.507
 7713TIP3    H223083   3.280   5.994   3.437
 7714TIP3   OH223084   3.909   7.547   1.101
 7714TIP3    H123085   3.923   7.561   1.007
 7714TIP3    H223086   3.976   7.483   1.125
 7715TIP3   OH223087   7.482   5.595   2.752
 7715TIP3    H123088   7.548   5.528   2.770
 7715TIP3    H223089   7.510   5.635   2.670
 7716TIP3   OH223090   2.182   6.683   4.996
 7716TIP3    H123091   2.228   6.604   5.026
 7716TIP3    H223092   2.247   6.729   4.942
 7717TIP3   OH223093   7.136   0.419   4.582
 7717TIP3    H123094   7.195   0.463   4.521
 7717TIP3    H223095   7.055   0.469   4.577
 7718TIP3   OH223096   1.897   7.589   5.032
 7718TIP3    H123097   1.926   7.508   5.075
 7718TIP3    H223098   1.900   7.655   5.101
 7719TIP3   OH223099   6.164   0.279   1.481
 7719TIP3    H123100   6.138   0.350   1.422
 7719TIP3    H223101   6.091   0.217   1.478
 7720TIP3   OH223102   3.987   6.669   6.155
 7720TIP3    H123103   4.038   6.750   6.150
 7720TIP3    H223104   4.043   6.603   6.115
 7721TIP3   OH223105   1.329   5.848   0.585
 7721TIP3    H123106   1.344   5.914   0.517
 7721TIP3    H223107   1.366   5.886   0.665
 7722TIP3   OH223108   8.215   0.293   2.658
 7722TIP3    H123109   8.188   0.346   2.583
 7722TIP3    H223110   8.253   0.357   2.719
 7723TIP3   OH223111   2.138   3.357   1.489
 7723TIP3    H123112   2.109   3.449   1.489
 7723TIP3    H223113   2.231   3.362   1.510
 7724TIP3   OH223114   1.966   3.046   5.155
 7724TIP3    H123115   2.057   3.019   5.142
 7724TIP3    H223116   1.914   2.974   5.119
 7725TIP3   OH223117   0.446   6.618   1.468
 7725TIP3    H123118   0.486   6.535   1.443
 7725TIP3    H223119   0.356   6.611   1.436
 7726TIP3   OH223120   1.054   2.829   4.226
 7726TIP3    H123121   1.025   2.777   4.151
 7726TIP3    H223122   0.980   2.830   4.286
 7727TIP3   OH223123   5.543   1.337   4.195
 7727TIP3    H123124   5.542   1.317   4.289
 7727TIP3    H223125   5.474   1.282   4.158
 7728TIP3   OH223126   5.794   7.785   1.351
 7728TIP3    H123127   5.734   7.831   1.411
 7728TIP3    H223128   5.739   7.764   1.275
 7729TIP3   OH223129   2.434  -0.004   0.474
 7729TIP3    H123130   2.447   0.091   0.471
 7729TIP3    H223131   2.343  -0.014   0.501
 7730TIP3   OH223132   0.183   1.374   0.544
 7730TIP3    H123133   0.182   1.281   0.569
 7730TIP3    H223134   0.101   1.409   0.578
 7731TIP3   OH223135   1.206   6.126   3.585
 7731TIP3    H123136   1.161   6.056   3.539
 7731TIP3    H223137   1.204   6.100   3.677
 7732TIP3   OH223138   0.526   4.132   3.001
 7732TIP3    H123139   0.502   4.224   3.015
 7732TIP3    H223140   0.443   4.089   2.977
 7733TIP3   OH223141   2.622   3.222   3.356
 7733TIP3    H123142   2.655   3.148   3.306
 7733TIP3    H223143   2.649   3.204   3.446
 7734TIP3   OH223144   7.826   3.836   3.389
 7734TIP3    H123145   7.805   3.916   3.342
 7734TIP3    H223146   7.793   3.766   3.333
 7735TIP3   OH223147   7.858   0.442   0.421
 7735TIP3    H123148   7.916   0.514   0.445
 7735TIP3    H223149   7.907   0.392   0.356
 7736TIP3   OH223150   4.470   7.636   1.738
 7736TIP3    H123151   4.440   7.584   1.663
 7736TIP3    H223152   4.390   7.674   1.774
 7737TIP3   OH223153   8.035   5.031   0.239
 7737TIP3    H123154   7.954   4.996   0.202
 7737TIP3    H223155   8.037   4.997   0.328
 7738TIP3   OH223156   7.556   6.617   4.028
 7738TIP3    H123157   7.499   6.580   3.960
 7738TIP3    H223158   7.638   6.636   3.983
 7739TIP3   OH223159   6.170   6.520   5.433
 7739TIP3    H123160   6.145   6.612   5.432
 7739TIP3    H223161   6.129   6.484   5.511
 7740TIP3   OH223162   3.145   3.709   1.376
 7740TIP3    H123163   3.051   3.697   1.364
 7740TIP3    H223164   3.184   3.678   1.294
 7741TIP3   OH223165   5.002   3.944   3.079
 7741TIP3    H123166   4.943   3.953   3.003
 7741TIP3    H223167   4.990   3.853   3.107
 7742TIP3   OH223168   0.480   2.467   2.418
 7742TIP3    H123169   0.509   2.558   2.415
 7742TIP3    H223170   0.549   2.418   2.373
 7743TIP3   OH223171   6.097   0.164   4.030
 7743TIP3    H123172   6.160   0.155   4.101
 7743TIP3    H223173   6.058   0.250   4.043
 7744TIP3   OH223174   1.812   5.306   0.206
 7744TIP3    H123175   1.724   5.344   0.212
 7744TIP3    H223176   1.797   5.212   0.210
 7745TIP3   OH223177   5.547   0.869   1.976
 7745TIP3    H123178   5.575   0.784   2.008
 7745TIP3    H223179   5.578   0.931   2.043
 7746TIP3   OH223180   1.282   5.850   2.882
 7746TIP3    H123181   1.281   5.905   2.960
 7746TIP3    H223182   1.191   5.849   2.853
 7747TIP3   OH223183   1.145   6.404   3.665
 7747TIP3    H123184   1.174   6.313   3.676
 7747TIP3    H223185   1.156   6.421   3.571
 7748TIP3   OH223186   2.045   1.188   6.212
 7748TIP3    H123187   2.086   1.272   6.233
 7748TIP3    H223188   2.059   1.134   6.290
 7749TIP3   OH223189   2.866   5.447   1.906
 7749TIP3    H123190   2.915   5.501   1.844
 7749TIP3    H223191   2.843   5.507   1.977
 7750TIP3   OH223192   3.407   0.108   6.636
 7750TIP3    H123193   3.462   0.074   6.565
 7750TIP3    H223194   3.435   0.199   6.646
 7751TIP3   OH223195   2.773   7.724   1.670
 7751TIP3    H123196   2.779   7.697   1.578
 7751TIP3    H223197   2.722   7.805   1.668
 7752TIP3   OH223198   3.343   5.004   0.051
 7752TIP3    H123199   3.379   4.962   0.129
 7752TIP3    H223200   3.420   5.032   0.001
 7753TIP3   OH223201   6.763   4.145   3.003
 7753TIP3    H123202   6.799   4.194   3.076
 7753TIP3    H223203   6.703   4.082   3.043
 7754TIP3   OH223204   3.387   2.623   5.112
 7754TIP3    H123205   3.360   2.661   5.029
 7754TIP3    H223206   3.349   2.535   5.112
 7755TIP3   OH223207   3.992   5.728   3.319
 7755TIP3    H123208   3.905   5.700   3.346
 7755TIP3    H223209   4.005   5.813   3.361
 7756TIP3   OH223210   2.939   7.052   1.564
 7756TIP3    H123211   3.029   7.024   1.551
 7756TIP3    H223212   2.916   7.019   1.651
 7757TIP3   OH223213   4.801   2.371   4.049
 7757TIP3    H123214   4.752   2.303   4.003
 7757TIP3    H223215   4.783   2.451   3.999
 7758TIP3   OH223216   2.642   0.271   3.179
 7758TIP3    H123217   2.624   0.228   3.263
 7758TIP3    H223218   2.567   0.329   3.166
 7759TIP3   OH223219   2.711   4.723   0.504
 7759TIP3    H123220   2.628   4.677   0.507
 7759TIP3    H223221   2.697   4.802   0.557
 7760TIP3   OH223222   5.509   6.288   1.918
 7760TIP3    H123223   5.500   6.206   1.869
 7760TIP3    H223224   5.502   6.356   1.851
 7761TIP3   OH223225   5.418   5.557   5.555
 7761TIP3    H123226   5.364   5.590   5.483
 7761TIP3    H223227   5.356   5.543   5.627
 7762TIP3   OH223228   3.917   5.657   4.682
 7762TIP3    H123229   3.972   5.581   4.701
 7762TIP3    H223230   3.980   5.729   4.673
 7763TIP3   OH223231   4.246   2.288   4.229
 7763TIP3    H123232   4.247   2.243   4.144
 7763TIP3    H223233   4.326   2.260   4.272
 7764TIP3   OH223234   0.450   2.076   5.954
 7764TIP3    H123235   0.489   2.084   5.867
 7764TIP3    H223236   0.355   2.075   5.938
 7765TIP3   OH223237   0.103   0.067   5.890
 7765TIP3    H123238   0.160  -0.006   5.866
 7765TIP3    H223239   0.018   0.046   5.852
 7766TIP3   OH223240   6.948   3.367   1.821
 7766TIP3    H123241   6.902   3.432   1.875
 7766TIP3    H223242   6.983   3.418   1.748
 7767TIP3   OH223243   4.634   5.581   4.267
 7767TIP3    H123244   4.718   5.558   4.306
 7767TIP3    H223245   4.618   5.671   4.296
 7768TIP3   OH223246   7.401   3.167   1.074
 7768TIP3    H123247   7.319   3.184   1.027
 7768TIP3    H223248   7.388   3.081   1.114
 7769TIP3   OH223249   2.878   1.609   2.758
 7769TIP3    H123250   2.810   1.654   2.810
 7769TIP3    H223251   2.847   1.519   2.751
 7770TIP3   OH223252   4.933   0.057   0.970
 7770TIP3    H123253   4.926   0.151   0.949
 7770TIP3    H223254   4.862   0.016   0.920
 7771TIP3   OH223255   3.709   7.363   5.490
 7771TIP3    H123256   3.701   7.444   5.540
 7771TIP3    H223257   3.664   7.380   5.407
 7772TIP3   OH223258   2.492   4.326   2.165
 7772TIP3    H123259   2.481   4.355   2.075
 7772TIP3    H223260   2.408   4.345   2.207
 7773TIP3   OH223261   6.649   1.281   6.105
 7773TIP3    H123262   6.727   1.319   6.064
 7773TIP3    H223263   6.631   1.338   6.179
 7774TIP3   OH223264   3.402   5.648   3.242
 7774TIP3    H123265   3.376   5.575   3.186
 7774TIP3    H223266   3.353   5.634   3.324
 7775TIP3   OH223267   5.967   1.873   3.019
 7775TIP3    H123268   6.036   1.861   2.955
 7775TIP3    H223269   6.004   1.933   3.084
 7776TIP3   OH223270   3.151   6.353   5.102
 7776TIP3    H123271   3.241   6.337   5.127
 7776TIP3    H223272   3.099   6.297   5.161
 7777TIP3   OH223273   5.343   3.197   5.125
 7777TIP3    H123274   5.325   3.113   5.167
 7777TIP3    H223275   5.300   3.262   5.181
 7778TIP3   OH223276   0.471   6.682   4.866
 7778TIP3    H123277   0.519   6.616   4.816
 7778TIP3    H223278   0.380   6.670   4.841
 7779TIP3   OH223279   5.372   2.066   2.709
 7779TIP3    H123280   5.319   1.988   2.693
 7779TIP3    H223281   5.415   2.050   2.793
 7780TIP3   OH223282   2.676   3.115   2.029
 7780TIP3    H123283   2.657   3.028   2.063
 7780TIP3    H223284   2.756   3.142   2.074
 7781TIP3   OH223285   1.665   4.363   2.414
 7781TIP3    H123286   1.709   4.307   2.477
 7781TIP3    H223287   1.622   4.430   2.467
 7782TIP3   OH223288   0.245   6.331   2.595
 7782TIP3    H123289   0.322   6.349   2.540
 7782TIP3    H223290   0.232   6.237   2.587
 7783TIP3   OH223291   6.965   1.003   2.552
 7783TIP3    H123292   6.923   1.062   2.615
 7783TIP3    H223293   6.986   1.058   2.477
 7784TIP3   OH223294   8.309   0.822   6.551
 7784TIP3    H123295   8.318   0.777   6.635
 7784TIP3    H223296   8.387   0.798   6.501
 7785TIP3   OH223297   6.930   1.939   2.072
 7785TIP3    H123298   6.886   1.874   2.127
 7785TIP3    H223299   7.012   1.897   2.046
 7786TIP3   OH223300   4.871   2.486   4.285
 7786TIP3    H123301   4.859   2.569   4.239
 7786TIP3    H223302   4.817   2.424   4.236
 7787TIP3   OH223303   0.093   2.432   0.316
 7787TIP3    H123304   0.157   2.431   0.245
 7787TIP3    H223305   0.145   2.434   0.396
 7788TIP3   OH223306   3.952   2.121   2.599
 7788TIP3    H123307   3.989   2.202   2.635
 7788TIP3    H223308   3.858   2.133   2.604
 7789TIP3   OH223309   4.479   1.794   5.608
 7789TIP3    H123310   4.414   1.729   5.636
 7789TIP3    H223311   4.457   1.873   5.658
 7790TIP3   OH223312   0.580   4.859   3.320
 7790TIP3    H123313   0.533   4.808   3.386
 7790TIP3    H223314   0.666   4.817   3.313
 7791TIP3   OH223315   4.836   5.688   2.819
 7791TIP3    H123316   4.774   5.751   2.856
 7791TIP3    H223317   4.868   5.730   2.739
 7792TIP3   OH223318   2.895   2.871   3.341
 7792TIP3    H123319   2.818   2.833   3.299
 7792TIP3    H223320   2.878   2.863   3.435
 7793TIP3   OH223321   6.967   4.204   6.125
 7793TIP3    H123322   6.881   4.212   6.083
 7793TIP3    H223323   6.961   4.121   6.174
 7794TIP3   OH223324   5.848   4.688   0.858
 7794TIP3    H123325   5.909   4.647   0.919
 7794TIP3    H223326   5.903   4.748   0.806
 7795TIP3   OH223327   0.401   3.231   6.040
 7795TIP3    H123328   0.487   3.194   6.020
 7795TIP3    H223329   0.370   3.268   5.957
 7796TIP3   OH223330   6.035   2.619   1.365
 7796TIP3    H123331   6.114   2.596   1.414
 7796TIP3    H223332   6.049   2.710   1.339
 7797TIP3   OH223333   4.505   3.647   2.157
 7797TIP3    H123334   4.515   3.700   2.236
 7797TIP3    H223335   4.588   3.600   2.149
 7798TIP3   OH223336   7.254   7.676   1.238
 7798TIP3    H123337   7.209   7.592   1.227
 7798TIP3    H223338   7.334   7.653   1.285
 7799TIP3   OH223339   1.730   2.640   4.486
 7799TIP3    H123340   1.803   2.700   4.500
 7799TIP3    H223341   1.734   2.580   4.561
 7800TIP3   OH223342   7.816   6.892  -0.021
 7800TIP3    H123343   7.850   6.856   0.061
 7800TIP3    H223344   7.727   6.858  -0.027
 7801TIP3   OH223345   4.393   6.802   3.036
 7801TIP3    H123346   4.472   6.850   3.061
 7801TIP3    H223347   4.383   6.735   3.103
 7802TIP3   OH223348   2.077   5.447   3.161
 7802TIP3    H123349   2.125   5.380   3.210
 7802TIP3    H223350   1.995   5.404   3.136
 7803TIP3   OH223351   0.751   7.466   3.176
 7803TIP3    H123352   0.679   7.499   3.123
 7803TIP3    H223353   0.728   7.492   3.266
 7804TIP3   OH223354   1.352   4.523   4.827
 7804TIP3    H123355   1.337   4.447   4.884
 7804TIP3    H223356   1.264   4.552   4.801
 7805TIP3   OH223357   3.883   2.529   6.045
 7805TIP3    H123358   3.830   2.563   5.973
 7805TIP3    H223359   3.872   2.594   6.115
 7806TIP3   OH223360   6.903   3.245   1.347
 7806TIP3    H123361   6.916   3.314   1.412
 7806TIP3    H223362   6.897   3.291   1.264
 7807TIP3   OH223363   4.234   5.984   5.130
 7807TIP3    H123364   4.308   6.046   5.134
 7807TIP3    H223365   4.162   6.031   5.172
 7808TIP3   OH223366   4.383   5.600   1.902
 7808TIP3    H123367   4.458   5.541   1.893
 7808TIP3    H223368   4.358   5.594   1.994
 7809TIP3   OH223369   5.283   5.664   6.179
 7809TIP3    H123370   5.318   5.709   6.103
 7809TIP3    H223371   5.224   5.598   6.142
 7810TIP3   OH223372   0.293   2.356   1.327
 7810TIP3    H123373   0.260   2.304   1.255
 7810TIP3    H223374   0.234   2.432   1.331
 7811TIP3   OH223375   6.356   1.241   5.435
 7811TIP3    H123376   6.310   1.324   5.448
 7811TIP3    H223377   6.384   1.244   5.343
 7812TIP3   OH223378   2.991   6.604   1.764
 7812TIP3    H123379   3.033   6.689   1.750
 7812TIP3    H223380   2.917   6.604   1.704
 7813TIP3   OH223381   1.204   7.704   5.008
 7813TIP3    H123382   1.212   7.786   5.057
 7813TIP3    H223383   1.293   7.684   4.980
 7814TIP3   OH223384   2.514   2.937   2.961
 7814TIP3    H123385   2.457   2.951   2.886
 7814TIP3    H223386   2.600   2.919   2.923
 7815TIP3   OH223387   2.479   0.113   4.811
 7815TIP3    H123388   2.424   0.105   4.889
 7815TIP3    H223389   2.418   0.137   4.741
 7816TIP3   OH223390   1.745   5.423   2.518
 7816TIP3    H123391   1.744   5.328   2.502
 7816TIP3    H223392   1.674   5.457   2.464
 7817TIP3   OH223393   7.772   1.108   4.927
 7817TIP3    H123394   7.753   1.094   4.834
 7817TIP3    H223395   7.700   1.067   4.973
 7818TIP3   OH223396   8.070   3.676   1.149
 7818TIP3    H123397   8.152   3.726   1.146
 7818TIP3    H223398   8.087   3.604   1.210
 7819TIP3   OH223399   2.243   1.544   1.059
 7819TIP3    H123400   2.270   1.483   0.990
 7819TIP3    H223401   2.220   1.487   1.133
 7820TIP3   OH223402   0.963   1.946   4.256
 7820TIP3    H123403   0.910   1.883   4.304
 7820TIP3    H223404   1.009   1.894   4.190
 7821TIP3   OH223405   3.990   7.288   2.409
 7821TIP3    H123406   3.921   7.324   2.354
 7821TIP3    H223407   4.053   7.359   2.420
 7822TIP3   OH223408   6.959   2.822   4.082
 7822TIP3    H123409   6.929   2.747   4.030
 7822TIP3    H223410   6.984   2.888   4.016
 7823TIP3   OH223411   5.923   5.968   0.611
 7823TIP3    H123412   6.004   6.015   0.633
 7823TIP3    H223413   5.925   5.962   0.515
 7824TIP3   OH223414   7.151   5.702   5.931
 7824TIP3    H123415   7.074   5.675   5.881
 7824TIP3    H223416   7.169   5.791   5.902
 7825TIP3   OH223417   3.884   2.555   4.070
 7825TIP3    H123418   3.867   2.508   4.152
 7825TIP3    H223419   3.816   2.522   4.010
 7826TIP3   OH223420   6.913   4.505   5.267
 7826TIP3    H123421   6.980   4.478   5.330
 7826TIP3    H223422   6.835   4.456   5.293
 7827TIP3   OH223423   7.954   3.853   1.508
 7827TIP3    H123424   7.955   3.817   1.597
 7827TIP3    H223425   7.927   3.945   1.519
 7828TIP3   OH223426   6.213   6.750   4.199
 7828TIP3    H123427   6.191   6.657   4.203
 7828TIP3    H223428   6.147   6.792   4.254
 7829TIP3   OH223429   2.458   1.977   6.453
 7829TIP3    H123430   2.453   2.015   6.541
 7829TIP3    H223431   2.506   1.895   6.466
 7830TIP3   OH223432   5.209   3.663   2.379
 7830TIP3    H123433   5.302   3.682   2.388
 7830TIP3    H223434   5.166   3.749   2.381
 7831TIP3   OH223435   5.078   3.554   1.898
 7831TIP3    H123436   5.172   3.550   1.912
 7831TIP3    H223437   5.049   3.633   1.944
 7832TIP3   OH223438   5.153   5.962   3.990
 7832TIP3    H123439   5.120   5.879   4.024
 7832TIP3    H223440   5.087   5.989   3.925
 7833TIP3   OH223441   3.429   7.583   4.433
 7833TIP3    H123442   3.509   7.543   4.399
 7833TIP3    H223443   3.449   7.676   4.441
 7834TIP3   OH223444   4.746   6.950   0.075
 7834TIP3    H123445   4.762   6.921  -0.015
 7834TIP3    H223446   4.664   6.907   0.100
 7835TIP3   OH223447   0.530   0.354   2.281
 7835TIP3    H123448   0.611   0.405   2.278
 7835TIP3    H223449   0.462   0.417   2.256
 7836TIP3   OH223450   3.653   3.676   0.298
 7836TIP3    H123451   3.686   3.764   0.282
 7836TIP3    H223452   3.558   3.686   0.300
 7837TIP3   OH223453   4.104   7.609   1.334
 7837TIP3    H123454   4.152   7.527   1.344
 7837TIP3    H223455   4.137   7.646   1.252
 7838TIP3   OH223456   2.644   3.353   6.360
 7838TIP3    H123457   2.708   3.325   6.295
 7838TIP3    H223458   2.563   3.308   6.335
 7839TIP3   OH223459   3.303   4.524   1.313
 7839TIP3    H123460   3.359   4.461   1.267
 7839TIP3    H223461   3.353   4.547   1.392
 7840TIP3   OH223462   4.810   6.669   5.646
 7840TIP3    H123463   4.853   6.630   5.722
 7840TIP3    H223464   4.766   6.747   5.680
 7841TIP3   OH223465   1.947   2.698   5.266
 7841TIP3    H123466   1.914   2.737   5.346
 7841TIP3    H223467   1.902   2.745   5.196
 7842TIP3   OH223468   6.110   7.763   3.558
 7842TIP3    H123469   6.196   7.762   3.516
 7842TIP3    H223470   6.089   7.671   3.571
 7843TIP3   OH223471   6.807   2.439   3.658
 7843TIP3    H123472   6.893   2.434   3.617
 7843TIP3    H223473   6.808   2.371   3.725
 7844TIP3   OH223474   0.036   6.028   3.645
 7844TIP3    H123475   0.104   6.088   3.613
 7844TIP3    H223476   0.083   5.965   3.699
 7845TIP3   OH223477   3.798   7.015   5.788
 7845TIP3    H123478   3.834   7.103   5.775
 7845TIP3    H223479   3.750   7.021   5.870
 7846TIP3   OH223480   4.030   5.240   0.772
 7846TIP3    H123481   4.077   5.162   0.743
 7846TIP3    H223482   4.076   5.267   0.852
 7847TIP3   OH223483   7.422   0.294   5.624
 7847TIP3    H123484   7.452   0.215   5.578
 7847TIP3    H223485   7.329   0.299   5.605
 7848TIP3   OH223486   7.008   0.266   0.750
 7848TIP3    H123487   7.079   0.245   0.690
 7848TIP3    H223488   7.035   0.348   0.792
 7849TIP3   OH223489   1.242   3.826   3.816
 7849TIP3    H123490   1.318   3.822   3.874
 7849TIP3    H223491   1.176   3.770   3.857
 7850TIP3   OH223492   4.230   2.443   1.847
 7850TIP3    H123493   4.205   2.386   1.920
 7850TIP3    H223494   4.148   2.457   1.799
 7851TIP3   OH223495   5.500   2.435   4.404
 7851TIP3    H123496   5.478   2.387   4.485
 7851TIP3    H223497   5.441   2.398   4.338
 7852TIP3   OH223498   3.544   5.773   4.431
 7852TIP3    H123499   3.487   5.784   4.507
 7852TIP3    H223500   3.609   5.708   4.460
 7853TIP3   OH223501   6.788   1.405   2.418
 7853TIP3    H123502   6.847   1.330   2.431
 7853TIP3    H223503   6.760   1.399   2.327
 7854TIP3   OH223504   6.780   5.516   2.730
 7854TIP3    H123505   6.861   5.464   2.727
 7854TIP3    H223506   6.733   5.491   2.650
 7855TIP3   OH223507   3.029   7.627   6.706
 7855TIP3    H123508   2.999   7.705   6.659
 7855TIP3    H223509   3.010   7.646   6.798
 7856TIP3   OH223510   2.946   6.149   6.630
 7856TIP3    H123511   3.008   6.076   6.620
 7856TIP3    H223512   2.921   6.173   6.541
 7857TIP3   OH223513   1.962   4.980   4.862
 7857TIP3    H123514   1.933   5.049   4.921
 7857TIP3    H223515   1.881   4.939   4.831
 7858TIP3   OH223516   4.274   1.641   5.260
 7858TIP3    H123517   4.197   1.675   5.214
 7858TIP3    H223518   4.251   1.551   5.282
 7859TIP3   OH223519   3.236   3.217   1.520
 7859TIP3    H123520   3.238   3.311   1.502
 7859TIP3    H223521   3.197   3.179   1.441
 7860TIP3   OH223522   5.012   3.679   5.677
 7860TIP3    H123523   5.100   3.666   5.642
 7860TIP3    H223524   4.986   3.765   5.646
 7861TIP3   OH223525   2.373   0.652   3.348
 7861TIP3    H123526   2.463   0.620   3.337
 7861TIP3    H223527   2.318   0.574   3.343
 7862TIP3   OH223528   7.339   4.433   6.439
 7862TIP3    H123529   7.386   4.350   6.428
 7862TIP3    H223530   7.405   4.494   6.472
 7863TIP3   OH223531   8.078   1.724   5.912
 7863TIP3    H123532   7.995   1.676   5.910
 7863TIP3    H223533   8.083   1.768   5.827
 7864TIP3   OH223534   7.311   5.116   2.592
 7864TIP3    H123535   7.276   5.050   2.653
 7864TIP3    H223536   7.399   5.085   2.571
 7865TIP3   OH223537   6.289   4.299   0.380
 7865TIP3    H123538   6.346   4.347   0.321
 7865TIP3    H223539   6.204   4.343   0.372
 7866TIP3   OH223540   2.609   2.907   0.062
 7866TIP3    H123541   2.575   2.818   0.059
 7866TIP3    H223542   2.606   2.931   0.155
 7867TIP3   OH223543   3.886   2.571   2.650
 7867TIP3    H123544   3.812   2.582   2.710
 7867TIP3    H223545   3.955   2.627   2.687
 7868TIP3   OH223546   4.748   4.947   6.365
 7868TIP3    H123547   4.794   4.871   6.329
 7868TIP3    H223548   4.789   4.961   6.450
 7869TIP3   OH223549   0.388   2.044   1.419
 7869TIP3    H123550   0.292   2.040   1.426
 7869TIP3    H223551   0.410   1.978   1.353
 7870TIP3   OH223552   2.031   6.296   2.486
 7870TIP3    H123553   2.081   6.214   2.484
 7870TIP3    H223554   2.079   6.351   2.548
 7871TIP3   OH223555   7.572   2.724   6.320
 7871TIP3    H123556   7.565   2.663   6.394
 7871TIP3    H223557   7.509   2.793   6.339
 7872TIP3   OH223558   6.243   1.779   0.846
 7872TIP3    H123559   6.299   1.756   0.772
 7872TIP3    H223560   6.164   1.815   0.806
 7873TIP3   OH223561   7.219   3.983   3.866
 7873TIP3    H123562   7.243   3.892   3.849
 7873TIP3    H223563   7.189   4.017   3.782
 7874TIP3   OH223564   3.797   0.913   5.506
 7874TIP3    H123565   3.773   0.928   5.414
 7874TIP3    H223566   3.860   0.840   5.502
 7875TIP3   OH223567   2.171   0.673   1.991
 7875TIP3    H123568   2.201   0.602   2.048
 7875TIP3    H223569   2.149   0.630   1.909
 7876TIP3   OH223570   3.493   6.486   4.006
 7876TIP3    H123571   3.430   6.520   3.942
 7876TIP3    H223572   3.475   6.536   4.085
 7877TIP3   OH223573   4.718   6.809   0.769
 7877TIP3    H123574   4.809   6.823   0.743
 7877TIP3    H223575   4.716   6.719   0.802
 7878TIP3   OH223576   0.493   7.777   3.932
 7878TIP3    H123577   0.568   7.807   3.881
 7878TIP3    H223578   0.479   7.687   3.902
 7879TIP3   OH223579   3.513   4.844   0.800
 7879TIP3    H123580   3.441   4.851   0.738
 7879TIP3    H223581   3.498   4.760   0.844
 7880TIP3   OH223582   4.157   6.219   3.934
 7880TIP3    H123583   4.187   6.309   3.925
 7880TIP3    H223584   4.121   6.197   3.848
 7881TIP3   OH223585   4.739   1.181   5.235
 7881TIP3    H123586   4.752   1.126   5.312
 7881TIP3    H223587   4.700   1.262   5.269
 7882TIP3   OH223588   5.883   1.813   3.568
 7882TIP3    H123589   5.959   1.841   3.517
 7882TIP3    H223590   5.817   1.791   3.503
 7883TIP3   OH223591   5.437   4.892   3.910
 7883TIP3    H123592   5.368   4.850   3.860
 7883TIP3    H223593   5.468   4.962   3.853
 7884TIP3   OH223594   1.667   3.760   0.909
 7884TIP3    H123595   1.609   3.766   0.986
 7884TIP3    H223596   1.667   3.667   0.887
 7885TIP3   OH223597   6.787   3.985   3.824
 7885TIP3    H123598   6.842   3.907   3.824
 7885TIP3    H223599   6.848   4.058   3.813
 7886TIP3   OH223600   4.407   1.539   4.768
 7886TIP3    H123601   4.332   1.592   4.740
 7886TIP3    H223602   4.418   1.474   4.699
 7887TIP3   OH223603   4.179   7.498   2.443
 7887TIP3    H123604   4.256   7.499   2.385
 7887TIP3    H223605   4.125   7.570   2.411
 7888TIP3   OH223606   1.684   4.354   0.016
 7888TIP3    H123607   1.715   4.293   0.083
 7888TIP3    H223608   1.695   4.441   0.055
 7889TIP3   OH223609   2.845   5.144   6.173
 7889TIP3    H123610   2.880   5.055   6.179
 7889TIP3    H223611   2.903   5.196   6.228
 7890TIP3   OH223612   0.382   0.215   3.738
 7890TIP3    H123613   0.450   0.261   3.786
 7890TIP3    H223614   0.301   0.236   3.785
 7891TIP3   OH223615   3.114   5.418   4.949
 7891TIP3    H123616   3.080   5.329   4.953
 7891TIP3    H223617   3.041   5.473   4.978
 7892TIP3   OH223618   4.663   3.588   3.624
 7892TIP3    H123619   4.694   3.517   3.566
 7892TIP3    H223620   4.616   3.647   3.565
 7893TIP3   OH223621   1.016   4.628   6.652
 7893TIP3    H123622   1.057   4.606   6.567
 7893TIP3    H223623   1.044   4.718   6.669
 7894TIP3   OH223624   2.581   7.427   2.356
 7894TIP3    H123625   2.607   7.399   2.268
 7894TIP3    H223626   2.508   7.370   2.379
 7895TIP3   OH223627   7.534   1.328   1.247
 7895TIP3    H123628   7.625   1.357   1.254
 7895TIP3    H223629   7.513   1.293   1.334
 7896TIP3   OH223630   7.681   1.160   1.473
 7896TIP3    H123631   7.729   1.077   1.474
 7896TIP3    H223632   7.721   1.211   1.403
 7897TIP3   OH223633   5.216   1.009   1.365
 7897TIP3    H123634   5.182   0.922   1.386
 7897TIP3    H223635   5.220   1.010   1.269
 7898TIP3   OH223636   2.987   4.923   3.390
 7898TIP3    H123637   2.921   4.989   3.371
 7898TIP3    H223638   2.948   4.841   3.360
 7899TIP3   OH223639   1.998   3.983   1.006
 7899TIP3    H123640   2.007   3.955   0.915
 7899TIP3    H223641   1.962   3.907   1.052
 7900TIP3   OH223642   1.766   4.052   0.188
 7900TIP3    H123643   1.759   3.957   0.190
 7900TIP3    H223644   1.697   4.083   0.246
 7901TIP3   OH223645   4.725   0.392   5.175
 7901TIP3    H123646   4.717   0.383   5.080
 7901TIP3    H223647   4.653   0.450   5.200
 7902TIP3   OH223648   0.646   6.562   0.406
 7902TIP3    H123649   0.736   6.534   0.420
 7902TIP3    H223650   0.635   6.562   0.311
 7903TIP3   OH223651   0.714   2.036   3.812
 7903TIP3    H123652   0.651   2.056   3.882
 7903TIP3    H223653   0.798   2.034   3.857
 7904TIP3   OH223654   7.937   7.180   2.045
 7904TIP3    H123655   7.954   7.236   1.969
 7904TIP3    H223656   7.941   7.091   2.010
 7905TIP3   OH223657   4.082   3.478   6.219
 7905TIP3    H123658   4.112   3.414   6.154
 7905TIP3    H223659   4.015   3.528   6.174
 7906TIP3   OH223660   3.752   6.833   0.272
 7906TIP3    H123661   3.687   6.883   0.320
 7906TIP3    H223662   3.764   6.753   0.322
 7907TIP3   OH223663   4.417   0.054   2.848
 7907TIP3    H123664   4.486  -0.007   2.823
 7907TIP3    H223665   4.453   0.101   2.923
 7908TIP3   OH223666   8.019   1.205   5.540
 7908TIP3    H123667   8.045   1.267   5.609
 7908TIP3    H223668   7.925   1.193   5.552
 7909TIP3   OH223669   5.433   7.064   5.683
 7909TIP3    H123670   5.428   7.153   5.649
 7909TIP3    H223671   5.442   7.009   5.605
 7910TIP3   OH223672   3.646   4.233   3.551
 7910TIP3    H123673   3.630   4.163   3.488
 7910TIP3    H223674   3.691   4.191   3.624
 7911TIP3   OH223675   1.205   2.480   3.903
 7911TIP3    H123676   1.219   2.406   3.962
 7911TIP3    H223677   1.289   2.525   3.899
 7912TIP3   OH223678   0.563   4.847   5.371
 7912TIP3    H123679   0.524   4.850   5.283
 7912TIP3    H223680   0.538   4.931   5.411
 7913TIP3   OH223681   5.549   0.891   0.752
 7913TIP3    H123682   5.483   0.951   0.786
 7913TIP3    H223683   5.538   0.895   0.657
 7914TIP3   OH223684   4.641   5.366   5.299
 7914TIP3    H123685   4.666   5.419   5.223
 7914TIP3    H223686   4.634   5.430   5.371
 7915TIP3   OH223687   6.430   4.290   3.740
 7915TIP3    H123688   6.498   4.224   3.725
 7915TIP3    H223689   6.470   4.372   3.712
 7916TIP3   OH223690   4.378   5.089   3.870
 7916TIP3    H123691   4.353   5.037   3.793
 7916TIP3    H223692   4.472   5.100   3.862
 7917TIP3   OH223693   7.577   0.055   0.945
 7917TIP3    H123694   7.572  -0.021   0.887
 7917TIP3    H223695   7.588   0.130   0.885
 7918TIP3   OH223696   0.823   5.808   2.151
 7918TIP3    H123697   0.914   5.785   2.136
 7918TIP3    H223698   0.790   5.837   2.066
 7919TIP3   OH223699   0.890   4.943   6.788
 7919TIP3    H123700   0.953   4.957   6.859
 7919TIP3    H223701   0.943   4.946   6.708
 7920TIP3   OH223702   2.609   3.803   1.647
 7920TIP3    H123703   2.528   3.762   1.618
 7920TIP3    H223704   2.671   3.731   1.655
 7921TIP3   OH223705   0.037   7.369   2.784
 7921TIP3    H123706   0.060   7.460   2.770
 7921TIP3    H223707   0.079   7.346   2.867
 7922TIP3   OH223708   7.069   6.575   5.965
 7922TIP3    H123709   7.010   6.500   5.976
 7922TIP3    H223710   7.052   6.631   6.041
 7923TIP3   OH223711   2.381   6.712   6.430
 7923TIP3    H123712   2.418   6.781   6.374
 7923TIP3    H223713   2.399   6.631   6.383
 7924TIP3   OH223714   2.671   6.699   0.990
 7924TIP3    H123715   2.736   6.710   0.922
 7924TIP3    H223716   2.718   6.716   1.072
 7925TIP3   OH223717   4.654   4.826   1.257
 7925TIP3    H123718   4.749   4.841   1.264
 7925TIP3    H223719   4.637   4.754   1.318
 7926TIP3   OH223720   5.467   2.037   2.990
 7926TIP3    H123721   5.536   2.020   3.054
 7926TIP3    H223722   5.395   2.073   3.042
 7927TIP3   OH223723   0.296   1.077   1.076
 7927TIP3    H123724   0.293   1.032   0.991
 7927TIP3    H223725   0.270   1.167   1.056
 7928TIP3   OH223726   5.985   4.785   4.772
 7928TIP3    H123727   5.912   4.752   4.825
 7928TIP3    H223728   5.983   4.880   4.784
 7929TIP3   OH223729   8.050   6.180   1.376
 7929TIP3    H123730   8.000   6.101   1.393
 7929TIP3    H223731   7.994   6.252   1.406
 7930TIP3   OH223732   4.300   6.817   4.011
 7930TIP3    H123733   4.352   6.749   4.055
 7930TIP3    H223734   4.363   6.886   3.990
 7931TIP3   OH223735   5.993   7.550   2.297
 7931TIP3    H123736   5.962   7.638   2.273
 7931TIP3    H223737   5.931   7.491   2.256
 7932TIP3   OH223738   7.662   4.018   2.445
 7932TIP3    H123739   7.570   4.043   2.438
 7932TIP3    H223740   7.672   3.948   2.380
 7933TIP3   OH223741   1.555   6.332   0.492
 7933TIP3    H123742   1.560   6.422   0.522
 7933TIP3    H223743   1.637   6.292   0.520
 7934TIP3   OH223744   1.846   1.363   3.269
 7934TIP3    H123745   1.927   1.350   3.219
 7934TIP3    H223746   1.839   1.286   3.325
 7935TIP3   OH223747   3.850   1.400   3.283
 7935TIP3    H123748   3.782   1.333   3.279
 7935TIP3    H223749   3.908   1.372   3.354
 7936TIP3   OH223750   7.554   2.066   0.384
 7936TIP3    H123751   7.509   2.028   0.308
 7936TIP3    H223752   7.560   2.159   0.364
 7937TIP3   OH223753   0.024   6.285   6.439
 7937TIP3    H123754   0.072   6.366   6.423
 7937TIP3    H223755   0.063   6.248   6.518
 7938TIP3   OH223756   1.418   3.575   4.246
 7938TIP3    H123757   1.502   3.603   4.284
 7938TIP3    H223758   1.415   3.480   4.260
 7939TIP3   OH223759   0.803   3.706   5.358
 7939TIP3    H123760   0.867   3.728   5.425
 7939TIP3    H223761   0.780   3.790   5.318
 7940TIP3   OH223762   4.118   1.564   6.183
 7940TIP3    H123763   4.119   1.506   6.107
 7940TIP3    H223764   4.061   1.520   6.246
 7941TIP3   OH223765   7.364   4.098   4.895
 7941TIP3    H123766   7.313   4.172   4.928
 7941TIP3    H223767   7.309   4.021   4.912
 7942TIP3   OH223768   6.725   7.097   2.210
 7942TIP3    H123769   6.795   7.033   2.225
 7942TIP3    H223770   6.683   7.107   2.295
 7943TIP3   OH223771   7.630   4.063   6.593
 7943TIP3    H123772   7.626   4.124   6.667
 7943TIP3    H223773   7.723   4.051   6.577
 7944TIP3   OH223774   6.551   3.316   2.830
 7944TIP3    H123775   6.464   3.350   2.849
 7944TIP3    H223776   6.584   3.373   2.760
 7945TIP3   OH223777   5.297   1.156   1.699
 7945TIP3    H123778   5.287   1.104   1.778
 7945TIP3    H223779   5.223   1.217   1.701
 7946TIP3   OH223780   6.688   5.965   2.482
 7946TIP3    H123781   6.772   6.009   2.493
 7946TIP3    H223782   6.625   6.021   2.527
 7947TIP3   OH223783   1.945   1.617   4.382
 7947TIP3    H123784   1.933   1.659   4.467
 7947TIP3    H223785   1.892   1.537   4.386
 7948TIP3   OH223786   7.091   1.624   2.108
 7948TIP3    H123787   7.102   1.642   2.201
 7948TIP3    H223788   7.167   1.664   2.066
 7949TIP3   OH223789   3.502   0.574   0.648
 7949TIP3    H123790   3.573   0.587   0.710
 7949TIP3    H223791   3.461   0.492   0.676
 7950TIP3   OH223792   0.866   0.427   0.946
 7950TIP3    H123793   0.780   0.429   0.988
 7950TIP3    H223794   0.901   0.515   0.957
 7951TIP3   OH223795   2.974   5.328   1.534
 7951TIP3    H123796   3.055   5.374   1.558
 7951TIP3    H223797   2.998   5.276   1.458
 7952TIP3   OH223798   7.568   5.761   2.528
 7952TIP3    H123799   7.645   5.776   2.473
 7952TIP3    H223800   7.504   5.721   2.470
 7953TIP3   OH223801   7.926   4.439   3.616
 7953TIP3    H123802   7.941   4.383   3.540
 7953TIP3    H223803   7.857   4.396   3.666
 7954TIP3   OH223804   1.961   5.441   1.352
 7954TIP3    H123805   1.925   5.465   1.266
 7954TIP3    H223806   1.905   5.369   1.381
 7955TIP3   OH223807   5.906   0.098   0.330
 7955TIP3    H123808   5.994   0.131   0.308
 7955TIP3    H223809   5.847   0.165   0.298
 7956TIP3   OH223810   7.035   7.364   3.875
 7956TIP3    H123811   7.007   7.377   3.784
 7956TIP3    H223812   6.993   7.282   3.901
 7957TIP3   OH223813   4.225   2.356   3.303
 7957TIP3    H123814   4.299   2.411   3.326
 7957TIP3    H223815   4.261   2.268   3.295
 7958TIP3   OH223816   6.926   6.276   4.469
 7958TIP3    H123817   6.832   6.288   4.476
 7958TIP3    H223818   6.963   6.340   4.531
 7959TIP3   OH223819   2.326   4.100   1.864
 7959TIP3    H123820   2.293   4.082   1.776
 7959TIP3    H223821   2.347   4.014   1.901
 7960TIP3   OH223822   3.799   4.277   0.958
 7960TIP3    H123823   3.840   4.346   1.011
 7960TIP3    H223824   3.809   4.198   1.011
 7961TIP3   OH223825   0.332   5.454   6.318
 7961TIP3    H123826   0.242   5.446   6.287
 7961TIP3    H223827   0.366   5.531   6.275
 7962TIP3   OH223828   0.131   3.597   1.903
 7962TIP3    H123829   0.096   3.601   1.992
 7962TIP3    H223830   0.056   3.571   1.849
 7963TIP3   OH223831   7.535   1.923   3.974
 7963TIP3    H123832   7.544   1.915   3.879
 7963TIP3    H223833   7.621   1.953   4.004
 7964TIP3   OH223834   0.826   1.655   0.591
 7964TIP3    H123835   0.804   1.722   0.526
 7964TIP3    H223836   0.922   1.655   0.594
 7965TIP3   OH223837   3.436   3.291   5.834
 7965TIP3    H123838   3.459   3.374   5.793
 7965TIP3    H223839   3.474   3.225   5.777
 7966TIP3   OH223840   5.384   7.130   6.264
 7966TIP3    H123841   5.295   7.102   6.245
 7966TIP3    H223842   5.437   7.051   6.252
 7967TIP3   OH223843   3.819   0.996   2.668
 7967TIP3    H123844   3.826   0.909   2.627
 7967TIP3    H223845   3.877   1.051   2.616
 7968TIP3   OH223846   2.489   2.164   1.435
 7968TIP3    H123847   2.535   2.087   1.470
 7968TIP3    H223848   2.559   2.223   1.407
 7969TIP3   OH223849   3.416   1.633   0.790
 7969TIP3    H123850   3.344   1.677   0.744
 7969TIP3    H223851   3.492   1.689   0.774
 7970TIP3   OH223852   1.268   4.932   2.157
 7970TIP3    H123853   1.281   4.952   2.250
 7970TIP3    H223854   1.295   5.012   2.111
 7971TIP3   OH223855   5.205   4.592   0.102
 7971TIP3    H123856   5.232   4.505   0.129
 7971TIP3    H223857   5.236   4.600   0.011
 7972TIP3   OH223858   2.213   5.799   0.913
 7972TIP3    H123859   2.186   5.804   1.005
 7972TIP3    H223860   2.247   5.887   0.893
 7973TIP3   OH223861   6.193   3.967   3.496
 7973TIP3    H123862   6.271   3.936   3.449
 7973TIP3    H223863   6.120   3.931   3.446
 7974TIP3   OH223864   5.259   2.940   2.129
 7974TIP3    H123865   5.277   2.868   2.190
 7974TIP3    H223866   5.229   3.012   2.185
 7975TIP3   OH223867   3.237   1.860   3.208
 7975TIP3    H123868   3.172   1.804   3.249
 7975TIP3    H223869   3.313   1.856   3.267
 7976TIP3   OH223870   2.065   6.040   0.455
 7976TIP3    H123871   2.007   6.041   0.531
 7976TIP3    H223872   2.052   5.953   0.416
 7977TIP3   OH223873   2.756   5.080   5.927
 7977TIP3    H123874   2.780   5.102   6.017
 7977TIP3    H223875   2.663   5.055   5.932
 7978TIP3   OH223876   0.933   7.075   4.896
 7978TIP3    H123877   0.956   7.149   4.953
 7978TIP3    H223878   0.905   7.116   4.814
 7979TIP3   OH223879   2.760   6.022   0.443
 7979TIP3    H123880   2.669   6.020   0.412
 7979TIP3    H223881   2.752   6.027   0.538
 7980TIP3   OH223882   1.620   3.589   0.681
 7980TIP3    H123883   1.708   3.568   0.712
 7980TIP3    H223884   1.562   3.558   0.751
 7981TIP3   OH223885   2.079   3.262   6.749
 7981TIP3    H123886   2.036   3.176   6.758
 7981TIP3    H223887   2.134   3.253   6.671
 7982TIP3   OH223888   6.452   3.130   0.179
 7982TIP3    H123889   6.503   3.113   0.259
 7982TIP3    H223890   6.456   3.049   0.129
 7983TIP3   OH223891   1.027   2.086   4.486
 7983TIP3    H123892   1.007   2.039   4.405
 7983TIP3    H223893   1.004   2.177   4.466
 7984TIP3   OH223894   1.655   5.754   6.252
 7984TIP3    H123895   1.696   5.671   6.277
 7984TIP3    H223896   1.617   5.736   6.166
 7985TIP3   OH223897   1.167   4.253   3.245
 7985TIP3    H123898   1.193   4.288   3.159
 7985TIP3    H223899   1.071   4.248   3.240
 7986TIP3   OH223900   7.211   4.998   2.816
 7986TIP3    H123901   7.222   4.977   2.908
 7986TIP3    H223902   7.116   5.006   2.804
 7987TIP3   OH223903   7.792   5.493   6.232
 7987TIP3    H123904   7.750   5.551   6.295
 7987TIP3    H223905   7.773   5.405   6.263
 7988TIP3   OH223906   1.153   3.102   2.595
 7988TIP3    H123907   1.185   3.191   2.581
 7988TIP3    H223908   1.209   3.047   2.541
 7989TIP3   OH223909   2.204   0.938   4.225
 7989TIP3    H123910   2.206   1.000   4.298
 7989TIP3    H223911   2.274   0.966   4.167
 7990TIP3   OH223912   1.539   7.584   3.580
 7990TIP3    H123913   1.497   7.643   3.518
 7990TIP3    H223914   1.471   7.519   3.601
 7991TIP3   OH223915   1.729   2.073   3.231
 7991TIP3    H123916   1.714   2.027   3.149
 7991TIP3    H223917   1.690   2.159   3.218
 7992TIP3   OH223918   1.036   4.100   3.882
 7992TIP3    H123919   0.949   4.091   3.919
 7992TIP3    H223920   1.095   4.090   3.957
 7993TIP3   OH223921   7.851   7.637   5.665
 7993TIP3    H123922   7.821   7.586   5.740
 7993TIP3    H223923   7.925   7.587   5.631
 7994TIP3   OH223924   7.646   5.124   4.302
 7994TIP3    H123925   7.578   5.187   4.326
 7994TIP3    H223926   7.651   5.064   4.376
 7995TIP3   OH223927   8.096   2.264   2.310
 7995TIP3    H123928   8.019   2.289   2.259
 7995TIP3    H223929   8.107   2.335   2.374
 7996TIP3   OH223930   5.715   3.217   3.813
 7996TIP3    H123931   5.799   3.192   3.776
 7996TIP3    H223932   5.725   3.311   3.831
 7997TIP3   OH223933   0.251   2.219   5.487
 7997TIP3    H123934   0.267   2.133   5.447
 7997TIP3    H223935   0.156   2.224   5.495
 7998TIP3   OH223936   0.211   5.486   6.048
 7998TIP3    H123937   0.284   5.430   6.020
 7998TIP3    H223938   0.236   5.573   6.018
 7999TIP3   OH223939   7.573   3.020   1.292
 7999TIP3    H123940   7.567   2.927   1.267
 7999TIP3    H223941   7.614   3.019   1.378
 8000TIP3   OH223942   1.982   2.120   6.051
 8000TIP3    H123943   1.915   2.175   6.010
 8000TIP3    H223944   1.941   2.089   6.133
 8001TIP3   OH223945   5.025   4.540   2.531
 8001TIP3    H123946   5.061   4.626   2.555
 8001TIP3    H223947   4.989   4.553   2.444
 8002TIP3   OH223948   1.183   6.409   1.862
 8002TIP3    H123949   1.249   6.394   1.794
 8002TIP3    H223950   1.167   6.323   1.899
 8003TIP3   OH223951   1.572   4.523   1.486
 8003TIP3    H123952   1.626   4.543   1.562
 8003TIP3    H223953   1.515   4.599   1.476
 8004TIP3   OH223954   4.708   4.395   0.228
 8004TIP3    H123955   4.646   4.458   0.265
 8004TIP3    H223956   4.792   4.441   0.232
 8005TIP3   OH223957   6.755   0.956   4.462
 8005TIP3    H123958   6.711   0.938   4.379
 8005TIP3    H223959   6.725   1.044   4.486
 8006TIP3   OH223960   3.541   7.039   6.763
 8006TIP3    H123961   3.603   7.092   6.711
 8006TIP3    H223962   3.526   7.092   6.841
 8007TIP3   OH223963  -0.009   2.322   5.859
 8007TIP3    H123964  -0.029   2.232   5.834
 8007TIP3    H223965   0.079   2.337   5.824
 8008TIP3   OH223966   1.289   4.268   1.516
 8008TIP3    H123967   1.252   4.348   1.552
 8008TIP3    H223968   1.384   4.279   1.527
 8009TIP3   OH223969   6.261   1.362   6.059
 8009TIP3    H123970   6.267   1.322   5.973
 8009TIP3    H223971   6.175   1.336   6.092
 8010TIP3   OH223972   6.462   3.021   2.825
 8010TIP3    H123973   6.531   3.087   2.834
 8010TIP3    H223974   6.505   2.939   2.848
 8011TIP3   OH223975   4.183   2.851   4.655
 8011TIP3    H123976   4.237   2.856   4.577
 8011TIP3    H223977   4.094   2.868   4.624
 8012TIP3   OH223978   3.928   0.191   6.767
 8012TIP3    H123979   4.009   0.222   6.727
 8012TIP3    H223980   3.860   0.250   6.733
 8013TIP3   OH223981   0.899   3.558   0.618
 8013TIP3    H123982   0.860   3.590   0.699
 8013TIP3    H223983   0.964   3.625   0.595
 8014TIP3   OH223984   3.658   5.442   1.741
 8014TIP3    H123985   3.668   5.534   1.768
 8014TIP3    H223986   3.717   5.394   1.800
 8015TIP3   OH223987   2.881   2.421   4.927
 8015TIP3    H123988   2.795   2.429   4.886
 8015TIP3    H223989   2.910   2.512   4.938
 8016TIP3   OH223990   3.932   3.696   2.045
 8016TIP3    H123991   3.948   3.629   1.978
 8016TIP3    H223992   3.839   3.688   2.066
 8017TIP3   OH223993   7.045   6.763   1.030
 8017TIP3    H123994   6.996   6.841   1.057
 8017TIP3    H223995   6.977   6.699   1.010
 8018TIP3   OH223996   5.723   6.857   2.593
 8018TIP3    H123997   5.667   6.802   2.647
 8018TIP3    H223998   5.663   6.898   2.530
 8019TIP3   OH223999   7.607   4.648   4.737
 8019TIP3    H124000   7.563   4.643   4.652
 8019TIP3    H224001   7.569   4.575   4.787
 8020TIP3   OH224002   0.958   5.023   5.054
 8020TIP3    H124003   0.929   4.968   5.127
 8020TIP3    H224004   1.015   4.967   5.002
 8021TIP3   OH224005   7.134   1.374   5.467
 8021TIP3    H124006   7.081   1.454   5.474
 8021TIP3    H224007   7.172   1.379   5.379
 8022TIP3   OH224008   6.108   5.615   4.396
 8022TIP3    H124009   6.089   5.688   4.454
 8022TIP3    H224010   6.036   5.615   4.333
 8023TIP3   OH224011   0.670   3.457   0.223
 8023TIP3    H124012   0.765   3.471   0.220
 8023TIP3    H224013   0.634   3.522   0.162
 8024TIP3   OH224014   7.783   5.946   6.433
 8024TIP3    H124015   7.835   5.888   6.379
 8024TIP3    H224016   7.696   5.945   6.393
 8025TIP3   OH224017   5.792   5.579   0.312
 8025TIP3    H124018   5.788   5.526   0.392
 8025TIP3    H224019   5.809   5.668   0.343
 8026TIP3   OH224020   1.561   1.902   5.554
 8026TIP3    H124021   1.467   1.918   5.541
 8026TIP3    H224022   1.597   1.898   5.466
 8027TIP3   OH224023   5.762   1.508   6.097
 8027TIP3    H124024   5.757   1.593   6.142
 8027TIP3    H224025   5.854   1.498   6.074
 8028TIP3   OH224026   5.278   4.594   5.601
 8028TIP3    H124027   5.237   4.654   5.663
 8028TIP3    H224028   5.229   4.606   5.520
 8029TIP3   OH224029   1.137   2.206   3.068
 8029TIP3    H124030   1.164   2.184   3.158
 8029TIP3    H224031   1.165   2.296   3.056
 8030TIP3   OH224032   3.526   0.461   2.237
 8030TIP3    H124033   3.498   0.544   2.274
 8030TIP3    H224034   3.516   0.398   2.308
 8031TIP3   OH224035   3.656   3.700   6.556
 8031TIP3    H124036   3.711   3.661   6.488
 8031TIP3    H224037   3.706   3.688   6.637
 8032TIP3   OH224038   0.211   6.649   5.049
 8032TIP3    H124039   0.174   6.737   5.048
 8032TIP3    H224040   0.178   6.608   4.969
 8033TIP3   OH224041   2.234   0.249   1.961
 8033TIP3    H124042   2.172   0.299   2.014
 8033TIP3    H224043   2.180   0.186   1.914
 8034TIP3   OH224044   4.957   3.960   6.244
 8034TIP3    H124045   4.975   4.036   6.299
 8034TIP3    H224046   5.026   3.962   6.177
 8035TIP3   OH224047   8.233   4.963   5.252
 8035TIP3    H124048   8.141   4.938   5.256
 8035TIP3    H224049   8.259   4.975   5.343
 8036TIP3   OH224050   5.651   5.415   4.262
 8036TIP3    H124051   5.717   5.376   4.319
 8036TIP3    H224052   5.619   5.491   4.310
 8037TIP3   OH224053   1.700   5.792   1.851
 8037TIP3    H124054   1.691   5.847   1.929
 8037TIP3    H224055   1.795   5.781   1.840
 8038TIP3   OH224056   5.289   3.144   4.200
 8038TIP3    H124057   5.310   3.235   4.179
 8038TIP3    H224058   5.267   3.146   4.294
 8039TIP3   OH224059   0.336   0.708   5.129
 8039TIP3    H124060   0.318   0.768   5.201
 8039TIP3    H224061   0.258   0.712   5.074
 8040TIP3   OH224062   0.695   3.335   4.394
 8040TIP3    H124063   0.667   3.269   4.456
 8040TIP3    H224064   0.789   3.321   4.384
 8041TIP3   OH224065   8.262   7.002   3.295
 8041TIP3    H124066   8.285   7.093   3.314
 8041TIP3    H224067   8.345   6.954   3.300
 8042TIP3   OH224068   5.561   6.312   2.293
 8042TIP3    H124069   5.545   6.358   2.376
 8042TIP3    H224070   5.499   6.351   2.232
 8043TIP3   OH224071   2.028   5.793   2.782
 8043TIP3    H124072   2.037   5.781   2.877
 8043TIP3    H224073   2.026   5.705   2.747
 8044TIP3   OH224074   2.905   4.994   2.051
 8044TIP3    H124075   2.824   4.982   2.001
 8044TIP3    H224076   2.883   4.964   2.140
 8045TIP3   OH224077   2.929   4.546   6.776
 8045TIP3    H124078   2.934   4.619   6.839
 8045TIP3    H224079   2.989   4.571   6.706
 8046TIP3   OH224080   4.607   3.570   0.054
 8046TIP3    H124081   4.622   3.564  -0.041
 8046TIP3    H224082   4.694   3.584   0.091
 8047TIP3   OH224083   7.992   7.439   4.906
 8047TIP3    H124084   8.063   7.397   4.857
 8047TIP3    H224085   8.033   7.470   4.986
 8048TIP3   OH224086   0.969   3.695   4.517
 8048TIP3    H124087   0.925   3.721   4.597
 8048TIP3    H224088   1.062   3.704   4.536
 8049TIP3   OH224089   2.687   2.391   1.358
 8049TIP3    H124090   2.646   2.475   1.379
 8049TIP3    H224091   2.742   2.372   1.435
 8050TIP3   OH224092   5.074   5.730   6.507
 8050TIP3    H124093   5.004   5.668   6.486
 8050TIP3    H224094   5.038   5.785   6.576
 8051TIP3   OH224095   4.196   7.108   5.579
 8051TIP3    H124096   4.196   7.050   5.503
 8051TIP3    H224097   4.157   7.190   5.547
 8052TIP3   OH224098   4.981   0.739   0.591
 8052TIP3    H124099   4.980   0.835   0.588
 8052TIP3    H224100   5.015   0.712   0.506
 8053TIP3   OH224101   0.944   4.270   0.949
 8053TIP3    H124102   0.944   4.243   1.040
 8053TIP3    H224103   0.938   4.365   0.951
 8054TIP3   OH224104   7.457   4.224   3.122
 8054TIP3    H124105   7.410   4.308   3.123
 8054TIP3    H224106   7.535   4.241   3.070
 8055TIP3   OH224107   5.876   2.735   6.546
 8055TIP3    H124108   5.899   2.725   6.639
 8055TIP3    H224109   5.829   2.654   6.525
 8056TIP3   OH224110   5.946   4.198   3.347
 8056TIP3    H124111   5.910   4.114   3.318
 8056TIP3    H224112   5.909   4.262   3.286
 8057TIP3   OH224113   4.123   3.982   3.821
 8057TIP3    H124114   4.143   3.943   3.736
 8057TIP3    H224115   4.118   3.908   3.881
 8058TIP3   OH224116   4.554   4.465   3.688
 8058TIP3    H124117   4.554   4.407   3.612
 8058TIP3    H224118   4.638   4.448   3.731
 8059TIP3   OH224119   1.348   1.169   1.545
 8059TIP3    H124120   1.421   1.115   1.515
 8059TIP3    H224121   1.307   1.118   1.614
 8060TIP3   OH224122   1.793   6.523   0.298
 8060TIP3    H124123   1.846   6.594   0.261
 8060TIP3    H224124   1.855   6.450   0.307
 8061TIP3   OH224125   6.947   1.521   4.006
 8061TIP3    H124126   6.897   1.487   4.080
 8061TIP3    H224127   6.911   1.475   3.930
 8062TIP3   OH224128   6.186   6.509   2.711
 8062TIP3    H124129   6.137   6.519   2.630
 8062TIP3    H224130   6.128   6.545   2.778
 8063TIP3   OH224131   2.776   0.478   5.475
 8063TIP3    H124132   2.741   0.566   5.485
 8063TIP3    H224133   2.712   0.433   5.420
 8064TIP3   OH224134   3.051   4.959   1.654
 8064TIP3    H124135   3.134   4.994   1.620
 8064TIP3    H224136   3.052   4.866   1.630
 8065TIP3   OH224137   5.998   4.478   3.741
 8065TIP3    H124138   5.937   4.543   3.706
 8065TIP3    H224139   5.970   4.395   3.702
 8066TIP3   OH224140   4.156   3.552   5.690
 8066TIP3    H124141   4.186   3.475   5.641
 8066TIP3    H224142   4.062   3.558   5.672
 8067TIP3   OH224143   5.798   1.086   0.598
 8067TIP3    H124144   5.724   1.040   0.559
 8067TIP3    H224145   5.861   1.017   0.617
 8068TIP3   OH224146   3.479   6.979   3.895
 8068TIP3    H124147   3.477   7.069   3.927
 8068TIP3    H224148   3.557   6.975   3.839
 8069TIP3   OH224149   5.573   1.819   6.596
 8069TIP3    H124150   5.592   1.902   6.640
 8069TIP3    H224151   5.492   1.789   6.637
 8070TIP3   OH224152   0.406   4.180   2.584
 8070TIP3    H124153   0.440   4.183   2.495
 8070TIP3    H224154   0.348   4.103   2.586
 8071TIP3   OH224155   0.908   3.219   5.335
 8071TIP3    H124156   0.992   3.245   5.297
 8071TIP3    H224157   0.869   3.301   5.365
 8072TIP3   OH224158   3.500   7.493   0.450
 8072TIP3    H124159   3.459   7.406   0.455
 8072TIP3    H224160   3.556   7.497   0.527
 8073TIP3   OH224161   2.300   4.737   1.333
 8073TIP3    H124162   2.332   4.688   1.409
 8073TIP3    H224163   2.205   4.724   1.334
 8074TIP3   OH224164   4.167   1.129   1.170
 8074TIP3    H124165   4.170   1.082   1.253
 8074TIP3    H224166   4.135   1.065   1.107
 8075TIP3   OH224167   4.053   7.271   3.921
 8075TIP3    H124168   4.116   7.207   3.953
 8075TIP3    H224169   4.046   7.253   3.827
 8076TIP3   OH224170   0.094   6.686   3.017
 8076TIP3    H124171   0.009   6.701   2.975
 8076TIP3    H224172   0.082   6.722   3.106
 8077TIP3   OH224173   6.064   3.400   0.887
 8077TIP3    H124174   6.135   3.343   0.857
 8077TIP3    H224175   6.108   3.479   0.918
 8078TIP3   OH224176   4.253   2.144   1.943
 8078TIP3    H124177   4.193   2.212   1.975
 8078TIP3    H224178   4.229   2.066   1.992
 8079TIP3   OH224179   7.071   3.690   1.468
 8079TIP3    H124180   7.086   3.767   1.413
 8079TIP3    H224181   7.156   3.668   1.504
 8080TIP3   OH224182   3.086   4.062   1.679
 8080TIP3    H124183   3.068   4.111   1.599
 8080TIP3    H224184   3.015   4.086   1.739
 8081TIP3   OH224185   5.677   2.294   0.657
 8081TIP3    H124186   5.770   2.316   0.652
 8081TIP3    H224187   5.636   2.343   0.586
 8082TIP3   OH224188   7.254   2.817   2.426
 8082TIP3    H124189   7.162   2.797   2.446
 8082TIP3    H224190   7.250   2.872   2.347
 8083TIP3   OH224191   3.662   6.648   6.385
 8083TIP3    H124192   3.740   6.594   6.373
 8083TIP3    H224193   3.589   6.591   6.361
 8084TIP3   OH224194   3.295   6.190   6.289
 8084TIP3    H124195   3.260   6.159   6.205
 8084TIP3    H224196   3.385   6.217   6.269
 8085TIP3   OH224197   7.577   7.669   6.241
 8085TIP3    H124198   7.525   7.599   6.201
 8085TIP3    H224199   7.552   7.669   6.333
 8086TIP3   OH224200   5.403   7.545   4.421
 8086TIP3    H124201   5.487   7.562   4.464
 8086TIP3    H224202   5.337   7.572   4.485
 8087TIP3   OH224203   6.932   6.021   4.390
 8087TIP3    H124204   6.907   5.956   4.456
 8087TIP3    H224205   6.913   6.105   4.430
 8088TIP3   OH224206   7.425   7.055   6.707
 8088TIP3    H124207   7.505   7.087   6.747
 8088TIP3    H224208   7.454   6.989   6.644
 8089TIP3   OH224209   7.966   6.268   5.427
 8089TIP3    H124210   7.975   6.198   5.362
 8089TIP3    H224211   8.027   6.243   5.497
 8090TIP3   OH224212   2.250   5.135   3.117
 8090TIP3    H124213   2.252   5.171   3.205
 8090TIP3    H224214   2.292   5.049   3.125
 8091TIP3   OH224215   8.015   5.328   2.393
 8091TIP3    H124216   8.066   5.409   2.384
 8091TIP3    H224217   7.946   5.335   2.328
 8092TIP3   OH224218   7.850   2.593   5.960
 8092TIP3    H124219   7.905   2.646   5.902
 8092TIP3    H224220   7.814   2.656   6.023
 8093TIP3   OH224221   0.791   3.351   6.227
 8093TIP3    H124222   0.797   3.365   6.132
 8093TIP3    H224223   0.879   3.326   6.253
 8094TIP3   OH224224   6.624   3.630   0.326
 8094TIP3    H124225   6.684   3.702   0.309
 8094TIP3    H224226   6.538   3.671   0.337
 8095TIP3   OH224227   4.466   6.629   4.430
 8095TIP3    H124228   4.436   6.657   4.343
 8095TIP3    H224229   4.425   6.544   4.443
 8096TIP3   OH224230   6.224   0.884   2.690
 8096TIP3    H124231   6.312   0.914   2.712
 8096TIP3    H224232   6.181   0.873   2.775
 8097TIP3   OH224233   2.808   7.564   0.294
 8097TIP3    H124234   2.797   7.608   0.378
 8097TIP3    H224235   2.895   7.590   0.264
 8098TIP3   OH224236   5.334   6.041   6.349
 8098TIP3    H124237   5.256   5.989   6.332
 8098TIP3    H224238   5.358   6.021   6.439
 8099TIP3   OH224239   1.427   4.206   2.594
 8099TIP3    H124240   1.498   4.151   2.627
 8099TIP3    H224241   1.464   4.294   2.594
 8100TIP3   OH224242   2.656   1.867   1.820
 8100TIP3    H124243   2.606   1.945   1.843
 8100TIP3    H224244   2.628   1.845   1.731
 8101TIP3   OH224245   7.766   3.016   0.653
 8101TIP3    H124246   7.792   3.066   0.576
 8101TIP3    H224247   7.793   3.071   0.727
 8102TIP3   OH224248   2.785   5.335   4.445
 8102TIP3    H124249   2.856   5.381   4.490
 8102TIP3    H224250   2.713   5.399   4.443
 8103TIP3   OH224251   1.731   7.180   0.021
 8103TIP3    H124252   1.686   7.195   0.104
 8103TIP3    H224253   1.764   7.266  -0.004
 8104TIP3   OH224254   7.054   5.922   5.349
 8104TIP3    H124255   7.146   5.906   5.370
 8104TIP3    H224256   7.051   6.014   5.323
 8105TIP3   OH224257   3.587   6.590   3.142
 8105TIP3    H124258   3.519   6.525   3.162
 8105TIP3    H224259   3.566   6.663   3.200
 8106TIP3   OH224260   0.493   7.227   5.696
 8106TIP3    H124261   0.575   7.202   5.655
 8106TIP3    H224262   0.516   7.250   5.786
 8107TIP3   OH224263   7.796   3.149   1.878
 8107TIP3    H124264   7.713   3.162   1.831
 8107TIP3    H224265   7.840   3.234   1.873
 8108TIP3   OH224266   5.585   1.656   4.945
 8108TIP3    H124267   5.517   1.620   5.001
 8108TIP3    H224268   5.634   1.580   4.913
 8109TIP3   OH224269   1.037   0.371   6.225
 8109TIP3    H124270   1.100   0.437   6.196
 8109TIP3    H224271   0.956   0.420   6.239
 8110TIP3   OH224272   5.154   2.229   1.579
 8110TIP3    H124273   5.107   2.169   1.520
 8110TIP3    H224274   5.117   2.212   1.665
 8111TIP3   OH224275   6.048   3.180   0.392
 8111TIP3    H124276   5.970   3.207   0.441
 8111TIP3    H224277   6.108   3.147   0.459
 8112TIP3   OH224278   1.003   2.392   2.258
 8112TIP3    H124279   0.952   2.311   2.265
 8112TIP3    H224280   1.072   2.371   2.194
 8113TIP3   OH224281   4.940   7.055   4.684
 8113TIP3    H124282   5.031   7.080   4.704
 8113TIP3    H224283   4.937   6.961   4.702
 8114TIP3   OH224284   6.303   1.803   2.482
 8114TIP3    H124285   6.248   1.724   2.491
 8114TIP3    H224286   6.390   1.769   2.461
 8115TIP3   OH224287   7.265   5.582   4.133
 8115TIP3    H124288   7.288   5.492   4.112
 8115TIP3    H224289   7.223   5.616   4.053
 8116TIP3   OH224290   6.393   6.974   4.326
 8116TIP3    H124291   6.418   7.007   4.412
 8116TIP3    H224292   6.374   6.882   4.341
 8117TIP3   OH224293   4.025   3.497   6.647
 8117TIP3    H124294   4.078   3.563   6.604
 8117TIP3    H224295   4.021   3.525   6.738
 8118TIP3   OH224296   1.116   1.228   1.885
 8118TIP3    H124297   1.117   1.284   1.808
 8118TIP3    H224298   1.197   1.248   1.931
 8119TIP3   OH224299   5.178   7.540   1.644
 8119TIP3    H124300   5.256   7.487   1.627
 8119TIP3    H224301   5.180   7.608   1.576
 8120TIP3   OH224302   4.619   4.040   0.016
 8120TIP3    H124303   4.694   3.981   0.017
 8120TIP3    H224304   4.561   4.008   0.085
 8121TIP3   OH224305   4.009   2.793   3.988
 8121TIP3    H124306   4.069   2.804   4.062
 8121TIP3    H224307   3.945   2.728   4.018
 8122TIP3   OH224308   4.672   2.130   5.107
 8122TIP3    H124309   4.649   2.172   5.024
 8122TIP3    H224310   4.626   2.181   5.174
 8123TIP3   OH224311   7.112   5.263   1.445
 8123TIP3    H124312   7.122   5.296   1.356
 8123TIP3    H224313   7.068   5.178   1.434
 8124TIP3   OH224314   3.828   5.531   5.929
 8124TIP3    H124315   3.825   5.486   5.844
 8124TIP3    H224316   3.921   5.549   5.942
 8125TIP3   OH224317   4.309   6.665   2.142
 8125TIP3    H124318   4.307   6.724   2.067
 8125TIP3    H224319   4.243   6.599   2.123
 8126TIP3   OH224320   6.606   1.358   0.640
 8126TIP3    H124321   6.699   1.344   0.658
 8126TIP3    H224322   6.562   1.292   0.694
 8127TIP3   OH224323   6.829   3.075   5.389
 8127TIP3    H124324   6.901   3.069   5.452
 8127TIP3    H224325   6.850   3.152   5.336
 8128TIP3   OH224326   7.186   6.518   3.486
 8128TIP3    H124327   7.100   6.476   3.483
 8128TIP3    H224328   7.172   6.605   3.447
 8129TIP3   OH224329   6.901   6.364   5.780
 8129TIP3    H124330   6.875   6.430   5.716
 8129TIP3    H224331   6.819   6.338   5.822
 8130TIP3   OH224332   2.692   4.738   2.336
 8130TIP3    H124333   2.599   4.761   2.335
 8130TIP3    H224334   2.703   4.688   2.417
 8131TIP3   OH224335   4.728   0.934   2.864
 8131TIP3    H124336   4.694   0.935   2.953
 8131TIP3    H224337   4.823   0.927   2.874
 8132TIP3   OH224338   3.646   3.380   0.876
 8132TIP3    H124339   3.551   3.375   0.872
 8132TIP3    H224340   3.666   3.472   0.861
 8133TIP3   OH224341   1.245   4.509   0.387
 8133TIP3    H124342   1.159   4.550   0.394
 8133TIP3    H224343   1.286   4.552   0.312
 8134TIP3   OH224344   3.235   7.186   1.126
 8134TIP3    H124345   3.309   7.126   1.119
 8134TIP3    H224346   3.261   7.262   1.073
 8135TIP3   OH224347   1.187   3.069   4.148
 8135TIP3    H124348   1.123   3.140   4.156
 8135TIP3    H224349   1.138   2.990   4.169
 8136TIP3   OH224350   6.769   2.676   2.014
 8136TIP3    H124351   6.700   2.735   2.044
 8136TIP3    H224352   6.723   2.611   1.961
 8137TIP3   OH224353   1.172   2.649   4.583
 8137TIP3    H124354   1.229   2.685   4.651
 8137TIP3    H224355   1.186   2.554   4.587
 8138TIP3   OH224356   3.103   4.883   0.831
 8138TIP3    H124357   3.041   4.833   0.777
 8138TIP3    H224358   3.047   4.937   0.887
 8139TIP3   OH224359   0.882   6.094   5.881
 8139TIP3    H124360   0.947   6.070   5.815
 8139TIP3    H224361   0.927   6.160   5.935
 8140TIP3   OH224362   2.480   0.277   0.420
 8140TIP3    H124363   2.558   0.306   0.468
 8140TIP3    H224364   2.407   0.322   0.463
 8141TIP3   OH224365   6.176   1.090   0.120
 8141TIP3    H124366   6.265   1.070   0.091
 8141TIP3    H224367   6.170   1.049   0.206
 8142TIP3   OH224368   2.055   6.195   5.632
 8142TIP3    H124369   2.075   6.276   5.584
 8142TIP3    H224370   2.133   6.180   5.686
 8143TIP3   OH224371   8.287   7.187   6.138
 8143TIP3    H124372   8.199   7.193   6.176
 8143TIP3    H224373   8.299   7.271   6.094
 8144TIP3   OH224374   4.665   5.539   6.606
 8144TIP3    H124375   4.615   5.478   6.552
 8144TIP3    H224376   4.618   5.540   6.690
 8145TIP3   OH224377   6.631   6.984   0.637
 8145TIP3    H124378   6.611   7.059   0.693
 8145TIP3    H224379   6.553   6.974   0.581
 8146TIP3   OH224380   3.617   1.362   0.418
 8146TIP3    H124381   3.554   1.355   0.346
 8146TIP3    H224382   3.697   1.320   0.384
 8147TIP3   OH224383   7.329   6.298   2.884
 8147TIP3    H124384   7.416   6.329   2.909
 8147TIP3    H224385   7.323   6.316   2.790
 8148TIP3   OH224386   3.011   2.148   1.549
 8148TIP3    H124387   3.063   2.105   1.617
 8148TIP3    H224388   3.056   2.231   1.534
 8149TIP3   OH224389   7.071   3.154   1.588
 8149TIP3    H124390   7.021   3.153   1.507
 8149TIP3    H224391   7.053   3.069   1.628
 8150TIP3   OH224392   1.938   2.632   0.801
 8150TIP3    H124393   1.870   2.697   0.788
 8150TIP3    H224394   1.890   2.551   0.820
 8151TIP3   OH224395   2.391   5.761   4.120
 8151TIP3    H124396   2.379   5.666   4.116
 8151TIP3    H224397   2.401   5.779   4.214
 8152TIP3   OH224398   7.255   6.245   4.559
 8152TIP3    H124399   7.205   6.175   4.602
 8152TIP3    H224400   7.344   6.233   4.592
 8153TIP3   OH224401   6.969   0.606   0.066
 8153TIP3    H124402   6.888   0.616   0.116
 8153TIP3    H224403   6.941   0.565  -0.016
 8154TIP3   OH224404   1.106   6.036   4.184
 8154TIP3    H124405   1.062   5.953   4.202
 8154TIP3    H224406   1.067   6.068   4.103
 8155TIP3   OH224407   6.830   4.664   2.774
 8155TIP3    H124408   6.771   4.687   2.701
 8155TIP3    H224409   6.806   4.574   2.795
 8156TIP3   OH224410   5.160   0.101   0.771
 8156TIP3    H124411   5.206   0.104   0.855
 8156TIP3    H224412   5.067   0.094   0.795
 8157TIP3   OH224413   1.223   5.343   3.760
 8157TIP3    H124414   1.248   5.395   3.684
 8157TIP3    H224415   1.290   5.363   3.826
 8158TIP3   OH224416   6.426   6.609   0.473
 8158TIP3    H124417   6.403   6.602   0.566
 8158TIP3    H224418   6.399   6.525   0.436
 8159TIP3   OH224419   3.445   6.522   0.828
 8159TIP3    H124420   3.436   6.426   0.830
 8159TIP3    H224421   3.358   6.554   0.849
 8160TIP3   OH224422   4.608   0.930   5.146
 8160TIP3    H124423   4.630   1.024   5.148
 8160TIP3    H224424   4.686   0.887   5.182
 8161TIP3   OH224425   1.370   2.620   5.519
 8161TIP3    H124426   1.343   2.690   5.460
 8161TIP3    H224427   1.306   2.550   5.505
 8162TIP3   OH224428   3.159   5.822   4.873
 8162TIP3    H124429   3.068   5.815   4.844
 8162TIP3    H224430   3.156   5.879   4.950
 8163TIP3   OH224431   4.982   5.744   0.228
 8163TIP3    H124432   5.002   5.712   0.140
 8163TIP3    H224433   4.890   5.720   0.242
 8164TIP3   OH224434   2.336   6.913   5.607
 8164TIP3    H124435   2.331   6.849   5.535
 8164TIP3    H224436   2.339   6.998   5.563
 8165TIP3   OH224437   1.825   0.010   3.576
 8165TIP3    H124438   1.865  -0.033   3.500
 8165TIP3    H224439   1.875   0.091   3.587
 8166TIP3   OH224440   7.948   2.274   3.960
 8166TIP3    H124441   7.911   2.238   4.040
 8166TIP3    H224442   7.873   2.287   3.902
 8167TIP3   OH224443   2.160   3.569   5.521
 8167TIP3    H124444   2.251   3.555   5.495
 8167TIP3    H224445   2.137   3.490   5.570
 8168TIP3   OH224446   5.243   4.438   1.057
 8168TIP3    H124447   5.236   4.438   1.152
 8168TIP3    H224448   5.337   4.434   1.040
 8169TIP3   OH224449   6.870   0.140   6.715
 8169TIP3    H124450   6.847   0.228   6.686
 8169TIP3    H224451   6.896   0.151   6.807
 8170TIP3   OH224452   4.468   6.778   1.719
 8170TIP3    H124453   4.476   6.848   1.655
 8170TIP3    H224454   4.533   6.713   1.691
 8171TIP3   OH224455   5.485   7.133   0.746
 8171TIP3    H124456   5.443   7.165   0.666
 8171TIP3    H224457   5.413   7.096   0.798
 8172TIP3   OH224458   0.016   4.104   0.352
 8172TIP3    H124459  -0.016   4.185   0.312
 8172TIP3    H224460   0.054   4.131   0.435
 8173TIP3   OH224461   0.119   4.878   6.580
 8173TIP3    H124462   0.138   4.971   6.575
 8173TIP3    H224463   0.025   4.871   6.563
 8174TIP3   OH224464   7.020   2.374   4.792
 8174TIP3    H124465   7.022   2.287   4.832
 8174TIP3    H224466   7.047   2.433   4.862
 8175TIP3   OH224467   5.690   7.432   3.327
 8175TIP3    H124468   5.628   7.496   3.292
 8175TIP3    H224469   5.773   7.453   3.283
 8176TIP3   OH224470   6.344   7.512   4.252
 8176TIP3    H124471   6.315   7.598   4.220
 8176TIP3    H224472   6.282   7.450   4.214
 8177TIP3   OH224473   5.789   3.955   6.419
 8177TIP3    H124474   5.713   3.950   6.362
 8177TIP3    H224475   5.862   3.925   6.365
 8178TIP3   OH224476   5.872   7.600   4.989
 8178TIP3    H124477   5.828   7.679   5.020
 8178TIP3    H224478   5.885   7.547   5.068
 8179TIP3   OH224479   3.433   6.605   2.386
 8179TIP3    H124480   3.493   6.559   2.444
 8179TIP3    H224481   3.346   6.575   2.412
 8180TIP3   OH224482   8.006   5.827   6.300
 8180TIP3    H124483   8.018   5.865   6.213
 8180TIP3    H224484   8.072   5.758   6.305
 8181TIP3   OH224485   2.328   5.797   3.786
 8181TIP3    H124486   2.401   5.740   3.812
 8181TIP3    H224487   2.263   5.786   3.855
 8182TIP3   OH224488   3.793   1.272   1.291
 8182TIP3    H124489   3.701   1.277   1.265
 8182TIP3    H224490   3.834   1.346   1.247
 8183TIP3   OH224491   6.215   0.662   1.266
 8183TIP3    H124492   6.135   0.611   1.263
 8183TIP3    H224493   6.282   0.599   1.293
 8184TIP3   OH224494   0.660   1.567   5.332
 8184TIP3    H124495   0.651   1.604   5.419
 8184TIP3    H224496   0.727   1.499   5.342
 8185TIP3   OH224497   1.188   1.934   0.479
 8185TIP3    H124498   1.276   1.954   0.448
 8185TIP3    H224499   1.158   2.015   0.520
 8186TIP3   OH224500   6.095   4.381   2.497
 8186TIP3    H124501   6.102   4.325   2.420
 8186TIP3    H224502   6.044   4.456   2.467
 8187TIP3   OH224503   7.924   0.985   0.654
 8187TIP3    H124504   7.867   0.954   0.584
 8187TIP3    H224505   7.903   1.078   0.663
 8188TIP3   OH224506   4.236   6.420   6.481
 8188TIP3    H124507   4.301   6.424   6.411
 8188TIP3    H224508   4.275   6.467   6.554
 8189TIP3   OH224509   5.042   3.077   2.670
 8189TIP3    H124510   5.029   2.989   2.706
 8189TIP3    H224511   4.968   3.088   2.609
 8190TIP3   OH224512   4.502   7.048   5.039
 8190TIP3    H124513   4.556   7.048   5.118
 8190TIP3    H224514   4.501   7.140   5.011
 8191TIP3   OH224515   0.514   5.238   4.229
 8191TIP3    H124516   0.579   5.259   4.297
 8191TIP3    H224517   0.431   5.265   4.267
 8192TIP3   OH224518   5.397   4.974   6.542
 8192TIP3    H124519   5.314   5.017   6.564
 8192TIP3    H224520   5.460   5.010   6.605
 8193TIP3   OH224521   2.037   0.030   0.529
 8193TIP3    H124522   1.988   0.061   0.605
 8193TIP3    H224523   2.014   0.091   0.459
 8194TIP3   OH224524   8.134   5.215   4.389
 8194TIP3    H124525   8.214   5.232   4.339
 8194TIP3    H224526   8.064   5.213   4.323
 8195TIP3   OH224527   5.123   3.483   3.699
 8195TIP3    H124528   5.099   3.396   3.667
 8195TIP3    H224529   5.147   3.468   3.791
 8196TIP3   OH224530   1.816   1.275   0.532
 8196TIP3    H124531   1.883   1.294   0.598
 8196TIP3    H224532   1.862   1.285   0.449
 8197TIP3   OH224533   2.955   0.581   3.661
 8197TIP3    H124534   3.020   0.511   3.665
 8197TIP3    H224535   2.905   0.572   3.742
 8198TIP3   OH224536   2.251   4.283   3.309
 8198TIP3    H124537   2.167   4.329   3.314
 8198TIP3    H224538   2.313   4.342   3.352
 8199TIP3   OH224539   1.983   6.494   4.439
 8199TIP3    H124540   1.964   6.584   4.414
 8199TIP3    H224541   2.075   6.496   4.465
 8200TIP3   OH224542   7.253   6.836   6.434
 8200TIP3    H124543   7.275   6.777   6.362
 8200TIP3    H224544   7.299   6.799   6.510
 8201TIP3   OH224545   1.943   6.425   0.865
 8201TIP3    H124546   1.878   6.357   0.880
 8201TIP3    H224547   1.977   6.446   0.952
 8202TIP3   OH224548   6.761   1.401   4.207
 8202TIP3    H124549   6.665   1.406   4.207
 8202TIP3    H224550   6.780   1.310   4.187
 8203TIP3   OH224551   6.046   0.520   0.701
 8203TIP3    H124552   6.092   0.459   0.644
 8203TIP3    H224553   6.110   0.589   0.719
 8204TIP3   OH224554   4.494   3.238   3.749
 8204TIP3    H124555   4.505   3.330   3.772
 8204TIP3    H224556   4.434   3.204   3.815
 8205TIP3   OH224557   4.869   6.733   6.806
 8205TIP3    H124558   4.945   6.676   6.789
 8205TIP3    H224559   4.899   6.820   6.780
 8206TIP3   OH224560   6.858   6.922   0.491
 8206TIP3    H124561   6.789   6.922   0.557
 8206TIP3    H224562   6.926   6.978   0.528
 8207TIP3   OH224563   5.898   4.688   3.598
 8207TIP3    H124564   5.820   4.741   3.613
 8207TIP3    H224565   5.931   4.717   3.513
 8208TIP3   OH224566   4.141   3.130   4.031
 8208TIP3    H124567   4.218   3.187   4.028
 8208TIP3    H224568   4.175   3.042   4.018
 8209TIP3   OH224569   5.628   6.636   5.983
 8209TIP3    H124570   5.711   6.606   5.946
 8209TIP3    H224571   5.642   6.634   6.078
 8210TIP3   OH224572   2.197   1.778   2.010
 8210TIP3    H124573   2.138   1.730   2.068
 8210TIP3    H224574   2.284   1.742   2.029
 8211TIP3   OH224575   2.280   7.322   2.879
 8211TIP3    H124576   2.362   7.294   2.920
 8211TIP3    H224577   2.275   7.269   2.799
 8212TIP3   OH224578   2.074   7.746   6.503
 8212TIP3    H124579   2.024   7.825   6.485
 8212TIP3    H224580   2.135   7.738   6.429
 8213TIP3   OH224581   6.114   0.067   0.678
 8213TIP3    H124582   6.049   0.123   0.720
 8213TIP3    H224583   6.089  -0.022   0.703
 8214TIP3   OH224584   2.953   3.290   3.554
 8214TIP3    H124585   2.926   3.350   3.485
 8214TIP3    H224586   3.045   3.312   3.570
 8215TIP3   OH224587   6.804   0.454   3.468
 8215TIP3    H124588   6.795   0.462   3.373
 8215TIP3    H224589   6.821   0.362   3.483
 8216TIP3   OH224590   1.223   2.793   3.767
 8216TIP3    H124591   1.208   2.885   3.788
 8216TIP3    H224592   1.317   2.788   3.749
 8217TIP3   OH224593   1.622   3.497   6.618
 8217TIP3    H124594   1.694   3.509   6.681
 8217TIP3    H224595   1.627   3.405   6.593
 8218TIP3   OH224596   2.216   0.927   1.523
 8218TIP3    H124597   2.256   0.872   1.591
 8218TIP3    H224598   2.290   0.952   1.467
 8219TIP3   OH224599   2.442   0.147   6.298
 8219TIP3    H124600   2.458   0.241   6.284
 8219TIP3    H224601   2.529   0.108   6.296
 8220TIP3   OH224602   3.133   7.141   5.269
 8220TIP3    H124603   3.084   7.192   5.204
 8220TIP3    H224604   3.096   7.167   5.353
 8221TIP3   OH224605   7.209   5.507   5.212
 8221TIP3    H124606   7.267   5.442   5.173
 8221TIP3    H224607   7.216   5.492   5.306
 8222TIP3   OH224608   0.337   1.309   5.129
 8222TIP3    H124609   0.350   1.402   5.149
 8222TIP3    H224610   0.410   1.265   5.172
 8223TIP3   OH224611   5.774   4.915   5.949
 8223TIP3    H124612   5.837   4.941   6.017
 8223TIP3    H224613   5.725   4.843   5.989
 8224TIP3   OH224614   7.464   3.837   5.955
 8224TIP3    H124615   7.473   3.761   5.896
 8224TIP3    H224616   7.469   3.912   5.896
 8225TIP3   OH224617   5.110   5.201   3.026
 8225TIP3    H124618   5.078   5.212   2.937
 8225TIP3    H224619   5.118   5.291   3.060
 8226TIP3   OH224620   2.991   2.722   1.797
 8226TIP3    H124621   2.905   2.702   1.759
 8226TIP3    H224622   3.015   2.807   1.760
 8227TIP3   OH224623   2.244   6.370   4.074
 8227TIP3    H124624   2.156   6.363   4.110
 8227TIP3    H224625   2.302   6.344   4.146
 8228TIP3   OH224626   5.404   1.662   3.220
 8228TIP3    H124627   5.330   1.712   3.255
 8228TIP3    H224628   5.370   1.573   3.211
 8229TIP3   OH224629   6.749   3.346   2.127
 8229TIP3    H124630   6.669   3.318   2.083
 8229TIP3    H224631   6.782   3.267   2.169
 8230TIP3   OH224632   2.534   3.646   2.336
 8230TIP3    H124633   2.455   3.699   2.335
 8230TIP3    H224634   2.601   3.703   2.373
 8231TIP3   OH224635   8.059   7.063   6.662
 8231TIP3    H124636   8.125   7.053   6.594
 8231TIP3    H224637   7.976   7.064   6.615
 8232TIP3   OH224638   5.213   0.334   3.534
 8232TIP3    H124639   5.196   0.423   3.503
 8232TIP3    H224640   5.265   0.345   3.613
 8233TIP3   OH224641   3.565   6.960   5.154
 8233TIP3    H124642   3.544   7.024   5.087
 8233TIP3    H224643   3.504   6.978   5.225
 8234TIP3   OH224644   3.892   3.364   5.214
 8234TIP3    H124645   3.892   3.277   5.255
 8234TIP3    H224646   3.939   3.352   5.132
 8235TIP3   OH224647   4.831   3.491   0.509
 8235TIP3    H124648   4.918   3.525   0.486
 8235TIP3    H224649   4.801   3.547   0.580
 8236TIP3   OH224650   3.047   3.077   5.037
 8236TIP3    H124651   2.962   3.054   4.999
 8236TIP3    H224652   3.025   3.113   5.123
 8237TIP3   OH224653   7.329   2.804   5.315
 8237TIP3    H124654   7.281   2.886   5.308
 8237TIP3    H224655   7.340   2.774   5.225
 8238TIP3   OH224656   6.777   0.208   5.633
 8238TIP3    H124657   6.826   0.278   5.675
 8238TIP3    H224658   6.792   0.221   5.539
 8239TIP3   OH224659   2.940   6.511   5.103
 8239TIP3    H124660   3.031   6.480   5.105
 8239TIP3    H224661   2.907   6.480   5.019
 8240TIP3   OH224662   2.356   2.464   6.366
 8240TIP3    H124663   2.297   2.403   6.321
 8240TIP3    H224664   2.351   2.439   6.458
 8241TIP3   OH224665   1.702   2.971   1.867
 8241TIP3    H124666   1.737   3.041   1.813
 8241TIP3    H224667   1.704   2.894   1.811
 8242TIP3   OH224668   6.008   1.945   0.528
 8242TIP3    H124669   5.990   2.003   0.455
 8242TIP3    H224670   6.068   1.879   0.493
 8243TIP3   OH224671   3.914   6.729   4.854
 8243TIP3    H124672   3.909   6.687   4.940
 8243TIP3    H224673   3.842   6.690   4.804
 8244TIP3   OH224674   1.200   2.392   6.247
 8244TIP3    H124675   1.236   2.480   6.253
 8244TIP3    H224676   1.273   2.338   6.218
 8245TIP3   OH224677   3.773   2.360   5.535
 8245TIP3    H124678   3.804   2.405   5.613
 8245TIP3    H224679   3.682   2.386   5.526
 8246TIP3   OH224680   3.994   5.063   1.506
 8246TIP3    H124681   4.018   5.053   1.414
 8246TIP3    H224682   3.935   5.138   1.509
 8247TIP3   OH224683   4.631   0.509   1.740
 8247TIP3    H124684   4.644   0.531   1.647
 8247TIP3    H224685   4.541   0.477   1.744
 8248TIP3   OH224686   3.991   4.554   5.978
 8248TIP3    H124687   4.083   4.535   5.991
 8248TIP3    H224688   3.989   4.616   5.905
 8249TIP3   OH224689   1.652   6.207   6.079
 8249TIP3    H124690   1.649   6.275   6.147
 8249TIP3    H224691   1.611   6.248   6.003
 8250TIP3   OH224692   6.740   6.591   2.585
 8250TIP3    H124693   6.828   6.620   2.611
 8250TIP3    H224694   6.712   6.655   2.520
 8251TIP3   OH224695   4.628   2.149   1.945
 8251TIP3    H124696   4.588   2.235   1.946
 8251TIP3    H224697   4.555   2.087   1.948
 8252TIP3   OH224698   3.422   6.963   3.086
 8252TIP3    H124699   3.480   6.937   3.015
 8252TIP3    H224700   3.334   6.953   3.050
 8253TIP3   OH224701   8.074   4.433   2.388
 8253TIP3    H124702   8.045   4.510   2.338
 8253TIP3    H224703   7.996   4.379   2.397
 8254TIP3   OH224704   5.151   1.295   0.585
 8254TIP3    H124705   5.147   1.207   0.623
 8254TIP3    H224706   5.124   1.283   0.494
 8255TIP3   OH224707   6.722   3.502   2.373
 8255TIP3    H124708   6.683   3.583   2.340
 8255TIP3    H224709   6.742   3.451   2.294
 8256TIP3   OH224710   5.836   2.486   1.215
 8256TIP3    H124711   5.823   2.396   1.244
 8256TIP3    H224712   5.904   2.521   1.272
 8257TIP3   OH224713   7.450   0.119   3.581
 8257TIP3    H124714   7.523   0.171   3.615
 8257TIP3    H224715   7.409   0.175   3.516
 8258TIP3   OH224716   8.109   6.794   3.928
 8258TIP3    H124717   8.092   6.872   3.876
 8258TIP3    H224718   8.129   6.827   4.015
 8259TIP3   OH224719   3.319   1.522   5.308
 8259TIP3    H124720   3.313   1.428   5.293
 8259TIP3    H224721   3.405   1.535   5.347
 8260TIP3   OH224722   0.830   3.716   4.997
 8260TIP3    H124723   0.813   3.780   5.066
 8260TIP3    H224724   0.848   3.634   5.043
 8261TIP3   OH224725   6.749   6.123   5.058
 8261TIP3    H124726   6.808   6.048   5.069
 8261TIP3    H224727   6.807   6.198   5.049
 8262TIP3   OH224728   6.795   2.346   2.993
 8262TIP3    H124729   6.744   2.311   3.065
 8262TIP3    H224730   6.866   2.283   2.980
 8263TIP3   OH224731   1.506   5.075   1.800
 8263TIP3    H124732   1.420   5.095   1.764
 8263TIP3    H224733   1.503   4.982   1.821
 8264TIP3   OH224734   5.589   5.227   6.613
 8264TIP3    H124735   5.681   5.246   6.633
 8264TIP3    H224736   5.579   5.249   6.521
 8265TIP3   OH224737   7.023   1.065   6.471
 8265TIP3    H124738   6.968   1.095   6.399
 8265TIP3    H224739   7.063   0.984   6.438
 8266TIP3   OH224740   8.329   6.643   3.870
 8266TIP3    H124741   8.337   6.632   3.775
 8266TIP3    H224742   8.263   6.711   3.880
 8267TIP3   OH224743   1.590   1.633   3.608
 8267TIP3    H124744   1.494   1.627   3.603
 8267TIP3    H224745   1.607   1.700   3.674
 8268TIP3   OH224746   4.489   3.590   0.761
 8268TIP3    H124747   4.576   3.621   0.788
 8268TIP3    H224748   4.448   3.667   0.721
 8269TIP3   OH224749   5.076   6.970   5.424
 8269TIP3    H124750   5.007   6.934   5.367
 8269TIP3    H224751   5.041   6.960   5.513
 8270TIP3   OH224752   6.479   2.047   0.216
 8270TIP3    H124753   6.390   2.060   0.249
 8270TIP3    H224754   6.492   1.952   0.220
 8271TIP3   OH224755   7.201   0.808   2.556
 8271TIP3    H124756   7.290   0.844   2.546
 8271TIP3    H224757   7.151   0.879   2.596
 8272TIP3   OH224758   0.101   3.417   1.012
 8272TIP3    H124759   0.148   3.335   0.998
 8272TIP3    H224760   0.032   3.417   0.946
 8273TIP3   OH224761   7.463   6.588   0.516
 8273TIP3    H124762   7.507   6.575   0.431
 8273TIP3    H224763   7.459   6.500   0.554
 8274TIP3   OH224764   7.119   0.673   4.830
 8274TIP3    H124765   7.161   0.658   4.915
 8274TIP3    H224766   7.055   0.602   4.822
 8275TIP3   OH224767   4.770   0.160   1.579
 8275TIP3    H124768   4.772   0.196   1.490
 8275TIP3    H224769   4.678   0.145   1.598
 8276TIP3   OH224770   3.687   6.825   5.639
 8276TIP3    H124771   3.734   6.880   5.702
 8276TIP3    H224772   3.661   6.748   5.690
 8277TIP3   OH224773   0.541   4.349   6.012
 8277TIP3    H124774   0.626   4.332   5.971
 8277TIP3    H224775   0.561   4.401   6.090
 8278TIP3   OH224776   3.184   6.503   4.271
 8278TIP3    H124777   3.166   6.596   4.263
 8278TIP3    H224778   3.184   6.486   4.365
 8279TIP3   OH224779   4.289   4.663   4.134
 8279TIP3    H124780   4.293   4.686   4.041
 8279TIP3    H224781   4.358   4.598   4.145
 8280TIP3   OH224782   8.092   4.884   3.410
 8280TIP3    H124783   8.104   4.829   3.488
 8280TIP3    H224784   8.037   4.832   3.352
 8281TIP3   OH224785   2.154   5.388   1.590
 8281TIP3    H124786   2.136   5.414   1.500
 8281TIP3    H224787   2.180   5.296   1.583
 8282TIP3   OH224788   3.617   1.314   5.565
 8282TIP3    H124789   3.622   1.374   5.491
 8282TIP3    H224790   3.524   1.312   5.587
 8283TIP3   OH224791   3.988   7.535   0.823
 8283TIP3    H124792   4.042   7.460   0.797
 8283TIP3    H224793   3.973   7.583   0.741
 8284TIP3   OH224794   7.979   4.413   0.680
 8284TIP3    H124795   8.046   4.346   0.688
 8284TIP3    H224796   7.923   4.383   0.608
 8285TIP3   OH224797   4.508   1.134   5.663
 8285TIP3    H124798   4.539   1.044   5.675
 8285TIP3    H224799   4.437   1.126   5.599
 8286TIP3   OH224800   6.660   6.919   6.667
 8286TIP3    H124801   6.727   6.851   6.657
 8286TIP3    H224802   6.579   6.870   6.679
 8287TIP3   OH224803   0.067   7.094   4.307
 8287TIP3    H124804   0.031   7.007   4.320
 8287TIP3    H224805   0.145   7.097   4.363
 8288TIP3   OH224806   8.028   1.156   6.174
 8288TIP3    H124807   7.984   1.158   6.259
 8288TIP3    H224808   8.052   1.247   6.157
 8289TIP3   OH224809   0.552   1.889   5.520
 8289TIP3    H124810   0.604   1.862   5.445
 8289TIP3    H224811   0.548   1.812   5.577
 8290TIP3   OH224812   1.151   2.608   5.154
 8290TIP3    H124813   1.061   2.631   5.176
 8290TIP3    H224814   1.201   2.688   5.173
 8291TIP3   OH224815   2.348   4.680   3.083
 8291TIP3    H124816   2.255   4.665   3.100
 8291TIP3    H224817   2.368   4.624   3.008
 8292TIP3   OH224818   6.407   7.247   3.960
 8292TIP3    H124819   6.348   7.306   4.006
 8292TIP3    H224820   6.377   7.250   3.869
 8293TIP3   OH224821   4.896   6.756   2.429
 8293TIP3    H124822   4.961   6.748   2.499
 8293TIP3    H224823   4.860   6.845   2.440
 8294TIP3   OH224824   1.674   4.038   1.998
 8294TIP3    H124825   1.660   4.105   1.931
 8294TIP3    H224826   1.671   3.955   1.951
 8295TIP3   OH224827   0.656   7.353   0.564
 8295TIP3    H124828   0.597   7.396   0.501
 8295TIP3    H224829   0.694   7.281   0.515
 8296TIP3   OH224830   6.882   0.720   2.552
 8296TIP3    H124831   6.902   0.692   2.641
 8296TIP3    H224832   6.934   0.799   2.539
 8297TIP3   OH224833   0.108   3.875   3.369
 8297TIP3    H124834   0.024   3.830   3.367
 8297TIP3    H224835   0.086   3.968   3.374
 8298TIP3   OH224836   4.490   7.264   4.799
 8298TIP3    H124837   4.546   7.197   4.762
 8298TIP3    H224838   4.402   7.226   4.796
 8299TIP3   OH224839   8.023   7.759   1.602
 8299TIP3    H124840   8.041   7.821   1.531
 8299TIP3    H224841   7.981   7.812   1.670
 8300TIP3   OH224842   4.946   2.579   1.855
 8300TIP3    H124843   5.040   2.571   1.864
 8300TIP3    H224844   4.922   2.653   1.910
 8301TIP3   OH224845   3.226   6.448   6.076
 8301TIP3    H124846   3.279   6.519   6.112
 8301TIP3    H224847   3.288   6.378   6.058
 8302TIP3   OH224848   4.011   6.723   3.710
 8302TIP3    H124849   3.967   6.654   3.760
 8302TIP3    H224850   4.047   6.781   3.777
 8303TIP3   OH224851   4.502   0.397   1.091
 8303TIP3    H124852   4.597   0.402   1.088
 8303TIP3    H224853   4.483   0.350   1.173
 8304TIP3   OH224854   1.216   7.213   0.333
 8304TIP3    H124855   1.205   7.165   0.251
 8304TIP3    H224856   1.229   7.145   0.399
 8305TIP3   OH224857   2.836   7.731   3.958
 8305TIP3    H124858   2.917   7.779   3.978
 8305TIP3    H224859   2.862   7.639   3.959
 8306TIP3   OH224860   0.457   5.170   1.924
 8306TIP3    H124861   0.516   5.197   1.854
 8306TIP3    H224862   0.433   5.079   1.901
 8307TIP3   OH224863   4.496   3.477   1.664
 8307TIP3    H124864   4.511   3.461   1.757
 8307TIP3    H224865   4.489   3.389   1.626
 8308TIP3   OH224866   5.507   3.873   2.926
 8308TIP3    H124867   5.457   3.907   2.852
 8308TIP3    H224868   5.560   3.947   2.956
 8309TIP3   OH224869   5.882   4.059   1.016
 8309TIP3    H124870   5.823   4.029   1.086
 8309TIP3    H224871   5.900   3.980   0.965
 8310TIP3   OH224872   2.260   0.740   6.551
 8310TIP3    H124873   2.232   0.820   6.595
 8310TIP3    H224874   2.252   0.672   6.618
 8311TIP3   OH224875   4.155   0.034   2.309
 8311TIP3    H124876   4.165   0.128   2.325
 8311TIP3    H224877   4.093   0.029   2.236
 8312TIP3   OH224878   0.950   7.392   1.639
 8312TIP3    H124879   0.928   7.379   1.731
 8312TIP3    H224880   1.043   7.417   1.640
 8313TIP3   OH224881   0.662   1.317   1.390
 8313TIP3    H124882   0.628   1.229   1.375
 8313TIP3    H224883   0.755   1.311   1.366
 8314TIP3   OH224884   1.279   6.557   3.175
 8314TIP3    H124885   1.216   6.590   3.112
 8314TIP3    H224886   1.358   6.609   3.161
 8315TIP3   OH224887   4.661   3.335   2.494
 8315TIP3    H124888   4.621   3.377   2.570
 8315TIP3    H224889   4.711   3.405   2.452
 8316TIP3   OH224890   1.746   6.501   6.489
 8316TIP3    H124891   1.667   6.461   6.525
 8316TIP3    H224892   1.781   6.554   6.561
 8317TIP3   OH224893   1.676   2.954  -0.008
 8317TIP3    H124894   1.593   2.968   0.038
 8317TIP3    H224895   1.740   2.937   0.061
 8318TIP3   OH224896   5.783   1.386   0.861
 8318TIP3    H124897   5.793   1.455   0.927
 8318TIP3    H224898   5.872   1.358   0.841
 8319TIP3   OH224899   7.347   5.560   1.758
 8319TIP3    H124900   7.368   5.484   1.702
 8319TIP3    H224901   7.284   5.610   1.706
 8320TIP3   OH224902   7.571   0.247   1.537
 8320TIP3    H124903   7.585   0.172   1.479
 8320TIP3    H224904   7.551   0.319   1.478
 8321TIP3   OH224905   5.020   3.697   0.348
 8321TIP3    H124906   4.984   3.657   0.268
 8321TIP3    H224907   4.952   3.756   0.378
 8322TIP3   OH224908   6.634   1.993   3.938
 8322TIP3    H124909   6.610   2.011   4.029
 8322TIP3    H224910   6.677   1.908   3.940
 8323TIP3   OH224911   3.581   3.530   1.265
 8323TIP3    H124912   3.488   3.508   1.269
 8323TIP3    H224913   3.600   3.568   1.351
 8324TIP3   OH224914   3.723   4.018   5.650
 8324TIP3    H124915   3.746   4.104   5.617
 8324TIP3    H224916   3.806   3.971   5.658
 8325TIP3   OH224917   2.361   4.199   3.786
 8325TIP3    H124918   2.390   4.151   3.708
 8325TIP3    H224919   2.266   4.196   3.782
 8326TIP3   OH224920   1.966   1.195   4.014
 8326TIP3    H124921   2.016   1.123   3.977
 8326TIP3    H224922   2.029   1.267   4.021
 8327TIP3   OH224923   6.443   5.354   3.766
 8327TIP3    H124924   6.399   5.277   3.804
 8327TIP3    H224925   6.449   5.334   3.672
 8328TIP3   OH224926   1.352   5.602   6.334
 8328TIP3    H124927   1.426   5.617   6.392
 8328TIP3    H224928   1.342   5.507   6.330
 8329TIP3   OH224929   2.970   3.278   2.789
 8329TIP3    H124930   2.987   3.295   2.696
 8329TIP3    H224931   2.876   3.264   2.794
 8330TIP3   OH224932   3.271   1.217   0.838
 8330TIP3    H124933   3.349   1.233   0.785
 8330TIP3    H224934   3.200   1.261   0.791
 8331TIP3   OH224935   5.620   5.981   3.321
 8331TIP3    H124936   5.594   5.896   3.357
 8331TIP3    H224937   5.698   5.963   3.269
 8332TIP3   OH224938   0.657   4.444   1.102
 8332TIP3    H124939   0.734   4.468   1.050
 8332TIP3    H224940   0.585   4.443   1.039
 8333TIP3   OH224941   2.683   0.670   0.862
 8333TIP3    H124942   2.746   0.742   0.858
 8333TIP3    H224943   2.728   0.601   0.911
 8334TIP3   OH224944   3.082   2.274   4.803
 8334TIP3    H124945   3.003   2.307   4.845
 8334TIP3    H224946   3.107   2.343   4.741
 8335TIP3   OH224947   5.497   6.066   5.486
 8335TIP3    H124948   5.530   6.122   5.556
 8335TIP3    H224949   5.411   6.102   5.465
 8336TIP3   OH224950   5.564   4.583   5.227
 8336TIP3    H124951   5.486   4.576   5.172
 8336TIP3    H224952   5.607   4.498   5.219
 8337TIP3   OH224953   5.139   2.070   5.427
 8337TIP3    H124954   5.178   2.082   5.340
 8337TIP3    H224955   5.130   2.159   5.461
 8338TIP3   OH224956   0.089   7.799   5.331
 8338TIP3    H124957   0.136   7.880   5.351
 8338TIP3    H224958   0.157   7.732   5.326
 8339TIP3   OH224959   7.646   2.539   1.626
 8339TIP3    H124960   7.636   2.469   1.562
 8339TIP3    H224961   7.661   2.618   1.573
 8340TIP3   OH224962   6.796   1.033   1.790
 8340TIP3    H124963   6.843   0.971   1.847
 8340TIP3    H224964   6.854   1.109   1.786
 8341TIP3   OH224965   8.208   1.855   2.705
 8341TIP3    H124966   8.142   1.811   2.651
 8341TIP3    H224967   8.175   1.847   2.794
 8342TIP3   OH224968   6.050   7.289   1.637
 8342TIP3    H124969   5.967   7.242   1.633
 8342TIP3    H224970   6.029   7.372   1.678
 8343TIP3   OH224971   2.646   3.810   3.195
 8343TIP3    H124972   2.701   3.830   3.271
 8343TIP3    H224973   2.654   3.715   3.184
 8344TIP3   OH224974   6.219   2.714   4.412
 8344TIP3    H124975   6.200   2.762   4.492
 8344TIP3    H224976   6.183   2.768   4.342
 8345TIP3   OH224977   2.462   1.429   2.513
 8345TIP3    H124978   2.368   1.425   2.534
 8345TIP3    H224979   2.503   1.457   2.595
 8346TIP3   OH224980   7.391   4.728   3.331
 8346TIP3    H124981   7.364   4.665   3.398
 8346TIP3    H224982   7.408   4.809   3.380
 8347TIP3   OH224983   5.662   4.447   4.935
 8347TIP3    H124984   5.723   4.393   4.986
 8347TIP3    H224985   5.693   4.537   4.948
 8348TIP3   OH224986   6.422   2.551   4.088
 8348TIP3    H124987   6.385   2.602   4.016
 8348TIP3    H224988   6.458   2.617   4.148
 8349TIP3   OH224989   6.120   4.984   4.342
 8349TIP3    H124990   6.027   4.963   4.331
 8349TIP3    H224991   6.159   4.904   4.376
 8350TIP3   OH224992   2.244   1.875   4.918
 8350TIP3    H124993   2.158   1.834   4.910
 8350TIP3    H224994   2.254   1.891   5.012
 8351TIP3   OH224995   2.817   2.842   0.872
 8351TIP3    H124996   2.724   2.857   0.856
 8351TIP3    H224997   2.819   2.789   0.952
 8352TIP3   OH224998   3.039   4.297   6.501
 8352TIP3    H124999   2.991   4.371   6.464
 8352TIP3    H225000   3.041   4.315   6.595
 8353TIP3   OH225001   0.303   3.740   3.570
 8353TIP3    H125002   0.355   3.667   3.536
 8353TIP3    H225003   0.270   3.784   3.491
 8354TIP3   OH225004   3.075   1.452   2.923
 8354TIP3    H125005   3.020   1.521   2.886
 8354TIP3    H225006   3.157   1.458   2.874
 8355TIP3   OH225007   8.085   7.790   2.979
 8355TIP3    H125008   8.181   7.799   2.985
 8355TIP3    H225009   8.058   7.769   3.069
 8356TIP3   OH225010   3.775   6.749   5.143
 8356TIP3    H125011   3.752   6.726   5.233
 8356TIP3    H225012   3.709   6.812   5.117
 8357TIP3   OH225013   2.328   2.854   6.185
 8357TIP3    H125014   2.335   2.937   6.138
 8357TIP3    H225015   2.239   2.823   6.167
 8358TIP3   OH225016   4.750   4.292   3.129
 8358TIP3    H125017   4.758   4.295   3.225
 8358TIP3    H225018   4.802   4.366   3.098
 8359TIP3   OH225019   0.056   2.746   1.101
 8359TIP3    H125020   0.074   2.657   1.070
 8359TIP3    H225021  -0.011   2.779   1.042
 8360TIP3   OH225022   6.832   3.680   5.044
 8360TIP3    H125023   6.782   3.713   4.968
 8360TIP3    H225024   6.923   3.686   5.016
 8361TIP3   OH225025   3.965   2.148   1.667
 8361TIP3    H125026   4.060   2.158   1.670
 8361TIP3    H225027   3.936   2.167   1.756
 8362TIP3   OH225028   4.240   0.113   3.203
 8362TIP3    H125029   4.293   0.192   3.214
 8362TIP3    H225030   4.150   0.143   3.216
 8363TIP3   OH225031   7.100   3.165   2.959
 8363TIP3    H125032   7.085   3.255   2.931
 8363TIP3    H225033   7.091   3.114   2.879
 8364TIP3   OH225034   3.576   4.745   5.269
 8364TIP3    H125035   3.550   4.770   5.181
 8364TIP3    H225036   3.671   4.731   5.263
 8365TIP3   OH225037   5.100   1.744   3.215
 8365TIP3    H125038   5.080   1.677   3.150
 8365TIP3    H225039   5.026   1.805   3.208
 8366TIP3   OH225040   6.833   1.682   4.697
 8366TIP3    H125041   6.761   1.744   4.694
 8366TIP3    H225042   6.827   1.634   4.614
 8367TIP3   OH225043   7.562   7.466   3.408
 8367TIP3    H125044   7.555   7.547   3.357
 8367TIP3    H225045   7.638   7.480   3.464
 8368TIP3   OH225046   8.285   0.160   4.153
 8368TIP3    H125047   8.242   0.184   4.234
 8368TIP3    H225048   8.295   0.065   4.158
 8369TIP3   OH225049   3.753   5.402   5.138
 8369TIP3    H125050   3.735   5.308   5.137
 8369TIP3    H225051   3.832   5.411   5.191
 8370TIP3   OH225052   6.465   4.831   4.612
 8370TIP3    H125053   6.554   4.865   4.619
 8370TIP3    H225054   6.410   4.903   4.643
 8371TIP3   OH225055   7.938   1.366   4.229
 8371TIP3    H125056   7.962   1.404   4.144
 8371TIP3    H225057   8.008   1.393   4.288
 8372TIP3   OH225058   5.772   1.678   2.505
 8372TIP3    H125059   5.687   1.642   2.530
 8372TIP3    H225060   5.778   1.761   2.553
 8373TIP3   OH225061   3.897   1.352   4.572
 8373TIP3    H125062   3.900   1.359   4.668
 8373TIP3    H225063   3.958   1.420   4.542
 8374TIP3   OH225064   7.192   2.190   1.606
 8374TIP3    H125065   7.120   2.187   1.544
 8374TIP3    H225066   7.269   2.162   1.557
 8375TIP3   OH225067   4.229   0.303   3.816
 8375TIP3    H125068   4.243   0.398   3.816
 8375TIP3    H225069   4.297   0.269   3.874
 8376TIP3   OH225070   2.094   3.598   1.290
 8376TIP3    H125071   2.076   3.547   1.211
 8376TIP3    H225072   2.021   3.578   1.349
 8377TIP3   OH225073   3.664   7.584   5.660
 8377TIP3    H125074   3.610   7.663   5.662
 8377TIP3    H225075   3.749   7.612   5.696
 8378TIP3   OH225076   2.254   2.020   3.599
 8378TIP3    H125077   2.270   2.029   3.693
 8378TIP3    H225078   2.168   1.978   3.593
 8379TIP3   OH225079   6.731   0.289   1.374
 8379TIP3    H125080   6.794   0.237   1.424
 8379TIP3    H225081   6.647   0.275   1.419
 8380TIP3   OH225082   3.101   7.544   5.142
 8380TIP3    H125083   3.125   7.612   5.079
 8380TIP3    H225084   3.084   7.591   5.223
 8381TIP3   OH225085   2.611   2.747   6.079
 8381TIP3    H125086   2.667   2.813   6.119
 8381TIP3    H225087   2.665   2.669   6.075
 8382TIP3   OH225088   0.502   4.284   3.747
 8382TIP3    H125089   0.580   4.338   3.730
 8382TIP3    H225090   0.490   4.233   3.667
 8383TIP3   OH225091   6.797   3.661   6.738
 8383TIP3    H125092   6.744   3.664   6.818
 8383TIP3    H225093   6.794   3.750   6.703
 8384TIP3   OH225094   0.709   0.102   4.274
 8384TIP3    H125095   0.795   0.135   4.301
 8384TIP3    H225096   0.729   0.029   4.215
 8385TIP3   OH225097   5.969   2.165   2.299
 8385TIP3    H125098   5.969   2.251   2.342
 8385TIP3    H225099   5.877   2.147   2.281
 8386TIP3   OH225100   5.842   0.541   0.474
 8386TIP3    H125101   5.763   0.594   0.483
 8386TIP3    H225102   5.882   0.542   0.561
 8387TIP3   OH225103   2.774   5.407   5.251
 8387TIP3    H125104   2.808   5.331   5.203
 8387TIP3    H225105   2.700   5.374   5.301
 8388TIP3   OH225106   8.251   0.596   5.055
 8388TIP3    H125107   8.242   0.603   4.960
 8388TIP3    H225108   8.312   0.665   5.079
 8389TIP3   OH225109   1.911   2.477   6.459
 8389TIP3    H125110   1.940   2.502   6.547
 8389TIP3    H225111   1.959   2.534   6.400
 8390TIP3   OH225112   6.231   5.019   4.038
 8390TIP3    H125113   6.213   5.086   4.104
 8390TIP3    H225114   6.145   4.990   4.008
 8391TIP3   OH225115   7.280   3.400   2.243
 8391TIP3    H125116   7.208   3.437   2.192
 8391TIP3    H225117   7.314   3.329   2.188
 8392TIP3   OH225118   5.595   1.287   2.612
 8392TIP3    H125119   5.665   1.330   2.662
 8392TIP3    H225120   5.545   1.238   2.678
 8393TIP3   OH225121   3.487   5.132   5.093
 8393TIP3    H125122   3.407   5.174   5.125
 8393TIP3    H225123   3.458   5.047   5.061
 8394TIP3   OH225124   6.600   5.220   4.485
 8394TIP3    H125125   6.529   5.162   4.457
 8394TIP3    H225126   6.564   5.267   4.560
 8395TIP3   OH225127   4.624   5.865   4.052
 8395TIP3    H125128   4.651   5.898   4.138
 8395TIP3    H225129   4.546   5.813   4.070
 8396TIP3   OH225130   3.623   3.614   5.268
 8396TIP3    H125131   3.541   3.598   5.221
 8396TIP3    H225132   3.620   3.552   5.341
 8397TIP3   OH225133   7.867   4.401   4.357
 8397TIP3    H125134   7.840   4.349   4.433
 8397TIP3    H225135   7.856   4.492   4.386
 8398TIP3   OH225136   0.532   0.764   3.328
 8398TIP3    H125137   0.443   0.782   3.299
 8398TIP3    H225138   0.538   0.802   3.415
 8399TIP3   OH225139   3.823   7.557   0.215
 8399TIP3    H125140   3.896   7.612   0.244
 8399TIP3    H225141   3.842   7.471   0.253
 8400TIP3   OH225142   3.274   5.065   2.635
 8400TIP3    H125143   3.352   5.009   2.636
 8400TIP3    H225144   3.254   5.076   2.542
 8401TIP3   OH225145   1.246   4.274   2.236
 8401TIP3    H125146   1.299   4.337   2.187
 8401TIP3    H225147   1.296   4.193   2.231
 8402TIP3   OH225148   7.090   5.353   1.850
 8402TIP3    H125149   7.185   5.340   1.853
 8402TIP3    H225150   7.075   5.405   1.771
 8403TIP3   OH225151   3.184   3.286   1.793
 8403TIP3    H125152   3.204   3.305   1.701
 8403TIP3    H225153   3.091   3.267   1.794
 8404TIP3   OH225154   5.357   2.523   5.063
 8404TIP3    H125155   5.366   2.594   5.000
 8404TIP3    H225156   5.389   2.446   5.016
 8405TIP3   OH225157   0.866   1.383   0.300
 8405TIP3    H125158   0.868   1.295   0.336
 8405TIP3    H225159   0.897   1.373   0.210
 8406TIP3   OH225160   6.245   6.286   3.478
 8406TIP3    H125161   6.197   6.222   3.529
 8406TIP3    H225162   6.182   6.317   3.413
 8407TIP3   OH225163   2.202   1.000   6.371
 8407TIP3    H125164   2.165   0.990   6.458
 8407TIP3    H225165   2.272   1.064   6.382
 8408TIP3   OH225166   5.836   6.416   2.435
 8408TIP3    H125167   5.823   6.347   2.370
 8408TIP3    H225168   5.830   6.371   2.519
 8409TIP3   OH225169   7.611   7.763   4.533
 8409TIP3    H125170   7.697   7.769   4.490
 8409TIP3    H225171   7.615   7.826   4.604
 8410TIP3   OH225172   0.937   1.859   2.742
 8410TIP3    H125173   0.860   1.891   2.789
 8410TIP3    H225174   0.905   1.785   2.691
 8411TIP3   OH225175   1.462   7.262   5.828
 8411TIP3    H125176   1.396   7.316   5.872
 8411TIP3    H225177   1.536   7.261   5.888
 8412TIP3   OH225178   6.093   3.530   5.789
 8412TIP3    H125179   6.020   3.523   5.851
 8412TIP3    H225180   6.056   3.575   5.714
 8413TIP3   OH225181   4.696   2.229   2.778
 8413TIP3    H125182   4.709   2.252   2.686
 8413TIP3    H225183   4.735   2.142   2.786
 8414TIP3   OH225184   1.644   7.181   3.781
 8414TIP3    H125185   1.683   7.266   3.800
 8414TIP3    H225186   1.659   7.129   3.860
 8415TIP3   OH225187   1.973   6.886   4.707
 8415TIP3    H125188   1.981   6.971   4.750
 8415TIP3    H225189   2.046   6.883   4.645
 8416TIP3   OH225190   8.180   4.319   0.242
 8416TIP3    H125191   8.215   4.341   0.156
 8416TIP3    H225192   8.139   4.400   0.273
 8417TIP3   OH225193   2.193   5.317   4.718
 8417TIP3    H125194   2.241   5.387   4.762
 8417TIP3    H225195   2.212   5.239   4.769
 8418TIP3   OH225196   1.330   0.391   2.242
 8418TIP3    H125197   1.244   0.363   2.211
 8418TIP3    H225198   1.392   0.346   2.184
 8419TIP3   OH225199   2.352   6.301   5.941
 8419TIP3    H125200   2.317   6.363   5.878
 8419TIP3    H225201   2.349   6.347   6.025
 8420TIP3   OH225202   3.221   3.798   4.018
 8420TIP3    H125203   3.274   3.816   4.096
 8420TIP3    H225204   3.262   3.721   3.978
 8421TIP3   OH225205   6.565   4.578   1.806
 8421TIP3    H125206   6.474   4.560   1.831
 8421TIP3    H225207   6.571   4.550   1.715
 8422TIP3   OH225208   0.713   6.963   6.750
 8422TIP3    H125209   0.715   6.981   6.844
 8422TIP3    H225210   0.701   7.048   6.709
 8423TIP3   OH225211   6.412   6.904   0.494
 8423TIP3    H125212   6.425   6.864   0.408
 8423TIP3    H225213   6.355   6.843   0.541
 8424TIP3   OH225214   5.235   5.868   5.597
 8424TIP3    H125215   5.268   5.894   5.683
 8424TIP3    H225216   5.207   5.949   5.556
 8425TIP3   OH225217   1.755   4.749   1.329
 8425TIP3    H125218   1.735   4.816   1.394
 8425TIP3    H225219   1.799   4.680   1.378
 8426TIP3   OH225220   7.803   2.205   4.952
 8426TIP3    H125221   7.848   2.268   4.896
 8426TIP3    H225222   7.745   2.157   4.893
 8427TIP3   OH225223   1.961   7.085   5.602
 8427TIP3    H125224   2.001   7.048   5.681
 8427TIP3    H225225   1.936   7.174   5.626
 8428TIP3   OH225226   6.531   3.313   5.493
 8428TIP3    H125227   6.485   3.231   5.472
 8428TIP3    H225228   6.581   3.292   5.571
 8429TIP3   OH225229   8.154   1.742   3.457
 8429TIP3    H125230   8.116   1.692   3.528
 8429TIP3    H225231   8.249   1.729   3.465
 8430TIP3   OH225232   1.994   5.594   0.679
 8430TIP3    H125233   2.089   5.596   0.685
 8430TIP3    H225234   1.964   5.585   0.769
 8431TIP3   OH225235   6.679   2.397   2.595
 8431TIP3    H125236   6.741   2.367   2.661
 8431TIP3    H225237   6.705   2.352   2.515
 8432TIP3   OH225238   2.208   7.181   4.639
 8432TIP3    H125239   2.282   7.170   4.699
 8432TIP3    H225240   2.132   7.156   4.691
 8433TIP3   OH225241   5.230   5.259   4.464
 8433TIP3    H125242   5.274   5.229   4.384
 8433TIP3    H225243   5.151   5.302   4.433
 8434TIP3   OH225244   5.002   3.116   6.462
 8434TIP3    H125245   4.919   3.163   6.469
 8434TIP3    H225246   5.037   3.117   6.551
 8435TIP3   OH225247   7.063   1.283   0.457
 8435TIP3    H125248   7.094   1.253   0.543
 8435TIP3    H225249   7.121   1.356   0.435
 8436TIP3   OH225250   7.119   3.589   1.921
 8436TIP3    H125251   7.212   3.605   1.939
 8436TIP3    H225252   7.082   3.566   2.007
 8437TIP3   OH225253   1.653   7.342   1.944
 8437TIP3    H125254   1.653   7.279   1.872
 8437TIP3    H225255   1.659   7.289   2.023
 8438TIP3   OH225256   7.066   5.464   3.438
 8438TIP3    H125257   7.033   5.374   3.447
 8438TIP3    H225258   7.136   5.458   3.374
 8439TIP3   OH225259   2.506   3.176   0.715
 8439TIP3    H125260   2.587   3.191   0.666
 8439TIP3    H225261   2.498   3.253   0.772
 8440TIP3   OH225262   2.434   5.278   6.267
 8440TIP3    H125263   2.469   5.255   6.180
 8440TIP3    H225264   2.461   5.369   6.280
 8441TIP3   OH225265   5.045   5.249   5.461
 8441TIP3    H125266   5.091   5.165   5.452
 8441TIP3    H225267   4.952   5.226   5.462
 8442TIP3   OH225268   4.710   3.506   2.964
 8442TIP3    H125269   4.692   3.582   3.019
 8442TIP3    H225270   4.803   3.512   2.944
 8443TIP3   OH225271   1.251   6.787   0.131
 8443TIP3    H125272   1.179   6.769   0.071
 8443TIP3    H225273   1.227   6.744   0.213
 8444TIP3   OH225274   3.587   4.501   3.291
 8444TIP3    H125275   3.671   4.546   3.288
 8444TIP3    H225276   3.544   4.537   3.369
 8445TIP3   OH225277   5.822   0.855   0.804
 8445TIP3    H125278   5.746   0.912   0.791
 8445TIP3    H225279   5.790   0.767   0.782
 8446TIP3   OH225280   5.283   4.620   4.721
 8446TIP3    H125281   5.332   4.616   4.639
 8446TIP3    H225282   5.330   4.684   4.774
 8447TIP3   OH225283   4.112   6.171   2.721
 8447TIP3    H125284   4.088   6.258   2.752
 8447TIP3    H225285   4.121   6.118   2.800
 8448TIP3   OH225286   0.628   2.005   1.159
 8448TIP3    H125287   0.540   1.967   1.158
 8448TIP3    H225288   0.615   2.098   1.142
 8449TIP3   OH225289   5.597   6.620   1.758
 8449TIP3    H125290   5.510   6.580   1.746
 8449TIP3    H225291   5.654   6.547   1.779
 8450TIP3   OH225292   7.422   4.889   0.686
 8450TIP3    H125293   7.501   4.878   0.738
 8450TIP3    H225294   7.447   4.949   0.616
 8451TIP3   OH225295   0.557   0.868   3.896
 8451TIP3    H125296   0.537   0.836   3.808
 8451TIP3    H225297   0.544   0.792   3.953
 8452TIP3   OH225298   6.757   4.836   3.414
 8452TIP3    H125299   6.823   4.871   3.474
 8452TIP3    H225300   6.755   4.899   3.341
 8453TIP3   OH225301   0.199   2.525   5.198
 8453TIP3    H125302   0.147   2.447   5.178
 8453TIP3    H225303   0.289   2.498   5.180
 8454TIP3   OH225304   8.143   5.144   6.019
 8454TIP3    H125305   8.206   5.184   5.959
 8454TIP3    H225306   8.176   5.055   6.031
 8455TIP3   OH225307   3.030   6.170   1.252
 8455TIP3    H125308   3.106   6.210   1.211
 8455TIP3    H225309   2.973   6.147   1.178
 8456TIP3   OH225310   2.984   5.635   5.708
 8456TIP3    H125311   3.022   5.586   5.781
 8456TIP3    H225312   2.892   5.608   5.707
 8457TIP3   OH225313   6.884   7.574   1.435
 8457TIP3    H125314   6.904   7.601   1.525
 8457TIP3    H225315   6.914   7.647   1.381
 8458TIP3   OH225316   1.986   5.509   0.952
 8458TIP3    H125317   1.984   5.414   0.967
 8458TIP3    H225318   1.895   5.537   0.961
 8459TIP3   OH225319   3.941   6.079   0.341
 8459TIP3    H125320   3.865   6.131   0.365
 8459TIP3    H225321   3.944   6.009   0.406
 8460TIP3   OH225322   7.647   7.108   2.055
 8460TIP3    H125323   7.738   7.078   2.059
 8460TIP3    H225324   7.622   7.119   2.147
 8461TIP3   OH225325   5.759   3.397   3.160
 8461TIP3    H125326   5.773   3.360   3.073
 8461TIP3    H225327   5.746   3.322   3.217
 8462TIP3   OH225328   5.268   2.450   2.271
 8462TIP3    H125329   5.217   2.395   2.211
 8462TIP3    H225330   5.222   2.533   2.273
 8463TIP3   OH225331   7.424   3.617   6.176
 8463TIP3    H125332   7.410   3.705   6.142
 8463TIP3    H225333   7.365   3.611   6.251
 8464TIP3   OH225334   6.512   1.230   4.242
 8464TIP3    H125335   6.584   1.214   4.180
 8464TIP3    H225336   6.433   1.232   4.188
 8465TIP3   OH225337   1.761   2.663   5.940
 8465TIP3    H125338   1.686   2.709   5.902
 8465TIP3    H225339   1.724   2.584   5.980
 8466TIP3   OH225340   6.235   6.694   1.396
 8466TIP3    H125341   6.212   6.601   1.402
 8466TIP3    H225342   6.159   6.740   1.432
 8467TIP3   OH225343   1.580   6.564   4.857
 8467TIP3    H125344   1.518   6.502   4.895
 8467TIP3    H225345   1.661   6.514   4.847
 8468TIP3   OH225346   1.086   5.779   2.101
 8468TIP3    H125347   1.141   5.858   2.103
 8468TIP3    H225348   1.143   5.709   2.133
 8469TIP3   OH225349   6.437   3.943   0.546
 8469TIP3    H125350   6.355   3.945   0.595
 8469TIP3    H225351   6.503   3.921   0.612
 8470TIP3   OH225352   6.673   7.883   5.997
 8470TIP3    H125353   6.750   7.835   6.027
 8470TIP3    H225354   6.611   7.815   5.972
 8471TIP3   OH225355   2.893   6.367   4.337
 8471TIP3    H125356   2.817   6.353   4.393
 8471TIP3    H225357   2.906   6.462   4.337
 8472TIP3   OH225358   4.533   7.130   6.643
 8472TIP3    H125359   4.560   7.038   6.635
 8472TIP3    H225360   4.614   7.178   6.655
 8473TIP3   OH225361   0.296   7.413   3.854
 8473TIP3    H125362   0.258   7.443   3.771
 8473TIP3    H225363   0.273   7.320   3.858
 8474TIP3   OH225364   5.066   2.261   4.098
 8474TIP3    H125365   4.993   2.315   4.127
 8474TIP3    H225366   5.026   2.176   4.077
 8475TIP3   OH225367   5.759   4.347   0.387
 8475TIP3    H125368   5.711   4.429   0.400
 8475TIP3    H225369   5.702   4.294   0.332
 8476TIP3   OH225370   6.093   2.986   1.973
 8476TIP3    H125371   6.025   3.049   1.947
 8476TIP3    H225372   6.175   3.035   1.963
 8477TIP3   OH225373   0.334   1.306   2.890
 8477TIP3    H125374   0.396   1.285   2.960
 8477TIP3    H225375   0.342   1.234   2.828
 8478TIP3   OH225376   6.339   6.094   3.122
 8478TIP3    H125377   6.428   6.107   3.092
 8478TIP3    H225378   6.348   6.044   3.204
 8479TIP3   OH225379   7.185   7.075   1.272
 8479TIP3    H125380   7.111   7.018   1.289
 8479TIP3    H225381   7.205   7.061   1.179
 8480TIP3   OH225382   2.700   7.505   3.661
 8480TIP3    H125383   2.742   7.444   3.722
 8480TIP3    H225384   2.607   7.482   3.665
 8481TIP3   OH225385   3.621   6.978   2.177
 8481TIP3    H125386   3.588   6.974   2.267
 8481TIP3    H225387   3.703   7.028   2.183
 8482TIP3   OH225388   3.527   5.481   5.545
 8482TIP3    H125389   3.511   5.474   5.451
 8482TIP3    H225390   3.448   5.521   5.581
 8483TIP3   OH225391   2.047   0.073   5.735
 8483TIP3    H125392   2.134   0.111   5.729
 8483TIP3    H225393   1.993   0.143   5.772
 8484TIP3   OH225394   5.406   6.257   4.664
 8484TIP3    H125395   5.498   6.282   4.666
 8484TIP3    H225396   5.368   6.296   4.743
 8485TIP3   OH225397   0.867   4.208   1.727
 8485TIP3    H125398   0.955   4.221   1.763
 8485TIP3    H225399   0.835   4.129   1.770
 8486TIP3   OH225400   4.570   4.710   1.664
 8486TIP3    H125401   4.559   4.654   1.742
 8486TIP3    H225402   4.483   4.744   1.646
 8487TIP3   OH225403   1.060   6.717   5.536
 8487TIP3    H125404   1.141   6.759   5.508
 8487TIP3    H225405   1.080   6.623   5.532
 8488TIP3   OH225406   5.794   4.687   4.287
 8488TIP3    H125407   5.769   4.753   4.222
 8488TIP3    H225408   5.814   4.738   4.366
 8489TIP3   OH225409   7.298   2.160   5.097
 8489TIP3    H125410   7.369   2.218   5.067
 8489TIP3    H225411   7.231   2.220   5.129
 8490TIP3   OH225412   7.027   7.285   2.155
 8490TIP3    H125413   7.094   7.326   2.099
 8490TIP3    H225414   6.944   7.304   2.111
 8491TIP3   OH225415   2.442   3.475   0.292
 8491TIP3    H125416   2.358   3.449   0.330
 8491TIP3    H225417   2.495   3.395   0.292
 8492TIP3   OH225418   4.751   7.029   3.721
 8492TIP3    H125419   4.783   7.118   3.707
 8492TIP3    H225420   4.687   7.016   3.651
 8493TIP3   OH225421   6.559   2.330   2.107
 8493TIP3    H125422   6.651   2.355   2.100
 8493TIP3    H225423   6.515   2.409   2.136
 8494TIP3   OH225424   7.944   3.564   1.408
 8494TIP3    H125425   7.992   3.505   1.465
 8494TIP3    H225426   7.961   3.651   1.444
 8495TIP3   OH225427   5.883   5.585   0.934
 8495TIP3    H125428   5.826   5.594   0.857
 8495TIP3    H225429   5.899   5.491   0.940
 8496TIP3   OH225430   4.560   1.809   3.478
 8496TIP3    H125431   4.465   1.803   3.489
 8496TIP3    H225432   4.587   1.878   3.539
 8497TIP3   OH225433   4.642   7.598   2.916
 8497TIP3    H125434   4.703   7.613   2.844
 8497TIP3    H225435   4.564   7.563   2.874
 8498TIP3   OH225436   2.682   4.662   6.679
 8498TIP3    H125437   2.737   4.610   6.738
 8498TIP3    H225438   2.607   4.687   6.732
 8499TIP3   OH225439   0.834   1.503   0.835
 8499TIP3    H125440   0.920   1.522   0.873
 8499TIP3    H225441   0.826   1.564   0.762
 8500TIP3   OH225442   0.161   3.666   1.304
 8500TIP3    H125443   0.216   3.703   1.373
 8500TIP3    H225444   0.148   3.575   1.328
 8501TIP3   OH225445   5.807   2.539   4.454
 8501TIP3    H125446   5.805   2.593   4.375
 8501TIP3    H225447   5.732   2.480   4.446
 8502TIP3   OH225448   4.377   3.640   1.909
 8502TIP3    H125449   4.384   3.545   1.894
 8502TIP3    H225450   4.414   3.654   1.996
 8503TIP3   OH225451   1.205   0.573   1.347
 8503TIP3    H125452   1.122   0.590   1.391
 8503TIP3    H225453   1.191   0.603   1.257
 8504TIP3   OH225454   7.478   7.554   1.366
 8504TIP3    H125455   7.508   7.582   1.452
 8504TIP3    H225456   7.539   7.595   1.305
 8505TIP3   OH225457   8.259   4.504   1.195
 8505TIP3    H125458   8.219   4.425   1.232
 8505TIP3    H225459   8.285   4.555   1.272
 8506TIP3   OH225460   6.535   5.984   4.789
 8506TIP3    H125461   6.600   6.037   4.743
 8506TIP3    H225462   6.502   5.924   4.723
 8507TIP3   OH225463   4.091   3.455   4.143
 8507TIP3    H125464   4.168   3.471   4.089
 8507TIP3    H225465   4.119   3.477   4.232
 8508TIP3   OH225466   1.505   5.573   1.077
 8508TIP3    H125467   1.472   5.614   1.157
 8508TIP3    H225468   1.431   5.576   1.016
 8509TIP3   OH225469   3.372   4.343   4.661
 8509TIP3    H125470   3.336   4.279   4.600
 8509TIP3    H225471   3.300   4.360   4.722
 8510TIP3   OH225472   0.039   4.603   0.544
 8510TIP3    H125473  -0.007   4.592   0.461
 8510TIP3    H225474  -0.009   4.672   0.590
 8511TIP3   OH225475   7.214   0.309   1.597
 8511TIP3    H125476   7.271   0.240   1.562
 8511TIP3    H225477   7.249   0.390   1.560
 8512TIP3   OH225478   6.506   5.017   1.714
 8512TIP3    H125479   6.558   4.944   1.748
 8512TIP3    H225480   6.569   5.089   1.705
 8513TIP3   OH225481   7.295   0.906   3.982
 8513TIP3    H125482   7.332   0.947   3.904
 8513TIP3    H225483   7.357   0.838   4.007
 8514TIP3   OH225484   2.191   0.777   0.667
 8514TIP3    H125485   2.246   0.715   0.714
 8514TIP3    H225486   2.122   0.801   0.729
 8515TIP3   OH225487   2.297   7.046   1.662
 8515TIP3    H125488   2.385   7.007   1.657
 8515TIP3    H225489   2.292   7.082   1.750
 8516TIP3   OH225490   6.167   4.958   2.963
 8516TIP3    H125491   6.194   4.866   2.964
 8516TIP3    H225492   6.248   5.006   2.943
 8517TIP3   OH225493   2.685   3.537   3.159
 8517TIP3    H125494   2.640   3.455   3.140
 8517TIP3    H225495   2.739   3.555   3.082
 8518TIP3   OH225496   6.029   3.795   4.189
 8518TIP3    H125497   6.030   3.760   4.278
 8518TIP3    H225498   6.115   3.775   4.153
 8519TIP3   OH225499   3.464   3.324   2.089
 8519TIP3    H125500   3.546   3.343   2.134
 8519TIP3    H225501   3.489   3.304   1.999
 8520TIP3   OH225502   8.275   4.756   5.767
 8520TIP3    H125503   8.303   4.733   5.856
 8520TIP3    H225504   8.344   4.816   5.736
 8521TIP3   OH225505   4.355   3.100   0.824
 8521TIP3    H125506   4.383   3.186   0.794
 8521TIP3    H225507   4.429   3.042   0.803
 8522TIP3   OH225508   5.736   0.556   1.773
 8522TIP3    H125509   5.647   0.522   1.779
 8522TIP3    H225510   5.790   0.480   1.752
 8523TIP3   OH225511   5.336   0.452   4.669
 8523TIP3    H125512   5.323   0.540   4.706
 8523TIP3    H225513   5.350   0.468   4.576
 8524TIP3   OH225514   3.098   3.829   5.315
 8524TIP3    H125515   3.027   3.852   5.255
 8524TIP3    H225516   3.153   3.769   5.266
 8525TIP3   OH225517   1.575   4.501   4.644
 8525TIP3    H125518   1.506   4.508   4.578
 8525TIP3    H225519   1.527   4.496   4.727
 8526TIP3   OH225520   1.638   1.252   1.262
 8526TIP3    H125521   1.698   1.323   1.239
 8526TIP3    H225522   1.570   1.254   1.194
 8527TIP3   OH225523   6.988   5.505   1.643
 8527TIP3    H125524   6.964   5.581   1.590
 8527TIP3    H225525   6.969   5.430   1.588
 8528TIP3   OH225526   3.073   5.906   3.682
 8528TIP3    H125527   3.155   5.888   3.727
 8528TIP3    H225528   3.017   5.946   3.749
 8529TIP3   OH225529   6.234   3.051   2.668
 8529TIP3    H125530   6.313   3.021   2.714
 8529TIP3    H225531   6.206   2.974   2.618
 8530TIP3   OH225532   2.187   2.643   1.580
 8530TIP3    H125533   2.097   2.656   1.609
 8530TIP3    H225534   2.180   2.585   1.505
 8531TIP3   OH225535   6.909   1.920   1.245
 8531TIP3    H125536   6.896   1.943   1.152
 8531TIP3    H225537   6.866   1.835   1.255
 8532TIP3   OH225538   0.480   4.407   0.518
 8532TIP3    H125539   0.409   4.470   0.523
 8532TIP3    H225540   0.559   4.461   0.505
 8533TIP3   OH225541   3.554   6.510   5.625
 8533TIP3    H125542   3.565   6.566   5.701
 8533TIP3    H225543   3.638   6.466   5.614
 8534TIP3   OH225544   0.310   7.535   2.238
 8534TIP3    H125545   0.250   7.469   2.203
 8534TIP3    H225546   0.278   7.553   2.326
 8535TIP3   OH225547   7.032   4.930   2.551
 8535TIP3    H125548   7.002   4.926   2.641
 8535TIP3    H225549   7.094   4.857   2.543
 8536TIP3   OH225550   1.917   7.089   2.267
 8536TIP3    H125551   1.884   7.055   2.351
 8536TIP3    H225552   2.012   7.081   2.273
 8537TIP3   OH225553   3.523   3.050   0.830
 8537TIP3    H125554   3.446   3.024   0.782
 8537TIP3    H225555   3.492   3.116   0.892
 8538TIP3   OH225556   1.860   2.692   2.704
 8538TIP3    H125557   1.873   2.786   2.694
 8538TIP3    H225558   1.880   2.655   2.618
 8539TIP3   OH225559   2.297   0.497   4.068
 8539TIP3    H125560   2.349   0.553   4.124
 8539TIP3    H225561   2.344   0.496   3.985
 8540TIP3   OH225562   3.775   5.023   4.504
 8540TIP3    H125563   3.763   4.998   4.596
 8540TIP3    H225564   3.754   4.943   4.455
 8541TIP3   OH225565   2.040   4.614   0.364
 8541TIP3    H125566   2.030   4.647   0.275
 8541TIP3    H225567   1.998   4.528   0.362
 8542TIP3   OH225568   7.126   1.749   3.949
 8542TIP3    H125569   7.212   1.709   3.960
 8542TIP3    H225570   7.065   1.675   3.947
 8543TIP3   OH225571   2.834   5.266   3.101
 8543TIP3    H125572   2.815   5.178   3.132
 8543TIP3    H225573   2.758   5.318   3.126
 8544TIP3   OH225574   7.076   3.748   4.263
 8544TIP3    H125575   7.146   3.683   4.263
 8544TIP3    H225576   7.074   3.781   4.353
 8545TIP3   OH225577   4.197   2.550   2.437
 8545TIP3    H125578   4.152   2.588   2.513
 8545TIP3    H225579   4.147   2.581   2.362
 8546TIP3   OH225580   1.636   1.064   2.849
 8546TIP3    H125581   1.636   1.116   2.930
 8546TIP3    H225582   1.550   1.079   2.810
 8547TIP3   OH225583   8.200   4.852   2.459
 8547TIP3    H125584   8.149   4.929   2.435
 8547TIP3    H225585   8.289   4.886   2.472
 8548TIP3   OH225586   3.180   4.117   3.481
 8548TIP3    H125587   3.123   4.042   3.497
 8548TIP3    H225588   3.139   4.164   3.408
 8549TIP3   OH225589   4.692   2.657   3.386
 8549TIP3    H125590   4.720   2.725   3.325
 8549TIP3    H225591   4.732   2.577   3.354
 8550TIP3   OH225592   7.937   4.923   0.481
 8550TIP3    H125593   7.853   4.926   0.527
 8550TIP3    H225594   7.999   4.890   0.546
 8551TIP3   OH225595   3.478   2.073   0.938
 8551TIP3    H125596   3.383   2.067   0.929
 8551TIP3    H225597   3.501   2.156   0.896
 8552TIP3   OH225598   3.437   6.253   3.728
 8552TIP3    H125599   3.357   6.258   3.780
 8552TIP3    H225600   3.508   6.259   3.792
 8553TIP3   OH225601   4.986   5.282   1.082
 8553TIP3    H125602   4.931   5.314   1.154
 8553TIP3    H225603   5.057   5.346   1.075
 8554TIP3   OH225604   7.767   2.453   5.400
 8554TIP3    H125605   7.711   2.528   5.422
 8554TIP3    H225606   7.733   2.421   5.317
 8555TIP3   OH225607   0.143   7.344   3.050
 8555TIP3    H125608   0.094   7.263   3.067
 8555TIP3    H225609   0.081   7.414   3.067
 8556TIP3   OH225610   8.015   0.259   0.239
 8556TIP3    H125611   8.056   0.335   0.198
 8556TIP3    H225612   7.980   0.208   0.167
 8557TIP3   OH225613   4.767   3.212   3.816
 8557TIP3    H125614   4.726   3.259   3.743
 8557TIP3    H225615   4.707   3.139   3.834
 8558TIP3   OH225616   7.497   4.208   6.408
 8558TIP3    H125617   7.556   4.184   6.336
 8558TIP3    H225618   7.541   4.174   6.487
 8559TIP3   OH225619   4.973   2.898   5.135
 8559TIP3    H125620   5.009   2.882   5.222
 8559TIP3    H225621   4.886   2.859   5.138
 8560TIP3   OH225622   7.563   7.082   2.341
 8560TIP3    H125623   7.564   7.093   2.436
 8560TIP3    H225624   7.490   7.136   2.311
 8561TIP3   OH225625   4.357   2.821   5.667
 8561TIP3    H125626   4.299   2.749   5.643
 8561TIP3    H225627   4.430   2.779   5.714
 8562TIP3   OH225628   4.229   6.965   1.389
 8562TIP3    H125629   4.228   6.937   1.297
 8562TIP3    H225630   4.137   6.965   1.415
 8563TIP3   OH225631   6.197   5.193   5.433
 8563TIP3    H125632   6.209   5.099   5.449
 8563TIP3    H225633   6.164   5.227   5.517
 8564TIP3   OH225634   1.027   4.988   5.616
 8564TIP3    H125635   1.077   4.917   5.657
 8564TIP3    H225636   1.040   5.063   5.674
 8565TIP3   OH225637   5.292   2.224   1.286
 8565TIP3    H125638   5.280   2.255   1.196
 8565TIP3    H225639   5.203   2.218   1.322
 8566TIP3   OH225640   4.302   7.163   2.000
 8566TIP3    H125641   4.374   7.170   1.938
 8566TIP3    H225642   4.232   7.217   1.963
 8567TIP3   OH225643   6.212   7.148   5.558
 8567TIP3    H125644   6.223   7.118   5.647
 8567TIP3    H225645   6.119   7.169   5.551
 8568TIP3   OH225646   0.590   1.245   3.048
 8568TIP3    H125647   0.670   1.243   2.997
 8568TIP3    H225648   0.570   1.153   3.065
 8569TIP3   OH225649   7.551   2.608   4.342
 8569TIP3    H125650   7.589   2.688   4.379
 8569TIP3    H225651   7.604   2.537   4.380
 8570TIP3   OH225652   4.667   3.749   1.107
 8570TIP3    H125653   4.759   3.731   1.087
 8570TIP3    H225654   4.651   3.836   1.071
 8571TIP3   OH225655   0.807   3.179   6.717
 8571TIP3    H125656   0.738   3.139   6.664
 8571TIP3    H225657   0.888   3.151   6.676
 8572TIP3   OH225658   3.667   4.568   5.937
 8572TIP3    H125659   3.650   4.583   6.030
 8572TIP3    H225660   3.759   4.593   5.925
 8573TIP3   OH225661   8.333   2.542   6.428
 8573TIP3    H125662   8.286   2.609   6.478
 8573TIP3    H225663   8.321   2.568   6.337
 8574TIP3   OH225664   2.318   3.469   4.160
 8574TIP3    H125665   2.235   3.492   4.200
 8574TIP3    H225666   2.371   3.433   4.231
 8575TIP3   OH225667   6.186   3.787   3.072
 8575TIP3    H125668   6.104   3.761   3.030
 8575TIP3    H225669   6.235   3.832   3.003
 8576TIP3   OH225670   2.962   3.078   0.832
 8576TIP3    H125671   2.918   2.995   0.850
 8576TIP3    H225672   3.013   3.062   0.753
 8577TIP3   OH225673   2.748   7.040   3.958
 8577TIP3    H125674   2.789   6.956   3.976
 8577TIP3    H225675   2.758   7.089   4.040
 8578TIP3   OH225676   1.545   0.591   4.548
 8578TIP3    H125677   1.541   0.508   4.595
 8578TIP3    H225678   1.466   0.638   4.576
 8579TIP3   OH225679   2.338   1.784   6.767
 8579TIP3    H125680   2.413   1.730   6.742
 8579TIP3    H225681   2.373   1.873   6.768
 8580TIP3   OH225682   1.027   4.264   6.694
 8580TIP3    H125683   1.099   4.296   6.640
 8580TIP3    H225684   0.962   4.232   6.631
 8581TIP3   OH225685   5.521   5.514   2.079
 8581TIP3    H125686   5.568   5.594   2.056
 8581TIP3    H225687   5.495   5.476   1.994
 8582TIP3   OH225688   0.119   4.320   2.093
 8582TIP3    H125689   0.198   4.367   2.119
 8582TIP3    H225690   0.090   4.276   2.173
 8583TIP3   OH225691   6.688   0.258   1.670
 8583TIP3    H125692   6.774   0.263   1.628
 8583TIP3    H225693   6.704   0.209   1.751
 8584TIP3   OH225694   3.054   2.502   3.200
 8584TIP3    H125695   3.086   2.577   3.250
 8584TIP3    H225696   2.980   2.468   3.250
 8585TIP3   OH225697   7.817   1.831   1.676
 8585TIP3    H125698   7.870   1.910   1.665
 8585TIP3    H225699   7.880   1.760   1.686
 8586TIP3   OH225700   6.811   6.554   6.079
 8586TIP3    H125701   6.849   6.642   6.088
 8586TIP3    H225702   6.801   6.523   6.169
 8587TIP3   OH225703   6.253   6.258   6.216
 8587TIP3    H125704   6.290   6.208   6.143
 8587TIP3    H225705   6.305   6.338   6.220
 8588TIP3   OH225706   0.906   5.131   4.748
 8588TIP3    H125707   0.874   5.082   4.673
 8588TIP3    H225708   0.872   5.085   4.824
 8589TIP3   OH225709   4.100   1.162   6.511
 8589TIP3    H125710   4.194   1.163   6.530
 8589TIP3    H225711   4.069   1.247   6.541
 8590TIP3   OH225712   7.026   2.160   1.409
 8590TIP3    H125713   6.953   2.192   1.461
 8590TIP3    H225714   6.992   2.081   1.366
 8591TIP3   OH225715   4.173   7.789   2.397
 8591TIP3    H125716   4.117   7.850   2.348
 8591TIP3    H225717   4.260   7.801   2.360
 8592TIP3   OH225718   0.474   5.211   2.874
 8592TIP3    H125719   0.397   5.168   2.837
 8592TIP3    H225720   0.460   5.304   2.857
 8593TIP3   OH225721   1.678   2.418   0.620
 8593TIP3    H125722   1.670   2.441   0.712
 8593TIP3    H225723   1.707   2.327   0.621
 8594TIP3   OH225724   1.350   5.799   3.588
 8594TIP3    H125725   1.262   5.763   3.592
 8594TIP3    H225726   1.389   5.777   3.673
 8595TIP3   OH225727   5.885   5.039   5.711
 8595TIP3    H125728   5.916   5.110   5.656
 8595TIP3    H225729   5.882   4.963   5.653
 8596TIP3   OH225730   4.461   5.881   4.764
 8596TIP3    H125731   4.397   5.932   4.714
 8596TIP3    H225732   4.408   5.818   4.813
 8597TIP3   OH225733   2.568   5.655   0.678
 8597TIP3    H125734   2.513   5.618   0.608
 8597TIP3    H225735   2.593   5.741   0.645
 8598TIP3   OH225736   1.924   3.110   2.473
 8598TIP3    H125737   1.891   3.038   2.525
 8598TIP3    H225738   1.956   3.174   2.537
 8599TIP3   OH225739   3.234   3.749   2.877
 8599TIP3    H125740   3.243   3.655   2.891
 8599TIP3    H225741   3.146   3.759   2.842
 8600TIP3   OH225742   3.183   0.276   0.271
 8600TIP3    H125743   3.272   0.311   0.282
 8600TIP3    H225744   3.142   0.334   0.208
 8601TIP3   OH225745   2.958   5.263   3.466
 8601TIP3    H125746   3.000   5.323   3.404
 8601TIP3    H225747   2.985   5.295   3.552
 8602TIP3   OH225748   2.742   7.209   4.187
 8602TIP3    H125749   2.792   7.150   4.244
 8602TIP3    H225750   2.650   7.188   4.205
 8603TIP3   OH225751   2.850   0.677   2.415
 8603TIP3    H125752   2.915   0.721   2.469
 8603TIP3    H225753   2.765   0.707   2.449
 8604TIP3   OH225754   6.351   0.153   0.817
 8604TIP3    H125755   6.383   0.229   0.768
 8604TIP3    H225756   6.264   0.136   0.780
 8605TIP3   OH225757   5.886   3.162   2.096
 8605TIP3    H125758   5.972   3.176   2.136
 8605TIP3    H225759   5.835   3.239   2.123
 8606TIP3   OH225760   4.282   1.861   2.047
 8606TIP3    H125761   4.320   1.781   2.083
 8606TIP3    H225762   4.262   1.915   2.123
 8607TIP3   OH225763   4.668   0.928   2.001
 8607TIP3    H125764   4.680   0.937   2.096
 8607TIP3    H225765   4.661   0.833   1.986
 8608TIP3   OH225766   3.933   0.264   4.056
 8608TIP3    H125767   4.003   0.329   4.066
 8608TIP3    H225768   3.926   0.223   4.142
 8609TIP3   OH225769   7.427   7.723   1.941
 8609TIP3    H125770   7.488   7.671   1.994
 8609TIP3    H225771   7.411   7.669   1.863
 8610TIP3   OH225772   6.263   2.103   1.549
 8610TIP3    H125773   6.256   2.065   1.636
 8610TIP3    H225774   6.335   2.166   1.555
 8611TIP3   OH225775   4.166   2.893   2.504
 8611TIP3    H125776   4.157   2.900   2.409
 8611TIP3    H225777   4.123   2.972   2.538
 8612TIP3   OH225778   2.487   5.220   4.700
 8612TIP3    H125779   2.420   5.166   4.742
 8612TIP3    H225780   2.530   5.161   4.638
 8613TIP3   OH225781   7.430   2.529   2.119
 8613TIP3    H125782   7.468   2.448   2.152
 8613TIP3    H225783   7.458   2.533   2.027
 8614TIP3   OH225784   3.855   4.879   1.348
 8614TIP3    H125785   3.857   4.903   1.255
 8614TIP3    H225786   3.807   4.796   1.351
 8615TIP3   OH225787   1.673   4.123   6.730
 8615TIP3    H125788   1.708   4.035   6.735
 8615TIP3    H225789   1.638   4.140   6.818
 8616TIP3   OH225790   4.435   6.678   5.041
 8616TIP3    H125791   4.395   6.617   5.101
 8616TIP3    H225792   4.364   6.737   5.014
 8617TIP3   OH225793   0.173   6.448   5.252
 8617TIP3    H125794   0.192   6.474   5.343
 8617TIP3    H225795   0.172   6.530   5.204
 8618TIP3   OH225796   3.013   1.482   5.313
 8618TIP3    H125797   2.966   1.542   5.256
 8618TIP3    H225798   3.102   1.517   5.316
 8619TIP3   OH225799   0.428   7.464   0.062
 8619TIP3    H125800   0.438   7.452   0.157
 8619TIP3    H225801   0.512   7.500   0.034
 8620TIP3   OH225802   3.300   7.085   1.765
 8620TIP3    H125803   3.389   7.058   1.742
 8620TIP3    H225804   3.288   7.055   1.855
 8621TIP3   OH225805   4.952   0.551   0.332
 8621TIP3    H125806   4.993   0.607   0.266
 8621TIP3    H225807   5.022   0.492   0.360
 8622TIP3   OH225808   7.900   1.840   3.215
 8622TIP3    H125809   7.822   1.811   3.168
 8622TIP3    H225810   7.871   1.855   3.305
 8623TIP3   OH225811   0.639   1.516   4.282
 8623TIP3    H125812   0.657   1.431   4.242
 8623TIP3    H225813   0.557   1.504   4.330
 8624TIP3   OH225814   0.725   0.896   0.389
 8624TIP3    H125815   0.649   0.939   0.350
 8624TIP3    H225816   0.797   0.958   0.376
 8625TIP3   OH225817   7.564   0.512   1.377
 8625TIP3    H125818   7.551   0.602   1.405
 8625TIP3    H225819   7.483   0.490   1.330
 8626TIP3   OH225820   0.372   2.995   1.515
 8626TIP3    H125821   0.298   3.039   1.474
 8626TIP3    H225822   0.354   3.000   1.609
 8627TIP3   OH225823   2.679   6.519   2.419
 8627TIP3    H125824   2.752   6.483   2.469
 8627TIP3    H225825   2.721   6.565   2.346
 8628TIP3   OH225826   7.612   5.348   4.888
 8628TIP3    H125827   7.706   5.363   4.900
 8628TIP3    H225828   7.592   5.386   4.803
 8629TIP3   OH225829   1.051   0.564   0.389
 8629TIP3    H125830   0.984   0.502   0.362
 8629TIP3    H225831   1.037   0.575   0.483
 8630TIP3   OH225832   8.146   1.855   1.494
 8630TIP3    H125833   8.168   1.909   1.419
 8630TIP3    H225834   8.124   1.770   1.456
 8631TIP3   OH225835   7.327   1.527   6.223
 8631TIP3    H125836   7.354   1.549   6.311
 8631TIP3    H225837   7.256   1.463   6.235
 8632TIP3   OH225838   1.672   7.156   4.077
 8632TIP3    H125839   1.750   7.100   4.073
 8632TIP3    H225840   1.679   7.200   4.161
 8633TIP3   OH225841   3.408   4.832   6.762
 8633TIP3    H125842   3.316   4.858   6.755
 8633TIP3    H225843   3.455   4.893   6.706
 8634TIP3   OH225844   2.681   1.916   1.086
 8634TIP3    H125845   2.766   1.873   1.096
 8634TIP3    H225846   2.651   1.930   1.176
 8635TIP3   OH225847   3.498   5.807   0.936
 8635TIP3    H125848   3.455   5.747   0.996
 8635TIP3    H225849   3.474   5.894   0.968
 8636TIP3   OH225850   1.161   1.725   6.170
 8636TIP3    H125851   1.126   1.780   6.101
 8636TIP3    H225852   1.202   1.651   6.124
 8637TIP3   OH225853   7.455   6.836   2.399
 8637TIP3    H125854   7.488   6.826   2.489
 8637TIP3    H225855   7.498   6.915   2.367
 8638TIP3   OH225856   7.933   7.718   5.196
 8638TIP3    H125857   7.920   7.781   5.126
 8638TIP3    H225858   7.987   7.765   5.260
 8639TIP3   OH225859   2.834   4.463   1.001
 8639TIP3    H125860   2.766   4.407   0.964
 8639TIP3    H225861   2.787   4.530   1.051
 8640TIP3   OH225862   7.574   0.213   2.811
 8640TIP3    H125863   7.571   0.298   2.767
 8640TIP3    H225864   7.485   0.197   2.841
 8641TIP3   OH225865   7.025   1.811   0.130
 8641TIP3    H125866   6.975   1.842   0.205
 8641TIP3    H225867   7.028   1.716   0.140
 8642TIP3   OH225868   0.674   0.740   0.606
 8642TIP3    H125869   0.707   0.784   0.527
 8642TIP3    H225870   0.735   0.765   0.675
 8643TIP3   OH225871   3.040   4.400   1.860
 8643TIP3    H125872   2.950   4.428   1.876
 8643TIP3    H225873   3.033   4.311   1.827
 8644TIP3   OH225874   0.463   2.394   5.772
 8644TIP3    H125875   0.505   2.345   5.842
 8644TIP3    H225876   0.475   2.486   5.797
 8645TIP3   OH225877   0.017   1.224   6.586
 8645TIP3    H125878   0.059   1.182   6.512
 8645TIP3    H225879   0.089   1.242   6.647
 8646TIP3   OH225880   7.887   5.308   0.354
 8646TIP3    H125881   7.878   5.308   0.449
 8646TIP3    H225882   7.897   5.216   0.331
 8647TIP3   OH225883   3.760   6.071   1.792
 8647TIP3    H125884   3.684   6.126   1.775
 8647TIP3    H225885   3.833   6.117   1.751
 8648TIP3   OH225886   7.168   5.718   1.107
 8648TIP3    H125887   7.164   5.631   1.067
 8648TIP3    H225888   7.076   5.743   1.116
 8649TIP3   OH225889   4.399   1.561   4.465
 8649TIP3    H125890   4.453   1.492   4.427
 8649TIP3    H225891   4.461   1.630   4.488
 8650TIP3   OH225892   2.260   1.876   0.695
 8650TIP3    H125893   2.331   1.814   0.686
 8650TIP3    H225894   2.296   1.959   0.662
 8651TIP3   OH225895   0.886   4.059   6.530
 8651TIP3    H125896   0.889   3.998   6.604
 8651TIP3    H225897   0.950   4.024   6.468
 8652TIP3   OH225898   7.295   5.540   4.423
 8652TIP3    H125899   7.228   5.480   4.456
 8652TIP3    H225900   7.278   5.545   4.329
 8653TIP3   OH225901   4.928   7.619   3.137
 8653TIP3    H125902   4.839   7.587   3.122
 8653TIP3    H225903   4.922   7.713   3.119
 8654TIP3   OH225904   1.351   0.291   1.364
 8654TIP3    H125905   1.266   0.322   1.397
 8654TIP3    H225906   1.365   0.341   1.284
 8655TIP3   OH225907   3.970   6.321   6.138
 8655TIP3    H125908   3.994   6.248   6.195
 8655TIP3    H225909   4.053   6.356   6.107
 8656TIP3   OH225910   8.206   6.696   2.815
 8656TIP3    H125911   8.121   6.722   2.780
 8656TIP3    H225912   8.251   6.655   2.740
 8657TIP3   OH225913   7.170   0.749   1.912
 8657TIP3    H125914   7.206   0.709   1.991
 8657TIP3    H225915   7.205   0.696   1.841
 8658TIP3   OH225916   6.049   5.647   5.981
 8658TIP3    H125917   6.080   5.663   5.892
 8658TIP3    H225918   6.127   5.617   6.028
 8659TIP3   OH225919   0.359   3.714   0.529
 8659TIP3    H125920   0.453   3.698   0.521
 8659TIP3    H225921   0.346   3.802   0.492
 8660TIP3   OH225922   3.512   2.391   2.286
 8660TIP3    H125923   3.502   2.454   2.215
 8660TIP3    H225924   3.483   2.308   2.249
 8661TIP3   OH225925   2.565   6.827   5.723
 8661TIP3    H125926   2.528   6.839   5.810
 8661TIP3    H225927   2.490   6.835   5.663
 8662TIP3   OH225928   4.629   6.860   4.868
 8662TIP3    H125929   4.649   6.896   4.955
 8662TIP3    H225930   4.553   6.804   4.883
 8663TIP3   OH225931   6.453   3.166   1.279
 8663TIP3    H125932   6.393   3.227   1.321
 8663TIP3    H225933   6.540   3.202   1.295
 8664TIP3   OH225934   5.933   5.541   0.622
 8664TIP3    H125935   5.887   5.620   0.648
 8664TIP3    H225936   5.875   5.469   0.649
 8665TIP3   OH225937   7.167   6.021   0.098
 8665TIP3    H125938   7.204   5.942   0.139
 8665TIP3    H225939   7.209   6.025   0.012
 8666TIP3   OH225940   2.489   2.864   1.612
 8666TIP3    H125941   2.567   2.916   1.590
 8666TIP3    H225942   2.452   2.840   1.527
 8667TIP3   OH225943   5.965   4.255   2.080
 8667TIP3    H125944   6.044   4.233   2.031
 8667TIP3    H225945   5.942   4.175   2.127
 8668TIP3   OH225946   7.090   2.767   3.660
 8668TIP3    H125947   7.081   2.672   3.647
 8668TIP3    H225948   7.106   2.802   3.572
 8669TIP3   OH225949   4.800   5.472   4.889
 8669TIP3    H125950   4.777   5.524   4.811
 8669TIP3    H225951   4.831   5.537   4.952
 8670TIP3   OH225952   4.889   4.733   3.152
 8670TIP3    H125953   4.955   4.776   3.097
 8670TIP3    H225954   4.809   4.784   3.138
 8671TIP3   OH225955   3.208   6.776   1.032
 8671TIP3    H125956   3.288   6.827   1.042
 8671TIP3    H225957   3.223   6.696   1.084
 8672TIP3   OH225958   6.260   6.807   1.128
 8672TIP3    H125959   6.312   6.883   1.155
 8672TIP3    H225960   6.231   6.769   1.211
 8673TIP3   OH225961   0.238   3.175   2.182
 8673TIP3    H125962   0.234   3.173   2.087
 8673TIP3    H225963   0.257   3.084   2.207
 8674TIP3   OH225964   5.269   7.383   2.494
 8674TIP3    H125965   5.277   7.331   2.414
 8674TIP3    H225966   5.251   7.472   2.463
 8675TIP3   OH225967   5.692   0.406   0.978
 8675TIP3    H125968   5.689   0.351   1.056
 8675TIP3    H225969   5.601   0.418   0.953
 8676TIP3   OH225970   2.928   1.115   0.454
 8676TIP3    H125971   2.873   1.049   0.496
 8676TIP3    H225972   2.869   1.161   0.395
 8677TIP3   OH225973   5.902   0.984   1.678
 8677TIP3    H125974   5.947   0.906   1.646
 8677TIP3    H225975   5.812   0.954   1.696
 8678TIP3   OH225976   3.551   1.113   2.480
 8678TIP3    H125977   3.596   1.075   2.555
 8678TIP3    H225978   3.608   1.184   2.451
 8679TIP3   OH225979   7.106   5.342   6.662
 8679TIP3    H125980   7.075   5.337   6.571
 8679TIP3    H225981   7.201   5.331   6.655
 8680TIP3   OH225982   0.948   4.195   5.725
 8680TIP3    H125983   0.910   4.220   5.810
 8680TIP3    H225984   0.872   4.184   5.668
 8681TIP3   OH225985   1.020   5.440   4.812
 8681TIP3    H125986   1.063   5.361   4.846
 8681TIP3    H225987   0.991   5.487   4.890
 8682TIP3   OH225988   4.104   3.299   3.793
 8682TIP3    H125989   4.152   3.262   3.719
 8682TIP3    H225990   4.107   3.231   3.861
 8683TIP3   OH225991   1.306   1.986   4.199
 8683TIP3    H125992   1.239   1.960   4.262
 8683TIP3    H225993   1.389   1.965   4.242
 8684TIP3   OH225994   2.458   4.009   1.417
 8684TIP3    H125995   2.403   4.086   1.432
 8684TIP3    H225996   2.548   4.042   1.419
 8685TIP3   OH225997   4.410   1.353   5.916
 8685TIP3    H125998   4.383   1.303   5.993
 8685TIP3    H225999   4.396   1.445   5.941
 8686TIP3   OH226000   0.777   4.353   3.779
 8686TIP3    H126001   0.845   4.417   3.803
 8686TIP3    H226002   0.824   4.285   3.732
 8687TIP3   OH226003   7.166   0.451   3.224
 8687TIP3    H126004   7.253   0.492   3.224
 8687TIP3    H226005   7.122   0.488   3.300
 8688TIP3   OH226006   0.278   3.767   5.439
 8688TIP3    H126007   0.320   3.682   5.433
 8688TIP3    H226008   0.196   3.757   5.392
 8689TIP3   OH226009   6.262   1.688   2.145
 8689TIP3    H126010   6.262   1.682   2.241
 8689TIP3    H226011   6.322   1.760   2.126
 8690TIP3   OH226012   2.980   2.145   0.698
 8690TIP3    H126013   2.945   2.174   0.613
 8690TIP3    H226014   2.957   2.214   0.759
 8691TIP3   OH226015   3.152   4.835   1.129
 8691TIP3    H126016   3.211   4.760   1.119
 8691TIP3    H226017   3.161   4.883   1.046
 8692TIP3   OH226018   7.111   0.795   4.185
 8692TIP3    H126019   7.024   0.823   4.155
 8692TIP3    H226020   7.172   0.835   4.123
 8693TIP3   OH226021   1.941   1.776   2.731
 8693TIP3    H126022   1.861   1.730   2.756
 8693TIP3    H226023   1.912   1.848   2.675
 8694TIP3   OH226024   2.360   6.125   0.643
 8694TIP3    H126025   2.267   6.138   0.666
 8694TIP3    H226026   2.393   6.214   0.628
 8695TIP3   OH226027   5.088   6.724   0.296
 8695TIP3    H126028   5.007   6.703   0.249
 8695TIP3    H226029   5.067   6.709   0.388
 8696TIP3   OH226030   1.878   0.347   5.953
 8696TIP3    H126031   1.958   0.393   5.929
 8696TIP3    H226032   1.811   0.416   5.954
 8697TIP3   OH226033   5.478   3.159   3.108
 8697TIP3    H126034   5.543   3.198   3.050
 8697TIP3    H226035   5.510   3.177   3.196
 8698TIP3   OH226036   0.922   5.553   1.791
 8698TIP3    H126037   0.942   5.459   1.782
 8698TIP3    H226038   0.841   5.555   1.842
 8699TIP3   OH226039   7.269   6.712   0.647
 8699TIP3    H126040   7.343   6.681   0.594
 8699TIP3    H226041   7.247   6.638   0.704
 8700TIP3   OH226042   5.991   3.804   0.913
 8700TIP3    H126043   6.002   3.832   0.822
 8700TIP3    H226044   6.058   3.736   0.925
 8701TIP3   OH226045   6.469   0.263   1.498
 8701TIP3    H126046   6.399   0.201   1.518
 8701TIP3    H226047   6.534   0.250   1.567
 8702TIP3   OH226048   1.472   3.971   3.049
 8702TIP3    H126049   1.449   3.906   2.982
 8702TIP3    H226050   1.493   4.050   2.999
 8703TIP3   OH226051   5.643   2.116   2.604
 8703TIP3    H126052   5.558   2.113   2.648
 8703TIP3    H226053   5.707   2.091   2.671
 8704TIP3   OH226054   2.536   7.296   3.055
 8704TIP3    H126055   2.631   7.288   3.059
 8704TIP3    H226056   2.516   7.377   3.101
 8705TIP3   OH226057   1.278   5.468   0.010
 8705TIP3    H126058   1.309   5.421   0.087
 8705TIP3    H226059   1.349   5.527  -0.013
 8706TIP3   OH226060   1.867   3.950   1.317
 8706TIP3    H126061   1.883   3.883   1.250
 8706TIP3    H226062   1.911   4.028   1.282
 8707TIP3   OH226063   2.956   2.838   4.430
 8707TIP3    H126064   2.861   2.826   4.440
 8707TIP3    H226065   2.988   2.753   4.400
 8708TIP3   OH226066   1.935   1.773   3.041
 8708TIP3    H126067   2.018   1.815   3.064
 8708TIP3    H226068   1.954   1.679   3.046
 8709TIP3   OH226069   7.612   1.075   0.087
 8709TIP3    H126070   7.628   0.993   0.040
 8709TIP3    H226071   7.529   1.060   0.133
 8710TIP3   OH226072   7.235   4.646   3.769
 8710TIP3    H126073   7.156   4.657   3.823
 8710TIP3    H226074   7.286   4.725   3.785
 8711TIP3   OH226075   3.761   0.374   6.644
 8711TIP3    H126076   3.801   0.459   6.661
 8711TIP3    H226077   3.750   0.371   6.549
 8712TIP3   OH226078   3.298   3.033   5.528
 8712TIP3    H126079   3.248   2.952   5.539
 8712TIP3    H226080   3.245   3.100   5.570
 8713TIP3   OH226081   7.894   4.767   5.537
 8713TIP3    H126082   7.932   4.679   5.546
 8713TIP3    H226083   7.904   4.806   5.624
 8714TIP3   OH226084   7.701   7.631   3.579
 8714TIP3    H126085   7.770   7.696   3.587
 8714TIP3    H226086   7.626   7.671   3.623
 8715TIP3   OH226087   4.260   4.388   0.171
 8715TIP3    H126088   4.342   4.431   0.194
 8715TIP3    H226089   4.256   4.312   0.229
 8716TIP3   OH226090   2.645   2.751   3.238
 8716TIP3    H126091   2.606   2.671   3.202
 8716TIP3    H226092   2.576   2.789   3.292
 8717TIP3   OH226093   4.834   4.071   6.510
 8717TIP3    H126094   4.781   4.112   6.578
 8717TIP3    H226095   4.776   4.007   6.470
 8718TIP3   OH226096   3.500   2.939   2.881
 8718TIP3    H126097   3.497   2.869   2.946
 8718TIP3    H226098   3.546   2.901   2.806
 8719TIP3   OH226099   5.738   1.569   5.696
 8719TIP3    H126100   5.648   1.540   5.684
 8719TIP3    H226101   5.751   1.636   5.628
 8720TIP3   OH226102   8.093   2.352   4.827
 8720TIP3    H126103   8.106   2.258   4.844
 8720TIP3    H226104   8.136   2.366   4.742
 8721TIP3   OH226105   2.057   3.277   1.957
 8721TIP3    H126106   2.064   3.196   2.007
 8721TIP3    H226107   2.124   3.334   1.994
 8722TIP3   OH226108   7.637   0.482   5.421
 8722TIP3    H126109   7.544   0.480   5.399
 8722TIP3    H226110   7.660   0.390   5.436
 8723TIP3   OH226111   0.142   1.914   3.665
 8723TIP3    H126112   0.053   1.904   3.697
 8723TIP3    H226113   0.143   1.999   3.621
 8724TIP3   OH226114   1.581   0.115   0.505
 8724TIP3    H126115   1.548   0.201   0.478
 8724TIP3    H226116   1.640   0.134   0.578
 8725TIP3   OH226117   0.563   4.567   4.608
 8725TIP3    H126118   0.472   4.593   4.618
 8725TIP3    H226119   0.569   4.484   4.654
 8726TIP3   OH226120   6.021   7.643   4.213
 8726TIP3    H126121   5.950   7.618   4.154
 8726TIP3    H226122   6.048   7.561   4.255
 8727TIP3   OH226123   3.817   6.142   2.331
 8727TIP3    H126124   3.903   6.140   2.374
 8727TIP3    H226125   3.774   6.062   2.361
 8728TIP3   OH226126   0.210   7.355   5.833
 8728TIP3    H126127   0.120   7.330   5.811
 8728TIP3    H226128   0.241   7.404   5.757
 8729TIP3   OH226129   3.671   3.539   4.068
 8729TIP3    H126130   3.725   3.558   3.991
 8729TIP3    H226131   3.730   3.550   4.142
 8730TIP3   OH226132   3.188   2.461   0.913
 8730TIP3    H126133   3.230   2.422   0.837
 8730TIP3    H226134   3.145   2.540   0.879
 8731TIP3   OH226135   5.339   5.754   3.364
 8731TIP3    H126136   5.304   5.723   3.448
 8731TIP3    H226137   5.262   5.785   3.316
 8732TIP3   OH226138   6.203   1.410   2.065
 8732TIP3    H126139   6.213   1.503   2.081
 8732TIP3    H226140   6.222   1.399   1.972
 8733TIP3   OH226141   8.009   2.604   0.341
 8733TIP3    H126142   8.065   2.573   0.412
 8733TIP3    H226143   8.046   2.564   0.262
 8734TIP3   OH226144   4.300   1.767   0.163
 8734TIP3    H126145   4.236   1.787   0.230
 8734TIP3    H226146   4.305   1.671   0.161
 8735TIP3   OH226147   4.095   7.388   2.836
 8735TIP3    H126148   4.059   7.320   2.779
 8735TIP3    H226149   4.048   7.467   2.811
 8736TIP3   OH226150   3.535   4.304   5.226
 8736TIP3    H126151   3.549   4.229   5.283
 8736TIP3    H226152   3.506   4.266   5.143
 8737TIP3   OH226153   6.524   4.407   6.394
 8737TIP3    H126154   6.578   4.474   6.435
 8737TIP3    H226155   6.479   4.453   6.322
 8738TIP3   OH226156   4.952   2.067   3.595
 8738TIP3    H126157   5.017   2.012   3.551
 8738TIP3    H226158   4.965   2.154   3.557
 8739TIP3   OH226159   6.079   2.363   2.488
 8739TIP3    H126160   6.146   2.328   2.429
 8739TIP3    H226161   6.103   2.330   2.574
 8740TIP3   OH226162   3.166   5.524   0.724
 8740TIP3    H126163   3.198   5.463   0.657
 8740TIP3    H226164   3.245   5.570   0.754
 8741TIP3   OH226165   6.809   3.121   1.745
 8741TIP3    H126166   6.778   3.135   1.656
 8741TIP3    H226167   6.846   3.206   1.771
 8742TIP3   OH226168   5.648   3.279   4.164
 8742TIP3    H126169   5.744   3.276   4.161
 8742TIP3    H226170   5.627   3.372   4.158
 8743TIP3   OH226171   3.513   4.505   5.397
 8743TIP3    H126172   3.526   4.595   5.367
 8743TIP3    H226173   3.507   4.453   5.316
 8744TIP3   OH226174   5.198   3.817   0.952
 8744TIP3    H126175   5.252   3.782   1.023
 8744TIP3    H226176   5.248   3.890   0.917
 8745TIP3   OH226177   1.630   2.439   6.481
 8745TIP3    H126178   1.724   2.454   6.492
 8745TIP3    H226179   1.600   2.509   6.424
 8746TIP3   OH226180   6.040   2.982   5.304
 8746TIP3    H126181   6.105   3.021   5.362
 8746TIP3    H226182   6.065   3.014   5.217
 8747TIP3   OH226183   2.864   5.590   3.722
 8747TIP3    H126184   2.810   5.622   3.795
 8747TIP3    H226185   2.859   5.660   3.657
 8748TIP3   OH226186   3.462   3.933   0.398
 8748TIP3    H126187   3.396   3.920   0.466
 8748TIP3    H226188   3.432   3.879   0.325
 8749TIP3   OH226189   4.594   2.477   4.277
 8749TIP3    H126190   4.635   2.543   4.333
 8749TIP3    H226191   4.558   2.413   4.338
 8750TIP3   OH226192   3.484   3.501   2.926
 8750TIP3    H126193   3.518   3.440   2.861
 8750TIP3    H226194   3.518   3.469   3.010
 8751TIP3   OH226195   3.426   6.241   0.790
 8751TIP3    H126196   3.343   6.244   0.742
 8751TIP3    H226197   3.490   6.213   0.724
 8752TIP3   OH226198   0.049   6.309   4.825
 8752TIP3    H126199   0.045   6.261   4.908
 8752TIP3    H226200   0.059   6.240   4.759
 8753TIP3   OH226201   4.987   5.785   4.137
 8753TIP3    H126202   4.976   5.803   4.230
 8753TIP3    H226203   4.911   5.731   4.114
 8754TIP3   OH226204   8.157   6.496   4.531
 8754TIP3    H126205   8.101   6.439   4.583
 8754TIP3    H226206   8.104   6.516   4.453
 8755TIP3   OH226207   6.228   3.226   4.066
 8755TIP3    H126208   6.179   3.308   4.067
 8755TIP3    H226209   6.298   3.239   4.130
 8756TIP3   OH226210   3.797   4.349   4.262
 8756TIP3    H126211   3.883   4.310   4.279
 8756TIP3    H226212   3.810   4.402   4.183
 8757TIP3   OH226213   0.866   2.305   4.110
 8757TIP3    H126214   0.909   2.303   4.196
 8757TIP3    H226215   0.907   2.234   4.061
 8758TIP3   OH226216   7.629   0.846   4.284
 8758TIP3    H126217   7.678   0.881   4.210
 8758TIP3    H226218   7.589   0.923   4.325
 8759TIP3   OH226219   4.936   1.957   1.568
 8759TIP3    H126220   4.891   1.956   1.652
 8759TIP3    H226221   4.868   1.974   1.504
 8760TIP3   OH226222   7.496   1.229   5.495
 8760TIP3    H126223   7.500   1.141   5.531
 8760TIP3    H226224   7.506   1.287   5.570
 8761TIP3   OH226225   5.192   2.663   0.171
 8761TIP3    H126226   5.204   2.569   0.157
 8761TIP3    H226227   5.150   2.694   0.091
 8762TIP3   OH226228   7.909   2.056   4.625
 8762TIP3    H126229   7.842   2.005   4.671
 8762TIP3    H226230   7.884   2.147   4.638
 8763TIP3   OH226231   5.652   2.158   1.611
 8763TIP3    H126232   5.642   2.239   1.561
 8763TIP3    H226233   5.567   2.145   1.653
 8764TIP3   OH226234   6.869   2.673   1.465
 8764TIP3    H126235   6.843   2.657   1.374
 8764TIP3    H226236   6.952   2.626   1.474
 8765TIP3   OH226237   2.617   1.756   5.034
 8765TIP3    H126238   2.656   1.677   4.996
 8765TIP3    H226239   2.614   1.739   5.128
 8766TIP3   OH226240   8.003   2.529   5.586
 8766TIP3    H126241   8.015   2.435   5.571
 8766TIP3    H226242   8.037   2.543   5.674
 8767TIP3   OH226243   4.850   4.733   6.202
 8767TIP3    H126244   4.813   4.689   6.126
 8767TIP3    H226245   4.834   4.673   6.275
 8768TIP3   OH226246   3.144   4.863   0.268
 8768TIP3    H126247   3.111   4.780   0.234
 8768TIP3    H226248   3.230   4.841   0.305
 8769TIP3   OH226249   7.185   0.561   6.038
 8769TIP3    H126250   7.235   0.638   6.065
 8769TIP3    H226251   7.251   0.495   6.018
 8770TIP3   OH226252   4.637   2.053   5.820
 8770TIP3    H126253   4.558   2.067   5.768
 8770TIP3    H226254   4.642   1.958   5.831
 8771TIP3   OH226255   3.150   1.153   5.599
 8771TIP3    H126256   3.197   1.235   5.615
 8771TIP3    H226257   3.204   1.086   5.640
 8772TIP3   OH226258   4.482   1.499   0.421
 8772TIP3    H126259   4.531   1.427   0.462
 8772TIP3    H226260   4.547   1.544   0.366
 8773TIP3   OH226261   3.068   4.037   2.143
 8773TIP3    H126262   3.033   3.956   2.106
 8773TIP3    H226263   3.069   4.021   2.238
 8774TIP3   OH226264   5.209   4.910   2.893
 8774TIP3    H126265   5.195   4.997   2.854
 8774TIP3    H226266   5.173   4.917   2.981
 8775TIP3   OH226267   4.975   1.093   5.640
 8775TIP3    H126268   5.026   1.174   5.636
 8775TIP3    H226269   4.981   1.057   5.551
 8776TIP3   OH226270   3.524   0.981   2.230
 8776TIP3    H126271   3.548   1.035   2.305
 8776TIP3    H226272   3.592   0.999   2.165
 8777TIP3   OH226273   7.723   2.635   3.014
 8777TIP3    H126274   7.689   2.677   3.093
 8777TIP3    H226275   7.647   2.625   2.957
 8778TIP3   OH226276   4.890   4.061   3.523
 8778TIP3    H126277   4.905   3.987   3.583
 8778TIP3    H226278   4.816   4.033   3.469
 8779TIP3   OH226279   7.492   7.433   2.051
 8779TIP3    H126280   7.532   7.360   2.005
 8779TIP3    H226281   7.562   7.497   2.060
 8780TIP3   OH226282   0.330   3.624   4.050
 8780TIP3    H126283   0.350   3.674   3.971
 8780TIP3    H226284   0.393   3.552   4.050
 8781TIP3   OH226285   2.612   5.406   3.144
 8781TIP3    H126286   2.558   5.396   3.222
 8781TIP3    H226287   2.586   5.334   3.087
 8782TIP3   OH226288   8.254   7.228   5.778
 8782TIP3    H126289   8.198   7.253   5.705
 8782TIP3    H226290   8.200   7.240   5.856
 8783TIP3   OH226291   7.326   4.405   0.213
 8783TIP3    H126292   7.279   4.476   0.255
 8783TIP3    H226293   7.346   4.344   0.283
 8784TIP3   OH226294   0.190   2.955   4.344
 8784TIP3    H126295   0.132   2.897   4.395
 8784TIP3    H226296   0.250   2.991   4.409
 8785TIP3   OH226297   0.758   4.266   1.285
 8785TIP3    H126298   0.718   4.310   1.210
 8785TIP3    H226299   0.718   4.179   1.286
 8786TIP3   OH226300   1.838   1.630   5.112
 8786TIP3    H126301   1.774   1.666   5.174
 8786TIP3    H226302   1.899   1.582   5.167
 8787TIP3   OH226303   1.054   0.297   2.172
 8787TIP3    H126304   0.976   0.263   2.216
 8787TIP3    H226305   1.046   0.266   2.082
 8788TIP3   OH226306   0.351   3.194   6.368
 8788TIP3    H126307   0.285   3.227   6.429
 8788TIP3    H226308   0.417   3.263   6.365
 8789TIP3   OH226309   7.999   7.031   1.734
 8789TIP3    H126310   8.031   6.962   1.792
 8789TIP3    H226311   8.012   7.112   1.784
 8790TIP3   OH226312   4.775   5.171   4.883
 8790TIP3    H126313   4.787   5.252   4.834
 8790TIP3    H226314   4.773   5.103   4.816
 8791TIP3   OH226315   7.271   3.218   4.897
 8791TIP3    H126316   7.343   3.249   4.844
 8791TIP3    H226317   7.282   3.122   4.899
 8792TIP3   OH226318   2.761   5.078   1.432
 8792TIP3    H126319   2.836   5.125   1.396
 8792TIP3    H226320   2.709   5.145   1.476
 8793TIP3   OH226321   0.540   0.607   4.048
 8793TIP3    H126322   0.587   0.525   4.054
 8793TIP3    H226323   0.506   0.623   4.136
 8794TIP3   OH226324   5.128   3.408   6.354
 8794TIP3    H126325   5.130   3.314   6.376
 8794TIP3    H226326   5.151   3.412   6.261
 8795TIP3   OH226327   4.847   0.173   0.332
 8795TIP3    H126328   4.836   0.086   0.294
 8795TIP3    H226329   4.759   0.211   0.332
 8796TIP3   OH226330   2.936   4.778   5.052
 8796TIP3    H126331   2.964   4.703   5.105
 8796TIP3    H226332   3.000   4.847   5.073
 8797TIP3   OH226333   7.238   6.144   0.343
 8797TIP3    H126334   7.144   6.151   0.331
 8797TIP3    H226335   7.274   6.136   0.255
 8798TIP3   OH226336   7.542   2.912   1.790
 8798TIP3    H126337   7.615   2.857   1.818
 8798TIP3    H226338   7.464   2.869   1.826
 8799TIP3   OH226339   2.844   3.394   1.547
 8799TIP3    H126340   2.913   3.391   1.481
 8799TIP3    H226341   2.769   3.353   1.505
 8800TIP3   OH226342   4.072   5.393   5.745
 8800TIP3    H126343   4.053   5.413   5.654
 8800TIP3    H226344   4.071   5.478   5.789
 8801TIP3   OH226345   2.873   0.911   5.266
 8801TIP3    H126346   2.888   0.851   5.194
 8801TIP3    H226347   2.937   0.886   5.333
 8802TIP3   OH226348   7.519   6.828   6.582
 8802TIP3    H126349   7.520   6.745   6.533
 8802TIP3    H226350   7.606   6.833   6.621
 8803TIP3   OH226351   4.899   1.539   2.745
 8803TIP3    H126352   4.825   1.578   2.699
 8803TIP3    H226353   4.961   1.517   2.675
 8804TIP3   OH226354   5.539   5.816   4.627
 8804TIP3    H126355   5.451   5.817   4.664
 8804TIP3    H226356   5.576   5.901   4.651
 8805TIP3   OH226357   3.820   3.592   6.365
 8805TIP3    H126358   3.832   3.586   6.271
 8805TIP3    H226359   3.871   3.669   6.391
 8806TIP3   OH226360   4.553   1.609   5.258
 8806TIP3    H126361   4.566   1.570   5.172
 8806TIP3    H226362   4.464   1.645   5.256
 8807TIP3   OH226363   5.623   2.299   5.048
 8807TIP3    H126364   5.568   2.314   4.971
 8807TIP3    H226365   5.588   2.220   5.088
 8808TIP3   OH226366   5.210   1.870   6.034
 8808TIP3    H126367   5.185   1.907   6.119
 8808TIP3    H226368   5.306   1.870   6.036
 8809TIP3   OH226369   5.609   6.146   2.790
 8809TIP3    H126370   5.602   6.200   2.869
 8809TIP3    H226371   5.671   6.077   2.815
 8810TIP3   OH226372   7.368   3.632   0.855
 8810TIP3    H126373   7.299   3.652   0.919
 8810TIP3    H226374   7.439   3.595   0.908
 8811TIP3   OH226375   3.564   7.284   2.428
 8811TIP3    H126376   3.584   7.203   2.476
 8811TIP3    H226377   3.468   7.285   2.422
 8812TIP3   OH226378   4.942   1.668   5.446
 8812TIP3    H126379   4.866   1.719   5.421
 8812TIP3    H226380   4.961   1.694   5.536
 8813TIP3   OH226381   3.727   0.563   5.580
 8813TIP3    H126382   3.674   0.643   5.579
 8813TIP3    H226383   3.682   0.504   5.519
 8814TIP3   OH226384   7.498   5.019   5.783
 8814TIP3    H126385   7.418   5.044   5.737
 8814TIP3    H226386   7.519   5.096   5.836
 8815TIP3   OH226387   4.354   4.968   0.302
 8815TIP3    H126388   4.426   4.978   0.240
 8815TIP3    H226389   4.397   4.955   0.387
 8816TIP3   OH226390   7.183   1.235   0.683
 8816TIP3    H126391   7.146   1.175   0.748
 8816TIP3    H226392   7.275   1.243   0.707
 8817TIP3   OH226393   0.304   0.180   4.593
 8817TIP3    H126394   0.314   0.261   4.642
 8817TIP3    H226395   0.210   0.174   4.575
 8818TIP3   OH226396   5.760   1.111   1.991
 8818TIP3    H126397   5.727   1.174   2.055
 8818TIP3    H226398   5.761   1.028   2.038
 8819TIP3   OH226399   5.995   3.853   2.692
 8819TIP3    H126400   5.989   3.759   2.708
 8819TIP3    H226401   5.982   3.893   2.777
 8820TIP3   OH226402   4.763   4.037   1.655
 8820TIP3    H126403   4.701   4.011   1.723
 8820TIP3    H226404   4.742   3.982   1.580
 8821TIP3   OH226405   6.579   3.918   5.921
 8821TIP3    H126406   6.540   3.881   5.842
 8821TIP3    H226407   6.569   3.850   5.987
 8822TIP3   OH226408   6.476   4.636   2.135
 8822TIP3    H126409   6.549   4.679   2.179
 8822TIP3    H226410   6.429   4.591   2.205
 8823TIP3   OH226411   3.261   2.278   1.942
 8823TIP3    H126412   3.340   2.318   1.979
 8823TIP3    H226413   3.276   2.183   1.950
 8824TIP3   OH226414   0.710   7.583   0.655
 8824TIP3    H126415   0.693   7.497   0.618
 8824TIP3    H226416   0.804   7.596   0.644
 8825TIP3   OH226417   8.130   2.835  -0.001
 8825TIP3    H126418   8.204   2.812   0.055
 8825TIP3    H226419   8.064   2.768   0.018
 8826TIP3   OH226420   1.520   6.136   1.382
 8826TIP3    H126421   1.532   6.230   1.367
 8826TIP3    H226422   1.609   6.102   1.391
 8827TIP3   OH226423   2.376   6.119   1.608
 8827TIP3    H126424   2.309   6.151   1.668
 8827TIP3    H226425   2.436   6.068   1.664
 8828TIP3   OH226426   4.790   0.492   2.660
 8828TIP3    H126427   4.861   0.460   2.605
 8828TIP3    H226428   4.732   0.540   2.600
 8829TIP3   OH226429   6.066   2.785   3.743
 8829TIP3    H126430   6.002   2.816   3.808
 8829TIP3    H226431   6.083   2.694   3.768
 8830TIP3   OH226432   1.029   3.988   2.636
 8830TIP3    H126433   0.957   3.948   2.587
 8830TIP3    H226434   1.069   4.049   2.575
 8831TIP3   OH226435   6.779   6.517   0.539
 8831TIP3    H126436   6.714   6.449   0.521
 8831TIP3    H226437   6.797   6.556   0.454
 8832TIP3   OH226438   7.466   6.674   1.637
 8832TIP3    H126439   7.475   6.733   1.562
 8832TIP3    H226440   7.373   6.679   1.660
 8833TIP3   OH226441   2.634   6.548   6.411
 8833TIP3    H126442   2.619   6.642   6.418
 8833TIP3    H226443   2.706   6.541   6.348
 8834TIP3   OH226444   1.577   0.624   4.252
 8834TIP3    H126445   1.543   0.552   4.199
 8834TIP3    H226446   1.593   0.586   4.338
 8835TIP3   OH226447   0.430   2.180   1.713
 8835TIP3    H126448   0.338   2.204   1.717
 8835TIP3    H226449   0.469   2.218   1.792
 8836TIP3   OH226450   2.024   6.355   4.205
 8836TIP3    H126451   1.945   6.302   4.208
 8836TIP3    H226452   2.019   6.408   4.284
 8837TIP3   OH226453   2.858   4.656   3.471
 8837TIP3    H126454   2.856   4.686   3.562
 8837TIP3    H226455   2.766   4.654   3.444
 8838TIP3   OH226456   7.391   0.357   1.066
 8838TIP3    H126457   7.461   0.341   1.002
 8838TIP3    H226458   7.339   0.427   1.027
 8839TIP3   OH226459   4.583   5.674   3.550
 8839TIP3    H126460   4.636   5.751   3.530
 8839TIP3    H226461   4.542   5.650   3.467
 8840TIP3   OH226462   8.100   4.059   1.084
 8840TIP3    H126463   8.176   4.018   1.125
 8840TIP3    H226464   8.138   4.128   1.028
 8841TIP3   OH226465   5.958   1.569   4.275
 8841TIP3    H126466   5.916   1.546   4.357
 8841TIP3    H226467   6.031   1.508   4.267
 8842TIP3   OH226468   4.693   4.547   1.141
 8842TIP3    H126469   4.788   4.536   1.139
 8842TIP3    H226470   4.676   4.585   1.227
 8843TIP3   OH226471   2.244   7.255   2.114
 8843TIP3    H126472   2.199   7.180   2.075
 8843TIP3    H226473   2.274   7.223   2.199
 8844TIP3   OH226474   1.883   4.182   5.969
 8844TIP3    H126475   1.911   4.200   6.059
 8844TIP3    H226476   1.844   4.265   5.940
 8845TIP3   OH226477   5.855   0.229   0.590
 8845TIP3    H126478   5.781   0.275   0.549
 8845TIP3    H226479   5.859   0.266   0.678
 8846TIP3   OH226480   2.624   0.097   4.228
 8846TIP3    H126481   2.608   0.006   4.253
 8846TIP3    H226482   2.552   0.146   4.266
 8847TIP3   OH226483   7.674   4.387   1.398
 8847TIP3    H126484   7.740   4.457   1.396
 8847TIP3    H226485   7.656   4.369   1.305
 8848TIP3   OH226486   3.469   2.556   4.431
 8848TIP3    H126487   3.494   2.607   4.354
 8848TIP3    H226488   3.403   2.495   4.399
 8849TIP3   OH226489   7.350   5.144   6.344
 8849TIP3    H126490   7.294   5.072   6.375
 8849TIP3    H226491   7.378   5.188   6.424
 8850TIP3   OH226492   8.040   2.627   0.796
 8850TIP3    H126493   8.021   2.667   0.711
 8850TIP3    H226494   7.973   2.662   0.854
 8851TIP3   OH226495   1.199   0.165   6.281
 8851TIP3    H126496   1.131   0.224   6.249
 8851TIP3    H226497   1.259   0.155   6.206
 8852TIP3   OH226498   1.975   4.316   2.961
 8852TIP3    H126499   2.004   4.283   2.876
 8852TIP3    H226500   2.057   4.338   3.007
 8853TIP3   OH226501   4.247   2.760   3.364
 8853TIP3    H126502   4.176   2.731   3.307
 8853TIP3    H226503   4.233   2.854   3.374
 8854TIP3   OH226504   4.625   1.552   3.619
 8854TIP3    H126505   4.619   1.646   3.602
 8854TIP3    H226506   4.650   1.546   3.712
 8855TIP3   OH226507   2.116   6.429   6.104
 8855TIP3    H126508   2.081   6.510   6.068
 8855TIP3    H226509   2.208   6.448   6.122
 8856TIP3   OH226510   5.328   6.550   6.610
 8856TIP3    H126511   5.349   6.466   6.568
 8856TIP3    H226512   5.333   6.614   6.539
 8857TIP3   OH226513   0.275   1.436   1.884
 8857TIP3    H126514   0.291   1.393   1.800
 8857TIP3    H226515   0.181   1.457   1.883
 8858TIP3   OH226516   7.631   3.563   4.865
 8858TIP3    H126517   7.718   3.597   4.845
 8858TIP3    H226518   7.632   3.473   4.833
 8859TIP3   OH226519   3.715   6.673   3.692
 8859TIP3    H126520   3.765   6.748   3.723
 8859TIP3    H226521   3.750   6.655   3.604
 8860TIP3   OH226522   5.883   2.605   4.026
 8860TIP3    H126523   5.863   2.682   3.974
 8860TIP3    H226524   5.964   2.571   3.987
 8861TIP3   OH226525   0.152   5.131   6.249
 8861TIP3    H126526   0.111   5.054   6.210
 8861TIP3    H226527   0.104   5.144   6.331
 8862TIP3   OH226528   2.294   7.034   5.048
 8862TIP3    H126529   2.199   7.031   5.031
 8862TIP3    H226530   2.310   7.124   5.077
 8863TIP3   OH226531   0.607   3.617   3.359
 8863TIP3    H126532   0.544   3.592   3.291
 8863TIP3    H226533   0.668   3.676   3.316
 8864TIP3   OH226534   7.551   4.461   3.264
 8864TIP3    H126535   7.463   4.473   3.228
 8864TIP3    H226536   7.556   4.368   3.286
 8865TIP3   OH226537   3.643   2.477   0.133
 8865TIP3    H126538   3.733   2.498   0.106
 8865TIP3    H226539   3.624   2.394   0.090
 8866TIP3   OH226540   8.278   3.139   0.861
 8866TIP3    H126541   8.275   3.060   0.807
 8866TIP3    H226542   8.360   3.131   0.910
 8867TIP3   OH226543   2.964   5.284   2.105
 8867TIP3    H126544   3.002   5.219   2.046
 8867TIP3    H226545   2.940   5.357   2.048
 8868TIP3   OH226546   5.521   0.568   5.251
 8868TIP3    H126547   5.512   0.646   5.196
 8868TIP3    H226548   5.533   0.603   5.339
 8869TIP3   OH226549   2.393   5.096   0.252
 8869TIP3    H126550   2.471   5.122   0.203
 8869TIP3    H226551   2.381   5.165   0.317
 8870TIP3   OH226552   1.282   4.491   6.609
 8870TIP3    H126553   1.245   4.463   6.526
 8870TIP3    H226554   1.208   4.490   6.670
 8871TIP3   OH226555   6.423   2.982   5.560
 8871TIP3    H126556   6.509   2.958   5.526
 8871TIP3    H226557   6.413   2.931   5.640
 8872TIP3   OH226558   4.499   5.047   4.688
 8872TIP3    H126559   4.537   5.085   4.609
 8872TIP3    H226560   4.435   4.983   4.655
 8873TIP3   OH226561   3.250   5.012   3.275
 8873TIP3    H126562   3.249   5.108   3.275
 8873TIP3    H226563   3.220   4.988   3.187
 8874TIP3   OH226564   3.962   3.070   2.213
 8874TIP3    H126565   3.929   3.138   2.271
 8874TIP3    H226566   3.945   3.104   2.125
 8875TIP3   OH226567   8.172   4.776   2.186
 8875TIP3    H126568   8.177   4.788   2.281
 8875TIP3    H226569   8.102   4.712   2.174
 8876TIP3   OH226570   1.101   1.575   0.303
 8876TIP3    H126571   1.020   1.532   0.276
 8876TIP3    H226572   1.073   1.641   0.366
 8877TIP3   OH226573   3.632   1.876   1.419
 8877TIP3    H126574   3.573   1.880   1.343
 8877TIP3    H226575   3.692   1.804   1.400
 8878TIP3   OH226576   5.100   5.415   0.155
 8878TIP3    H126577   5.013   5.417   0.114
 8878TIP3    H226578   5.087   5.365   0.235
 8879TIP3   OH226579   5.579   7.728   2.714
 8879TIP3    H126580   5.581   7.768   2.627
 8879TIP3    H226581   5.671   7.722   2.739
 8880TIP3   OH226582   2.140   6.310   0.707
 8880TIP3    H126583   2.105   6.342   0.624
 8880TIP3    H226584   2.087   6.355   0.773
 8881TIP3   OH226585   3.207   2.868   4.952
 8881TIP3    H126586   3.234   2.889   4.862
 8881TIP3    H226587   3.183   2.952   4.990
 8882TIP3   OH226588   5.430   4.532   0.643
 8882TIP3    H126589   5.431   4.628   0.639
 8882TIP3    H226590   5.352   4.512   0.695
 8883TIP3   OH226591   2.990   6.939   3.574
 8883TIP3    H126592   2.973   6.919   3.482
 8883TIP3    H226593   2.940   7.019   3.592
 8884TIP3   OH226594   5.633   0.508   3.233
 8884TIP3    H126595   5.599   0.598   3.233
 8884TIP3    H226596   5.558   0.454   3.208
 8885TIP3   OH226597   6.350   6.321   1.606
 8885TIP3    H126598   6.330   6.330   1.700
 8885TIP3    H226599   6.388   6.234   1.598
 8886TIP3   OH226600   7.778   4.027   3.617
 8886TIP3    H126601   7.823   3.973   3.553
 8886TIP3    H226602   7.848   4.071   3.665
 8887TIP3   OH226603   5.455   5.984   0.550
 8887TIP3    H126604   5.476   5.942   0.467
 8887TIP3    H226605   5.528   6.044   0.565
 8888TIP3   OH226606   7.391   0.370   5.988
 8888TIP3    H126607   7.454   0.309   6.027
 8888TIP3    H226608   7.435   0.402   5.910
 8889TIP3   OH226609   7.858   3.187   3.333
 8889TIP3    H126610   7.806   3.108   3.349
 8889TIP3    H226611   7.918   3.191   3.407
 8890TIP3   OH226612   4.223   7.149   4.803
 8890TIP3    H126613   4.160   7.220   4.812
 8890TIP3    H226614   4.171   7.069   4.813
 8891TIP3   OH226615   2.954   1.724   6.208
 8891TIP3    H126616   2.970   1.818   6.217
 8891TIP3    H226617   2.909   1.699   6.289
 8892TIP3   OH226618   8.052   3.140   4.285
 8892TIP3    H126619   7.996   3.077   4.239
 8892TIP3    H226620   8.139   3.124   4.249
 8893TIP3   OH226621   4.862   4.604   5.347
 8893TIP3    H126622   4.910   4.552   5.411
 8893TIP3    H226623   4.799   4.654   5.398
 8894TIP3   OH226624   1.346   3.101   6.007
 8894TIP3    H126625   1.393   3.184   6.015
 8894TIP3    H226626   1.387   3.044   6.072
 8895TIP3   OH226627   3.395   4.716   2.414
 8895TIP3    H126628   3.396   4.692   2.507
 8895TIP3    H226629   3.486   4.736   2.394
 8896TIP3   OH226630   7.431   6.579   3.298
 8896TIP3    H126631   7.370   6.594   3.371
 8896TIP3    H226632   7.383   6.523   3.238
 8897TIP3   OH226633   1.855   2.051   2.798
 8897TIP3    H126634   1.947   2.054   2.824
 8897TIP3    H226635   1.807   2.028   2.877
 8898TIP3   OH226636   7.581   5.956   1.086
 8898TIP3    H126637   7.513   5.978   1.150
 8898TIP3    H226638   7.661   5.947   1.138
 8899TIP3   OH226639   2.699   7.441   1.703
 8899TIP3    H126640   2.710   7.534   1.683
 8899TIP3    H226641   2.642   7.440   1.780
 8900TIP3   OH226642   7.608   5.559   2.137
 8900TIP3    H126643   7.538   5.539   2.075
 8900TIP3    H226644   7.564   5.575   2.220
 8901TIP3   OH226645   6.879   5.407   3.240
 8901TIP3    H126646   6.847   5.469   3.175
 8901TIP3    H226647   6.899   5.461   3.317
 8902TIP3   OH226648   5.309   3.051   4.885
 8902TIP3    H126649   5.388   3.026   4.838
 8902TIP3    H226650   5.340   3.104   4.958
 8903TIP3   OH226651   0.213   1.381   0.229
 8903TIP3    H126652   0.196   1.357   0.320
 8903TIP3    H226653   0.126   1.401   0.193
 8904TIP3   OH226654   3.369   4.467   0.808
 8904TIP3    H126655   3.377   4.415   0.728
 8904TIP3    H226656   3.278   4.494   0.810
 8905TIP3   OH226657   1.159   4.147   3.639
 8905TIP3    H126658   1.125   4.111   3.721
 8905TIP3    H226659   1.121   4.091   3.571
 8906TIP3   OH226660   4.845   0.152   6.706
 8906TIP3    H126661   4.835   0.089   6.634
 8906TIP3    H226662   4.937   0.145   6.732
 8907TIP3   OH226663   1.925   3.044   4.297
 8907TIP3    H126664   1.968   2.965   4.264
 8907TIP3    H226665   1.850   3.011   4.347
 8908TIP3   OH226666   2.820   6.749   0.024
 8908TIP3    H126667   2.779   6.835   0.034
 8908TIP3    H226668   2.761   6.700  -0.033
 8909TIP3   OH226669   7.795   2.361   0.580
 8909TIP3    H126670   7.793   2.318   0.495
 8909TIP3    H226671   7.758   2.296   0.641
 8910TIP3   OH226672   8.189   6.755   6.297
 8910TIP3    H126673   8.269   6.804   6.281
 8910TIP3    H226674   8.162   6.723   6.212
 8911TIP3   OH226675   5.623   6.540   6.743
 8911TIP3    H126676   5.678   6.462   6.755
 8911TIP3    H226677   5.591   6.533   6.653
 8912TIP3   OH226678   0.368   0.130   6.250
 8912TIP3    H126679   0.393   0.120   6.158
 8912TIP3    H226680   0.448   0.155   6.295
 8913TIP3   OH226681   5.560   5.498   6.740
 8913TIP3    H126682   5.645   5.479   6.701
 8913TIP3    H226683   5.496   5.453   6.685
 8914TIP3   OH226684   3.057   5.575   1.772
 8914TIP3    H126685   3.099   5.493   1.747
 8914TIP3    H226686   3.058   5.628   1.693
 8915TIP3   OH226687   1.271   4.108   5.618
 8915TIP3    H126688   1.177   4.101   5.602
 8915TIP3    H226689   1.278   4.164   5.695
 8916TIP3   OH226690   5.492   1.604   3.651
 8916TIP3    H126691   5.520   1.521   3.689
 8916TIP3    H226692   5.568   1.635   3.601
 8917TIP3   OH226693   7.179   7.249   6.029
 8917TIP3    H126694   7.235   7.176   6.053
 8917TIP3    H226695   7.104   7.243   6.088
 8918TIP3   OH226696   5.335   3.084   3.413
 8918TIP3    H126697   5.303   3.036   3.490
 8918TIP3    H226698   5.363   3.016   3.352
 8919TIP3   OH226699   4.873   5.545   5.695
 8919TIP3    H126700   4.821   5.501   5.762
 8919TIP3    H226701   4.832   5.521   5.613
 8920TIP3   OH226702   7.900   2.478   1.290
 8920TIP3    H126703   7.882   2.567   1.259
 8920TIP3    H226704   7.973   2.448   1.236
 8921TIP3   OH226705   0.773   5.656   5.618
 8921TIP3    H126706   0.777   5.595   5.545
 8921TIP3    H226707   0.842   5.720   5.601
 8922TIP3   OH226708   7.444   6.947   1.272
 8922TIP3    H126709   7.407   6.865   1.303
 8922TIP3    H226710   7.393   7.015   1.314
 8923TIP3   OH226711   2.584   1.572   2.904
 8923TIP3    H126712   2.659   1.615   2.944
 8923TIP3    H226713   2.575   1.489   2.950
 8924TIP3   OH226714   6.400   1.561   6.172
 8924TIP3    H126715   6.356   1.480   6.144
 8924TIP3    H226716   6.400   1.616   6.093
 8925TIP3   OH226717   4.924   7.856   0.571
 8925TIP3    H126718   4.839   7.890   0.543
 8925TIP3    H226719   4.903   7.782   0.628
 8926TIP3   OH226720   7.386   1.080   4.885
 8926TIP3    H126721   7.305   1.055   4.841
 8926TIP3    H226722   7.427   0.997   4.910
 8927TIP3   OH226723   2.702   2.543   2.573
 8927TIP3    H126724   2.733   2.568   2.486
 8927TIP3    H226725   2.654   2.461   2.559
 8928TIP3   OH226726   4.667   3.259   0.723
 8928TIP3    H126727   4.578   3.296   0.729
 8928TIP3    H226728   4.712   3.293   0.800
 8929TIP3   OH226729   7.089   2.628   4.618
 8929TIP3    H126730   7.075   2.545   4.665
 8929TIP3    H226731   7.184   2.643   4.624
 8930TIP3   OH226732   7.600   0.102   5.977
 8930TIP3    H126733   7.641   0.018   5.999
 8930TIP3    H226734   7.580   0.142   6.061
 8931TIP3   OH226735   3.505   5.783   2.786
 8931TIP3    H126736   3.505   5.689   2.802
 8931TIP3    H226737   3.420   5.800   2.744
 8932TIP3   OH226738   6.916   3.241   2.667
 8932TIP3    H126739   6.851   3.290   2.717
 8932TIP3    H226740   6.967   3.308   2.623
 8933TIP3   OH226741   2.321   5.362   5.464
 8933TIP3    H126742   2.257   5.396   5.402
 8933TIP3    H226743   2.393   5.331   5.409
 8934TIP3   OH226744   2.528   4.140   6.002
 8934TIP3    H126745   2.618   4.144   5.970
 8934TIP3    H226746   2.477   4.185   5.934
 8935TIP3   OH226747   8.267   4.193   5.843
 8935TIP3    H126748   8.266   4.111   5.893
 8935TIP3    H226749   8.192   4.186   5.784
 8936TIP3   OH226750   5.244   2.296   5.972
 8936TIP3    H126751   5.201   2.232   5.915
 8936TIP3    H226752   5.214   2.275   6.060
 8937TIP3   OH226753   0.347   5.447   1.348
 8937TIP3    H126754   0.396   5.445   1.266
 8937TIP3    H226755   0.414   5.438   1.416
 8938TIP3   OH226756   4.592   7.464   6.206
 8938TIP3    H126757   4.623   7.419   6.285
 8938TIP3    H226758   4.507   7.500   6.231
 8939TIP3   OH226759   5.835   1.539   4.932
 8939TIP3    H126760   5.884   1.607   4.978
 8939TIP3    H226761   5.898   1.501   4.871
 8940TIP3   OH226762   7.885   0.369   1.582
 8940TIP3    H126763   7.886   0.274   1.565
 8940TIP3    H226764   7.840   0.378   1.666
 8941TIP3   OH226765   0.857   3.911   2.457
 8941TIP3    H126766   0.801   3.975   2.501
 8941TIP3    H226767   0.818   3.901   2.370
 8942TIP3   OH226768   5.578   7.342   5.916
 8942TIP3    H126769   5.487   7.373   5.919
 8942TIP3    H226770   5.608   7.347   6.007
 8943TIP3   OH226771   3.940   5.780   0.321
 8943TIP3    H126772   3.947   5.758   0.228
 8943TIP3    H226773   4.031   5.797   0.349
 8944TIP3   OH226774   8.212   3.410   0.824
 8944TIP3    H126775   8.214   3.317   0.802
 8944TIP3    H226776   8.145   3.446   0.766
 8945TIP3   OH226777   2.235   3.530   1.977
 8945TIP3    H126778   2.312   3.558   2.027
 8945TIP3    H226779   2.262   3.539   1.885
 8946TIP3   OH226780   2.276   1.646   5.551
 8946TIP3    H126781   2.329   1.692   5.616
 8946TIP3    H226782   2.186   1.671   5.573
 8947TIP3   OH226783   1.547   2.219   2.667
 8947TIP3    H126784   1.621   2.276   2.691
 8947TIP3    H226785   1.580   2.168   2.592
 8948TIP3   OH226786   7.399   5.928   5.628
 8948TIP3    H126787   7.484   5.927   5.674
 8948TIP3    H226788   7.335   5.937   5.698
 8949TIP3   OH226789   5.287   6.301   4.420
 8949TIP3    H126790   5.338   6.290   4.500
 8949TIP3    H226791   5.352   6.299   4.350
 8950TIP3   OH226792   2.539   1.975   2.640
 8950TIP3    H126793   2.457   2.014   2.608
 8950TIP3    H226794   2.511   1.895   2.684
 8951TIP3   OH226795   6.733   0.190   2.703
 8951TIP3    H126796   6.735   0.246   2.625
 8951TIP3    H226797   6.780   0.240   2.770
 8952TIP3   OH226798   6.958   4.668   5.051
 8952TIP3    H126799   6.959   4.758   5.082
 8952TIP3    H226800   6.936   4.616   5.128
 8953TIP3   OH226801   1.678   6.964   0.980
 8953TIP3    H126802   1.733   6.889   0.957
 8953TIP3    H226803   1.720   7.039   0.938
 8954TIP3   OH226804   8.160   6.051   3.297
 8954TIP3    H126805   8.132   6.052   3.205
 8954TIP3    H226806   8.255   6.055   3.293
 8955TIP3   OH226807   2.125   6.014   4.590
 8955TIP3    H126808   2.149   6.053   4.506
 8955TIP3    H226809   2.129   5.919   4.574
 8956TIP3   OH226810   3.557   7.292   4.292
 8956TIP3    H126811   3.510   7.278   4.374
 8956TIP3    H226812   3.623   7.223   4.291
 8957TIP3   OH226813   4.386   6.213   0.653
 8957TIP3    H126814   4.359   6.138   0.601
 8957TIP3    H226815   4.305   6.246   0.693
 8958TIP3   OH226816   1.024   2.027   0.798
 8958TIP3    H126817   0.937   2.017   0.836
 8958TIP3    H226818   1.064   1.940   0.807
 8959TIP3   OH226819   1.101   1.124   0.226
 8959TIP3    H126820   1.021   1.115   0.278
 8959TIP3    H226821   1.172   1.122   0.291
 8960TIP3   OH226822   1.712   1.618   1.378
 8960TIP3    H126823   1.766   1.634   1.456
 8960TIP3    H226824   1.704   1.705   1.338
 8961TIP3   OH226825   3.779   5.096   5.094
 8961TIP3    H126826   3.685   5.080   5.098
 8961TIP3    H226827   3.797   5.112   5.001
 8962TIP3   OH226828   0.165   6.015   2.992
 8962TIP3    H126829   0.136   6.106   3.000
 8962TIP3    H226830   0.257   6.020   2.968
 8963TIP3   OH226831   1.155   6.914   0.814
 8963TIP3    H126832   1.235   6.861   0.817
 8963TIP3    H226833   1.106   6.888   0.892
 8964TIP3   OH226834   5.652   3.773   4.261
 8964TIP3    H126835   5.577   3.813   4.216
 8964TIP3    H226836   5.677   3.837   4.328
 8965TIP3   OH226837   4.620   7.817   0.594
 8965TIP3    H126838   4.595   7.777   0.677
 8965TIP3    H226839   4.572   7.766   0.528
 8966TIP3   OH226840   0.232   4.839   3.818
 8966TIP3    H126841   0.270   4.833   3.906
 8966TIP3    H226842   0.304   4.868   3.763
 8967TIP3   OH226843   8.062   0.338   0.671
 8967TIP3    H126844   8.113   0.265   0.708
 8967TIP3    H226845   7.972   0.307   0.672
 8968TIP3   OH226846   0.277   5.604   4.411
 8968TIP3    H126847   0.312   5.539   4.350
 8968TIP3    H226848   0.324   5.587   4.493
 8969TIP3   OH226849   6.063   6.857   4.392
 8969TIP3    H126850   6.093   6.925   4.452
 8969TIP3    H226851   6.033   6.787   4.449
 8970TIP3   OH226852   8.203   4.429   4.875
 8970TIP3    H126853   8.267   4.450   4.944
 8970TIP3    H226854   8.232   4.345   4.840
 8971TIP3   OH226855   1.622   2.747   2.995
 8971TIP3    H126856   1.591   2.695   2.922
 8971TIP3    H226857   1.717   2.750   2.984
 8972TIP3   OH226858   4.794   3.753   6.165
 8972TIP3    H126859   4.840   3.829   6.202
 8972TIP3    H226860   4.829   3.746   6.076
 8973TIP3   OH226861   2.216   7.702   6.262
 8973TIP3    H126862   2.296   7.661   6.228
 8973TIP3    H226863   2.151   7.686   6.193
 8974TIP3   OH226864   1.415   0.643   4.862
 8974TIP3    H126865   1.502   0.609   4.844
 8974TIP3    H226866   1.358   0.599   4.798
 8975TIP3   OH226867   5.264   1.084   5.323
 8975TIP3    H126868   5.170   1.068   5.330
 8975TIP3    H226869   5.279   1.161   5.377
 8976TIP3   OH226870   6.089   0.405   4.372
 8976TIP3    H126871   6.027   0.412   4.444
 8976TIP3    H226872   6.175   0.414   4.413
 8977TIP3   OH226873   6.291   3.424   2.843
 8977TIP3    H126874   6.261   3.493   2.902
 8977TIP3    H226875   6.262   3.342   2.884
 8978TIP3   OH226876   6.577   3.768   5.671
 8978TIP3    H126877   6.646   3.733   5.728
 8978TIP3    H226878   6.539   3.690   5.630
 8979TIP3   OH226879   5.927   5.763   5.012
 8979TIP3    H126880   5.906   5.847   5.053
 8979TIP3    H226881   5.976   5.787   4.933
 8980TIP3   OH226882   0.929   3.140   3.862
 8980TIP3    H126883   0.869   3.088   3.916
 8980TIP3    H226884   0.882   3.154   3.780
 8981TIP3   OH226885   6.128   3.827   0.035
 8981TIP3    H126886   6.128   3.872   0.119
 8981TIP3    H226887   6.144   3.896  -0.029
 8982TIP3   OH226888   7.783   0.319   0.655
 8982TIP3    H126889   7.790   0.398   0.601
 8982TIP3    H226890   7.762   0.249   0.594
 8983TIP3   OH226891   2.694   2.370   3.961
 8983TIP3    H126892   2.771   2.314   3.948
 8983TIP3    H226893   2.666   2.393   3.873
 8984TIP3   OH226894   1.006   7.002   0.200
 8984TIP3    H126895   0.989   6.973   0.290
 8984TIP3    H226896   0.971   6.932   0.145
 8985TIP3   OH226897   0.299   1.563   0.998
 8985TIP3    H126898   0.363   1.571   0.927
 8985TIP3    H226899   0.235   1.632   0.981
 8986TIP3   OH226900   6.268   5.466   6.082
 8986TIP3    H126901   6.250   5.374   6.100
 8986TIP3    H226902   6.360   5.468   6.055
 8987TIP3   OH226903   1.899   2.200   4.806
 8987TIP3    H126904   1.826   2.258   4.781
 8987TIP3    H226905   1.977   2.244   4.772
 8988TIP3   OH226906   5.370   2.612   4.032
 8988TIP3    H126907   5.421   2.680   4.075
 8988TIP3    H226908   5.315   2.575   4.101
 8989TIP3   OH226909   1.117   4.259   4.149
 8989TIP3    H126910   1.041   4.200   4.148
 8989TIP3    H226911   1.143   4.262   4.241
 8990TIP3   OH226912   8.060   0.202   6.753
 8990TIP3    H126913   8.021   0.147   6.821
 8990TIP3    H226914   8.052   0.151   6.672
 8991TIP3   OH226915   0.877   2.982   2.781
 8991TIP3    H126916   0.921   2.925   2.718
 8991TIP3    H226917   0.932   2.977   2.860
 8992TIP3   OH226918   7.326   4.533   3.512
 8992TIP3    H126919   7.323   4.438   3.524
 8992TIP3    H226920   7.345   4.567   3.599
 8993TIP3   OH226921   2.726   6.367   5.453
 8993TIP3    H126922   2.699   6.453   5.486
 8993TIP3    H226923   2.744   6.315   5.531
 8994TIP3   OH226924   2.772   2.934   2.812
 8994TIP3    H126925   2.791   2.874   2.740
 8994TIP3    H226926   2.846   2.922   2.872
 8995TIP3   OH226927   8.087   2.969   6.729
 8995TIP3    H126928   8.027   2.980   6.655
 8995TIP3    H226929   8.148   3.042   6.721
 8996TIP3   OH226930   3.868   0.511   1.387
 8996TIP3    H126931   3.784   0.496   1.342
 8996TIP3    H226932   3.930   0.526   1.316
 8997TIP3   OH226933   5.452   2.008   1.342
 8997TIP3    H126934   5.402   2.089   1.336
 8997TIP3    H226935   5.430   1.972   1.428
 8998TIP3   OH226936   2.430   0.963   3.650
 8998TIP3    H126937   2.358   0.939   3.591
 8998TIP3    H226938   2.500   0.993   3.593
 8999TIP3   OH226939   5.487   3.322   4.859
 8999TIP3    H126940   5.478   3.356   4.948
 8999TIP3    H226941   5.562   3.262   4.864
 9000TIP3   OH226942   4.327   3.810   4.821
 9000TIP3    H126943   4.373   3.787   4.902
 9000TIP3    H226944   4.354   3.900   4.802
 9001TIP3   OH226945   6.410   1.563   6.473
 9001TIP3    H126946   6.410   1.557   6.377
 9001TIP3    H226947   6.473   1.632   6.493
 9002TIP3   OH226948   0.726   7.183   6.540
 9002TIP3    H126949   0.699   7.182   6.448
 9002TIP3    H226950   0.771   7.267   6.551
 9003TIP3   OH226951   0.803   7.109   2.421
 9003TIP3    H126952   0.848   7.027   2.397
 9003TIP3    H226953   0.714   7.097   2.387
 9004TIP3   OH226954   1.127   6.755   3.862
 9004TIP3    H126955   1.068   6.825   3.890
 9004TIP3    H226956   1.070   6.679   3.851
 9005TIP3   OH226957   0.166   6.839   0.006
 9005TIP3    H126958   0.251   6.795  -0.003
 9005TIP3    H226959   0.177   6.899   0.080
 9006TIP3   OH226960   5.181   4.778   2.621
 9006TIP3    H126961   5.197   4.821   2.705
 9006TIP3    H226962   5.129   4.842   2.571
 9007TIP3   OH226963   6.959   2.956   6.563
 9007TIP3    H126964   6.988   2.980   6.475
 9007TIP3    H226965   6.986   3.030   6.618
 9008TIP3   OH226966   4.898   5.513   6.479
 9008TIP3    H126967   4.815   5.534   6.522
 9008TIP3    H226968   4.932   5.439   6.529
 9009TIP3   OH226969   5.973   3.276   4.493
 9009TIP3    H126970   6.044   3.225   4.454
 9009TIP3    H226971   5.983   3.260   4.587
 9010TIP3   OH226972   3.292   6.110   5.342
 9010TIP3    H126973   3.348   6.153   5.278
 9010TIP3    H226974   3.234   6.054   5.290
 9011TIP3   OH226975   2.772   2.411   4.481
 9011TIP3    H126976   2.793   2.326   4.518
 9011TIP3    H226977   2.803   2.406   4.390
 9012TIP3   OH226978   8.178   1.953   3.733
 9012TIP3    H126979   8.148   1.906   3.655
 9012TIP3    H226980   8.098   1.973   3.781
 9013TIP3   OH226981   5.860   4.503   5.929
 9013TIP3    H126982   5.816   4.567   5.984
 9013TIP3    H226983   5.805   4.498   5.851
 9014TIP3   OH226984   3.017   4.378   2.537
 9014TIP3    H126985   2.980   4.315   2.476
 9014TIP3    H226986   3.003   4.463   2.495
 9015TIP3   OH226987   3.082   5.587   0.399
 9015TIP3    H126988   3.116   5.674   0.377
 9015TIP3    H226989   2.992   5.603   0.428
 9016TIP3   OH226990   3.871   3.292   2.349
 9016TIP3    H126991   3.903   3.366   2.400
 9016TIP3    H226992   3.776   3.304   2.345
 9017TIP3   OH226993   3.150   3.996   5.807
 9017TIP3    H126994   3.183   3.958   5.726
 9017TIP3    H226995   3.057   3.978   5.807
 9018TIP3   OH226996   4.471   7.635   0.753
 9018TIP3    H126997   4.421   7.627   0.672
 9018TIP3    H226998   4.437   7.565   0.809
 9019TIP3   OH226999   3.059   3.798   6.449
 9019TIP3    H127000   3.143   3.792   6.404
 9019TIP3    H227001   3.046   3.892   6.462
 9020TIP3   OH227002   4.823   1.753   4.218
 9020TIP3    H127003   4.844   1.682   4.280
 9020TIP3    H227004   4.900   1.757   4.160
 9021TIP3   OH227005   6.543   0.876   1.671
 9021TIP3    H127006   6.578   0.796   1.632
 9021TIP3    H227007   6.621   0.926   1.696
 9022TIP3   OH227008   7.509   2.920   0.342
 9022TIP3    H127009   7.520   2.929   0.437
 9022TIP3    H227010   7.559   2.993   0.305
 9023TIP3   OH227011   1.777   6.442   3.204
 9023TIP3    H127012   1.837   6.392   3.259
 9023TIP3    H227013   1.743   6.510   3.261
 9024TIP3   OH227014   2.664   0.896   1.275
 9024TIP3    H127015   2.679   0.930   1.364
 9024TIP3    H227016   2.752   0.880   1.241
 9025TIP3   OH227017   4.762   0.607   5.430
 9025TIP3    H127018   4.821   0.539   5.397
 9025TIP3    H227019   4.741   0.579   5.519
 9026TIP3   OH227020   3.449   7.725   4.822
 9026TIP3    H127021   3.422   7.633   4.822
 9026TIP3    H227022   3.465   7.745   4.730
 9027TIP3   OH227023   4.069   2.483   0.635
 9027TIP3    H127024   4.022   2.437   0.565
 9027TIP3    H227025   4.001   2.510   0.697
 9028TIP3   OH227026   2.510   4.172   3.041
 9028TIP3    H127027   2.587   4.173   2.985
 9028TIP3    H227028   2.461   4.094   3.015
 9029TIP3   OH227029   5.629   5.726   2.755
 9029TIP3    H127030   5.637   5.689   2.668
 9029TIP3    H227031   5.537   5.752   2.763
 9030TIP3   OH227032   0.715   1.983   0.144
 9030TIP3    H127033   0.633   1.934   0.146
 9030TIP3    H227034   0.740   1.984   0.052
 9031TIP3   OH227035   2.984   6.235   3.667
 9031TIP3    H127036   2.931   6.188   3.731
 9031TIP3    H227037   3.074   6.222   3.696
 9032TIP3   OH227038   3.334   0.315   4.398
 9032TIP3    H127039   3.289   0.305   4.482
 9032TIP3    H227040   3.278   0.374   4.348
 9033TIP3   OH227041   2.278   3.018   2.417
 9033TIP3    H127042   2.313   3.077   2.484
 9033TIP3    H227043   2.273   3.072   2.338
 9034TIP3   OH227044   1.065   3.724   2.234
 9034TIP3    H127045   1.062   3.686   2.322
 9034TIP3    H227046   1.155   3.711   2.205
 9035TIP3   OH227047   0.001   3.539   5.761
 9035TIP3    H127048   0.087   3.580   5.756
 9035TIP3    H227049  -0.002   3.480   5.685
 9036TIP3   OH227050   4.595   5.107   5.105
 9036TIP3    H127051   4.609   5.124   5.011
 9036TIP3    H227052   4.576   5.193   5.142
 9037TIP3   OH227053   5.189   6.069   4.656
 9037TIP3    H127054   5.265   6.127   4.646
 9037TIP3    H227055   5.113   6.126   4.644
 9038TIP3   OH227056   3.985   0.196   1.947
 9038TIP3    H127057   3.899   0.188   1.905
 9038TIP3    H227058   4.023   0.276   1.909
 9039TIP3   OH227059   0.721   2.193   6.735
 9039TIP3    H127060   0.728   2.213   6.642
 9039TIP3    H227061   0.807   2.215   6.771
 9040TIP3   OH227062   0.513   0.869   1.179
 9040TIP3    H127063   0.433   0.909   1.145
 9040TIP3    H227064   0.485   0.822   1.257
 9041TIP3   OH227065   3.683   7.218   1.043
 9041TIP3    H127066   3.717   7.131   1.067
 9041TIP3    H227067   3.677   7.216   0.948
 9042TIP3   OH227068   3.488   3.986   2.447
 9042TIP3    H127069   3.570   3.937   2.450
 9042TIP3    H227070   3.492   4.036   2.366
 9043TIP3   OH227071   5.904   3.488   3.376
 9043TIP3    H127072   5.897   3.441   3.293
 9043TIP3    H227073   5.998   3.498   3.390
 9044TIP3   OH227074   1.830   5.549   0.493
 9044TIP3    H127075   1.889   5.565   0.566
 9044TIP3    H227076   1.772   5.625   0.491
 9045TIP3   OH227077   0.588   7.619   4.718
 9045TIP3    H127078   0.600   7.650   4.628
 9045TIP3    H227079   0.516   7.557   4.714
 9046TIP3   OH227080   5.093   0.167   2.143
 9046TIP3    H127081   5.079   0.076   2.168
 9046TIP3    H227082   5.005   0.202   2.129
 9047TIP3   OH227083   7.242   1.186   6.599
 9047TIP3    H127084   7.178   1.135   6.549
 9047TIP3    H227085   7.275   1.125   6.665
 9048TIP3   OH227086   3.760   0.152   5.013
 9048TIP3    H127087   3.714   0.081   4.968
 9048TIP3    H227088   3.692   0.216   5.033
 9049TIP3   OH227089   6.555   4.379   2.750
 9049TIP3    H127090   6.583   4.289   2.733
 9049TIP3    H227091   6.583   4.397   2.839
 9050TIP3   OH227092   8.133   0.433   6.453
 9050TIP3    H127093   8.159   0.477   6.372
 9050TIP3    H227094   8.165   0.344   6.443
 9051TIP3   OH227095   2.630   4.590   1.769
 9051TIP3    H127096   2.711   4.590   1.718
 9051TIP3    H227097   2.626   4.677   1.808
 9052TIP3   OH227098   1.549   4.016   4.399
 9052TIP3    H127099   1.512   4.097   4.365
 9052TIP3    H227100   1.480   3.951   4.385
 9053TIP3   OH227101   2.244   5.766   1.569
 9053TIP3    H127102   2.332   5.740   1.596
 9053TIP3    H227103   2.237   5.737   1.478
 9054TIP3   OH227104   3.532   4.137   2.701
 9054TIP3    H127105   3.493   4.093   2.776
 9054TIP3    H227106   3.504   4.084   2.625
 9055TIP3   OH227107   6.238   0.587   5.647
 9055TIP3    H127108   6.167   0.652   5.644
 9055TIP3    H227109   6.312   0.630   5.605
 9056TIP3   OH227110   1.483   4.104   1.773
 9056TIP3    H127111   1.460   4.011   1.774
 9056TIP3    H227112   1.527   4.117   1.689
 9057TIP3   OH227113   1.061   3.123   1.092
 9057TIP3    H127114   1.103   3.189   1.147
 9057TIP3    H227115   0.967   3.137   1.104
 9058TIP3   OH227116   4.503   2.322   4.492
 9058TIP3    H127117   4.596   2.304   4.505
 9058TIP3    H227118   4.463   2.235   4.484
 9059TIP3   OH227119   0.330   5.920   0.702
 9059TIP3    H127120   0.242   5.913   0.665
 9059TIP3    H227121   0.330   5.859   0.776
 9060TIP3   OH227122   3.278   4.431   2.582
 9060TIP3    H127123   3.318   4.393   2.504
 9060TIP3    H227124   3.185   4.410   2.574
 9061TIP3   OH227125   7.577   5.303   5.212
 9061TIP3    H127126   7.599   5.321   5.303
 9061TIP3    H227127   7.655   5.327   5.162
 9062TIP3   OH227128   5.323   0.107   2.685
 9062TIP3    H127129   5.281   0.030   2.647
 9062TIP3    H227130   5.254   0.150   2.736
 9063TIP3   OH227131   4.943   2.950   0.664
 9063TIP3    H127132   4.853   2.982   0.652
 9063TIP3    H227133   4.936   2.855   0.658
 9064TIP3   OH227134   4.507   3.072   1.973
 9064TIP3    H127135   4.492   2.985   2.011
 9064TIP3    H227136   4.602   3.085   1.981
 9065TIP3   OH227137   2.131   6.218   5.130
 9065TIP3    H127138   2.045   6.177   5.121
 9065TIP3    H227139   2.168   6.179   5.210
 9066TIP3   OH227140   7.486   0.364   4.511
 9066TIP3    H127141   7.440   0.281   4.524
 9066TIP3    H227142   7.566   0.355   4.563
 9067TIP3   OH227143   4.981   6.507   4.609
 9067TIP3    H127144   5.021   6.582   4.654
 9067TIP3    H227145   4.923   6.469   4.675
 9068TIP3   OH227146   6.817   6.956   3.438
 9068TIP3    H127147   6.820   7.002   3.354
 9068TIP3    H227148   6.819   6.864   3.415
 9069TIP3   OH227149   2.111   4.880   1.544
 9069TIP3    H127150   2.122   4.787   1.563
 9069TIP3    H227151   2.022   4.887   1.510
 9070TIP3   OH227152   2.593   3.782   2.748
 9070TIP3    H127153   2.606   3.877   2.754
 9070TIP3    H227154   2.599   3.762   2.655
 9071TIP3   OH227155   3.909   6.152   1.554
 9071TIP3    H127156   3.903   6.230   1.498
 9071TIP3    H227157   3.988   6.166   1.605
 9072TIP3   OH227158   0.357   4.545   3.723
 9072TIP3    H127159   0.335   4.573   3.811
 9072TIP3    H227160   0.362   4.450   3.728
 9073TIP3   OH227161   7.001   6.476   3.197
 9073TIP3    H127162   7.069   6.541   3.215
 9073TIP3    H227163   6.965   6.455   3.284
 9074TIP3   OH227164   0.738   3.031   1.866
 9074TIP3    H127165   0.810   3.093   1.856
 9074TIP3    H227166   0.716   3.035   1.959
 9075TIP3   OH227167   3.211   7.018   0.066
 9075TIP3    H127168   3.247   7.001  -0.020
 9075TIP3    H227169   3.185   6.931   0.099
 9076TIP3   OH227170   1.258   3.366   4.049
 9076TIP3    H127171   1.252   3.421   3.970
 9076TIP3    H227172   1.170   3.331   4.061
 9077TIP3   OH227173   0.355   0.335   6.643
 9077TIP3    H127174   0.413   0.410   6.625
 9077TIP3    H227175   0.414   0.263   6.663
 9078TIP3   OH227176   2.787   0.132   2.996
 9078TIP3    H127177   2.728   0.173   3.060
 9078TIP3    H227178   2.865   0.110   3.046
 9079TIP3   OH227179   0.127   5.261   0.791
 9079TIP3    H127180   0.201   5.225   0.743
 9079TIP3    H227181   0.053   5.204   0.768
 9080TIP3   OH227182   3.169   0.811   6.205
 9080TIP3    H127183   3.126   0.894   6.188
 9080TIP3    H227184   3.248   0.835   6.255
 9081TIP3   OH227185   0.872   2.364   4.651
 9081TIP3    H127186   0.963   2.348   4.626
 9081TIP3    H227187   0.874   2.451   4.691
 9082TIP3   OH227188   4.645   1.280   0.557
 9082TIP3    H127189   4.586   1.240   0.621
 9082TIP3    H227190   4.732   1.246   0.579
 9083TIP3   OH227191   0.873   1.352   2.319
 9083TIP3    H127192   0.799   1.411   2.303
 9083TIP3    H227193   0.892   1.314   2.233
 9084TIP3   OH227194   7.629   0.527   4.322
 9084TIP3    H127195   7.570   0.592   4.360
 9084TIP3    H227196   7.585   0.499   4.242
 9085TIP3   OH227197   6.990   4.850   2.306
 9085TIP3    H127198   7.003   4.866   2.399
 9085TIP3    H227199   6.935   4.922   2.276
 9086TIP3   OH227200   3.862   0.314   4.824
 9086TIP3    H127201   3.941   0.303   4.771
 9086TIP3    H227202   3.869   0.248   4.892
 9087TIP3   OH227203   2.233   7.405   0.484
 9087TIP3    H127204   2.277   7.396   0.568
 9087TIP3    H227205   2.218   7.315   0.455
 9088TIP3   OH227206   6.640   0.684   4.906
 9088TIP3    H127207   6.665   0.746   4.837
 9088TIP3    H227208   6.578   0.625   4.864
 9089TIP3   OH227209   4.060   7.546   3.894
 9089TIP3    H127210   4.140   7.512   3.933
 9089TIP3    H227211   3.994   7.479   3.913
 9090TIP3   OH227212   6.275   5.829   4.948
 9090TIP3    H127213   6.279   5.795   4.859
 9090TIP3    H227214   6.185   5.863   4.957
 9091TIP3   OH227215   3.412   1.259   1.648
 9091TIP3    H127216   3.368   1.337   1.681
 9091TIP3    H227217   3.505   1.284   1.643
 9092TIP3   OH227218   5.564   1.053   2.235
 9092TIP3    H127219   5.528   0.988   2.295
 9092TIP3    H227220   5.658   1.056   2.256
 9093TIP3   OH227221   7.483   6.054   0.856
 9093TIP3    H127222   7.536   6.042   0.934
 9093TIP3    H227223   7.488   5.971   0.810
 9094TIP3   OH227224   5.600   2.416   5.326
 9094TIP3    H127225   5.567   2.343   5.273
 9094TIP3    H227226   5.521   2.464   5.352
 9095TIP3   OH227227   3.648   0.979   1.173
 9095TIP3    H127228   3.640   1.073   1.157
 9095TIP3    H227229   3.590   0.962   1.247
 9096TIP3   OH227230   1.024   0.405   1.186
 9096TIP3    H127231   1.001   0.369   1.101
 9096TIP3    H227232   0.970   0.483   1.195
 9097TIP3   OH227233   6.857   2.056   0.613
 9097TIP3    H127234   6.927   2.068   0.677
 9097TIP3    H227235   6.897   2.077   0.529
 9098TIP3   OH227236   6.360   4.198   6.492
 9098TIP3    H127237   6.309   4.165   6.417
 9098TIP3    H227238   6.381   4.288   6.469
 9099TIP3   OH227239   1.959   2.929   3.935
 9099TIP3    H127240   1.988   3.020   3.934
 9099TIP3    H227241   2.037   2.879   3.909
 9100TIP3   OH227242   4.362   1.265   0.237
 9100TIP3    H127243   4.376   1.329   0.307
 9100TIP3    H227244   4.328   1.188   0.282
 9101TIP3   OH227245   1.059   3.993   2.155
 9101TIP3    H127246   1.116   4.031   2.222
 9101TIP3    H227247   1.042   3.904   2.186
 9102TIP3   OH227248   6.999   0.137   1.151
 9102TIP3    H127249   7.014   0.076   1.079
 9102TIP3    H227250   7.087   0.165   1.178
 9103TIP3   OH227251   2.552   3.676   3.435
 9103TIP3    H127252   2.617   3.631   3.381
 9103TIP3    H227253   2.478   3.692   3.375
 9104TIP3   OH227254   0.997   6.468   5.793
 9104TIP3    H127255   0.961   6.414   5.863
 9104TIP3    H227256   1.089   6.481   5.818
 9105TIP3   OH227257   4.117   3.364   2.073
 9105TIP3    H127258   4.181   3.303   2.109
 9105TIP3    H227259   4.142   3.449   2.108
 9106TIP3   OH227260   2.915   4.667   3.771
 9106TIP3    H127261   2.881   4.578   3.762
 9106TIP3    H227262   3.008   4.660   3.748
 9107TIP3   OH227263   5.986   3.967   2.939
 9107TIP3    H127264   5.971   4.060   2.920
 9107TIP3    H227265   5.926   3.947   3.011
 9108TIP3   OH227266   8.027   3.459   5.770
 9108TIP3    H127267   7.977   3.534   5.799
 9108TIP3    H227268   8.117   3.491   5.764
 9109TIP3   OH227269   4.243   3.596   6.433
 9109TIP3    H127270   4.227   3.690   6.432
 9109TIP3    H227271   4.195   3.562   6.357
 9110TIP3   OH227272   3.875   3.519   0.247
 9110TIP3    H127273   3.804   3.581   0.262
 9110TIP3    H227274   3.845   3.466   0.173
 9111TIP3   OH227275   4.917   7.517   1.714
 9111TIP3    H127276   4.894   7.563   1.634
 9111TIP3    H227277   5.012   7.506   1.709
 9112TIP3   OH227278   8.127   7.248   6.850
 9112TIP3    H127279   8.223   7.249   6.846
 9112TIP3    H227280   8.102   7.171   6.799
 9113TIP3   OH227281   7.309   7.159   0.582
 9113TIP3    H127282   7.304   7.239   0.633
 9113TIP3    H227283   7.223   7.151   0.541
 9114TIP3   OH227284   4.111   3.748   3.971
 9114TIP3    H127285   4.080   3.761   4.061
 9114TIP3    H227286   4.186   3.690   3.980
 9115TIP3   OH227287   1.202   7.798   2.732
 9115TIP3    H127288   1.249   7.859   2.789
 9115TIP3    H227289   1.243   7.713   2.749
 9116TIP3   OH227290   6.190   5.239   0.738
 9116TIP3    H127291   6.228   5.278   0.659
 9116TIP3    H227292   6.101   5.215   0.713
 9117TIP3   OH227293   2.920   7.240   3.557
 9117TIP3    H127294   2.911   7.283   3.472
 9117TIP3    H227295   2.964   7.305   3.612
 9118TIP3   OH227296   4.857   4.527   4.827
 9118TIP3    H127297   4.940   4.575   4.825
 9118TIP3    H227298   4.838   4.515   4.920
 9119TIP3   OH227299   5.979   4.497   2.994
 9119TIP3    H127300   6.016   4.539   3.072
 9119TIP3    H227301   6.053   4.452   2.954
 9120TIP3   OH227302   4.216   3.860   4.430
 9120TIP3    H127303   4.305   3.831   4.448
 9120TIP3    H227304   4.174   3.863   4.515
 9121TIP3   OH227305   2.168   4.474   6.135
 9121TIP3    H127306   2.106   4.417   6.180
 9121TIP3    H227307   2.247   4.419   6.124
 9122TIP3   OH227308   3.344   0.657   0.135
 9122TIP3    H127309   3.252   0.640   0.156
 9122TIP3    H227310   3.392   0.589   0.180
 9123TIP3   OH227311   6.632   7.792   4.032
 9123TIP3    H127312   6.598   7.773   4.119
 9123TIP3    H227313   6.671   7.710   4.002
 9124TIP3   OH227314   4.993   1.075   5.344
 9124TIP3    H127315   4.906   1.042   5.321
 9124TIP3    H227316   5.013   1.141   5.278
 9125TIP3   OH227317   2.446   7.603   5.883
 9125TIP3    H127318   2.445   7.603   5.979
 9125TIP3    H227319   2.533   7.569   5.860
 9126TIP3   OH227320   3.169   6.965   2.946
 9126TIP3    H127321   3.174   6.870   2.958
 9126TIP3    H227322   3.094   6.977   2.887
 9127TIP3   OH227323   0.646   5.355   0.564
 9127TIP3    H127324   0.690   5.352   0.479
 9127TIP3    H227325   0.595   5.437   0.562
 9128TIP3   OH227326   0.248   2.360   2.280
 9128TIP3    H127327   0.322   2.401   2.325
 9128TIP3    H227328   0.288   2.294   2.224
 9129TIP3   OH227329   1.142   0.309   5.910
 9129TIP3    H127330   1.111   0.233   5.959
 9129TIP3    H227331   1.235   0.291   5.893
 9130TIP3   OH227332   2.167   0.932   2.292
 9130TIP3    H127333   2.115   0.981   2.229
 9130TIP3    H227334   2.114   0.932   2.372
 9131TIP3   OH227335   6.459   6.074   1.584
 9131TIP3    H127336   6.431   6.004   1.525
 9131TIP3    H227337   6.468   6.032   1.670
 9132TIP3   OH227338   4.176   2.893   2.235
 9132TIP3    H127339   4.106   2.951   2.204
 9132TIP3    H227340   4.248   2.907   2.173
 9133TIP3   OH227341   4.678   5.971   3.447
 9133TIP3    H127342   4.733   5.983   3.524
 9133TIP3    H227343   4.736   5.929   3.383
 9134TIP3   OH227344   7.389   0.052   0.088
 9134TIP3    H127345   7.390   0.025   0.180
 9134TIP3    H227346   7.430  -0.021   0.042
 9135TIP3   OH227347   5.749   6.035   4.496
 9135TIP3    H127348   5.716   6.061   4.582
 9135TIP3    H227349   5.671   6.007   4.448
 9136TIP3   OH227350   3.843   2.778   5.033
 9136TIP3    H127351   3.934   2.784   5.006
 9136TIP3    H227352   3.814   2.693   4.999
 9137TIP3   OH227353   3.335   6.372   1.927
 9137TIP3    H127354   3.259   6.320   1.952
 9137TIP3    H227355   3.390   6.374   2.006
 9138TIP3   OH227356   7.085   3.362   3.368
 9138TIP3    H127357   6.998   3.348   3.405
 9138TIP3    H227358   7.141   3.381   3.443
 9139TIP3   OH227359   4.834   5.777   5.014
 9139TIP3    H127360   4.788   5.719   5.075
 9139TIP3    H227361   4.876   5.843   5.069
 9140TIP3   OH227362   4.028   7.221   3.258
 9140TIP3    H127363   3.946   7.245   3.215
 9140TIP3    H227364   4.090   7.209   3.186
 9141TIP3   OH227365   6.163   7.162   6.608
 9141TIP3    H127366   6.080   7.205   6.627
 9141TIP3    H227367   6.228   7.212   6.657
 9142TIP3   OH227368   3.128   6.980   4.459
 9142TIP3    H127369   3.078   6.942   4.531
 9142TIP3    H227370   3.101   7.071   4.456
 9143TIP3   OH227371   3.418   4.193   6.541
 9143TIP3    H127372   3.451   4.107   6.568
 9143TIP3    H227373   3.452   4.253   6.608
 9144TIP3   OH227374   0.399   3.037   2.882
 9144TIP3    H127375   0.472   2.975   2.874
 9144TIP3    H227376   0.348   3.026   2.802
 9145TIP3   OH227377   2.777   6.802   6.413
 9145TIP3    H127378   2.824   6.780   6.493
 9145TIP3    H227379   2.727   6.881   6.435
 9146TIP3   OH227380   5.212   1.370   2.862
 9146TIP3    H127381   5.280   1.304   2.876
 9146TIP3    H227382   5.133   1.320   2.843
 9147TIP3   OH227383   0.158   6.595   0.560
 9147TIP3    H127384   0.147   6.539   0.637
 9147TIP3    H227385   0.242   6.638   0.573
 9148TIP3   OH227386   1.373   6.346   5.026
 9148TIP3    H127387   1.296   6.290   5.032
 9148TIP3    H227388   1.361   6.411   5.096
 9149TIP3   OH227389   6.346   5.120   4.447
 9149TIP3    H127390   6.348   5.094   4.540
 9149TIP3    H227391   6.266   5.079   4.413
 9150TIP3   OH227392   1.862   3.981   4.914
 9150TIP3    H127393   1.902   3.971   5.001
 9150TIP3    H227394   1.777   4.021   4.931
 9151TIP3   OH227395   2.328   4.443   4.817
 9151TIP3    H127396   2.270   4.446   4.893
 9151TIP3    H227397   2.386   4.369   4.834
 9152TIP3   OH227398   3.740   3.325   4.649
 9152TIP3    H127399   3.668   3.352   4.593
 9152TIP3    H227400   3.732   3.379   4.727
 9153TIP3   OH227401   0.717   5.684   0.477
 9153TIP3    H127402   0.724   5.592   0.452
 9153TIP3    H227403   0.673   5.682   0.562
 9154TIP3   OH227404   1.483   6.800   6.728
 9154TIP3    H127405   1.416   6.854   6.771
 9154TIP3    H227406   1.451   6.788   6.639
 9155TIP3   OH227407   2.529   2.018   5.408
 9155TIP3    H127408   2.509   2.046   5.318
 9155TIP3    H227409   2.443   2.008   5.449
 9156TIP3   OH227410   3.400   6.408   6.456
 9156TIP3    H127411   3.361   6.323   6.476
 9156TIP3    H227412   3.440   6.397   6.370
 9157TIP3   OH227413   1.255   1.882   5.518
 9157TIP3    H127414   1.241   1.922   5.432
 9157TIP3    H227415   1.168   1.876   5.556
 9158TIP3   OH227416   0.586   4.750   2.084
 9158TIP3    H127417   0.588   4.792   2.171
 9158TIP3    H227418   0.500   4.709   2.080
 9159TIP3   OH227419   0.523   4.305   1.624
 9159TIP3    H127420   0.535   4.256   1.705
 9159TIP3    H227421   0.552   4.245   1.555
 9160TIP3   OH227422   5.946   0.075   5.830
 9160TIP3    H127423   6.023   0.039   5.874
 9160TIP3    H227424   5.970   0.079   5.738
 9161TIP3   OH227425   2.455   5.392   5.134
 9161TIP3    H127426   2.478   5.472   5.086
 9161TIP3    H227427   2.529   5.378   5.193
 9162TIP3   OH227428   1.052   0.788   4.743
 9162TIP3    H127429   1.070   0.720   4.678
 9162TIP3    H227430   1.101   0.864   4.713
 9163TIP3   OH227431   2.310   2.068   5.580
 9163TIP3    H127432   2.233   2.123   5.562
 9163TIP3    H227433   2.285   2.017   5.657
 9164TIP3   OH227434   7.457   4.710   6.304
 9164TIP3    H127435   7.430   4.792   6.346
 9164TIP3    H227436   7.449   4.728   6.210
 9165TIP3   OH227437   5.364   2.360   2.773
 9165TIP3    H127438   5.369   2.416   2.696
 9165TIP3    H227439   5.384   2.272   2.742
 9166TIP3   OH227440   7.917   0.095   6.274
 9166TIP3    H127441   7.945   0.051   6.193
 9166TIP3    H227442   7.899   0.185   6.247
 9167TIP3   OH227443   6.061   6.016   3.180
 9167TIP3    H127444   5.987   5.960   3.154
 9167TIP3    H227445   6.103   5.968   3.251
 9168TIP3   OH227446   4.892   7.511   2.254
 9168TIP3    H127447   4.826   7.466   2.308
 9168TIP3    H227448   4.902   7.597   2.295
 9169TIP3   OH227449   6.072   0.099   2.048
 9169TIP3    H127450   6.144   0.151   2.085
 9169TIP3    H227451   6.075   0.016   2.096
 9170TIP3   OH227452   0.192   4.666   2.901
 9170TIP3    H127453   0.203   4.710   2.817
 9170TIP3    H227454   0.142   4.587   2.880
 9171TIP3   OH227455   5.031   3.181   3.858
 9171TIP3    H127456   4.948   3.225   3.875
 9171TIP3    H227457   5.031   3.163   3.764
 9172TIP3   OH227458   3.980   4.489   0.437
 9172TIP3    H127459   3.986   4.510   0.343
 9172TIP3    H227460   3.890   4.458   0.449
 9173TIP3   OH227461   4.127   7.520   0.033
 9173TIP3    H127462   4.220   7.536   0.020
 9173TIP3    H227463   4.104   7.572   0.110
 9174TIP3   OH227464   7.924   5.759   5.618
 9174TIP3    H127465   7.964   5.673   5.632
 9174TIP3    H227466   7.995   5.821   5.636
 9175TIP3   OH227467   1.038   1.424   5.348
 9175TIP3    H127468   1.088   1.505   5.356
 9175TIP3    H227469   1.017   1.418   5.255
 9176TIP3   OH227470   5.739   5.340   0.627
 9176TIP3    H127471   5.714   5.333   0.719
 9176TIP3    H227472   5.666   5.385   0.585
 9177TIP3   OH227473   4.203   6.134   6.023
 9177TIP3    H127474   4.226   6.226   6.015
 9177TIP3    H227475   4.286   6.087   6.008
 9178TIP3   OH227476   3.533   2.990   0.059
 9178TIP3    H127477   3.523   3.072   0.108
 9178TIP3    H227478   3.613   2.951   0.094
 9179TIP3   OH227479   7.585   5.673   0.953
 9179TIP3    H127480   7.586   5.767   0.932
 9179TIP3    H227481   7.613   5.670   1.045
 9180TIP3   OH227482   7.492   6.448   2.489
 9180TIP3    H127483   7.500   6.360   2.527
 9180TIP3    H227484   7.482   6.506   2.564
 9181TIP3   OH227485   5.599   4.772   6.773
 9181TIP3    H127486   5.546   4.851   6.770
 9181TIP3    H227487   5.660   4.787   6.845
 9182TIP3   OH227488   3.403   7.061   5.752
 9182TIP3    H127489   3.310   7.041   5.758
 9182TIP3    H227490   3.437   6.998   5.688
 9183TIP3   OH227491   0.505   2.225   3.906
 9183TIP3    H127492   0.587   2.273   3.893
 9183TIP3    H227493   0.445   2.289   3.943
 9184TIP3   OH227494   2.595   5.655   4.986
 9184TIP3    H127495   2.623   5.568   4.957
 9184TIP3    H227496   2.656   5.677   5.057
 9185TIP3   OH227497   7.296   1.588   4.257
 9185TIP3    H127498   7.335   1.662   4.303
 9185TIP3    H227499   7.206   1.615   4.240
 9186TIP3   OH227500   4.240   1.394   2.550
 9186TIP3    H127501   4.211   1.343   2.626
 9186TIP3    H227502   4.159   1.416   2.504
 9187TIP3   OH227503   0.442   1.804   3.282
 9187TIP3    H127504   0.530   1.842   3.280
 9187TIP3    H227505   0.387   1.867   3.236
 9188TIP3   OH227506   1.266   2.431   2.988
 9188TIP3    H127507   1.257   2.488   2.912
 9188TIP3    H227508   1.349   2.386   2.975
 9189TIP3   OH227509   3.232   5.104   2.356
 9189TIP3    H127510   3.225   5.036   2.290
 9189TIP3    H227511   3.308   5.156   2.331
 9190TIP3   OH227512   4.388   7.115   0.821
 9190TIP3    H127513   4.400   7.027   0.855
 9190TIP3    H227514   4.371   7.103   0.727
 9191TIP3   OH227515   2.723   5.043   6.496
 9191TIP3    H127516   2.778   5.086   6.431
 9191TIP3    H227517   2.643   5.095   6.498
 9192TIP3   OH227518   7.393   4.662   4.245
 9192TIP3    H127519   7.411   4.635   4.335
 9192TIP3    H227520   7.473   4.704   4.215
 9193TIP3   OH227521   2.588   5.980   0.669
 9193TIP3    H127522   2.630   6.049   0.720
 9193TIP3    H227523   2.497   6.007   0.663
 9194TIP3   OH227524   5.071   0.497   1.289
 9194TIP3    H127525   4.982   0.523   1.264
 9194TIP3    H227526   5.072   0.402   1.277
 9195TIP3   OH227527   3.949   1.122   1.673
 9195TIP3    H127528   3.890   1.081   1.610
 9195TIP3    H227529   4.017   1.162   1.618
 9196TIP3   OH227530   7.088   5.329   6.030
 9196TIP3    H127531   7.047   5.272   6.095
 9196TIP3    H227532   7.020   5.343   5.965
 9197TIP3   OH227533   2.561   1.449   1.216
 9197TIP3    H127534   2.541   1.438   1.123
 9197TIP3    H227535   2.562   1.543   1.229
 9198TIP3   OH227536   8.196   3.243   6.657
 9198TIP3    H127537   8.226   3.332   6.639
 9198TIP3    H227538   8.102   3.252   6.675
 9199TIP3   OH227539   6.667   4.008   5.581
 9199TIP3    H127540   6.703   3.964   5.504
 9199TIP3    H227541   6.625   3.939   5.632
 9200TIP3   OH227542   7.307   4.903   1.859
 9200TIP3    H127543   7.313   4.916   1.954
 9200TIP3    H227544   7.272   4.814   1.849
 9201TIP3   OH227545   6.568   7.667   6.254
 9201TIP3    H127546   6.579   7.640   6.345
 9201TIP3    H227547   6.618   7.748   6.247
 9202TIP3   OH227548   6.655   4.612   0.475
 9202TIP3    H127549   6.575   4.603   0.527
 9202TIP3    H227550   6.673   4.524   0.443
 9203TIP3   OH227551   4.397   3.362   0.704
 9203TIP3    H127552   4.409   3.452   0.734
 9203TIP3    H227553   4.359   3.371   0.616
 9204TIP3   OH227554   0.698   4.000   0.997
 9204TIP3    H127555   0.643   3.925   1.020
 9204TIP3    H227556   0.778   3.989   1.049
 9205TIP3   OH227557   6.915   4.442   1.240
 9205TIP3    H127558   6.882   4.353   1.225
 9205TIP3    H227559   6.864   4.474   1.314
 9206TIP3   OH227560   0.304   7.579   0.610
 9206TIP3    H127561   0.272   7.530   0.535
 9206TIP3    H227562   0.294   7.520   0.684
 9207TIP3   OH227563   3.920   4.340   0.155
 9207TIP3    H127564   3.948   4.420   0.111
 9207TIP3    H227565   3.983   4.274   0.126
 9208TIP3   OH227566   2.384   5.706   2.362
 9208TIP3    H127567   2.346   5.622   2.335
 9208TIP3    H227568   2.427   5.740   2.283
 9209TIP3   OH227569   2.430   5.545   6.246
 9209TIP3    H127570   2.362   5.531   6.181
 9209TIP3    H227571   2.436   5.640   6.255
 9210TIP3   OH227572   5.972   2.465   2.922
 9210TIP3    H127573   6.006   2.377   2.904
 9210TIP3    H227574   6.039   2.524   2.889
 9211TIP3   OH227575   6.167   1.815   2.815
 9211TIP3    H127576   6.232   1.868   2.771
 9211TIP3    H227577   6.171   1.730   2.771
 9212TIP3   OH227578   0.118   3.801   3.022
 9212TIP3    H127579   0.099   3.725   2.967
 9212TIP3    H227580   0.032   3.830   3.052
 9213TIP3   OH227581   5.289   5.690   4.094
 9213TIP3    H127582   5.282   5.780   4.125
 9213TIP3    H227583   5.383   5.678   4.078
 9214TIP3   OH227584   3.741   7.701   4.635
 9214TIP3    H127585   3.755   7.609   4.613
 9214TIP3    H227586   3.791   7.714   4.716
 9215TIP3   OH227587   3.204   3.979   2.470
 9215TIP3    H127588   3.298   3.996   2.462
 9215TIP3    H227589   3.194   3.886   2.449
 9216TIP3   OH227590   7.271   0.327   4.807
 9216TIP3    H127591   7.350   0.379   4.810
 9216TIP3    H227592   7.209   0.380   4.757
 9217TIP3   OH227593   3.414   5.440   6.053
 9217TIP3    H127594   3.433   5.498   5.979
 9217TIP3    H227595   3.331   5.398   6.030
 9218TIP3   OH227596   4.981   0.144   6.280
 9218TIP3    H127597   5.002   0.052   6.266
 9218TIP3    H227598   5.028   0.190   6.210
 9219TIP3   OH227599   1.665   5.795   0.514
 9219TIP3    H127600   1.641   5.799   0.421
 9219TIP3    H227601   1.582   5.777   0.559
 9220TIP3   OH227602   2.442   3.731   0.840
 9220TIP3    H127603   2.387   3.786   0.785
 9220TIP3    H227604   2.441   3.645   0.798
 9221TIP3   OH227605   0.518   5.897   0.307
 9221TIP3    H127606   0.543   5.977   0.353
 9221TIP3    H227607   0.598   5.845   0.305
 9222TIP3   OH227608   2.848   1.276   4.364
 9222TIP3    H127609   2.830   1.329   4.441
 9222TIP3    H227610   2.912   1.328   4.314
 9223TIP3   OH227611   7.313   3.029   2.569
 9223TIP3    H127612   7.306   2.943   2.528
 9223TIP3    H227613   7.223   3.049   2.596
 9224TIP3   OH227614   0.097   7.744   3.246
 9224TIP3    H127615   0.151   7.666   3.229
 9224TIP3    H227616   0.160   7.816   3.250
 9225TIP3   OH227617   4.329   7.369   5.158
 9225TIP3    H127618   4.324   7.280   5.193
 9225TIP3    H227619   4.417   7.375   5.120
 9226TIP3   OH227620   4.225   4.055   4.202
 9226TIP3    H127621   4.148   4.101   4.235
 9226TIP3    H227622   4.246   3.990   4.270
 9227TIP3   OH227623   4.278   1.093   2.877
 9227TIP3    H127624   4.337   1.076   2.950
 9227TIP3    H227625   4.208   1.028   2.886
 9228TIP3   OH227626   3.642   2.172   4.482
 9228TIP3    H127627   3.689   2.095   4.449
 9228TIP3    H227628   3.702   2.245   4.468
 9229TIP3   OH227629   0.922   2.930   0.221
 9229TIP3    H127630   0.829   2.908   0.214
 9229TIP3    H227631   0.934   3.004   0.161
 9230TIP3   OH227632   4.024   4.289   1.537
 9230TIP3    H127633   3.955   4.351   1.561
 9230TIP3    H227634   4.098   4.344   1.513
 9231TIP3   OH227635   1.171   4.237   2.504
 9231TIP3    H127636   1.204   4.237   2.414
 9231TIP3    H227637   1.249   4.226   2.559
 9232TIP3   OH227638   3.793   4.842   0.246
 9232TIP3    H127639   3.816   4.850   0.338
 9232TIP3    H227640   3.844   4.766   0.216
 9233TIP3   OH227641   8.035   1.573   0.250
 9233TIP3    H127642   7.977   1.596   0.323
 9233TIP3    H227643   8.013   1.482   0.230
 9234TIP3   OH227644   1.717   3.182   1.404
 9234TIP3    H127645   1.706   3.087   1.406
 9234TIP3    H227646   1.779   3.197   1.333
 9235TIP3   OH227647   3.293   2.173   3.433
 9235TIP3    H127648   3.198   2.175   3.436
 9235TIP3    H227649   3.318   2.103   3.494
 9236TIP3   OH227650   6.070   5.635   6.563
 9236TIP3    H127651   6.158   5.602   6.543
 9236TIP3    H227652   6.055   5.704   6.498
 9237TIP3   OH227653   3.082   1.306   0.182
 9237TIP3    H127654   3.086   1.401   0.166
 9237TIP3    H227655   3.106   1.296   0.274
 9238TIP3   OH227656   7.693   7.295   0.423
 9238TIP3    H127657   7.683   7.389   0.441
 9238TIP3    H227658   7.786   7.284   0.402
 9239TIP3   OH227659   4.215   5.782   0.350
 9239TIP3    H127660   4.279   5.746   0.412
 9239TIP3    H227661   4.263   5.790   0.268
 9240TIP3   OH227662   5.790   5.173   3.310
 9240TIP3    H127663   5.816   5.095   3.262
 9240TIP3    H227664   5.696   5.181   3.295
 9241TIP3   OH227665   4.062   4.134   2.274
 9241TIP3    H127666   4.062   4.127   2.178
 9241TIP3    H227667   4.008   4.060   2.303
 9242TIP3   OH227668   6.958   1.173   1.102
 9242TIP3    H127669   6.921   1.102   1.154
 9242TIP3    H227670   7.038   1.198   1.150
 9243TIP3   OH227671   0.511   4.111   1.270
 9243TIP3    H127672   0.438   4.168   1.293
 9243TIP3    H227673   0.480   4.061   1.194
 9244TIP3   OH227674   3.675   7.792   5.236
 9244TIP3    H127675   3.645   7.881   5.254
 9244TIP3    H227676   3.714   7.762   5.318
 9245TIP3   OH227677   0.604   0.165   6.380
 9245TIP3    H127678   0.631   0.213   6.458
 9245TIP3    H227679   0.655   0.205   6.309
 9246TIP3   OH227680   7.521   0.814   1.086
 9246TIP3    H127681   7.499   0.907   1.074
 9246TIP3    H227682   7.549   0.807   1.177
 9247TIP3   OH227683   3.338   3.991   1.733
 9247TIP3    H127684   3.362   3.938   1.657
 9247TIP3    H227685   3.256   4.034   1.707
 9248TIP3   OH227686   3.857   5.979   3.962
 9248TIP3    H127687   3.798   6.020   3.899
 9248TIP3    H227688   3.936   5.959   3.911
 9249TIP3   OH227689   0.294   3.715   5.128
 9249TIP3    H127690   0.276   3.773   5.054
 9249TIP3    H227691   0.377   3.672   5.105
 9250TIP3   OH227692   0.855   3.620   6.463
 9250TIP3    H127693   0.761   3.630   6.480
 9250TIP3    H227694   0.872   3.527   6.481
 9251TIP3   OH227695   8.107   5.658   3.950
 9251TIP3    H127696   8.034   5.616   3.996
 9251TIP3    H227697   8.165   5.586   3.926
 9252TIP3   OH227698   1.535   5.933   4.538
 9252TIP3    H127699   1.583   5.991   4.597
 9252TIP3    H227700   1.443   5.950   4.558
 9253TIP3   OH227701   2.288   5.128   2.151
 9253TIP3    H127702   2.234   5.055   2.181
 9253TIP3    H227703   2.225   5.194   2.122
 9254TIP3   OH227704   5.880   6.658   5.205
 9254TIP3    H127705   5.847   6.739   5.244
 9254TIP3    H227706   5.936   6.621   5.273
 9255TIP3   OH227707   3.764   6.184   0.082
 9255TIP3    H127708   3.852   6.160   0.053
 9255TIP3    H227709   3.777   6.261   0.137
 9256TIP3   OH227710   5.552   0.441   0.180
 9256TIP3    H127711   5.467   0.433   0.137
 9256TIP3    H227712   5.571   0.535   0.179
 9257TIP3   OH227713   7.508   1.732   6.679
 9257TIP3    H127714   7.485   1.725   6.771
 9257TIP3    H227715   7.603   1.735   6.677
 9258TIP3   OH227716   2.969   7.323   5.044
 9258TIP3    H127717   2.876   7.341   5.028
 9258TIP3    H227718   2.999   7.395   5.099
 9259TIP3   OH227719   5.099   7.210   4.343
 9259TIP3    H127720   5.063   7.128   4.375
 9259TIP3    H227721   5.043   7.234   4.269
 9260TIP3   OH227722   1.175   1.983   4.957
 9260TIP3    H127723   1.175   2.075   4.983
 9260TIP3    H227724   1.095   1.947   4.996
 9261TIP3   OH227725   1.490   1.719   4.464
 9261TIP3    H127726   1.481   1.803   4.421
 9261TIP3    H227727   1.496   1.656   4.393
 9262TIP3   OH227728   3.449   1.479   3.382
 9262TIP3    H127729   3.382   1.470   3.449
 9262TIP3    H227730   3.530   1.455   3.426
 9263TIP3   OH227731   6.113   0.424   6.042
 9263TIP3    H127732   6.072   0.377   5.969
 9263TIP3    H227733   6.192   0.463   6.004
 9264TIP3   OH227734   6.969   0.949   3.443
 9264TIP3    H127735   6.981   1.032   3.396
 9264TIP3    H227736   6.933   0.889   3.377
 9265TIP3   OH227737   2.789   7.009   0.090
 9265TIP3    H127738   2.875   7.045   0.069
 9265TIP3    H227739   2.745   7.078   0.140
 9266TIP3   OH227740   5.711   6.424   3.649
 9266TIP3    H127741   5.789   6.479   3.638
 9266TIP3    H227742   5.730   6.346   3.597
 9267TIP3   OH227743   5.887   7.583   2.580
 9267TIP3    H127744   5.971   7.541   2.600
 9267TIP3    H227745   5.851   7.532   2.508
 9268TIP3   OH227746   1.011   5.857   2.775
 9268TIP3    H127747   0.944   5.923   2.754
 9268TIP3    H227748   0.983   5.779   2.727
 9269TIP3   OH227749   2.320   4.872   3.683
 9269TIP3    H127750   2.310   4.790   3.635
 9269TIP3    H227751   2.319   4.846   3.775
 9270TIP3   OH227752   1.188   6.186   0.329
 9270TIP3    H127753   1.139   6.147   0.257
 9270TIP3    H227754   1.251   6.118   0.355
 9271TIP3   OH227755   3.107   7.699   0.573
 9271TIP3    H127756   3.127   7.790   0.552
 9271TIP3    H227757   3.161   7.680   0.650
 9272TIP3   OH227758   4.848   7.439   5.370
 9272TIP3    H127759   4.911   7.459   5.439
 9272TIP3    H227760   4.835   7.522   5.324
 9273TIP3   OH227761   7.582   4.093   2.053
 9273TIP3    H127762   7.666   4.128   2.081
 9273TIP3    H227763   7.529   4.090   2.133
 9274TIP3   OH227764   7.511   1.693   0.411
 9274TIP3    H127765   7.588   1.699   0.467
 9274TIP3    H227766   7.437   1.704   0.471
 9275TIP3   OH227767   1.753   1.411   4.411
 9275TIP3    H127768   1.668   1.403   4.369
 9275TIP3    H227769   1.790   1.323   4.409
 9276TIP3   OH227770   0.453   6.694   5.200
 9276TIP3    H127771   0.521   6.683   5.134
 9276TIP3    H227772   0.376   6.650   5.163
 9277TIP3   OH227773   3.614   3.023   6.421
 9277TIP3    H127774   3.649   3.028   6.509
 9277TIP3    H227775   3.660   2.949   6.380
 9278TIP3   OH227776   7.935   7.417   6.419
 9278TIP3    H127777   7.931   7.501   6.374
 9278TIP3    H227778   7.947   7.439   6.511
 9279TIP3   OH227779   7.351   2.520   3.689
 9279TIP3    H127780   7.430   2.575   3.689
 9279TIP3    H227781   7.337   2.498   3.781
 9280TIP3   OH227782   0.406   7.341   3.145
 9280TIP3    H127783   0.328   7.308   3.101
 9280TIP3    H227784   0.428   7.272   3.208
 9281TIP3   OH227785   3.015   0.784   1.595
 9281TIP3    H127786   3.080   0.854   1.605
 9281TIP3    H227787   3.061   0.705   1.624
 9282TIP3   OH227788   2.796   5.130   2.813
 9282TIP3    H127789   2.790   5.126   2.718
 9282TIP3    H227790   2.875   5.180   2.830
 9283TIP3   OH227791   2.745   1.206   1.760
 9283TIP3    H127792   2.762   1.164   1.676
 9283TIP3    H227793   2.831   1.234   1.791
 9284TIP3   OH227794   5.915   3.772   6.606
 9284TIP3    H127795   5.879   3.839   6.547
 9284TIP3    H227796   5.941   3.701   6.547
 9285TIP3   OH227797   5.217   0.117   3.136
 9285TIP3    H127798   5.160   0.061   3.083
 9285TIP3    H227799   5.223   0.072   3.220
 9286TIP3   OH227800   2.611   5.633   0.003
 9286TIP3    H127801   2.668   5.687  -0.051
 9286TIP3    H227802   2.669   5.562   0.033
 9287TIP3   OH227803   4.953   1.996   6.362
 9287TIP3    H127804   4.972   2.000   6.455
 9287TIP3    H227805   5.033   2.026   6.319
 9288TIP3   OH227806   6.485   0.707   5.571
 9288TIP3    H127807   6.511   0.793   5.602
 9288TIP3    H227808   6.556   0.649   5.597
 9289TIP3   OH227809   3.091   3.995   4.420
 9289TIP3    H127810   3.186   3.989   4.426
 9289TIP3    H227811   3.072   4.088   4.431
 9290TIP3   OH227812   7.153   7.104   5.055
 9290TIP3    H127813   7.200   7.048   5.115
 9290TIP3    H227814   7.125   7.046   4.984
 9291TIP3   OH227815   5.416   0.122   0.673
 9291TIP3    H127816   5.467   0.091   0.747
 9291TIP3    H227817   5.341   0.063   0.669
 9292TIP3   OH227818   7.563   3.250   2.997
 9292TIP3    H127819   7.581   3.183   3.063
 9292TIP3    H227820   7.476   3.228   2.964
 9293TIP3   OH227821   0.880   3.619   6.145
 9293TIP3    H127822   0.926   3.702   6.151
 9293TIP3    H227823   0.842   3.606   6.232
 9294TIP3   OH227824   4.018   6.044   0.077
 9294TIP3    H127825   4.106   6.080   0.084
 9294TIP3    H227826   3.987   6.038   0.167
 9295TIP3   OH227827   2.495   3.051   4.727
 9295TIP3    H127828   2.434   3.093   4.666
 9295TIP3    H227829   2.577   3.043   4.678
 9296TIP3   OH227830   2.970   0.590   6.427
 9296TIP3    H127831   2.918   0.670   6.431
 9296TIP3    H227832   2.914   0.526   6.383
 9297TIP3   OH227833   4.266   1.336   1.992
 9297TIP3    H127834   4.267   1.254   1.942
 9297TIP3    H227835   4.356   1.344   2.024
 9298TIP3   OH227836   5.631   6.050   4.742
 9298TIP3    H127837   5.593   6.021   4.825
 9298TIP3    H227838   5.708   6.102   4.767
 9299TIP3   OH227839   7.770   5.083   5.920
 9299TIP3    H127840   7.748   5.061   6.011
 9299TIP3    H227841   7.824   5.162   5.927
 9300TIP3   OH227842   2.136   4.710   0.944
 9300TIP3    H127843   2.168   4.768   0.875
 9300TIP3    H227844   2.090   4.767   1.005
 9301TIP3   OH227845   6.064   7.795   5.264
 9301TIP3    H127846   6.126   7.729   5.231
 9301TIP3    H227847   6.029   7.837   5.186
 9302TIP3   OH227848   0.322   0.023   0.043
 9302TIP3    H127849   0.238   0.022   0.088
 9302TIP3    H227850   0.337   0.115   0.023
 9303TIP3   OH227851   7.773   6.803   4.408
 9303TIP3    H127852   7.735   6.729   4.362
 9303TIP3    H227853   7.773   6.777   4.500
 9304TIP3   OH227854   4.075   7.354   1.499
 9304TIP3    H127855   4.012   7.360   1.570
 9304TIP3    H227856   4.022   7.361   1.419
 9305TIP3   OH227857   5.437   3.624   5.755
 9305TIP3    H127858   5.404   3.699   5.804
 9305TIP3    H227859   5.450   3.658   5.666
 9306TIP3   OH227860   7.603   4.071   4.640
 9306TIP3    H127861   7.548   4.100   4.567
 9306TIP3    H227862   7.676   4.026   4.598
 9307TIP3   OH227863   2.921   0.301   3.233
 9307TIP3    H127864   2.832   0.295   3.197
 9307TIP3    H227865   2.952   0.387   3.206
 9308TIP3   OH227866   3.623   5.017   1.497
 9308TIP3    H127867   3.712   4.985   1.485
 9308TIP3    H227868   3.633   5.100   1.543
 9309TIP3   OH227869   1.501   5.430   5.634
 9309TIP3    H127870   1.536   5.496   5.575
 9309TIP3    H227871   1.417   5.405   5.595
 9310TIP3   OH227872   0.675   3.518   3.061
 9310TIP3    H127873   0.700   3.535   2.971
 9310TIP3    H227874   0.650   3.425   3.062
 9311TIP3   OH227875   5.614   6.402   4.899
 9311TIP3    H127876   5.588   6.414   4.990
 9311TIP3    H227877   5.567   6.471   4.852
 9312TIP3   OH227878   7.931   1.764   5.263
 9312TIP3    H127879   8.008   1.813   5.237
 9312TIP3    H227880   7.876   1.762   5.185
 9313TIP3   OH227881   1.978   1.997   1.253
 9313TIP3    H127882   2.062   2.026   1.219
 9313TIP3    H227883   1.934   1.956   1.178
 9314TIP3   OH227884   7.869   6.469   3.461
 9314TIP3    H127885   7.799   6.446   3.522
 9314TIP3    H227886   7.824   6.516   3.390
 9315TIP3   OH227887   2.681   4.283   5.676
 9315TIP3    H127888   2.652   4.193   5.660
 9315TIP3    H227889   2.618   4.318   5.738
 9316TIP3   OH227890   3.589   1.072   3.336
 9316TIP3    H127891   3.608   1.141   3.273
 9316TIP3    H227892   3.577   0.994   3.282
 9317TIP3   OH227893   1.907   2.947   0.168
 9317TIP3    H127894   1.972   2.926   0.101
 9317TIP3    H227895   1.957   2.991   0.237
 9318TIP3   OH227896   1.410   1.476   3.955
 9318TIP3    H127897   1.339   1.444   4.010
 9318TIP3    H227898   1.459   1.398   3.929
 9319TIP3   OH227899   7.113   6.564   3.769
 9319TIP3    H127900   7.042   6.620   3.736
 9319TIP3    H227901   7.162   6.539   3.690
 9320TIP3   OH227902   0.880   0.704   5.808
 9320TIP3    H127903   0.875   0.788   5.853
 9320TIP3    H227904   0.954   0.659   5.850
 9321TIP3   OH227905   2.061   0.255   2.333
 9321TIP3    H127906   1.980   0.209   2.313
 9321TIP3    H227907   2.087   0.224   2.419
 9322TIP3   OH227908   3.933   7.770   2.978
 9322TIP3    H127909   3.839   7.762   2.962
 9322TIP3    H227910   3.943   7.760   3.073
 9323TIP3   OH227911   3.802   7.293   5.757
 9323TIP3    H127912   3.760   7.365   5.709
 9323TIP3    H227913   3.848   7.336   5.829
 9324TIP3   OH227914   2.967   4.170   4.875
 9324TIP3    H127915   2.904   4.098   4.880
 9324TIP3    H227916   2.914   4.249   4.877
 9325TIP3   OH227917   5.946   3.208   4.777
 9325TIP3    H127918   5.869   3.154   4.797
 9325TIP3    H227919   5.926   3.292   4.818
 9326TIP3   OH227920   0.484   5.091   5.480
 9326TIP3    H127921   0.515   5.154   5.544
 9326TIP3    H227922   0.389   5.104   5.478
 9327TIP3   OH227923   1.545   2.622   2.767
 9327TIP3    H127924   1.584   2.538   2.792
 9327TIP3    H227925   1.540   2.617   2.671
 9328TIP3   OH227926   0.127   3.441   3.469
 9328TIP3    H127927   0.039   3.480   3.474
 9328TIP3    H227928   0.177   3.502   3.416
 9329TIP3   OH227929   5.000   0.606   3.736
 9329TIP3    H127930   5.088   0.571   3.724
 9329TIP3    H227931   5.012   0.701   3.732
 9330TIP3   OH227932   4.409   1.639   6.786
 9330TIP3    H127933   4.398   1.548   6.757
 9330TIP3    H227934   4.491   1.666   6.744
 9331TIP3   OH227935   6.128   5.520   4.671
 9331TIP3    H127936   6.145   5.443   4.616
 9331TIP3    H227937   6.081   5.484   4.747
 9332TIP3   OH227938   5.014   6.917   5.663
 9332TIP3    H127939   4.967   6.996   5.690
 9332TIP3    H227940   4.990   6.852   5.729
 9333TIP3   OH227941   7.688   7.154   6.736
 9333TIP3    H127942   7.695   7.244   6.769
 9333TIP3    H227943   7.735   7.157   6.652
 9334TIP3   OH227944   5.296   1.313   6.763
 9334TIP3    H127945   5.303   1.404   6.792
 9334TIP3    H227946   5.279   1.263   6.843
 9335TIP3   OH227947   0.236   2.074   2.944
 9335TIP3    H127948   0.326   2.070   2.976
 9335TIP3    H227949   0.241   2.130   2.866
 9336TIP3   OH227950   4.953   4.276   6.040
 9336TIP3    H127951   4.892   4.330   6.091
 9336TIP3    H227952   4.907   4.259   5.958
 9337TIP3   OH227953   2.441   4.405   1.917
 9337TIP3    H127954   2.349   4.387   1.898
 9337TIP3    H227955   2.463   4.479   1.860
 9338TIP3   OH227956   1.044   7.608   6.397
 9338TIP3    H127957   0.994   7.549   6.454
 9338TIP3    H227958   1.100   7.549   6.345
 9339TIP3   OH227959   5.970   7.245   4.096
 9339TIP3    H127960   5.898   7.308   4.087
 9339TIP3    H227961   5.938   7.183   4.162
 9340TIP3   OH227962   7.923   2.199   1.455
 9340TIP3    H127963   7.949   2.233   1.370
 9340TIP3    H227964   7.828   2.184   1.447
 9341TIP3   OH227965   4.689   1.891   0.502
 9341TIP3    H127966   4.641   1.961   0.459
 9341TIP3    H227967   4.744   1.936   0.566
 9342TIP3   OH227968   7.880   4.006   4.526
 9342TIP3    H127969   7.886   3.928   4.470
 9342TIP3    H227970   7.954   4.060   4.500
 9343TIP3   OH227971   0.048   1.012   5.852
 9343TIP3    H127972  -0.016   1.029   5.783
 9343TIP3    H227973   0.108   0.949   5.813
 9344TIP3   OH227974   3.355   2.350   4.921
 9344TIP3    H127975   3.368   2.425   4.863
 9344TIP3    H227976   3.273   2.310   4.891
 9345TIP3   OH227977   3.297   3.758   6.004
 9345TIP3    H127978   3.376   3.706   6.022
 9345TIP3    H227979   3.326   3.849   6.011
 9346TIP3   OH227980   6.727   5.630   6.729
 9346TIP3    H127981   6.722   5.555   6.788
 9346TIP3    H227982   6.668   5.608   6.657
 9347TIP3   OH227983   0.240   2.053   4.681
 9347TIP3    H127984   0.175   2.044   4.750
 9347TIP3    H227985   0.296   2.125   4.709
 9348TIP3   OH227986   8.185   2.371   1.254
 9348TIP3    H127987   8.184   2.346   1.347
 9348TIP3    H227988   8.275   2.401   1.239
 9349TIP3   OH227989   7.811   2.950   5.132
 9349TIP3    H127990   7.865   2.951   5.052
 9349TIP3    H227991   7.875   2.943   5.203
 9350TIP3   OH227992   2.272   0.898   4.590
 9350TIP3    H127993   2.304   0.895   4.680
 9350TIP3    H227994   2.349   0.919   4.537
 9351TIP3   OH227995   7.468   0.510   4.823
 9351TIP3    H127996   7.476   0.587   4.766
 9351TIP3    H227997   7.494   0.541   4.909
 9352TIP3   OH227998   3.244   5.004   4.627
 9352TIP3    H127999   3.328   4.961   4.640
 9352TIP3    H228000   3.179   4.941   4.659
 9353TIP3   OH228001   2.146   6.066   3.987
 9353TIP3    H128002   2.066   6.117   3.970
 9353TIP3    H228003   2.199   6.078   3.909
 9354TIP3   OH228004   4.059   7.472   5.212
 9354TIP3    H128005   4.138   7.448   5.163
 9354TIP3    H228006   4.023   7.388   5.241
 9355TIP3   OH228007   6.215   2.541   2.775
 9355TIP3    H128008   6.171   2.621   2.746
 9355TIP3    H228009   6.299   2.542   2.730
 9356TIP3   OH228010   5.268   3.235   6.600
 9356TIP3    H128011   5.348   3.183   6.614
 9356TIP3    H228012   5.291   3.322   6.631
 9357TIP3   OH228013   8.153   3.211   5.656
 9357TIP3    H128014   8.147   3.305   5.672
 9357TIP3    H228015   8.074   3.190   5.607
 9358TIP3   OH228016   0.738   3.996   4.544
 9358TIP3    H128017   0.681   3.952   4.481
 9358TIP3    H228018   0.735   3.941   4.622
 9359TIP3   OH228019   4.669   7.747   3.768
 9359TIP3    H128020   4.657   7.801   3.846
 9359TIP3    H228021   4.658   7.808   3.695
 9360TIP3   OH228022   0.473   0.070   2.019
 9360TIP3    H128023   0.382   0.052   2.043
 9360TIP3    H228024   0.518   0.082   2.103
 9361TIP3   OH228025   5.986   2.027   6.588
 9361TIP3    H128026   5.957   2.059   6.674
 9361TIP3    H228027   6.081   2.020   6.596
 9362TIP3   OH228028   4.884   1.334   0.123
 9362TIP3    H128029   4.804   1.354   0.172
 9362TIP3    H228030   4.933   1.416   0.122
 9363TIP3   OH228031   4.942   3.715   3.187
 9363TIP3    H128032   4.956   3.697   3.280
 9363TIP3    H228033   4.847   3.723   3.178
 9364TIP3   OH228034   3.822   5.084   3.991
 9364TIP3    H128035   3.907   5.081   3.948
 9364TIP3    H228036   3.776   5.156   3.947
 9365TIP3   OH228037   3.393   5.369   6.799
 9365TIP3    H128038   3.383   5.280   6.830
 9365TIP3    H228039   3.457   5.364   6.729
 9366TIP3   OH228040   7.011   7.156   0.582
 9366TIP3    H128041   7.029   7.233   0.529
 9366TIP3    H228042   6.954   7.188   0.653
 9367TIP3   OH228043   3.597   7.653   1.914
 9367TIP3    H128044   3.607   7.690   2.002
 9367TIP3    H228045   3.636   7.566   1.919
 9368TIP3   OH228046   3.953   3.580   5.363
 9368TIP3    H128047   3.912   3.546   5.284
 9368TIP3    H228048   4.046   3.563   5.351
 9369TIP3   OH228049   3.784   4.837   1.861
 9369TIP3    H128050   3.853   4.828   1.796
 9369TIP3    H228051   3.824   4.885   1.933
 9370TIP3   OH228052   4.634   7.561   5.531
 9370TIP3    H128053   4.558   7.505   5.517
 9370TIP3    H228054   4.647   7.606   5.448
 9371TIP3   OH228055   5.169   7.310   6.411
 9371TIP3    H128056   5.145   7.397   6.377
 9371TIP3    H228057   5.256   7.294   6.374
 9372TIP3   OH228058   3.089   4.429   3.032
 9372TIP3    H128059   3.033   4.375   2.977
 9372TIP3    H228060   3.158   4.460   2.973
 9373TIP3   OH228061   5.910   6.785   6.384
 9373TIP3    H128062   5.955   6.773   6.301
 9373TIP3    H228063   5.890   6.879   6.388
 9374TIP3   OH228064   2.978   0.411   3.937
 9374TIP3    H128065   3.065   0.427   3.974
 9374TIP3    H228066   2.975   0.317   3.924
 9375TIP3   OH228067   5.692   5.273   2.476
 9375TIP3    H128068   5.780   5.289   2.508
 9375TIP3    H228069   5.686   5.322   2.394
 9376TIP3   OH228070   6.011   3.071   3.962
 9376TIP3    H128071   6.087   3.108   4.006
 9376TIP3    H228072   6.004   3.120   3.880
 9377TIP3   OH228073   2.357   4.486   3.443
 9377TIP3    H128074   2.285   4.539   3.477
 9377TIP3    H228075   2.404   4.544   3.383
 9378TIP3   OH228076   2.331   0.168   5.042
 9378TIP3    H128077   2.356   0.260   5.032
 9378TIP3    H228078   2.237   0.171   5.064
 9379TIP3   OH228079   1.182   7.508   3.482
 9379TIP3    H128080   1.201   7.602   3.487
 9379TIP3    H228081   1.087   7.502   3.489
 9380TIP3   OH228082   2.535   4.631   3.297
 9380TIP3    H128083   2.484   4.678   3.231
 9380TIP3    H228084   2.616   4.606   3.252
 9381TIP3   OH228085   0.297   1.593   4.174
 9381TIP3    H128086   0.232   1.662   4.184
 9381TIP3    H228087   0.358   1.607   4.246
 9382TIP3   OH228088   6.447   0.188   3.599
 9382TIP3    H128089   6.512   0.228   3.656
 9382TIP3    H228090   6.371   0.174   3.656
 9383TIP3   OH228091   3.718   5.560   6.663
 9383TIP3    H128092   3.782   5.578   6.732
 9383TIP3    H228093   3.768   5.568   6.581
 9384TIP3   OH228094   0.646   7.352   1.613
 9384TIP3    H128095   0.597   7.391   1.685
 9384TIP3    H228096   0.580   7.306   1.560
 9385TIP3   OH228097   2.008   7.779   0.204
 9385TIP3    H128098   1.983   7.697   0.247
 9385TIP3    H228099   2.061   7.753   0.129
 9386TIP3   OH228100   1.366   1.269   6.279
 9386TIP3    H128101   1.371   1.200   6.346
 9386TIP3    H228102   1.453   1.309   6.279
 9387TIP3   OH228103   5.811   4.084   4.721
 9387TIP3    H128104   5.883   4.067   4.781
 9387TIP3    H228105   5.853   4.110   4.639
 9388TIP3   OH228106   0.229   2.319   6.098
 9388TIP3    H128107   0.221   2.237   6.050
 9388TIP3    H228108   0.198   2.386   6.037
 9389TIP3   OH228109   1.516   0.347   3.655
 9389TIP3    H128110   1.503   0.375   3.564
 9389TIP3    H228111   1.520   0.428   3.705
 9390TIP3   OH228112   5.909   1.037   0.310
 9390TIP3    H128113   5.901   1.122   0.354
 9390TIP3    H228114   5.978   0.992   0.358
 9391TIP3   OH228115   3.739   3.911   0.427
 9391TIP3    H128116   3.647   3.934   0.416
 9391TIP3    H228117   3.761   3.938   0.516
 9392TIP3   OH228118   6.899   1.232   4.813
 9392TIP3    H128119   6.906   1.269   4.901
 9392TIP3    H228120   6.987   1.200   4.793
 9393TIP3   OH228121   4.581   2.942   0.795
 9393TIP3    H128122   4.641   3.006   0.756
 9393TIP3    H228123   4.621   2.857   0.775
 9394TIP3   OH228124   6.577   5.914   5.053
 9394TIP3    H128125   6.530   5.910   4.970
 9394TIP3    H228126   6.620   6.000   5.051
 9395TIP3   OH228127   0.448   1.661   1.969
 9395TIP3    H128128   0.402   1.579   1.949
 9395TIP3    H228129   0.408   1.726   1.911
 9396TIP3   OH228130   7.514   3.868   6.397
 9396TIP3    H128131   7.539   3.939   6.455
 9396TIP3    H228132   7.436   3.900   6.352
 9397TIP3   OH228133   0.491   5.378   6.060
 9397TIP3    H128134   0.509   5.303   6.116
 9397TIP3    H228135   0.451   5.442   6.118
 9398TIP3   OH228136   0.135   3.919   3.723
 9398TIP3    H128137   0.183   3.849   3.678
 9398TIP3    H228138   0.148   3.997   3.669
 9399TIP3   OH228139   1.530   0.215   1.556
 9399TIP3    H128140   1.471   0.241   1.486
 9399TIP3    H228141   1.593   0.157   1.514
 9400TIP3   OH228142   5.327   0.049   4.446
 9400TIP3    H128143   5.407   0.101   4.438
 9400TIP3    H228144   5.301   0.061   4.538
 9401TIP3   OH228145   5.424   1.146   6.585
 9401TIP3    H128146   5.380   1.092   6.650
 9401TIP3    H228147   5.419   1.235   6.619
 9402TIP3   OH228148   8.207   3.515   1.769
 9402TIP3    H128149   8.186   3.480   1.682
 9402TIP3    H228150   8.126   3.508   1.819
 9403TIP3   OH228151   4.580   1.795   3.766
 9403TIP3    H128152   4.511   1.858   3.790
 9403TIP3    H228153   4.636   1.790   3.844
 9404TIP3   OH228154   7.115   1.196   5.088
 9404TIP3    H128155   7.047   1.169   5.149
 9404TIP3    H228156   7.187   1.226   5.144
 9405TIP3   OH228157   3.319   0.047   3.138
 9405TIP3    H128158   3.359   0.017   3.220
 9405TIP3    H228159   3.387   0.101   3.097
 9406TIP3   OH228160   1.638   3.796   1.845
 9406TIP3    H128161   1.553   3.796   1.801
 9406TIP3    H228162   1.685   3.722   1.807
 9407TIP3   OH228163   0.313   6.906   1.911
 9407TIP3    H128164   0.257   6.835   1.880
 9407TIP3    H228165   0.332   6.958   1.833
 9408TIP3   OH228166   2.545   2.338   3.179
 9408TIP3    H128167   2.546   2.425   3.138
 9408TIP3    H228168   2.580   2.280   3.112
 9409TIP3   OH228169   8.147   4.214   6.176
 9409TIP3    H128170   8.225   4.164   6.200
 9409TIP3    H228171   8.114   4.171   6.098
 9410TIP3   OH228172   0.512   1.527   5.103
 9410TIP3    H128173   0.572   1.513   5.177
 9410TIP3    H228174   0.455   1.598   5.132
 9411TIP3   OH228175   3.250   3.289   2.833
 9411TIP3    H128176   3.159   3.268   2.813
 9411TIP3    H228177   3.282   3.215   2.884
 9412TIP3   OH228178   4.949   5.939   5.484
 9412TIP3    H128179   4.964   6.026   5.447
 9412TIP3    H228180   4.899   5.955   5.563
 9413TIP3   OH228181   1.249   2.860   6.651
 9413TIP3    H128182   1.214   2.852   6.562
 9413TIP3    H228183   1.180   2.905   6.700
 9414TIP3   OH228184   0.530   7.046   4.801
 9414TIP3    H128185   0.606   6.993   4.778
 9414TIP3    H228186   0.486   6.997   4.870
 9415TIP3   OH228187   3.161   0.513   4.244
 9415TIP3    H128188   3.180   0.599   4.282
 9415TIP3    H228189   3.083   0.483   4.292
 9416TIP3   OH228190   1.601   5.049   2.052
 9416TIP3    H128191   1.590   5.037   1.957
 9416TIP3    H228192   1.677   4.995   2.074
 9417TIP3   OH228193   4.139   6.183   5.599
 9417TIP3    H128194   4.220   6.168   5.647
 9417TIP3    H228195   4.079   6.221   5.663
 9418TIP3   OH228196   5.037   0.270   2.752
 9418TIP3    H128197   4.967   0.220   2.795
 9418TIP3    H228198   5.022   0.257   2.659
 9419TIP3   OH228199   4.860   7.818   6.744
 9419TIP3    H128200   4.784   7.845   6.795
 9419TIP3    H228201   4.842   7.851   6.656
 9420TIP3   OH228202   0.617   2.525   2.894
 9420TIP3    H128203   0.583   2.453   2.947
 9420TIP3    H228204   0.708   2.504   2.878
 9421TIP3   OH228205   7.390   4.314   5.103
 9421TIP3    H128206   7.474   4.289   5.141
 9421TIP3    H228207   7.371   4.400   5.140
 9422TIP3   OH228208   6.923   0.710   2.820
 9422TIP3    H128209   6.948   0.787   2.871
 9422TIP3    H228210   6.908   0.641   2.885
 9423TIP3   OH228211   2.517   0.758   0.515
 9423TIP3    H128212   2.589   0.727   0.460
 9423TIP3    H228213   2.455   0.798   0.454
 9424TIP3   OH228214   3.336   2.170   3.911
 9424TIP3    H128215   3.259   2.156   3.966
 9424TIP3    H228216   3.311   2.243   3.853
 9425TIP3   OH228217   4.514   5.887   5.192
 9425TIP3    H128218   4.473   5.962   5.150
 9425TIP3    H228219   4.523   5.912   5.284
 9426TIP3   OH228220   6.333   4.605   3.410
 9426TIP3    H128221   6.310   4.578   3.499
 9426TIP3    H228222   6.411   4.554   3.390
 9427TIP3   OH228223   0.506   0.713   5.436
 9427TIP3    H128224   0.566   0.745   5.503
 9427TIP3    H228225   0.464   0.791   5.402
 9428TIP3   OH228226   5.313   1.981   2.247
 9428TIP3    H128227   5.320   2.060   2.302
 9428TIP3    H228228   5.229   1.991   2.203
 9429TIP3   OH228229   6.615   6.329   0.230
 9429TIP3    H128230   6.531   6.307   0.191
 9429TIP3    H228231   6.645   6.405   0.180
 9430TIP3   OH228232   1.056   4.406   3.804
 9430TIP3    H128233   1.085   4.317   3.825
 9430TIP3    H228234   1.136   4.457   3.798
 9431TIP3   OH228235   1.678   4.033   5.875
 9431TIP3    H128236   1.702   4.028   5.783
 9431TIP3    H228237   1.749   4.083   5.916
 9432TIP3   OH228238   2.958   2.281   5.481
 9432TIP3    H128239   2.877   2.296   5.531
 9432TIP3    H228240   2.938   2.205   5.426
 9433TIP3   OH228241   2.026   3.179   4.078
 9433TIP3    H128242   1.980   3.152   4.158
 9433TIP3    H228243   2.047   3.271   4.092
 9434TIP3   OH228244   4.975   1.066   1.942
 9434TIP3    H128245   4.906   1.039   2.003
 9434TIP3    H228246   5.041   0.996   1.948
 9435TIP3   OH228247   4.492   6.156   3.357
 9435TIP3    H128248   4.474   6.134   3.266
 9435TIP3    H228249   4.558   6.093   3.385
 9436TIP3   OH228250   4.378   7.001   3.269
 9436TIP3    H128251   4.409   7.003   3.359
 9436TIP3    H228252   4.431   7.066   3.223
 9437TIP3   OH228253   0.044   5.064   0.484
 9437TIP3    H128254   0.067   4.984   0.438
 9437TIP3    H228255  -0.039   5.043   0.528
 9438TIP3   OH228256   4.775   4.259   4.818
 9438TIP3    H128257   4.827   4.336   4.842
 9438TIP3    H228258   4.787   4.251   4.723
 9439TIP3   OH228259   6.237   6.341   1.843
 9439TIP3    H128260   6.164   6.280   1.851
 9439TIP3    H228261   6.203   6.424   1.876
 9440TIP3   OH228262   1.193   5.038   2.803
 9440TIP3    H128263   1.283   5.010   2.785
 9440TIP3    H228264   1.139   4.977   2.753
 9441TIP3   OH228265   6.930   1.240   0.211
 9441TIP3    H128266   6.956   1.149   0.198
 9441TIP3    H228267   6.969   1.264   0.295
 9442TIP3   OH228268   3.160   1.430   6.530
 9442TIP3    H128269   3.198   1.448   6.444
 9442TIP3    H228270   3.075   1.389   6.511
 9443TIP3   OH228271   6.758   1.849   0.298
 9443TIP3    H128272   6.665   1.832   0.284
 9443TIP3    H228273   6.761   1.908   0.374
 9444TIP3   OH228274   3.782   7.837   1.760
 9444TIP3    H128275   3.771   7.787   1.680
 9444TIP3    H228276   3.734   7.787   1.826
 9445TIP3   OH228277   3.059   4.410   1.149
 9445TIP3    H128278   3.116   4.476   1.189
 9445TIP3    H228279   2.979   4.458   1.129
 9446TIP3   OH228280   5.748   3.451   5.036
 9446TIP3    H128281   5.801   3.527   5.060
 9446TIP3    H228282   5.740   3.457   4.941
 9447TIP3   OH228283   4.479   2.514   6.455
 9447TIP3    H128284   4.476   2.601   6.494
 9447TIP3    H228285   4.470   2.454   6.529
 9448TIP3   OH228286   0.328   0.416   4.785
 9448TIP3    H128287   0.396   0.474   4.820
 9448TIP3    H228288   0.280   0.386   4.862
 9449TIP3   OH228289   7.025   1.635   1.517
 9449TIP3    H128290   7.106   1.645   1.468
 9449TIP3    H228291   6.957   1.630   1.450
 9450TIP3   OH228292   0.451   3.492   1.394
 9450TIP3    H128293   0.412   3.580   1.400
 9450TIP3    H228294   0.445   3.457   1.483
 9451TIP3   OH228295   4.703   2.822   4.723
 9451TIP3    H128296   4.793   2.852   4.711
 9451TIP3    H228297   4.700   2.736   4.680
 9452TIP3   OH228298   0.806   6.305   1.416
 9452TIP3    H128299   0.887   6.352   1.398
 9452TIP3    H228300   0.821   6.217   1.380
 9453TIP3   OH228301   2.712   7.755   6.263
 9453TIP3    H128302   2.672   7.838   6.236
 9453TIP3    H228303   2.776   7.781   6.330
 9454TIP3   OH228304   1.520   6.717   5.152
 9454TIP3    H128305   1.506   6.794   5.207
 9454TIP3    H228306   1.434   6.698   5.115
 9455TIP3   OH228307   6.504   1.031   5.538
 9455TIP3    H128308   6.458   1.114   5.523
 9455TIP3    H228309   6.505   0.988   5.453
 9456TIP3   OH228310   4.300   7.145   2.759
 9456TIP3    H128311   4.267   7.061   2.726
 9456TIP3    H228312   4.394   7.132   2.767
 9457TIP3   OH228313   7.576   2.120   4.785
 9457TIP3    H128314   7.505   2.107   4.722
 9457TIP3    H228315   7.552   2.064   4.859
 9458TIP3   OH228316   1.592   4.685   2.021
 9458TIP3    H128317   1.684   4.705   2.037
 9458TIP3    H228318   1.583   4.593   2.045
 9459TIP3   OH228319   1.423   6.306   3.091
 9459TIP3    H128320   1.360   6.360   3.139
 9459TIP3    H228321   1.464   6.251   3.158
 9460TIP3   OH228322   4.505   4.012   1.793
 9460TIP3    H128323   4.467   3.938   1.747
 9460TIP3    H228324   4.460   4.015   1.877
 9461TIP3   OH228325   1.314   5.801   0.082
 9461TIP3    H128326   1.267   5.884   0.072
 9461TIP3    H228327   1.382   5.803   0.015
 9462TIP3   OH228328   1.154   3.325   1.542
 9462TIP3    H128329   1.086   3.272   1.584
 9462TIP3    H228330   1.233   3.271   1.547
 9463TIP3   OH228331   7.266   3.150   0.459
 9463TIP3    H128332   7.256   3.069   0.409
 9463TIP3    H228333   7.249   3.124   0.549
 9464TIP3   OH228334   1.867   7.489   5.360
 9464TIP3    H128335   1.810   7.557   5.396
 9464TIP3    H228336   1.951   7.503   5.403
 9465TIP3   OH228337   0.821   0.540   3.840
 9465TIP3    H128338   0.829   0.496   3.755
 9465TIP3    H228339   0.786   0.626   3.820
 9466TIP3   OH228340   5.974   3.542   6.419
 9466TIP3    H128341   5.949   3.476   6.355
 9466TIP3    H228342   5.919   3.524   6.495
 9467TIP3   OH228343   3.827   4.886   5.910
 9467TIP3    H128344   3.830   4.982   5.913
 9467TIP3    H228345   3.741   4.866   5.872
 9468TIP3   OH228346   1.073   5.893   3.450
 9468TIP3    H128347   1.039   5.933   3.370
 9468TIP3    H228348   1.047   5.801   3.443
 9469TIP3   OH228349   7.330   7.810   5.370
 9469TIP3    H128350   7.301   7.814   5.279
 9469TIP3    H228351   7.298   7.891   5.410
 9470TIP3   OH228352   2.893   2.273   1.165
 9470TIP3    H128353   2.876   2.186   1.203
 9470TIP3    H228354   2.842   2.333   1.219
 9471TIP3   OH228355   2.722   0.754   2.985
 9471TIP3    H128356   2.811   0.726   2.966
 9471TIP3    H228357   2.726   0.850   2.982
 9472TIP3   OH228358   2.154   6.099   4.307
 9472TIP3    H128359   2.074   6.046   4.316
 9472TIP3    H228360   2.147   6.138   4.220
 9473TIP3   OH228361   4.461   2.530   2.998
 9473TIP3    H128362   4.458   2.552   3.091
 9473TIP3    H228363   4.534   2.469   2.989
 9474TIP3   OH228364   8.165   1.430   4.371
 9474TIP3    H128365   8.247   1.384   4.355
 9474TIP3    H228366   8.177   1.516   4.331
 9475TIP3   OH228367   1.385   4.602   5.152
 9475TIP3    H128368   1.364   4.660   5.079
 9475TIP3    H228369   1.431   4.657   5.215
 9476TIP3   OH228370   2.446   3.619   1.127
 9476TIP3    H128371   2.534   3.622   1.091
 9476TIP3    H228372   2.395   3.680   1.073
 9477TIP3   OH228373   5.844   1.489   4.522
 9477TIP3    H128374   5.901   1.425   4.565
 9477TIP3    H228375   5.759   1.479   4.565
 9478TIP3   OH228376   3.797   5.214   6.553
 9478TIP3    H128377   3.892   5.202   6.562
 9478TIP3    H228378   3.772   5.152   6.484
 9479TIP3   OH228379   3.605   5.085   5.422
 9479TIP3    H128380   3.577   4.994   5.434
 9479TIP3    H228381   3.618   5.094   5.328
 9480TIP3   OH228382   2.486   5.230   4.353
 9480TIP3    H128383   2.401   5.218   4.395
 9480TIP3    H228384   2.528   5.299   4.404
 9481TIP3   OH228385   5.590   7.048   0.000
 9481TIP3    H128386   5.671   7.090  -0.029
 9481TIP3    H228387   5.520   7.108  -0.030
 9482TIP3   OH228388   4.272   7.788   1.825
 9482TIP3    H128389   4.253   7.881   1.839
 9482TIP3    H228390   4.222   7.743   1.893
 9483TIP3   OH228391   4.252   2.220   3.888
 9483TIP3    H128392   4.168   2.262   3.871
 9483TIP3    H228393   4.313   2.260   3.826
 9484TIP3   OH228394   4.930   5.113   5.691
 9484TIP3    H128395   4.910   5.191   5.742
 9484TIP3    H228396   4.885   5.126   5.607
 9485TIP3   OH228397   0.115   3.554   3.751
 9485TIP3    H128398   0.201   3.567   3.791
 9485TIP3    H228399   0.111   3.621   3.683
 9486TIP3   OH228400   3.728   7.650   4.106
 9486TIP3    H128401   3.641   7.609   4.107
 9486TIP3    H228402   3.789   7.577   4.104
 9487TIP3   OH228403   7.961   6.342   1.867
 9487TIP3    H128404   7.957   6.374   1.777
 9487TIP3    H228405   8.020   6.402   1.912
 9488TIP3   OH228406   7.468   4.091   1.605
 9488TIP3    H128407   7.502   4.178   1.625
 9488TIP3    H228408   7.434   4.058   1.688
 9489TIP3   OH228409   3.550   5.447   0.097
 9489TIP3    H128410   3.502   5.406   0.169
 9489TIP3    H228411   3.640   5.417   0.108
 9490TIP3   OH228412   0.612   3.390   4.125
 9490TIP3    H128413   0.622   3.375   4.218
 9490TIP3    H228414   0.591   3.304   4.088
 9491TIP3   OH228415   1.362   5.793   4.181
 9491TIP3    H128416   1.437   5.737   4.201
 9491TIP3    H228417   1.296   5.768   4.245
 9492TIP3   OH228418   5.813   7.703   4.709
 9492TIP3    H128419   5.776   7.703   4.797
 9492TIP3    H228420   5.880   7.772   4.711
 9493TIP3   OH228421   6.778   0.208   4.910
 9493TIP3    H128422   6.806   0.181   4.823
 9493TIP3    H228423   6.724   0.286   4.895
 9494TIP3   OH228424   0.214   0.606   6.319
 9494TIP3    H128425   0.260   0.525   6.341
 9494TIP3    H228426   0.232   0.665   6.392
 9495TIP3   OH228427   3.199   7.578   2.901
 9495TIP3    H128428   3.126   7.638   2.886
 9495TIP3    H228429   3.163   7.492   2.881
 9496TIP3   OH228430   2.093   3.038   4.640
 9496TIP3    H128431   2.044   3.117   4.667
 9496TIP3    H228432   2.128   3.003   4.722
 9497TIP3   OH228433   3.162   7.215   0.740
 9497TIP3    H128434   3.218   7.263   0.801
 9497TIP3    H228435   3.106   7.281   0.700
 9498TIP3   OH228436   3.633   2.012   6.488
 9498TIP3    H128437   3.657   1.943   6.550
 9498TIP3    H228438   3.657   2.094   6.532
 9499TIP3   OH228439   5.647   4.819   0.163
 9499TIP3    H128440   5.598   4.737   0.153
 9499TIP3    H228441   5.706   4.803   0.237
 9500TIP3   OH228442   5.925   2.316   3.843
 9500TIP3    H128443   5.830   2.322   3.844
 9500TIP3    H228444   5.945   2.256   3.772
 9501TIP3   OH228445   3.316   0.050   4.821
 9501TIP3    H128446   3.237  -0.002   4.834
 9501TIP3    H228447   3.385  -0.015   4.809
 9502TIP3   OH228448   8.228   6.445   4.070
 9502TIP3    H128449   8.286   6.370   4.080
 9502TIP3    H228450   8.282   6.511   4.026
 9503TIP3   OH228451   8.064   2.276   3.366
 9503TIP3    H128452   8.152   2.312   3.358
 9503TIP3    H228453   8.078   2.186   3.396
 9504TIP3   OH228454   5.611   2.595   4.698
 9504TIP3    H128455   5.517   2.605   4.707
 9504TIP3    H228456   5.642   2.681   4.669
 9505TIP3   OH228457   1.629   0.581   3.109
 9505TIP3    H128458   1.593   0.656   3.061
 9505TIP3    H228459   1.704   0.616   3.156
 9506TIP3   OH228460   7.822   0.499   3.718
 9506TIP3    H128461   7.908   0.477   3.680
 9506TIP3    H228462   7.772   0.418   3.714
 9507TIP3   OH228463   5.257   2.829   1.045
 9507TIP3    H128464   5.320   2.812   1.115
 9507TIP3    H228465   5.310   2.829   0.965
 9508TIP3   OH228466   5.613   6.664   0.819
 9508TIP3    H128467   5.628   6.748   0.774
 9508TIP3    H228468   5.522   6.670   0.849
 9509TIP3   OH228469   1.332   7.018   3.835
 9509TIP3    H128470   1.371   7.060   3.912
 9509TIP3    H228471   1.404   6.969   3.796
 9510TIP3   OH228472   7.385   2.374   0.426
 9510TIP3    H128473   7.291   2.395   0.423
 9510TIP3    H228474   7.392   2.291   0.377
 9511TIP3   OH228475   3.873   5.452   0.060
 9511TIP3    H128476   3.904   5.538   0.031
 9511TIP3    H228477   3.913   5.441   0.146
 9512TIP3   OH228478   6.052   2.230   4.089
 9512TIP3    H128479   6.033   2.259   3.999
 9512TIP3    H228480   6.092   2.144   4.079
 9513TIP3   OH228481   5.910  -0.020   3.917
 9513TIP3    H128482   5.952   0.059   3.953
 9513TIP3    H228483   5.980  -0.064   3.869
 9514TIP3   OH228484   0.793   4.117   0.372
 9514TIP3    H128485   0.804   4.157   0.459
 9514TIP3    H228486   0.852   4.166   0.316
 9515TIP3   OH228487   5.509   4.444   6.094
 9515TIP3    H128488   5.431   4.388   6.093
 9515TIP3    H228489   5.528   4.457   6.187
 9516TIP3   OH228490   6.924   1.138   6.191
 9516TIP3    H128491   6.858   1.107   6.128
 9516TIP3    H228492   6.874   1.181   6.260
 9517TIP3   OH228493   1.309   2.899   1.493
 9517TIP3    H128494   1.297   2.893   1.398
 9517TIP3    H228495   1.264   2.821   1.528
 9518TIP3   OH228496   0.853   0.909   3.805
 9518TIP3    H128497   0.771   0.926   3.850
 9518TIP3    H228498   0.868   0.987   3.752
 9519TIP3   OH228499   7.942   1.463   2.774
 9519TIP3    H128500   8.031   1.442   2.801
 9519TIP3    H228501   7.925   1.549   2.813
 9520TIP3   OH228502   1.727   5.741   5.130
 9520TIP3    H128503   1.718   5.729   5.036
 9520TIP3    H228504   1.637   5.747   5.163
 9521TIP3   OH228505   6.080   6.575   2.974
 9521TIP3    H128506   6.143   6.521   3.023
 9521TIP3    H228507   6.105   6.665   2.995
 9522TIP3   OH228508   7.451   0.527   0.339
 9522TIP3    H128509   7.460   0.564   0.251
 9522TIP3    H228510   7.393   0.451   0.328
 9523TIP3   OH228511   0.911   2.580   6.532
 9523TIP3    H128512   0.876   2.661   6.494
 9523TIP3    H228513   1.004   2.600   6.549
 9524TIP3   OH228514   5.046   2.481   4.885
 9524TIP3    H128515   5.096   2.559   4.909
 9524TIP3    H228516   5.101   2.437   4.820
 9525TIP3   OH228517   1.555   6.067   5.339
 9525TIP3    H128518   1.581   6.109   5.257
 9525TIP3    H228519   1.586   6.127   5.407
 9526TIP3   OH228520   3.573   5.755   5.333
 9526TIP3    H128521   3.567   5.849   5.317
 9526TIP3    H228522   3.642   5.746   5.398
 9527TIP3   OH228523   3.918   4.329   6.098
 9527TIP3    H128524   3.984   4.263   6.080
 9527TIP3    H228525   3.949   4.408   6.053
 9528TIP3   OH228526   7.135   5.801   2.898
 9528TIP3    H128527   7.080   5.748   2.840
 9528TIP3    H228528   7.194   5.738   2.938
 9529TIP3   OH228529   4.923   5.294   1.868
 9529TIP3    H128530   4.953   5.208   1.898
 9529TIP3    H228531   4.833   5.280   1.839
 9530TIP3   OH228532   0.618   2.315   4.544
 9530TIP3    H128533   0.708   2.338   4.570
 9530TIP3    H228534   0.575   2.400   4.532
 9531TIP3   OH228535   0.771   7.581   0.985
 9531TIP3    H128536   0.838   7.516   0.965
 9531TIP3    H228537   0.714   7.582   0.908
 9532TIP3   OH228538   6.213   2.468   0.173
 9532TIP3    H128539   6.307   2.452   0.169
 9532TIP3    H228540   6.177   2.422   0.097
 9533TIP3   OH228541   1.060   3.237   3.022
 9533TIP3    H128542   0.973   3.241   2.981
 9533TIP3    H228543   1.091   3.148   3.004
 9534TIP3   OH228544   4.154   4.423   4.970
 9534TIP3    H128545   4.176   4.352   4.911
 9534TIP3    H228546   4.069   4.454   4.941
 9535TIP3   OH228547   5.676   6.852   4.667
 9535TIP3    H128548   5.765   6.887   4.662
 9535TIP3    H228549   5.630   6.913   4.725
 9536TIP3   OH228550   1.211   0.245   0.281
 9536TIP3    H128551   1.131   0.211   0.241
 9536TIP3    H228552   1.279   0.229   0.215
 9537TIP3   OH228553   2.024   2.040   3.813
 9537TIP3    H128554   1.963   1.975   3.848
 9537TIP3    H228555   2.107   2.021   3.857
 9538TIP3   OH228556   7.181   0.917   1.666
 9538TIP3    H128557   7.179   1.001   1.710
 9538TIP3    H228558   7.187   0.853   1.736
 9539TIP3   OH228559   0.469   5.732   3.091
 9539TIP3    H128560   0.526   5.807   3.105
 9539TIP3    H228561   0.455   5.695   3.178
 9540TIP3   OH228562   2.709   5.408   1.487
 9540TIP3    H128563   2.798   5.379   1.506
 9540TIP3    H228564   2.664   5.402   1.572
 9541TIP3   OH228565   1.464   7.261   2.246
 9541TIP3    H128566   1.498   7.200   2.181
 9541TIP3    H228567   1.383   7.294   2.207
 9542TIP3   OH228568   6.927   2.845   0.852
 9542TIP3    H128569   6.898   2.758   0.825
 9542TIP3    H228570   6.912   2.901   0.775
 9543TIP3   OH228571   5.501   5.744   1.169
 9543TIP3    H128572   5.474   5.676   1.231
 9543TIP3    H228573   5.457   5.823   1.199
 9544TIP3   OH228574   6.868   4.612   0.163
 9544TIP3    H128575   6.788   4.650   0.199
 9544TIP3    H228576   6.853   4.610   0.068
 9545TIP3   OH228577   5.740   1.961   0.265
 9545TIP3    H128578   5.709   1.915   0.186
 9545TIP3    H228579   5.759   1.890   0.327
 9546TIP3   OH228580   7.968   3.079   3.913
 9546TIP3    H128581   7.948   3.039   3.998
 9546TIP3    H228582   7.885   3.079   3.866
 9547TIP3   OH228583   1.490   3.032   2.011
 9547TIP3    H128584   1.552   3.020   1.939
 9547TIP3    H228585   1.543   3.066   2.083
 9548TIP3   OH228586   6.388   7.007   2.163
 9548TIP3    H128587   6.440   7.013   2.083
 9548TIP3    H228588   6.428   7.070   2.223
 9549TIP3   OH228589   4.337   1.633   3.681
 9549TIP3    H128590   4.303   1.674   3.761
 9549TIP3    H228591   4.407   1.691   3.652
 9550TIP3   OH228592   3.836   3.848   1.696
 9550TIP3    H128593   3.908   3.908   1.718
 9550TIP3    H228594   3.781   3.848   1.774
 9551TIP3   OH228595   4.150   4.153   3.187
 9551TIP3    H128596   4.097   4.127   3.262
 9551TIP3    H228597   4.159   4.248   3.195
 9552TIP3   OH228598   7.468   5.034   5.224
 9552TIP3    H128599   7.519   5.115   5.231
 9552TIP3    H228600   7.524   4.967   5.262
 9553TIP3   OH228601   3.871   7.233   2.636
 9553TIP3    H128602   3.782   7.220   2.604
 9553TIP3    H228603   3.926   7.221   2.559
 9554TIP3   OH228604   5.410   5.034   6.068
 9554TIP3    H128605   5.336   5.039   6.129
 9554TIP3    H228606   5.370   5.041   5.981
 9555TIP3   OH228607   3.098   4.553   6.201
 9555TIP3    H128608   3.135   4.603   6.128
 9555TIP3    H228609   3.059   4.476   6.161
 9556TIP3   OH228610   3.032   7.237   1.319
 9556TIP3    H128611   3.088   7.210   1.246
 9556TIP3    H228612   3.033   7.162   1.379
 9557TIP3   OH228613   1.271   5.210   4.337
 9557TIP3    H128614   1.352   5.158   4.337
 9557TIP3    H228615   1.258   5.234   4.429
 9558TIP3   OH228616   2.640   7.728   2.327
 9558TIP3    H128617   2.681   7.642   2.341
 9558TIP3    H228618   2.553   7.720   2.366
 9559TIP3   OH228619   4.072   0.520   5.268
 9559TIP3    H128620   4.046   0.427   5.271
 9559TIP3    H228621   4.015   0.558   5.202
 9560TIP3   OH228622   5.480   1.327   3.861
 9560TIP3    H128623   5.512   1.279   3.937
 9560TIP3    H228624   5.385   1.315   3.863
 9561TIP3   OH228625   8.291   7.402   1.111
 9561TIP3    H128626   8.246   7.373   1.032
 9561TIP3    H228627   8.374   7.354   1.111
 9562TIP3   OH228628   4.627   6.337   6.615
 9562TIP3    H128629   4.664   6.405   6.671
 9562TIP3    H228630   4.599   6.383   6.536
 9563TIP3   OH228631   6.620   0.864   0.148
 9563TIP3    H128632   6.661   0.859   0.235
 9563TIP3    H228633   6.657   0.789   0.101
 9564TIP3   OH228634   6.999   6.404   3.960
 9564TIP3    H128635   7.035   6.465   3.896
 9564TIP3    H228636   7.075   6.366   4.003
 9565TIP3   OH228637   3.653   4.381   1.726
 9565TIP3    H128638   3.607   4.427   1.796
 9565TIP3    H228639   3.725   4.440   1.702
 9566TIP3   OH228640   2.461   1.752   0.504
 9566TIP3    H128641   2.441   1.830   0.453
 9566TIP3    H228642   2.442   1.679   0.445
 9567TIP3   OH228643   3.673   7.279   3.444
 9567TIP3    H128644   3.691   7.365   3.481
 9567TIP3    H228645   3.593   7.250   3.487
 9568TIP3   OH228646   2.447   5.556   1.627
 9568TIP3    H128647   2.494   5.494   1.683
 9568TIP3    H228648   2.368   5.508   1.600
 9569TIP3   OH228649   5.673   4.118   4.977
 9569TIP3    H128650   5.655   4.100   4.885
 9569TIP3    H228651   5.758   4.077   4.993
 9570TIP3   OH228652   0.680   5.666   3.383
 9570TIP3    H128653   0.727   5.686   3.464
 9570TIP3    H228654   0.737   5.697   3.313
 9571TIP3   OH228655   2.896   0.708   5.073
 9571TIP3    H128656   2.892   0.783   5.013
 9571TIP3    H228657   2.924   0.635   5.019
 9572TIP3   OH228658   1.990   4.220   0.794
 9572TIP3    H128659   1.960   4.180   0.876
 9572TIP3    H228660   2.012   4.310   0.818
 9573TIP3   OH228661   5.519   0.110   0.329
 9573TIP3    H128662   5.590   0.065   0.283
 9573TIP3    H228663   5.501   0.187   0.275
 9574TIP3   OH228664   3.189   7.545   5.884
 9574TIP3    H128665   3.161   7.631   5.916
 9574TIP3    H228666   3.276   7.561   5.845
 9575TIP3   OH228667   1.752   1.372   5.393
 9575TIP3    H128668   1.819   1.308   5.418
 9575TIP3    H228669   1.782   1.454   5.432
 9576TIP3   OH228670   3.796   7.549   6.585
 9576TIP3    H128671   3.814   7.496   6.663
 9576TIP3    H228672   3.844   7.630   6.600
 9577TIP3   OH228673   6.321   6.168   4.843
 9577TIP3    H128674   6.393   6.223   4.877
 9577TIP3    H228675   6.366   6.094   4.801
 9578TIP3   OH228676   5.187   1.725   1.178
 9578TIP3    H128677   5.097   1.716   1.144
 9578TIP3    H228678   5.176   1.771   1.261
 9579TIP3   OH228679   6.575   5.752   2.344
 9579TIP3    H128680   6.505   5.794   2.294
 9579TIP3    H228681   6.611   5.822   2.398
 9580TIP3   OH228682   1.390   3.133   5.418
 9580TIP3    H128683   1.435   3.162   5.497
 9580TIP3    H228684   1.445   3.062   5.384
 9581TIP3   OH228685   3.493   5.095   0.538
 9581TIP3    H128686   3.438   5.022   0.563
 9581TIP3    H228687   3.493   5.094   0.442
 9582TIP3   OH228688   8.237   7.793   1.017
 9582TIP3    H128689   8.232   7.737   1.095
 9582TIP3    H228690   8.217   7.734   0.944
 9583TIP3   OH228691   3.028   6.219   3.348
 9583TIP3    H128692   3.008   6.262   3.431
 9583TIP3    H228693   3.008   6.127   3.363
 9584TIP3   OH228694   7.708   5.874   4.778
 9584TIP3    H128695   7.620   5.894   4.807
 9584TIP3    H228696   7.698   5.801   4.717
 9585TIP3   OH228697   6.169   2.594   2.013
 9585TIP3    H128698   6.123   2.511   2.026
 9585TIP3    H228699   6.104   2.652   1.973
 9586TIP3   OH228700   8.244   2.051   2.973
 9586TIP3    H128701   8.228   2.140   2.944
 9586TIP3    H228702   8.158   2.010   2.975
 9587TIP3   OH228703   4.906   5.372   2.463
 9587TIP3    H128704   4.954   5.300   2.424
 9587TIP3    H228705   4.941   5.379   2.552
 9588TIP3   OH228706   1.083   0.583   4.187
 9588TIP3    H128707   1.116   0.611   4.101
 9588TIP3    H228708   0.991   0.563   4.173
 9589TIP3   OH228709   8.046   0.563   5.269
 9589TIP3    H128710   8.114   0.571   5.203
 9589TIP3    H228711   8.049   0.471   5.296
 9590TIP3   OH228712   7.911   3.731   2.401
 9590TIP3    H128713   7.839   3.775   2.356
 9590TIP3    H228714   7.927   3.652   2.348
 9591TIP3   OH228715   1.820   6.182   0.382
 9591TIP3    H128716   1.834   6.249   0.450
 9591TIP3    H228717   1.908   6.150   0.361
 9592TIP3   OH228718   5.692   0.804   3.413
 9592TIP3    H128719   5.668   0.817   3.505
 9592TIP3    H228720   5.762   0.739   3.416
 9593TIP3   OH228721   7.172   7.248   4.183
 9593TIP3    H128722   7.134   7.219   4.100
 9593TIP3    H228723   7.143   7.338   4.193
 9594TIP3   OH228724   6.161   2.337   0.704
 9594TIP3    H128725   6.156   2.368   0.795
 9594TIP3    H228726   6.094   2.389   0.658
 9595TIP3   OH228727   2.361   4.156   6.748
 9595TIP3    H128728   2.430   4.096   6.720
 9595TIP3    H228729   2.361   4.225   6.681
 9596TIP3   OH228730   1.702   2.393   2.835
 9596TIP3    H128731   1.719   2.382   2.929
 9596TIP3    H228732   1.783   2.431   2.801
 9597TIP3   OH228733   6.311   5.146   2.696
 9597TIP3    H128734   6.318   5.149   2.792
 9597TIP3    H228735   6.274   5.230   2.672
 9598TIP3   OH228736   7.905   5.560   1.355
 9598TIP3    H128737   7.874   5.650   1.346
 9598TIP3    H228738   8.001   5.568   1.353
 9599TIP3   OH228739   2.361   7.468   4.145
 9599TIP3    H128740   2.362   7.419   4.227
 9599TIP3    H228741   2.370   7.401   4.077
 9600TIP3   OH228742   5.187   5.130   0.859
 9600TIP3    H128743   5.170   5.214   0.815
 9600TIP3    H228744   5.104   5.108   0.900
 9601TIP3   OH228745   5.613   6.789   1.984
 9601TIP3    H128746   5.624   6.706   2.032
 9601TIP3    H228747   5.573   6.763   1.901
 9602TIP3   OH228748   7.841   4.090   5.090
 9602TIP3    H128749   7.777   4.134   5.033
 9602TIP3    H228750   7.858   4.007   5.047
 9603TIP3   OH228751   7.747   5.029   6.194
 9603TIP3    H128752   7.785   5.116   6.203
 9603TIP3    H228753   7.745   4.994   6.283
 9604TIP3   OH228754   2.968   6.861   4.112
 9604TIP3    H128755   2.983   6.953   4.131
 9604TIP3    H228756   3.041   6.815   4.154
 9605TIP3   OH228757   2.721   3.942   1.848
 9605TIP3    H128758   2.682   3.891   1.777
 9605TIP3    H228759   2.654   4.007   1.870
 9606TIP3   OH228760   6.830   5.993   0.915
 9606TIP3    H128761   6.888   6.068   0.926
 9606TIP3    H228762   6.829   5.950   1.001
 9607TIP3   OH228763   1.014   2.607   4.041
 9607TIP3    H128764   1.043   2.556   4.116
 9607TIP3    H228765   1.080   2.591   3.974
 9608TIP3   OH228766   6.996   4.949   5.093
 9608TIP3    H128767   7.083   4.987   5.077
 9608TIP3    H228768   6.968   4.986   5.177
 9609TIP3   OH228769   7.089   3.944   6.118
 9609TIP3    H128770   7.173   3.979   6.147
 9609TIP3    H228771   7.096   3.850   6.132
 9610TIP3   OH228772   1.683   6.290   3.001
 9610TIP3    H128773   1.594   6.295   3.037
 9610TIP3    H228774   1.739   6.323   3.071
 9611TIP3   OH228775   2.738   5.388   2.326
 9611TIP3    H128776   2.816   5.336   2.347
 9611TIP3    H228777   2.706   5.418   2.411
 9612TIP3   OH228778   8.234   0.881   1.080
 9612TIP3    H128779   8.225   0.849   0.990
 9612TIP3    H228780   8.231   0.977   1.071
 9613TIP3   OH228781   5.004   2.204   4.457
 9613TIP3    H128782   4.990   2.143   4.385
 9613TIP3    H228783   5.019   2.289   4.414
 9614TIP3   OH228784   5.891   7.314   2.166
 9614TIP3    H128785   5.982   7.295   2.145
 9614TIP3    H228786   5.856   7.232   2.200
 9615TIP3   OH228787   6.439   2.850   6.284
 9615TIP3    H128788   6.403   2.937   6.264
 9615TIP3    H228789   6.533   2.864   6.289
 9616TIP3   OH228790   3.538   1.536   1.256
 9616TIP3    H128791   3.516   1.506   1.168
 9616TIP3    H228792   3.454   1.548   1.300
 9617TIP3   OH228793   8.165   4.243   3.169
 9617TIP3    H128794   8.094   4.306   3.154
 9617TIP3    H228795   8.210   4.237   3.085
 9618TIP3   OH228796   6.688   4.763   2.272
 9618TIP3    H128797   6.751   4.696   2.298
 9618TIP3    H228798   6.741   4.840   2.251
 9619TIP3   OH228799   0.394   2.610   2.710
 9619TIP3    H128800   0.401   2.517   2.734
 9619TIP3    H228801   0.305   2.635   2.735
 9620TIP3   OH228802   5.260   4.176   0.431
 9620TIP3    H128803   5.264   4.087   0.396
 9620TIP3    H228804   5.245   4.231   0.354
 9621TIP3   OH228805   0.392   6.295   2.822
 9621TIP3    H128806   0.319   6.315   2.765
 9621TIP3    H228807   0.454   6.248   2.766
 9622TIP3   OH228808   1.142   2.674   2.311
 9622TIP3    H128809   1.085   2.600   2.328
 9622TIP3    H228810   1.090   2.732   2.254
 9623TIP3   OH228811   7.746   1.987   2.669
 9623TIP3    H128812   7.761   1.893   2.679
 9623TIP3    H228813   7.812   2.015   2.606
 9624TIP3   OH228814   8.180   1.036   2.227
 9624TIP3    H128815   8.116   1.097   2.190
 9624TIP3    H228816   8.240   1.091   2.277
 9625TIP3   OH228817   2.928   2.782   5.835
 9625TIP3    H128818   2.871   2.821   5.902
 9625TIP3    H228819   2.874   2.781   5.756
 9626TIP3   OH228820   6.065   4.506   2.187
 9626TIP3    H128821   6.152   4.509   2.225
 9626TIP3    H228822   6.055   4.416   2.156
 9627TIP3   OH228823   3.760   7.364   4.986
 9627TIP3    H128824   3.745   7.354   5.080
 9627TIP3    H228825   3.713   7.443   4.962
 9628TIP3   OH228826   1.528   0.443   4.062
 9628TIP3    H128827   1.583   0.368   4.084
 9628TIP3    H228828   1.445   0.405   4.034
 9629TIP3   OH228829   0.077   2.374   0.665
 9629TIP3    H128830   0.141   2.427   0.617
 9629TIP3    H228831   0.129   2.303   0.702
 9630TIP3   OH228832   4.632   3.085   1.737
 9630TIP3    H128833   4.641   2.991   1.753
 9630TIP3    H228834   4.544   3.107   1.767
 9631TIP3   OH228835   5.221   5.622   1.048
 9631TIP3    H128836   5.149   5.597   1.106
 9631TIP3    H228837   5.226   5.717   1.056
 9632TIP3   OH228838   0.067   1.468   2.506
 9632TIP3    H128839  -0.025   1.490   2.490
 9632TIP3    H228840   0.066   1.412   2.583
 9633TIP3   OH228841   1.081   4.450   5.966
 9633TIP3    H128842   1.011   4.485   6.021
 9633TIP3    H228843   1.061   4.484   5.878
 9634TIP3   OH228844   6.029   5.354   0.997
 9634TIP3    H128845   5.995   5.276   1.041
 9634TIP3    H228846   6.094   5.319   0.935
 9635TIP3   OH228847   5.349   7.094   2.721
 9635TIP3    H128848   5.332   7.136   2.805
 9635TIP3    H228849   5.388   7.162   2.667
 9636TIP3   OH228850   1.851   7.326   2.652
 9636TIP3    H128851   1.766   7.362   2.678
 9636TIP3    H228852   1.830   7.265   2.581
 9637TIP3   OH228853   0.302   3.020   4.845
 9637TIP3    H128854   0.240   3.032   4.773
 9637TIP3    H228855   0.333   3.108   4.866
 9638TIP3   OH228856   3.907   1.710   5.487
 9638TIP3    H128857   3.941   1.798   5.472
 9638TIP3    H228858   3.822   1.708   5.443
 9639TIP3   OH228859   2.753   6.333   0.549
 9639TIP3    H128860   2.783   6.323   0.458
 9639TIP3    H228861   2.659   6.349   0.541
 9640TIP3   OH228862   4.105   2.898   3.166
 9640TIP3    H128863   4.132   2.818   3.120
 9640TIP3    H228864   4.037   2.936   3.111
 9641TIP3   OH228865   0.917   6.475   1.823
 9641TIP3    H128866   1.001   6.433   1.808
 9641TIP3    H228867   0.852   6.412   1.792
 9642TIP3   OH228868   5.502   5.853   1.460
 9642TIP3    H128869   5.468   5.764   1.451
 9642TIP3    H228870   5.597   5.843   1.459
 9643TIP3   OH228871   7.224   2.356   5.752
 9643TIP3    H128872   7.164   2.384   5.683
 9643TIP3    H228873   7.295   2.420   5.752
 9644TIP3   OH228874   7.060   1.964   4.104
 9644TIP3    H128875   7.141   1.998   4.142
 9644TIP3    H228876   7.089   1.901   4.038
 9645TIP3   OH228877   4.452   7.522   0.149
 9645TIP3    H128878   4.452   7.477   0.233
 9645TIP3    H228879   4.511   7.470   0.094
 9646TIP3   OH228880   2.467   0.328   5.814
 9646TIP3    H128881   2.528   0.290   5.750
 9646TIP3    H228882   2.442   0.254   5.869
 9647TIP3   OH228883   2.090   3.285   3.811
 9647TIP3    H128884   2.129   3.367   3.842
 9647TIP3    H228885   2.006   3.280   3.856
 9648TIP3   OH228886   1.871   2.273   4.499
 9648TIP3    H128887   1.837   2.253   4.412
 9648TIP3    H228888   1.939   2.339   4.483
 9649TIP3   OH228889   6.526   2.442   4.315
 9649TIP3    H128890   6.616   2.415   4.296
 9649TIP3    H228891   6.493   2.474   4.231
 9650TIP3   OH228892   4.279   5.279   0.077
 9650TIP3    H128893   4.270   5.185   0.089
 9650TIP3    H228894   4.286   5.291  -0.018
 9651TIP3   OH228895   3.317   7.206   2.548
 9651TIP3    H128896   3.229   7.170   2.535
 9651TIP3    H228897   3.343   7.175   2.634
 9652TIP3   OH228898   6.541   0.046   0.523
 9652TIP3    H128899   6.449   0.020   0.517
 9652TIP3    H228900   6.548   0.120   0.463
 9653TIP3   OH228901   6.849   1.876   4.463
 9653TIP3    H128902   6.906   1.800   4.456
 9653TIP3    H228903   6.909   1.950   4.469
 9654TIP3   OH228904   2.502   0.839   0.775
 9654TIP3    H128905   2.558   0.784   0.831
 9654TIP3    H228906   2.492   0.789   0.694
 9655TIP3   OH228907   4.375   3.439   1.394
 9655TIP3    H128908   4.442   3.375   1.417
 9655TIP3    H228909   4.424   3.519   1.376
 9656TIP3   OH228910   0.287   0.794   6.491
 9656TIP3    H128911   0.298   0.848   6.570
 9656TIP3    H228912   0.376   0.771   6.465
 9657TIP3   OH228913   3.939   1.599   2.238
 9657TIP3    H128914   3.880   1.572   2.167
 9657TIP3    H228915   3.901   1.681   2.271
 9658TIP3   OH228916   4.629   5.232   2.115
 9658TIP3    H128917   4.658   5.273   2.033
 9658TIP3    H228918   4.543   5.197   2.095
 9659TIP3   OH228919   4.060   2.131   5.052
 9659TIP3    H128920   4.033   2.113   4.962
 9659TIP3    H228921   3.981   2.121   5.104
 9660TIP3   OH228922   5.648   2.268   3.815
 9660TIP3    H128923   5.578   2.333   3.807
 9660TIP3    H228924   5.609   2.186   3.785
 9661TIP3   OH228925   5.072   6.823   3.670
 9661TIP3    H128926   5.012   6.808   3.743
 9661TIP3    H228927   5.156   6.791   3.701
 9662TIP3   OH228928   1.027   4.360   0.519
 9662TIP3    H128929   1.034   4.355   0.424
 9662TIP3    H228930   1.114   4.388   0.548
 9663TIP3   OH228931   5.157   6.635   4.038
 9663TIP3    H128932   5.243   6.670   4.015
 9663TIP3    H228933   5.131   6.583   3.963
 9664TIP3   OH228934   0.725   1.594   5.825
 9664TIP3    H128935   0.667   1.616   5.897
 9664TIP3    H228936   0.776   1.519   5.857
 9665TIP3   OH228937   6.469   2.170   0.919
 9665TIP3    H128938   6.475   2.264   0.939
 9665TIP3    H228939   6.467   2.166   0.823
 9666TIP3   OH228940   3.069   5.886   5.667
 9666TIP3    H128941   3.134   5.878   5.597
 9666TIP3    H228942   3.039   5.797   5.682
 9667TIP3   OH228943   6.829   3.147   4.027
 9667TIP3    H128944   6.885   3.207   4.076
 9667TIP3    H228945   6.886   3.111   3.959
 9668TIP3   OH228946   7.081   6.040   3.030
 9668TIP3    H128947   7.014   6.071   2.969
 9668TIP3    H228948   7.076   5.945   3.024
 9669TIP3   OH228949   4.356   1.521   3.144
 9669TIP3    H128950   4.298   1.595   3.159
 9669TIP3    H228951   4.301   1.444   3.157
 9670TIP3   OH228952   4.178   0.488   4.426
 9670TIP3    H128953   4.105   0.525   4.378
 9670TIP3    H228954   4.237   0.456   4.358
 9671TIP3   OH228955   7.860   4.127   1.164
 9671TIP3    H128956   7.853   4.034   1.184
 9671TIP3    H228957   7.951   4.138   1.135
 9672TIP3   OH228958   1.326   4.491   3.821
 9672TIP3    H128959   1.360   4.411   3.781
 9672TIP3    H228960   1.359   4.562   3.766
 9673TIP3   OH228961   1.228   5.402   5.990
 9673TIP3    H128962   1.139   5.435   5.996
 9673TIP3    H228963   1.276   5.472   5.945
 9674TIP3   OH228964   4.094   7.729   4.885
 9674TIP3    H128965   4.152   7.797   4.919
 9674TIP3    H228966   4.036   7.708   4.958
 9675TIP3   OH228967   4.648   7.109   1.044
 9675TIP3    H128968   4.585   7.134   0.977
 9675TIP3    H228969   4.693   7.190   1.067
 9676TIP3   OH228970   7.381   5.804   6.574
 9676TIP3    H128971   7.361   5.884   6.622
 9676TIP3    H228972   7.358   5.733   6.633
 9677TIP3   OH228973   2.226  -0.015   3.173
 9677TIP3    H128974   2.168  -0.005   3.098
 9677TIP3    H228975   2.309  -0.045   3.136
 9678TIP3   OH228976   1.845   5.060   0.788
 9678TIP3    H128977   1.792   4.980   0.794
 9678TIP3    H228978   1.813   5.103   0.709
 9679TIP3   OH228979   7.051   7.658   4.412
 9679TIP3    H128980   6.965   7.700   4.413
 9679TIP3    H228981   7.068   7.638   4.504
 9680TIP3   OH228982   6.722   1.897   2.280
 9680TIP3    H128983   6.693   1.982   2.248
 9680TIP3    H228984   6.799   1.916   2.334
 9681TIP3   OH228985   2.056   1.251   6.579
 9681TIP3    H128986   2.136   1.216   6.618
 9681TIP3    H228987   2.075   1.344   6.563
 9682TIP3   OH228988   4.213   2.565   4.257
 9682TIP3    H128989   4.240   2.582   4.348
 9682TIP3    H228990   4.220   2.470   4.248
 9683TIP3   OH228991   6.377   3.761   0.363
 9683TIP3    H128992   6.318   3.815   0.309
 9683TIP3    H228993   6.391   3.814   0.442
 9684TIP3   OH228994   7.049   7.662   2.851
 9684TIP3    H128995   7.077   7.655   2.759
 9684TIP3    H228996   7.129   7.684   2.899
 9685TIP3   OH228997   2.405   7.303   3.916
 9685TIP3    H128998   2.440   7.216   3.898
 9685TIP3    H228999   2.380   7.338   3.830
 9686TIP3   OH229000   2.239   3.204   5.233
 9686TIP3    H129001   2.281   3.134   5.182
 9686TIP3    H229002   2.252   3.283   5.180
 9687TIP3   OH229003   0.667   1.136   6.528
 9687TIP3    H129004   0.593   1.194   6.547
 9687TIP3    H229005   0.695   1.162   6.440
 9688TIP3   OH229006   6.671   6.359   4.377
 9688TIP3    H129007   6.707   6.361   4.288
 9688TIP3    H229008   6.594   6.303   4.371
 9689TIP3   OH229009   4.168   6.859   1.135
 9689TIP3    H129010   4.187   6.849   1.041
 9689TIP3    H229011   4.145   6.771   1.165
 9690TIP3   OH229012   0.270   5.643   2.894
 9690TIP3    H129013   0.333   5.649   2.966
 9690TIP3    H229014   0.295   5.563   2.847
 9691TIP3   OH229015   7.263   1.367   1.123
 9691TIP3    H129016   7.358   1.381   1.131
 9691TIP3    H229017   7.249   1.277   1.151
 9692TIP3   OH229018   0.269   5.596   2.428
 9692TIP3    H129019   0.307   5.683   2.412
 9692TIP3    H229020   0.204   5.610   2.496
 9693TIP3   OH229021   4.242   5.743   6.441
 9693TIP3    H129022   4.254   5.836   6.459
 9693TIP3    H229023   4.321   5.717   6.394
 9694TIP3   OH229024   2.476   1.741   2.017
 9694TIP3    H129025   2.521   1.772   2.096
 9694TIP3    H229026   2.533   1.767   1.945
 9695TIP3   OH229027   0.529   4.115   6.247
 9695TIP3    H129028   0.461   4.155   6.192
 9695TIP3    H229029   0.510   4.147   6.335
 9696TIP3   OH229030   1.152   0.971   2.254
 9696TIP3    H129031   1.246   0.989   2.261
 9696TIP3    H229032   1.139   0.948   2.161
 9697TIP3   OH229033   6.156   5.624   1.039
 9697TIP3    H129034   6.189   5.547   1.086
 9697TIP3    H229035   6.065   5.601   1.017
 9698TIP3   OH229036   4.087   7.591   6.604
 9698TIP3    H129037   4.055   7.587   6.695
 9698TIP3    H229038   4.048   7.671   6.569
 9699TIP3   OH229039   0.127   5.454   4.631
 9699TIP3    H129040   0.106   5.481   4.542
 9699TIP3    H229041   0.124   5.535   4.682
 9700TIP3   OH229042   7.264   2.773   1.771
 9700TIP3    H129043   7.227   2.715   1.705
 9700TIP3    H229044   7.225   2.743   1.854
 9701TIP3   OH229045   7.968   5.672   0.866
 9701TIP3    H129046   7.964   5.756   0.821
 9701TIP3    H229047   7.963   5.607   0.797
 9702TIP3   OH229048   7.380   7.354   0.841
 9702TIP3    H129049   7.441   7.297   0.887
 9702TIP3    H229050   7.297   7.307   0.844
 9703TIP3   OH229051   7.580   0.768   4.774
 9703TIP3    H129052   7.590   0.808   4.860
 9703TIP3    H229053   7.598   0.840   4.713
 9704TIP3   OH229054   0.809   1.614   2.745
 9704TIP3    H129055   0.830   1.560   2.668
 9704TIP3    H229056   0.880   1.595   2.806
 9705TIP3   OH229057   5.334   6.063   2.674
 9705TIP3    H129058   5.401   6.009   2.716
 9705TIP3    H229059   5.251   6.021   2.699
 9706TIP3   OH229060   3.416   2.043   2.278
 9706TIP3    H129061   3.401   1.965   2.332
 9706TIP3    H229062   3.342   2.101   2.298
 9707TIP3   OH229063   5.235   3.934   0.246
 9707TIP3    H129064   5.261   3.887   0.166
 9707TIP3    H229065   5.270   3.881   0.317
 9708TIP3   OH229066   1.860   6.472   1.333
 9708TIP3    H129067   1.910   6.552   1.319
 9708TIP3    H229068   1.925   6.402   1.334
 9709TIP3   OH229069   2.003   1.061   0.093
 9709TIP3    H129070   1.995   1.096   0.004
 9709TIP3    H229071   1.969   0.972   0.087
 9710TIP3   OH229072   3.576   5.854   3.680
 9710TIP3    H129073   3.569   5.761   3.703
 9710TIP3    H229074   3.570   5.856   3.584
 9711TIP3   OH229075   0.179   1.325   1.050
 9711TIP3    H129076   0.199   1.399   0.993
 9711TIP3    H229077   0.174   1.363   1.138
 9712TIP3   OH229078   7.392   0.583   3.266
 9712TIP3    H129079   7.471   0.531   3.276
 9712TIP3    H229080   7.421   0.674   3.275
 9713TIP3   OH229081   5.284   7.371   3.213
 9713TIP3    H129082   5.261   7.441   3.152
 9713TIP3    H229083   5.222   7.301   3.194
 9714TIP3   OH229084   1.301   7.513   6.227
 9714TIP3    H129085   1.304   7.422   6.256
 9714TIP3    H229086   1.316   7.508   6.133
 9715TIP3   OH229087   6.249   0.148   3.778
 9715TIP3    H129088   6.179   0.186   3.831
 9715TIP3    H229089   6.291   0.085   3.836
 9716TIP3   OH229090   6.240   3.298   1.882
 9716TIP3    H129091   6.233   3.283   1.788
 9716TIP3    H229092   6.162   3.348   1.904
 9717TIP3   OH229093   6.323   3.084   6.334
 9717TIP3    H129094   6.312   3.179   6.346
 9717TIP3    H229095   6.237   3.053   6.307
 9718TIP3   OH229096   4.124   1.278   5.081
 9718TIP3    H129097   4.216   1.256   5.067
 9718TIP3    H229098   4.117   1.294   5.175
 9719TIP3   OH229099   3.829   5.904   4.349
 9719TIP3    H129100   3.793   5.963   4.415
 9719TIP3    H229101   3.919   5.935   4.335
 9720TIP3   OH229102   0.225   1.800   1.821
 9720TIP3    H129103   0.147   1.774   1.771
 9720TIP3    H229104   0.193   1.813   1.910
 9721TIP3   OH229105   4.874   1.249   4.700
 9721TIP3    H129106   4.866   1.183   4.631
 9721TIP3    H229107   4.966   1.273   4.700
 9722TIP3   OH229108   2.802   0.959   2.142
 9722TIP3    H129109   2.815   0.906   2.220
 9722TIP3    H229110   2.891   0.978   2.111
 9723TIP3   OH229111   5.574   5.162   1.778
 9723TIP3    H129112   5.655   5.179   1.729
 9723TIP3    H229113   5.507   5.149   1.710
 9724TIP3   OH229114   7.399   2.195   0.160
 9724TIP3    H129115   7.406   2.170   0.068
 9724TIP3    H229116   7.437   2.283   0.163
 9725TIP3   OH229117   7.843   1.114   3.890
 9725TIP3    H129118   7.853   1.029   3.847
 9725TIP3    H229119   7.791   1.166   3.828
 9726TIP3   OH229120   0.927   1.437   2.574
 9726TIP3    H129121   0.925   1.392   2.489
 9726TIP3    H229122   0.981   1.381   2.630
 9727TIP3   OH229123   7.847   3.196   0.850
 9727TIP3    H129124   7.877   3.287   0.860
 9727TIP3    H229125   7.834   3.165   0.939
 9728TIP3   OH229126   2.455   4.208   1.179
 9728TIP3    H129127   2.548   4.191   1.193
 9728TIP3    H229128   2.412   4.125   1.200
 9729TIP3   OH229129   1.745   1.523   5.941
 9729TIP3    H129130   1.693   1.515   6.021
 9729TIP3    H229131   1.705   1.462   5.879
 9730TIP3   OH229132   4.575   1.808   0.073
 9730TIP3    H129133   4.594   1.899   0.052
 9730TIP3    H229134   4.480   1.804   0.082
 9731TIP3   OH229135   3.624   1.689   3.100
 9731TIP3    H129136   3.626   1.785   3.107
 9731TIP3    H229137   3.644   1.658   3.188
 9732TIP3   OH229138   7.987   3.423   2.271
 9732TIP3    H129139   8.013   3.420   2.363
 9732TIP3    H229140   7.972   3.331   2.247
 9733TIP3   OH229141   2.284   5.886   5.723
 9733TIP3    H129142   2.262   5.969   5.765
 9733TIP3    H229143   2.366   5.902   5.678
 9734TIP3   OH229144   4.992   5.289   4.192
 9734TIP3    H129145   5.059   5.338   4.240
 9734TIP3    H229146   4.954   5.354   4.133
 9735TIP3   OH229147   7.559   4.553   6.573
 9735TIP3    H129148   7.539   4.642   6.602
 9735TIP3    H229149   7.641   4.561   6.525
 9736TIP3   OH229150   4.068   5.059   0.220
 9736TIP3    H129151   4.039   5.150   0.215
 9736TIP3    H229152   4.088   5.045   0.313
 9737TIP3   OH229153   1.302   0.381   0.020
 9737TIP3    H129154   1.294   0.407   0.112
 9737TIP3    H229155   1.213   0.356  -0.005
 9738TIP3   OH229156   7.468   1.540   0.193
 9738TIP3    H129157   7.468   1.601   0.267
 9738TIP3    H229158   7.423   1.463   0.227
 9739TIP3   OH229159   1.917   7.478   4.100
 9739TIP3    H129160   1.945   7.398   4.057
 9739TIP3    H229161   1.978   7.545   4.068
 9740TIP3   OH229162   2.148   2.819   2.763
 9740TIP3    H129163   2.148   2.757   2.689
 9740TIP3    H229164   2.238   2.850   2.769
 9741TIP3   OH229165   0.854   2.709   2.426
 9741TIP3    H129166   0.778   2.767   2.435
 9741TIP3    H229167   0.887   2.727   2.338
 9742TIP3   OH229168   5.558   3.845   3.197
 9742TIP3    H129169   5.644   3.871   3.166
 9742TIP3    H229170   5.575   3.793   3.276
 9743TIP3   OH229171   7.622   2.867   0.067
 9743TIP3    H129172   7.663   2.859   0.153
 9743TIP3    H229173   7.613   2.962   0.053
 9744TIP3   OH229174   2.911   4.400   3.808
 9744TIP3    H129175   3.000   4.408   3.842
 9744TIP3    H229176   2.886   4.310   3.829
 9745TIP3   OH229177   7.709   5.314   2.895
 9745TIP3    H129178   7.695   5.402   2.928
 9745TIP3    H229179   7.802   5.310   2.874
 9746TIP3   OH229180   0.344   3.547   4.321
 9746TIP3    H129181   0.290   3.566   4.244
 9746TIP3    H229182   0.410   3.617   4.321
 9747TIP3   OH229183   1.171   0.672   5.043
 9747TIP3    H129184   1.077   0.661   5.028
 9747TIP3    H229185   1.213   0.620   4.975
 9748TIP3   OH229186   6.881   4.282   1.508
 9748TIP3    H129187   6.893   4.239   1.423
 9748TIP3    H229188   6.969   4.294   1.541
 9749TIP3   OH229189   8.257   5.444   6.057
 9749TIP3    H129190   8.265   5.355   6.092
 9749TIP3    H229191   8.345   5.467   6.030
 9750TIP3   OH229192   6.053   7.779   0.635
 9750TIP3    H129193   6.035   7.713   0.702
 9750TIP3    H229194   6.147   7.796   0.644
 9751TIP3   OH229195   3.399   0.249   4.083
 9751TIP3    H129196   3.486   0.210   4.072
 9751TIP3    H229197   3.344   0.177   4.113
 9752TIP3   OH229198   7.011   5.722   2.681
 9752TIP3    H129199   7.038   5.672   2.604
 9752TIP3    H229200   6.927   5.683   2.707
 9753TIP3   OH229201   4.783   6.416   2.970
 9753TIP3    H129202   4.721   6.451   2.905
 9753TIP3    H229203   4.861   6.470   2.958
 9754TIP3   OH229204   6.528   4.834   3.581
 9754TIP3    H129205   6.567   4.888   3.650
 9754TIP3    H229206   6.597   4.828   3.514
 9755TIP3   OH229207   7.253   1.924   1.523
 9755TIP3    H129208   7.223   1.927   1.614
 9755TIP3    H229209   7.301   1.842   1.516
 9756TIP3   OH229210   1.776   4.280   1.010
 9756TIP3    H129211   1.737   4.269   0.924
 9756TIP3    H229212   1.707   4.253   1.071
 9757TIP3   OH229213   8.199   7.448   3.390
 9757TIP3    H129214   8.277   7.394   3.402
 9757TIP3    H229215   8.204   7.478   3.299
 9758TIP3   OH229216   6.449   6.249   4.521
 9758TIP3    H129217   6.384   6.290   4.578
 9758TIP3    H229218   6.421   6.158   4.514
 9759TIP3   OH229219   7.020   0.913   5.827
 9759TIP3    H129220   6.972   0.907   5.909
 9759TIP3    H229221   6.953   0.932   5.761
 9760TIP3   OH229222   4.349   0.341   3.456
 9760TIP3    H129223   4.396   0.356   3.538
 9760TIP3    H229224   4.283   0.275   3.478
 9761TIP3   OH229225   4.165   7.168   0.583
 9761TIP3    H129226   4.129   7.190   0.669
 9761TIP3    H229227   4.132   7.079   0.566
 9762TIP3   OH229228   5.513   0.623   6.043
 9762TIP3    H129229   5.458   0.682   6.095
 9762TIP3    H229230   5.497   0.536   6.082
 9763TIP3   OH229231   7.664   1.873   1.035
 9763TIP3    H129232   7.720   1.915   1.099
 9763TIP3    H229233   7.576   1.878   1.072
 9764TIP3   OH229234   6.277   2.009   6.056
 9764TIP3    H129235   6.232   1.963   6.127
 9764TIP3    H229236   6.211   2.015   5.986
 9765TIP3   OH229237   2.415   6.105   1.054
 9765TIP3    H129238   2.468   6.028   1.031
 9765TIP3    H229239   2.439   6.124   1.144
 9766TIP3   OH229240   0.848   3.815   4.743
 9766TIP3    H129241   0.824   3.750   4.808
 9766TIP3    H229242   0.906   3.875   4.790
 9767TIP3   OH229243   0.880   7.177   0.515
 9767TIP3    H129244   0.878   7.170   0.611
 9767TIP3    H229245   0.902   7.089   0.485
 9768TIP3   OH229246   3.230   3.949   0.550
 9768TIP3    H129247   3.193   4.007   0.617
 9768TIP3    H229248   3.160   3.942   0.484
 9769TIP3   OH229249   6.733   6.705   1.607
 9769TIP3    H129250   6.700   6.616   1.597
 9769TIP3    H229251   6.654   6.760   1.607
 9770TIP3   OH229252   3.444   3.097   3.730
 9770TIP3    H129253   3.420   3.031   3.796
 9770TIP3    H229254   3.509   3.152   3.774
 9771TIP3   OH229255   0.490   1.242   5.724
 9771TIP3    H129256   0.447   1.239   5.810
 9771TIP3    H229257   0.446   1.314   5.678
 9772TIP3   OH229258   5.610   4.065   0.514
 9772TIP3    H129259   5.607   4.126   0.587
 9772TIP3    H229260   5.545   4.098   0.452
 9773TIP3   OH229261   4.997   6.971   1.572
 9773TIP3    H129262   5.061   6.999   1.507
 9773TIP3    H229263   4.945   7.049   1.591
 9774TIP3   OH229264   7.340   5.427   3.744
 9774TIP3    H129265   7.409   5.447   3.807
 9774TIP3    H229266   7.307   5.512   3.715
 9775TIP3   OH229267   4.523   3.318   2.249
 9775TIP3    H129268   4.550   3.305   2.340
 9775TIP3    H229269   4.596   3.366   2.209
 9776TIP3   OH229270   3.261   7.608   1.973
 9776TIP3    H129271   3.343   7.641   2.010
 9776TIP3    H229272   3.269   7.623   1.879
 9777TIP3   OH229273   1.360   5.335   0.251
 9777TIP3    H129274   1.413   5.258   0.232
 9777TIP3    H229275   1.343   5.330   0.345
 9778TIP3   OH229276   3.688   7.465   0.705
 9778TIP3    H129277   3.663   7.536   0.765
 9778TIP3    H229278   3.777   7.486   0.678
 9779TIP3   OH229279   5.983   6.224   4.471
 9779TIP3    H129280   5.903   6.178   4.499
 9779TIP3    H229281   5.997   6.197   4.381
 9780TIP3   OH229282   1.380   3.883   6.319
 9780TIP3    H129283   1.361   3.813   6.256
 9780TIP3    H229284   1.431   3.840   6.388
 9781TIP3   OH229285   3.241   3.408   3.342
 9781TIP3    H129286   3.267   3.386   3.431
 9781TIP3    H229287   3.154   3.369   3.331
 9782TIP3   OH229288   5.281   6.316   6.323
 9782TIP3    H129289   5.186   6.305   6.330
 9782TIP3    H229290   5.317   6.234   6.359
 9783TIP3   OH229291   8.140   0.645   1.990
 9783TIP3    H129292   8.164   0.556   2.015
 9783TIP3    H229293   8.133   0.692   2.073
 9784TIP3   OH229294   7.846   4.078   5.394
 9784TIP3    H129295   7.940   4.092   5.401
 9784TIP3    H229296   7.824   4.101   5.304
 9785TIP3   OH229297   3.577   0.886   1.413
 9785TIP3    H129298   3.613   0.798   1.423
 9785TIP3    H229299   3.529   0.902   1.495
 9786TIP3   OH229300   7.682   6.558   3.243
 9786TIP3    H129301   7.589   6.572   3.259
 9786TIP3    H229302   7.720   6.645   3.248
 9787TIP3   OH229303   4.136   6.169   1.347
 9787TIP3    H129304   4.104   6.180   1.437
 9787TIP3    H229305   4.206   6.105   1.354
 9788TIP3   OH229306   0.557   1.615   5.614
 9788TIP3    H129307   0.505   1.535   5.605
 9788TIP3    H229308   0.614   1.599   5.689
 9789TIP3   OH229309   7.096   7.299   2.446
 9789TIP3    H129310   7.148   7.219   2.449
 9789TIP3    H229311   7.075   7.311   2.354
 9790TIP3   OH229312   8.262   2.133   5.203
 9790TIP3    H129313   8.319   2.194   5.155
 9790TIP3    H229314   8.261   2.168   5.292
 9791TIP3   OH229315   1.511   3.021   4.900
 9791TIP3    H129316   1.593   3.035   4.852
 9791TIP3    H229317   1.516   2.929   4.928
 9792TIP3   OH229318   6.798   1.975   3.701
 9792TIP3    H129319   6.759   1.906   3.648
 9792TIP3    H229320   6.726   2.006   3.756
 9793TIP3   OH229321   4.158   3.565   1.611
 9793TIP3    H129322   4.253   3.554   1.617
 9793TIP3    H229323   4.127   3.484   1.568
 9794TIP3   OH229324   1.569   7.800   3.749
 9794TIP3    H129325   1.543   7.813   3.840
 9794TIP3    H229326   1.519   7.724   3.721
 9795TIP3   OH229327   6.993   5.817   3.242
 9795TIP3    H129328   6.958   5.734   3.210
 9795TIP3    H229329   6.929   5.882   3.216
 9796TIP3   OH229330   4.426   6.379   1.105
 9796TIP3    H129331   4.486   6.447   1.137
 9796TIP3    H229332   4.471   6.339   1.031
 9797TIP3   OH229333   2.849   3.135   1.347
 9797TIP3    H129334   2.939   3.114   1.374
 9797TIP3    H229335   2.849   3.121   1.252
 9798TIP3   OH229336   3.429   7.359   6.544
 9798TIP3    H129337   3.408   7.438   6.494
 9798TIP3    H229338   3.346   7.331   6.582
 9799TIP3   OH229339   6.767   7.233   2.002
 9799TIP3    H129340   6.736   7.196   2.085
 9799TIP3    H229341   6.715   7.312   1.990
 9800TIP3   OH229342   5.296   3.778   0.000
 9800TIP3    H129343   5.295   3.685  -0.023
 9800TIP3    H229344   5.345   3.820  -0.070
 9801TIP3   OH229345   2.278   7.298   5.663
 9801TIP3    H129346   2.228   7.314   5.743
 9801TIP3    H229347   2.364   7.268   5.693
 9802TIP3   OH229348   5.069   1.465   4.638
 9802TIP3    H129349   5.152   1.458   4.591
 9802TIP3    H229350   5.089   1.518   4.715
 9803TIP3   OH229351   4.422   5.214   3.497
 9803TIP3    H129352   4.387   5.127   3.518
 9803TIP3    H229353   4.498   5.223   3.555
 9804TIP3   OH229354   3.164   1.460   4.562
 9804TIP3    H129355   3.078   1.501   4.554
 9804TIP3    H229356   3.162   1.418   4.648
 9805TIP3   OH229357   3.693   1.191   5.944
 9805TIP3    H129358   3.665   1.143   5.866
 9805TIP3    H229359   3.661   1.138   6.017
 9806TIP3   OH229360   2.142   3.893   3.554
 9806TIP3    H129361   2.096   3.867   3.474
 9806TIP3    H229362   2.099   3.974   3.581
 9807TIP3   OH229363   4.004   0.974   6.171
 9807TIP3    H129364   4.009   0.900   6.112
 9807TIP3    H229365   4.038   0.941   6.254
 9808TIP3   OH229366   6.997   2.178   2.188
 9808TIP3    H129367   7.082   2.197   2.149
 9808TIP3    H229368   6.961   2.107   2.134
 9809TIP3   OH229369   4.665   6.872   6.354
 9809TIP3    H129370   4.615   6.842   6.430
 9809TIP3    H229371   4.632   6.819   6.281
 9810TIP3   OH229372   1.177   0.843   5.254
 9810TIP3    H129373   1.118   0.910   5.220
 9810TIP3    H229374   1.181   0.777   5.184
 9811TIP3   OH229375   1.698   3.254   2.634
 9811TIP3    H129376   1.678   3.233   2.543
 9811TIP3    H229377   1.634   3.205   2.685
 9812TIP3   OH229378   5.694   7.647   5.774
 9812TIP3    H129379   5.789   7.652   5.787
 9812TIP3    H229380   5.683   7.590   5.698
 9813TIP3   OH229381   5.062   0.345   4.485
 9813TIP3    H129382   5.037   0.261   4.445
 9813TIP3    H229383   5.045   0.332   4.578
 9814TIP3   OH229384   2.330   7.777   2.904
 9814TIP3    H129385   2.297   7.804   2.818
 9814TIP3    H229386   2.273   7.821   2.967
 9815TIP3   OH229387   3.476   1.311   0.685
 9815TIP3    H129388   3.552   1.260   0.714
 9815TIP3    H229389   3.506   1.352   0.603
 9816TIP3   OH229390   7.362   3.545   6.760
 9816TIP3    H129391   7.410   3.604   6.702
 9816TIP3    H229392   7.270   3.559   6.739
 9817TIP3   OH229393   2.565   6.589   5.261
 9817TIP3    H129394   2.487   6.536   5.275
 9817TIP3    H229395   2.555   6.622   5.171
 9818TIP3   OH229396   2.351   1.628   4.385
 9818TIP3    H129397   2.297   1.704   4.408
 9818TIP3    H229398   2.438   1.650   4.419
 9819TIP3   OH229399   2.987   2.231   6.146
 9819TIP3    H129400   2.930   2.300   6.179
 9819TIP3    H229401   2.960   2.219   6.055
 9820TIP3   OH229402   4.251   2.620   5.544
 9820TIP3    H129403   4.175   2.612   5.485
 9820TIP3    H229404   4.325   2.591   5.491
 9821TIP3   OH229405   5.840   3.960   1.709
 9821TIP3    H129406   5.796   3.913   1.780
 9821TIP3    H229407   5.926   3.981   1.745
 9822TIP3   OH229408   0.438   6.783   6.761
 9822TIP3    H129409   0.499   6.749   6.826
 9822TIP3    H229410   0.490   6.845   6.709
 9823TIP3   OH229411   6.096   3.554   2.640
 9823TIP3    H129412   6.191   3.546   2.629
 9823TIP3    H229413   6.062   3.563   2.551
 9824TIP3   OH229414   7.628   6.528   1.319
 9824TIP3    H129415   7.673   6.524   1.403
 9824TIP3    H229416   7.540   6.557   1.340
 9825TIP3   OH229417   1.595   0.310   4.627
 9825TIP3    H129418   1.635   0.232   4.587
 9825TIP3    H229419   1.625   0.308   4.717
 9826TIP3   OH229420   4.539   2.372   3.478
 9826TIP3    H129421   4.548   2.287   3.436
 9826TIP3    H229422   4.610   2.425   3.439
 9827TIP3   OH229423   8.132   5.521   3.551
 9827TIP3    H129424   8.215   5.503   3.595
 9827TIP3    H229425   8.150   5.505   3.458
 9828TIP3   OH229426   1.743   1.055   0.292
 9828TIP3    H129427   1.725   1.112   0.367
 9828TIP3    H229428   1.798   1.107   0.234
 9829TIP3   OH229429   3.444   5.418   2.138
 9829TIP3    H129430   3.443   5.373   2.223
 9829TIP3    H229431   3.435   5.510   2.160
 9830TIP3   OH229432   4.035   7.309   2.063
 9830TIP3    H129433   3.957   7.356   2.033
 9830TIP3    H229434   4.107   7.370   2.049
 9831TIP3   OH229435   2.711   0.329   1.631
 9831TIP3    H129436   2.715   0.299   1.721
 9831TIP3    H229437   2.620   0.314   1.605
 9832TIP3   OH229438   1.486   7.264   1.270
 9832TIP3    H129439   1.440   7.250   1.353
 9832TIP3    H229440   1.494   7.359   1.263
 9833TIP3   OH229441   4.299   3.564   0.066
 9833TIP3    H129442   4.265   3.475   0.061
 9833TIP3    H229443   4.392   3.555   0.047
 9834TIP3   OH229444   7.657   5.943   5.757
 9834TIP3    H129445   7.738   5.911   5.796
 9834TIP3    H229446   7.681   6.024   5.713
 9835TIP3   OH229447   5.340   6.394   2.121
 9835TIP3    H129448   5.388   6.365   2.043
 9835TIP3    H229449   5.279   6.322   2.139
 9836TIP3   OH229450   1.844   3.575   6.085
 9836TIP3    H129451   1.828   3.504   6.148
 9836TIP3    H229452   1.889   3.532   6.012
 9837TIP3   OH229453   8.093   4.699   2.661
 9837TIP3    H129454   8.124   4.728   2.575
 9837TIP3    H229455   8.127   4.765   2.722
 9838TIP3   OH229456   1.560   3.767   6.534
 9838TIP3    H129457   1.615   3.691   6.553
 9838TIP3    H229458   1.522   3.791   6.619
 9839TIP3   OH229459   5.202   4.417   4.108
 9839TIP3    H129460   5.171   4.328   4.094
 9839TIP3    H229461   5.215   4.423   4.202
 9840TIP3   OH229462   5.625   5.682   3.389
 9840TIP3    H129463   5.615   5.682   3.484
 9840TIP3    H229464   5.535   5.679   3.355
 9841TIP3   OH229465   1.279   0.618   0.947
 9841TIP3    H129466   1.361   0.664   0.961
 9841TIP3    H229467   1.284   0.588   0.856
 9842TIP3   OH229468   2.977   3.861   1.950
 9842TIP3    H129469   2.885   3.859   1.924
 9842TIP3    H229470   3.020   3.796   1.894
 9843TIP3   OH229471   2.654   3.400   2.550
 9843TIP3    H129472   2.560   3.416   2.556
 9843TIP3    H229473   2.667   3.367   2.461
 9844TIP3   OH229474   8.201   0.451   6.728
 9844TIP3    H129475   8.171   0.363   6.750
 9844TIP3    H229476   8.172   0.465   6.638
 9845TIP3   OH229477   1.311   2.877   3.496
 9845TIP3    H129478   1.328   2.914   3.410
 9845TIP3    H229479   1.246   2.936   3.535
 9846TIP3   OH229480   3.930   0.276   5.530
 9846TIP3    H129481   3.877   0.299   5.607
 9846TIP3    H229482   4.002   0.340   5.531
 9847TIP3   OH229483   6.679   7.184   4.009
 9847TIP3    H129484   6.645   7.213   4.094
 9847TIP3    H229485   6.619   7.220   3.945
 9848TIP3   OH229486   6.954   6.281   0.462
 9848TIP3    H129487   6.862   6.257   0.463
 9848TIP3    H229488   6.986   6.254   0.548
 9849TIP3   OH229489   6.303   7.819   4.877
 9849TIP3    H129490   6.364   7.843   4.807
 9849TIP3    H229491   6.245   7.755   4.836
 9850TIP3   OH229492   3.707   4.773   4.362
 9850TIP3    H129493   3.727   4.706   4.428
 9850TIP3    H229494   3.675   4.725   4.286
 9851TIP3   OH229495   7.635   7.453   0.977
 9851TIP3    H129496   7.676   7.366   0.980
 9851TIP3    H229497   7.707   7.514   0.996
 9852TIP3   OH229498   3.984   2.018   0.435
 9852TIP3    H129499   4.053   1.971   0.388
 9852TIP3    H229500   3.917   2.034   0.369
 9853TIP3   OH229501   3.838   0.223   2.999
 9853TIP3    H129502   3.878   0.219   2.912
 9853TIP3    H229503   3.809   0.314   3.007
 9854TIP3   OH229504   1.182   6.171   5.104
 9854TIP3    H129505   1.132   6.120   5.040
 9854TIP3    H229506   1.128   6.170   5.183
 9855TIP3   OH229507   2.338   1.222   5.195
 9855TIP3    H129508   2.247   1.205   5.219
 9855TIP3    H229509   2.333   1.272   5.114
 9856TIP3   OH229510   4.231   3.072   5.473
 9856TIP3    H129511   4.230   3.056   5.378
 9856TIP3    H229512   4.180   3.000   5.510
 9857TIP3   OH229513   6.385   3.685  -0.007
 9857TIP3    H129514   6.429   3.758   0.037
 9857TIP3    H229515   6.292   3.708  -0.005
 9858TIP3   OH229516   7.614   3.273   1.382
 9858TIP3    H129517   7.551   3.284   1.452
 9858TIP3    H229518   7.569   3.219   1.317
 9859TIP3   OH229519   1.715   3.537   3.742
 9859TIP3    H129520   1.639   3.511   3.689
 9859TIP3    H229521   1.731   3.462   3.799
 9860TIP3   OH229522   3.160   7.332   6.059
 9860TIP3    H129523   3.148   7.259   5.998
 9860TIP3    H229524   3.178   7.407   6.003
 9861TIP3   OH229525   6.163   1.159   3.833
 9861TIP3    H129526   6.077   1.190   3.861
 9861TIP3    H229527   6.176   1.200   3.748
 9862TIP3   OH229528   1.161   3.017   5.714
 9862TIP3    H129529   1.075   2.975   5.707
 9862TIP3    H229530   1.149   3.089   5.776
 9863TIP3   OH229531   0.386   2.770   0.280
 9863TIP3    H129532   0.296   2.763   0.313
 9863TIP3    H229533   0.403   2.864   0.276
 9864TIP3   OH229534   0.480   4.882   4.769
 9864TIP3    H129535   0.430   4.857   4.847
 9864TIP3    H229536   0.569   4.894   4.802
 9865TIP3   OH229537   8.150   5.031   4.801
 9865TIP3    H129538   8.239   5.022   4.769
 9865TIP3    H229539   8.131   4.948   4.845
 9866TIP3   OH229540   5.498   5.951   4.399
 9866TIP3    H129541   5.495   5.880   4.463
 9866TIP3    H229542   5.409   5.955   4.364
 9867TIP3   OH229543   1.897   1.383   1.011
 9867TIP3    H129544   1.942   1.306   1.046
 9867TIP3    H229545   1.868   1.430   1.088
 9868TIP3   OH229546   3.831   7.163   6.035
 9868TIP3    H129547   3.736   7.178   6.038
 9868TIP3    H229548   3.865   7.214   6.109
 9869TIP3   OH229549   4.900   5.957   3.644
 9869TIP3    H129550   4.945   5.981   3.563
 9869TIP3    H229551   4.901   6.037   3.696
 9870TIP3   OH229552   7.100   6.646   1.461
 9870TIP3    H129553   7.077   6.726   1.415
 9870TIP3    H229554   7.035   6.582   1.432
 9871TIP3   OH229555   8.294   5.183   0.221
 9871TIP3    H129556   8.210   5.137   0.225
 9871TIP3    H229557   8.357   5.120   0.255
 9872TIP3   OH229558   4.967   5.668   5.431
 9872TIP3    H129559   4.909   5.626   5.494
 9872TIP3    H229560   4.939   5.760   5.431
 9873TIP3   OH229561   1.468   3.685   3.968
 9873TIP3    H129562   1.470   3.777   3.994
 9873TIP3    H229563   1.503   3.637   4.043
 9874TIP3   OH229564   3.740   3.439   2.046
 9874TIP3    H129565   3.818   3.384   2.043
 9874TIP3    H229566   3.706   3.436   1.956
 9875TIP3   OH229567   2.375   4.962   1.797
 9875TIP3    H129568   2.429   4.986   1.873
 9875TIP3    H229569   2.438   4.928   1.734
 9876TIP3   OH229570   2.760   4.091   0.752
 9876TIP3    H129571   2.826   4.128   0.811
 9876TIP3    H229572   2.696   4.160   0.741
 9877TIP3   OH229573   0.147   1.811   5.517
 9877TIP3    H129574   0.078   1.832   5.454
 9877TIP3    H229575   0.148   1.716   5.521
 9878TIP3   OH229576   2.535   2.936   0.841
 9878TIP3    H129577   2.546   3.031   0.829
 9878TIP3    H229578   2.452   2.928   0.888
 9879TIP3   OH229579   3.824   6.793   6.745
 9879TIP3    H129580   3.740   6.761   6.779
 9879TIP3    H229581   3.801   6.839   6.664
 9880TIP3   OH229582   3.008   4.932   4.181
 9880TIP3    H129583   2.987   4.847   4.143
 9880TIP3    H229584   3.082   4.964   4.130
 9881TIP3   OH229585   0.928   5.746   4.462
 9881TIP3    H129586   0.951   5.668   4.513
 9881TIP3    H229587   0.853   5.784   4.509
 9882TIP3   OH229588   6.264   0.441   2.254
 9882TIP3    H129589   6.172   0.446   2.279
 9882TIP3    H229590   6.269   0.489   2.171
 9883TIP3   OH229591   4.389   1.041   6.577
 9883TIP3    H129592   4.366   1.001   6.661
 9883TIP3    H229593   4.407   1.132   6.598
 9884TIP3   OH229594   3.329   6.225   6.758
 9884TIP3    H129595   3.319   6.162   6.687
 9884TIP3    H229596   3.416   6.262   6.745
 9885TIP3   OH229597   0.850   3.076   1.533
 9885TIP3    H129598   0.863   3.020   1.457
 9885TIP3    H229599   0.838   3.164   1.497
 9886TIP3   OH229600   4.871   6.478   3.615
 9886TIP3    H129601   4.779   6.496   3.634
 9886TIP3    H229602   4.893   6.535   3.542
 9887TIP3   OH229603   0.829   5.192   5.953
 9887TIP3    H129604   0.898   5.138   5.916
 9887TIP3    H229605   0.823   5.268   5.894
 9888TIP3   OH229606   2.735   7.806   4.225
 9888TIP3    H129607   2.661   7.807   4.285
 9888TIP3    H229608   2.700   7.772   4.143
 9889TIP3   OH229609   2.764   4.196   2.909
 9889TIP3    H129610   2.805   4.268   2.862
 9889TIP3    H229611   2.835   4.154   2.957
 9890TIP3   OH229612   3.343   5.791   0.705
 9890TIP3    H129613   3.274   5.834   0.756
 9890TIP3    H229614   3.424   5.822   0.744
 9891TIP3   OH229615   2.696  -0.004   6.337
 9891TIP3    H129616   2.750  -0.015   6.259
 9891TIP3    H229617   2.678  -0.093   6.366
 9892TIP3   OH229618   0.241   4.713   1.089
 9892TIP3    H129619   0.170   4.740   1.147
 9892TIP3    H229620   0.260   4.790   1.035
 9893TIP3   OH229621   2.762   2.417   3.671
 9893TIP3    H129622   2.841   2.370   3.697
 9893TIP3    H229623   2.693   2.351   3.671
 9894TIP3   OH229624   4.695   0.972   3.124
 9894TIP3    H129625   4.746   0.915   3.182
 9894TIP3    H229626   4.710   1.060   3.159
 9895TIP3   OH229627   4.097   5.592   0.116
 9895TIP3    H129628   4.157   5.557   0.050
 9895TIP3    H229629   4.154   5.631   0.182
 9896TIP3   OH229630   6.961   1.415   5.027
 9896TIP3    H129631   6.992   1.505   5.028
 9896TIP3    H229632   6.965   1.387   5.119
 9897TIP3   OH229633   7.439   6.786   4.958
 9897TIP3    H129634   7.525   6.825   4.939
 9897TIP3    H229635   7.434   6.709   4.902
 9898TIP3   OH229636   6.156   0.917   1.337
 9898TIP3    H129637   6.163   0.827   1.304
 9898TIP3    H229638   6.221   0.922   1.407
 9899TIP3   OH229639   4.262   6.135   0.036
 9899TIP3    H129640   4.321   6.155   0.108
 9899TIP3    H229641   4.319   6.112  -0.037
 9900TIP3   OH229642   1.545   2.310   3.221
 9900TIP3    H129643   1.540   2.307   3.125
 9900TIP3    H229644   1.507   2.395   3.245
 9901TIP3   OH229645   0.178   1.049   5.160
 9901TIP3    H129646   0.225   1.131   5.172
 9901TIP3    H229647   0.087   1.075   5.147
 9902TIP3   OH229648   7.766   1.966   6.116
 9902TIP3    H129649   7.822   1.954   6.192
 9902TIP3    H229650   7.711   1.888   6.113
 9903TIP3   OH229651   0.440   6.651   4.466
 9903TIP3    H129652   0.377   6.582   4.486
 9903TIP3    H229653   0.416   6.680   4.378
 9904TIP3   OH229654   7.255   6.222   0.930
 9904TIP3    H129655   7.329   6.172   0.898
 9904TIP3    H229656   7.199   6.157   0.974
 9905TIP3   OH229657   0.442   4.716   3.526
 9905TIP3    H129658   0.517   4.740   3.580
 9905TIP3    H229659   0.409   4.636   3.565
 9906TIP3   OH229660   6.890   1.691   5.761
 9906TIP3    H129661   6.807   1.646   5.744
 9906TIP3    H229662   6.878   1.778   5.724
 9907TIP3   OH229663   2.981   5.839   1.330
 9907TIP3    H129664   2.908   5.797   1.285
 9907TIP3    H229665   3.046   5.856   1.261
 9908TIP3   OH229666   4.083   5.123   1.254
 9908TIP3    H129667   4.016   5.147   1.190
 9908TIP3    H229668   4.137   5.201   1.262
 9909TIP3   OH229669   6.906   6.433   6.334
 9909TIP3    H129670   6.957   6.368   6.381
 9909TIP3    H229671   6.919   6.515   6.383
 9910TIP3   OH229672   2.833   1.937   3.704
 9910TIP3    H129673   2.743   1.930   3.737
 9910TIP3    H229674   2.822   1.962   3.612
 9911TIP3   OH229675   4.235   5.506   3.811
 9911TIP3    H129676   4.303   5.567   3.783
 9911TIP3    H229677   4.207   5.464   3.730
 9912TIP3   OH229678   0.710   1.087   1.236
 9912TIP3    H129679   0.784   1.102   1.177
 9912TIP3    H229680   0.658   1.019   1.192
 9913TIP3   OH229681   1.453   0.932   2.352
 9913TIP3    H129682   1.432   0.840   2.339
 9913TIP3    H229683   1.542   0.942   2.319
 9914TIP3   OH229684   5.855   4.789   4.529
 9914TIP3    H129685   5.788   4.730   4.565
 9914TIP3    H229686   5.931   4.778   4.586
 9915TIP3   OH229687   4.569   1.748   4.336
 9915TIP3    H129688   4.644   1.773   4.282
 9915TIP3    H229689   4.530   1.674   4.289
 9916TIP3   OH229690   2.580   6.595   0.385
 9916TIP3    H129691   2.544   6.509   0.405
 9916TIP3    H229692   2.538   6.619   0.302
 9917TIP3   OH229693   3.194   2.910   3.749
 9917TIP3    H129694   3.107   2.913   3.787
 9917TIP3    H229695   3.252   2.889   3.822
 9918TIP3   OH229696   3.131   3.493   0.234
 9918TIP3    H129697   3.183   3.562   0.192
 9918TIP3    H229698   3.047   3.534   0.253
 9919TIP3   OH229699   5.906   5.541   3.683
 9919TIP3    H129700   5.919   5.471   3.619
 9919TIP3    H229701   5.813   5.538   3.704
 9920TIP3   OH229702   4.042   4.298   5.811
 9920TIP3    H129703   4.069   4.224   5.757
 9920TIP3    H229704   4.117   4.315   5.868
 9921TIP3   OH229705   7.459   6.393   0.998
 9921TIP3    H129706   7.387   6.332   1.012
 9921TIP3    H229707   7.477   6.387   0.904
 9922TIP3   OH229708   7.561   7.634   0.719
 9922TIP3    H129709   7.558   7.689   0.641
 9922TIP3    H229710   7.651   7.642   0.750
 9923TIP3   OH229711   6.786   0.543   3.004
 9923TIP3    H129712   6.714   0.603   2.987
 9923TIP3    H229713   6.747   0.473   3.055
 9924TIP3   OH229714   6.502   5.812   3.790
 9924TIP3    H129715   6.554   5.884   3.824
 9924TIP3    H229716   6.529   5.735   3.841
 9925TIP3   OH229717   2.482   7.147   5.768
 9925TIP3    H129718   2.449   7.058   5.783
 9925TIP3    H229719   2.577   7.140   5.775
 9926TIP3   OH229720   2.868   3.499   6.537
 9926TIP3    H129721   2.925   3.487   6.461
 9926TIP3    H229722   2.922   3.545   6.601
 9927TIP3   OH229723   3.808   3.312   6.420
 9927TIP3    H129724   3.873   3.382   6.410
 9927TIP3    H229725   3.851   3.248   6.476
 9928TIP3   OH229726   4.217   5.464   6.392
 9928TIP3    H129727   4.173   5.445   6.310
 9928TIP3    H229728   4.220   5.559   6.397
 9929TIP3   OH229729   1.557   1.758   1.051
 9929TIP3    H129730   1.486   1.786   0.993
 9929TIP3    H229731   1.517   1.755   1.138
 9930TIP3   OH229732   6.766   3.341   3.214
 9930TIP3    H129733   6.824   3.276   3.254
 9930TIP3    H229734   6.706   3.366   3.285
 9931TIP3   OH229735   0.865   4.870   2.429
 9931TIP3    H129736   0.778   4.886   2.391
 9931TIP3    H229737   0.895   4.957   2.455
 9932TIP3   OH229738   6.469   2.344   0.241
 9932TIP3    H129739   6.489   2.284   0.313
 9932TIP3    H229740   6.541   2.331   0.179
 9933TIP3   OH229741   7.945   0.862   0.374
 9933TIP3    H129742   7.863   0.825   0.405
 9933TIP3    H229743   7.925   0.894   0.286
 9934TIP3   OH229744   7.810   0.310   6.641
 9934TIP3    H129745   7.903   0.288   6.648
 9934TIP3    H229746   7.772   0.237   6.592
 9935TIP3   OH229747   7.244   1.995   2.386
 9935TIP3    H129748   7.241   1.902   2.364
 9935TIP3    H229749   7.332   2.008   2.422
 9936TIP3   OH229750   0.183   6.558   1.288
 9936TIP3    H129751   0.144   6.486   1.339
 9936TIP3    H229752   0.140   6.636   1.322
 9937TIP3   OH229753   0.779   2.228   6.168
 9937TIP3    H129754   0.706   2.260   6.115
 9937TIP3    H229755   0.841   2.301   6.169
 9938TIP3   OH229756   5.306   3.383   5.996
 9938TIP3    H129757   5.301   3.350   5.907
 9938TIP3    H229758   5.234   3.339   6.042
 9939TIP3   OH229759   5.589   5.970   2.443
 9939TIP3    H129760   5.500   5.963   2.479
 9939TIP3    H229761   5.592   6.057   2.404
 9940TIP3   OH229762   5.452   6.739   5.019
 9940TIP3    H129763   5.474   6.709   4.931
 9940TIP3    H229764   5.461   6.662   5.075
 9941TIP3   OH229765   2.478   7.099   5.399
 9941TIP3    H129766   2.384   7.115   5.388
 9941TIP3    H229767   2.489   7.008   5.372
 9942TIP3   OH229768   2.319   0.780   3.100
 9942TIP3    H129769   2.391   0.727   3.067
 9942TIP3    H229770   2.308   0.752   3.191
 9943TIP3   OH229771   1.780   2.106   0.889
 9943TIP3    H129772   1.774   2.052   0.968
 9943TIP3    H229773   1.858   2.073   0.843
 9944TIP3   OH229774   3.190   4.615   5.914
 9944TIP3    H129775   3.122   4.585   5.853
 9944TIP3    H229776   3.270   4.573   5.882
 9945TIP3   OH229777   2.711   4.892   5.594
 9945TIP3    H129778   2.724   4.802   5.624
 9945TIP3    H229779   2.664   4.935   5.666
 9946TIP3   OH229780   2.400   2.730   3.625
 9946TIP3    H129781   2.492   2.732   3.649
 9946TIP3    H229782   2.398   2.753   3.532
 9947TIP3   OH229783   4.766   4.946   2.949
 9947TIP3    H129784   4.723   4.889   3.012
 9947TIP3    H229785   4.782   4.889   2.873
 9948TIP3   OH229786   7.138   2.627   0.782
 9948TIP3    H129787   7.135   2.695   0.714
 9948TIP3    H229788   7.120   2.674   0.863
 9949TIP3   OH229789   1.824   6.414   4.826
 9949TIP3    H129790   1.859   6.364   4.752
 9949TIP3    H229791   1.878   6.493   4.829
 9950TIP3   OH229792   1.221   0.347   3.558
 9950TIP3    H129793   1.178   0.432   3.560
 9950TIP3    H229794   1.157   0.289   3.516
 9951TIP3   OH229795   7.837   7.284   5.274
 9951TIP3    H129796   7.807   7.239   5.353
 9951TIP3    H229797   7.876   7.216   5.220
 9952TIP3   OH229798   0.887   0.214   2.376
 9952TIP3    H129799   0.845   0.289   2.418
 9952TIP3    H229800   0.833   0.139   2.402
 9953TIP3   OH229801   6.238   4.077   3.748
 9953TIP3    H129802   6.321   4.124   3.752
 9953TIP3    H229803   6.214   4.079   3.655
 9954TIP3   OH229804   6.654   4.911   2.922
 9954TIP3    H129805   6.743   4.898   2.957
 9954TIP3    H229806   6.626   4.823   2.898
 9955TIP3   OH229807   6.839   2.390   4.581
 9955TIP3    H129808   6.864   2.369   4.492
 9955TIP3    H229809   6.921   2.402   4.628
 9956TIP3   OH229810   0.055   1.735   4.955
 9956TIP3    H129811   0.123   1.668   4.965
 9956TIP3    H229812  -0.019   1.689   4.915
 9957TIP3   OH229813   2.587   2.548   1.972
 9957TIP3    H129814   2.525   2.539   1.900
 9957TIP3    H229815   2.657   2.604   1.938
 9958TIP3   OH229816   5.868   6.198   5.876
 9958TIP3    H129817   5.836   6.131   5.937
 9958TIP3    H229818   5.899   6.148   5.801
 9959TIP3   OH229819   6.918   6.911   2.293
 9959TIP3    H129820   6.977   6.893   2.366
 9959TIP3    H229821   6.966   6.878   2.216
 9960TIP3   OH229822   3.325   3.661   1.174
 9960TIP3    H129823   3.358   3.643   1.086
 9960TIP3    H229824   3.355   3.749   1.193
 9961TIP3   OH229825   8.276   6.796   4.332
 9961TIP3    H129826   8.180   6.790   4.333
 9961TIP3    H229827   8.303   6.725   4.274
 9962TIP3   OH229828   2.957   4.898   4.727
 9962TIP3    H129829   3.018   4.825   4.733
 9962TIP3    H229830   2.946   4.912   4.632
 9963TIP3   OH229831   3.149   6.664   2.364
 9963TIP3    H129832   3.156   6.619   2.280
 9963TIP3    H229833   3.209   6.738   2.358
 9964TIP3   OH229834   0.490   1.945   2.109
 9964TIP3    H129835   0.576   1.903   2.103
 9964TIP3    H229836   0.502   2.030   2.066
 9965TIP3   OH229837   0.432   3.730   3.815
 9965TIP3    H129838   0.518   3.772   3.806
 9965TIP3    H229839   0.397   3.727   3.726
 9966TIP3   OH229840   6.958   2.287   1.005
 9966TIP3    H129841   6.887   2.260   1.064
 9966TIP3    H229842   7.034   2.296   1.063
 9967TIP3   OH229843   4.802   6.967   6.674
 9967TIP3    H129844   4.862   6.923   6.614
 9967TIP3    H229845   4.809   7.059   6.650
 9968TIP3   OH229846   5.670   1.733   1.364
 9968TIP3    H129847   5.732   1.769   1.427
 9968TIP3    H229848   5.650   1.645   1.397
 9969TIP3   OH229849   3.738   6.938   3.479
 9969TIP3    H129850   3.814   6.967   3.427
 9969TIP3    H229851   3.675   6.908   3.414
 9970TIP3   OH229852   6.034   3.056   5.040
 9970TIP3    H129853   5.943   3.051   5.070
 9970TIP3    H229854   6.053   2.970   5.003
 9971TIP3   OH229855   0.657   6.798   4.521
 9971TIP3    H129856   0.689   6.797   4.611
 9971TIP3    H229857   0.591   6.728   4.518
 9972TIP3   OH229858   8.300   5.178   6.459
 9972TIP3    H129859   8.212   5.142   6.470
 9972TIP3    H229860   8.310   5.240   6.531
 9973TIP3   OH229861   6.885   5.781   6.154
 9973TIP3    H129862   6.954   5.805   6.215
 9973TIP3    H229863   6.848   5.701   6.189
 9974TIP3   OH229864   6.529   2.878   0.553
 9974TIP3    H129865   6.442   2.915   0.535
 9974TIP3    H229866   6.520   2.785   0.529
 9975TIP3   OH229867   0.882   0.638   1.921
 9975TIP3    H129868   0.850   0.573   1.859
 9975TIP3    H229869   0.895   0.717   1.868
 9976TIP3   OH229870   2.088   0.063   1.821
 9976TIP3    H129871   2.082   0.054   1.726
 9976TIP3    H229872   2.026  -0.002   1.856
 9977TIP3   OH229873   0.317   1.634   4.923
 9977TIP3    H129874   0.357   1.554   4.955
 9977TIP3    H229875   0.374   1.663   4.852
 9978TIP3   OH229876   2.466   6.620   1.921
 9978TIP3    H129877   2.486   6.638   1.829
 9978TIP3    H229878   2.378   6.584   1.920
 9979TIP3   OH229879   3.719   0.753   2.256
 9979TIP3    H129880   3.633   0.744   2.297
 9979TIP3    H229881   3.714   0.836   2.208
 9980TIP3   OH229882   1.953   2.540   1.109
 9980TIP3    H129883   1.984   2.482   1.040
 9980TIP3    H229884   1.859   2.551   1.090
 9981TIP3   OH229885   1.553   3.799   2.244
 9981TIP3    H129886   1.528   3.714   2.281
 9981TIP3    H229887   1.505   3.804   2.161
 9982TIP3   OH229888   7.625   5.751   3.747
 9982TIP3    H129889   7.668   5.703   3.676
 9982TIP3    H229890   7.555   5.800   3.704
 9983TIP3   OH229891   1.399   0.885   5.864
 9983TIP3    H129892   1.403   0.943   5.788
 9983TIP3    H229893   1.422   0.942   5.938
 9984TIP3   OH229894   1.311   3.698   2.430
 9984TIP3    H129895   1.257   3.671   2.504
 9984TIP3    H229896   1.308   3.794   2.431
 9985TIP3   OH229897   3.789   5.173   5.619
 9985TIP3    H129898   3.751   5.154   5.533
 9985TIP3    H229899   3.714   5.173   5.679
 9986TIP3   OH229900   3.927   1.833   3.245
 9986TIP3    H129901   3.832   1.832   3.259
 9986TIP3    H229902   3.953   1.741   3.251
 9987TIP3   OH229903   1.415   6.812   0.918
 9987TIP3    H129904   1.464   6.825   0.999
 9987TIP3    H229905   1.418   6.717   0.904
 9988TIP3   OH229906   5.023   2.118   6.049
 9988TIP3    H129907   4.998   2.152   6.134
 9988TIP3    H229908   4.979   2.033   6.043
 9989TIP3   OH229909   7.396   4.850   1.100
 9989TIP3    H129910   7.437   4.765   1.087
 9989TIP3    H229911   7.302   4.830   1.109
 9990TIP3   OH229912   1.916   3.114   6.303
 9990TIP3    H129913   1.880   3.201   6.288
 9990TIP3    H229914   2.002   3.129   6.341
 9991TIP3   OH229915   1.606   0.101   3.005
 9991TIP3    H129916   1.668   0.051   2.953
 9991TIP3    H229917   1.575   0.170   2.947
 9992TIP3   OH229918   7.503   0.995   5.634
 9992TIP3    H129919   7.459   0.987   5.719
 9992TIP3    H229920   7.501   0.907   5.598
 9993TIP3   OH229921   5.516   0.795   4.487
 9993TIP3    H129922   5.570   0.776   4.564
 9993TIP3    H229923   5.429   0.814   4.522
 9994TIP3   OH229924   7.169   3.487   4.198
 9994TIP3    H129925   7.228   3.448   4.263
 9994TIP3    H229926   7.220   3.487   4.117
 9995TIP3   OH229927   6.770   5.433   0.433
 9995TIP3    H129928   6.695   5.380   0.407
 9995TIP3    H229929   6.772   5.427   0.529
 9996TIP3   OH229930   6.726   3.502   2.965
 9996TIP3    H129931   6.782   3.522   2.890
 9996TIP3    H229932   6.643   3.547   2.945
 9997TIP3   OH229933   6.571   5.053   1.054
 9997TIP3    H129934   6.532   4.966   1.045
 9997TIP3    H229935   6.514   5.111   1.003
 9998TIP3   OH229936   1.699   5.920   4.318
 9998TIP3    H129937   1.760   5.865   4.366
 9998TIP3    H229938   1.627   5.935   4.380
 9999TIP3   OH229939   4.760   4.320   5.628
 9999TIP3    H129940   4.699   4.390   5.603
 9999TIP3    H229941   4.847   4.354   5.606
10000TIP3   OH229942   2.840   4.204   3.289
10000TIP3    H129943   2.812   4.179   3.377
10000TIP3    H229944   2.935   4.192   3.290
10001TIP3   OH229945   6.761   0.121   2.317
10001TIP3    H129946   6.759   0.163   2.230
10001TIP3    H229947   6.682   0.152   2.360
10002TIP3   OH229948   4.960   0.486   5.298
10002TIP3    H129949   4.912   0.475   5.216
10002TIP3    H229950   5.042   0.530   5.273
10003TIP3   OH229951   0.404   0.888   4.722
10003TIP3    H129952   0.309   0.892   4.733
10003TIP3    H229953   0.417   0.823   4.653
10004TIP3   OH229954   3.878   7.015   2.864
10004TIP3    H129955   3.863   7.077   2.793
10004TIP3    H229956   3.951   7.052   2.913
10005TIP3   OH229957   3.100   4.229   2.772
10005TIP3    H129958   3.034   4.296   2.786
10005TIP3    H229959   3.145   4.255   2.691
10006TIP3   OH229960   0.012   6.243   5.351
10006TIP3    H129961   0.078   6.268   5.286
10006TIP3    H229962   0.009   6.317   5.411
10007TIP3   OH229963   2.730   4.765   0.205
10007TIP3    H129964   2.811   4.811   0.227
10007TIP3    H229965   2.688   4.749   0.289
10008TIP3   OH229966   5.352   7.345   1.910
10008TIP3    H129967   5.437   7.306   1.890
10008TIP3    H229968   5.295   7.315   1.839
10009TIP3   OH229969   2.909   3.924   0.118
10009TIP3    H129970   2.853   3.861   0.163
10009TIP3    H229971   2.866   3.938   0.034
10010TIP3   OH229972   2.864   2.187   1.981
10010TIP3    H129973   2.919   2.247   2.032
10010TIP3    H229974   2.892   2.100   2.007
10011TIP3   OH229975   4.151   0.426   3.144
10011TIP3    H129976   4.223   0.487   3.125
10011TIP3    H229977   4.075   0.465   3.101
10012TIP3   OH229978   2.689   1.693   3.369
10012TIP3    H129979   2.784   1.697   3.367
10012TIP3    H229980   2.661   1.783   3.386
10013TIP3   OH229981   2.887   3.105   4.011
10013TIP3    H129982   2.919   3.190   3.982
10013TIP3    H229983   2.889   3.110   4.106
10014TIP3   OH229984   5.019   2.825   5.387
10014TIP3    H129985   4.967   2.763   5.438
10014TIP3    H229986   5.105   2.783   5.378
10015TIP3   OH229987   0.291   5.214   4.382
10015TIP3    H129988   0.202   5.219   4.346
10015TIP3    H229989   0.288   5.268   4.461
10016TIP3   OH229990   0.492   0.454   1.492
10016TIP3    H129991   0.535   0.433   1.409
10016TIP3    H229992   0.534   0.397   1.556
10017TIP3   OH229993   2.620   1.442   3.975
10017TIP3    H129994   2.662   1.356   3.982
10017TIP3    H229995   2.654   1.491   4.050
10018TIP3   OH229996   0.109   5.848   3.214
10018TIP3    H129997   0.024   5.819   3.181
10018TIP3    H229998   0.148   5.896   3.141
10019TIP3   OH229999   4.871   7.167   5.651
10019TIP3    H130000   4.950   7.216   5.632
10019TIP3    H230001   4.801   7.215   5.606
10020TIP3   OH230002   6.555   2.681   5.070
10020TIP3    H130003   6.510   2.710   4.990
10020TIP3    H230004   6.492   2.700   5.141
10021TIP3   OH230005   1.846   2.819   2.397
10021TIP3    H130006   1.833   2.728   2.422
10021TIP3    H230007   1.936   2.824   2.366
10022TIP3   OH230008   2.099   1.128   5.275
10022TIP3    H130009   2.029   1.144   5.339
10022TIP3    H230010   2.138   1.045   5.303
10023TIP3   OH230011   1.839   0.361   1.797
10023TIP3    H130012   1.890   0.328   1.723
10023TIP3    H230013   1.904   0.377   1.866
10024TIP3   OH230014   3.167   5.105   1.866
10024TIP3    H130015   3.254   5.086   1.831
10024TIP3    H230016   3.107   5.068   1.802
10025TIP3   OH230017   5.036   2.619   6.664
10025TIP3    H130018   5.019   2.526   6.651
10025TIP3    H230019   5.095   2.621   6.739
10026TIP3   OH230020   4.648   5.825   4.380
10026TIP3    H130021   4.630   5.907   4.425
10026TIP3    H230022   4.688   5.769   4.447
10027TIP3   OH230023   2.893   2.800   2.572
10027TIP3    H130024   2.840   2.728   2.538
10027TIP3    H230025   2.963   2.758   2.622
10028TIP3   OH230026   1.586   4.992   5.023
10028TIP3    H130027   1.664   5.045   5.006
10028TIP3    H230028   1.610   4.903   4.997
10029TIP3   OH230029   5.651   2.324   1.979
10029TIP3    H130030   5.730   2.340   1.926
10029TIP3    H230031   5.657   2.389   2.049
10030TIP3   OH230032   1.892   4.650   3.491
10030TIP3    H130033   1.802   4.621   3.506
10030TIP3    H230034   1.887   4.746   3.497
10031TIP3   OH230035   3.851   2.484   1.977
10031TIP3    H130036   3.852   2.523   1.889
10031TIP3    H230037   3.907   2.541   2.029
10032TIP3   OH230038   2.370   2.541   1.034
10032TIP3    H130039   2.327   2.580   0.958
10032TIP3    H230040   2.355   2.447   1.024
10033TIP3   OH230041   6.389   4.005   1.876
10033TIP3    H130042   6.372   3.947   1.802
10033TIP3    H230043   6.453   4.068   1.844
10034TIP3   OH230044   0.678   2.671   6.167
10034TIP3    H130045   0.585   2.657   6.184
10034TIP3    H230046   0.703   2.743   6.225
10035TIP3   OH230047   4.346   5.755   0.125
10035TIP3    H130048   4.421   5.791   0.078
10035TIP3    H230049   4.368   5.662   0.139
10036TIP3   OH230050   5.834   1.107   4.278
10036TIP3    H130051   5.786   1.174   4.229
10036TIP3    H230052   5.878   1.055   4.210
10037TIP3   OH230053   6.225   1.504   5.449
10037TIP3    H130054   6.148   1.502   5.505
10037TIP3    H230055   6.191   1.498   5.360
10038TIP3   OH230056   6.041   5.867   2.416
10038TIP3    H130057   6.009   5.957   2.415
10038TIP3    H230058   5.965   5.814   2.392
10039TIP3   OH230059   7.580   0.956   0.799
10039TIP3    H130060   7.595   1.006   0.879
10039TIP3    H230061   7.501   0.995   0.761
10040TIP3   OH230062   4.244   1.655   5.567
10040TIP3    H130063   4.162   1.606   5.554
10040TIP3    H230064   4.245   1.719   5.496
10041TIP3   OH230065   3.238   5.831   5.437
10041TIP3    H130066   3.275   5.918   5.423
10041TIP3    H230067   3.216   5.800   5.350
10042TIP3   OH230068   5.998   0.695   6.520
10042TIP3    H130069   5.911   0.686   6.558
10042TIP3    H230070   6.023   0.786   6.536
10043TIP3   OH230071   6.210   7.481   3.584
10043TIP3    H130072   6.279   7.487   3.651
10043TIP3    H230073   6.132   7.453   3.633
10044TIP3   OH230074   2.820   0.844   3.749
10044TIP3    H130075   2.835   0.814   3.660
10044TIP3    H230076   2.858   0.775   3.804
10045TIP3   OH230077   1.019   2.326   0.450
10045TIP3    H130078   1.001   2.346   0.358
10045TIP3    H230079   1.022   2.412   0.493
10046TIP3   OH230080   7.853   6.026   4.216
10046TIP3    H130081   7.890   5.977   4.142
10046TIP3    H230082   7.909   6.103   4.223
10047TIP3   OH230083   5.126   6.776   1.866
10047TIP3    H130084   5.060   6.744   1.804
10047TIP3    H230085   5.148   6.701   1.920
10048TIP3   OH230086   1.001   5.529   5.098
10048TIP3    H130087   0.930   5.465   5.110
10048TIP3    H230088   1.066   5.505   5.164
10049TIP3   OH230089   4.639   1.166   2.729
10049TIP3    H130090   4.662   1.242   2.783
10049TIP3    H230091   4.665   1.090   2.782
10050TIP3   OH230092   2.291   5.999   3.298
10050TIP3    H130093   2.371   6.038   3.335
10050TIP3    H230094   2.244   5.964   3.374
10051TIP3   OH230095   0.313   2.416   3.938
10051TIP3    H130096   0.273   2.354   3.999
10051TIP3    H230097   0.252   2.421   3.865
10052TIP3   OH230098   3.693   6.594   1.979
10052TIP3    H130099   3.611   6.621   2.020
10052TIP3    H230100   3.673   6.593   1.885
10053TIP3   OH230101   0.654   4.456   5.363
10053TIP3    H130102   0.680   4.536   5.409
10053TIP3    H230103   0.681   4.471   5.272
10054TIP3   OH230104   6.168   2.570   6.094
10054TIP3    H130105   6.106   2.643   6.101
10054TIP3    H230106   6.116   2.499   6.056
10055TIP3   OH230107   7.022   3.408   4.853
10055TIP3    H130108   7.010   3.443   4.765
10055TIP3    H230109   7.071   3.327   4.840
10056TIP3   OH230110   6.651   6.709   4.997
10056TIP3    H130111   6.697   6.628   4.978
10056TIP3    H230112   6.720   6.771   5.019
10057TIP3   OH230113   3.031   7.441   1.024
10057TIP3    H130114   3.101   7.393   0.982
10057TIP3    H230115   2.961   7.445   0.959
10058TIP3   OH230116   1.456   6.372   0.201
10058TIP3    H130117   1.486   6.283   0.184
10058TIP3    H230118   1.476   6.387   0.293
10059TIP3   OH230119   0.228   4.014   1.003
10059TIP3    H130120   0.282   3.942   1.033
10059TIP3    H230121   0.290   4.084   0.982
10060TIP3   OH230122   5.860   7.520   3.993
10060TIP3    H130123   5.776   7.511   4.037
10060TIP3    H230124   5.839   7.532   3.901
10061TIP3   OH230125   6.282   5.132   1.132
10061TIP3    H130126   6.338   5.205   1.105
10061TIP3    H230127   6.343   5.068   1.170
10062TIP3   OH230128   4.557   4.301   3.465
10062TIP3    H130129   4.497   4.233   3.434
10062TIP3    H230130   4.644   4.266   3.449
10063TIP3   OH230131   3.260   3.244   4.125
10063TIP3    H130132   3.243   3.223   4.033
10063TIP3    H230133   3.334   3.305   4.124
10064TIP3   OH230134   2.646   1.161   4.915
10064TIP3    H130135   2.627   1.189   4.825
10064TIP3    H230136   2.618   1.235   4.969
10065TIP3   OH230137   1.728   6.757   2.133
10065TIP3    H130138   1.741   6.822   2.202
10065TIP3    H230139   1.816   6.730   2.108
10066TIP3   OH230140   6.828   4.592   4.308
10066TIP3    H130141   6.742   4.553   4.322
10066TIP3    H230142   6.825   4.626   4.219
10067TIP3   OH230143   1.096   2.405   2.602
10067TIP3    H130144   1.095   2.319   2.560
10067TIP3    H230145   1.189   2.429   2.606
10068TIP3   OH230146   4.744   5.993   5.701
10068TIP3    H130147   4.759   6.082   5.732
10068TIP3    H230148   4.749   5.939   5.780
10069TIP3   OH230149   4.290   0.376   1.951
10069TIP3    H130150   4.308   0.432   2.026
10069TIP3    H230151   4.208   0.410   1.915
10070TIP3   OH230152   1.562   2.568   5.714
10070TIP3    H130153   1.489   2.567   5.652
10070TIP3    H230154   1.595   2.658   5.711
10071TIP3   OH230155   3.312   6.334   2.757
10071TIP3    H130156   3.219   6.309   2.755
10071TIP3    H230157   3.345   6.312   2.670
10072TIP3   OH230158   7.906   4.160   2.428
10072TIP3    H130159   7.931   4.148   2.520
10072TIP3    H230160   7.815   4.130   2.425
10073TIP3   OH230161   0.975   5.765   4.194
10073TIP3    H130162   0.901   5.726   4.147
10073TIP3    H230163   0.958   5.744   4.286
10074TIP3   OH230164   2.252   5.485   6.052
10074TIP3    H130165   2.240   5.393   6.027
10074TIP3    H230166   2.244   5.534   5.970
10075TIP3   OH230167   3.056   2.029   4.901
10075TIP3    H130168   3.017   1.965   4.841
10075TIP3    H230169   3.043   2.113   4.858
10076TIP3   OH230170   0.490   4.156   5.074
10076TIP3    H130171   0.507   4.107   4.993
10076TIP3    H230172   0.483   4.088   5.141
10077TIP3   OH230173   6.143   1.120   3.100
10077TIP3    H130174   6.100   1.205   3.104
10077TIP3    H230175   6.195   1.115   3.180
10078TIP3   OH230176   7.110   4.745   3.032
10078TIP3    H130177   7.201   4.771   3.013
10078TIP3    H230178   7.092   4.783   3.118
10079TIP3   OH230179   1.840   6.225   5.035
10079TIP3    H130180   1.830   6.293   4.968
10079TIP3    H230181   1.753   6.187   5.045
10080TIP3   OH230182   2.577   5.117   3.504
10080TIP3    H130183   2.500   5.159   3.543
10080TIP3    H230184   2.633   5.097   3.579
10081TIP3   OH230185   4.159   4.792   1.422
10081TIP3    H130186   4.073   4.833   1.424
10081TIP3    H230187   4.194   4.815   1.336
10082TIP3   OH230188   4.737   1.187   1.900
10082TIP3    H130189   4.730   1.092   1.907
10082TIP3    H230190   4.656   1.220   1.941
10083TIP3   OH230191   1.123   3.696   5.102
10083TIP3    H130192   1.155   3.767   5.157
10083TIP3    H230193   1.100   3.738   5.019
10084TIP3   OH230194   5.331   3.767   1.177
10084TIP3    H130195   5.335   3.829   1.250
10084TIP3    H230196   5.339   3.681   1.219
10085TIP3   OH230197   4.260   6.126   1.002
10085TIP3    H130198   4.280   6.056   1.064
10085TIP3    H230199   4.341   6.139   0.953
10086TIP3   OH230200   7.683   1.705   4.133
10086TIP3    H130201   7.635   1.768   4.187
10086TIP3    H230202   7.774   1.736   4.135
10087TIP3   OH230203   6.193   5.461   0.545
10087TIP3    H130204   6.170   5.425   0.459
10087TIP3    H230205   6.112   5.457   0.595
10088TIP3   OH230206   3.083   3.303   4.827
10088TIP3    H130207   3.004   3.329   4.875
10088TIP3    H230208   3.111   3.222   4.870
10089TIP3   OH230209   2.655   4.370   6.483
10089TIP3    H130210   2.682   4.462   6.493
10089TIP3    H230211   2.679   4.348   6.393
10090TIP3   OH230212   6.685   0.357   3.180
10090TIP3    H130213   6.703   0.266   3.156
10090TIP3    H230214   6.609   0.351   3.238
10091TIP3   OH230215   4.955   7.181   1.380
10091TIP3    H130216   4.990   7.267   1.401
10091TIP3    H230217   4.860   7.190   1.391
10092TIP3   OH230218   6.765   3.862   3.363
10092TIP3    H130219   6.712   3.846   3.441
10092TIP3    H230220   6.738   3.949   3.333
10093TIP3   OH230221   7.152   7.169   5.540
10093TIP3    H130222   7.203   7.227   5.485
10093TIP3    H230223   7.169   7.199   5.630
10094TIP3   OH230224   7.513   1.193   6.479
10094TIP3    H130225   7.566   1.165   6.553
10094TIP3    H230226   7.428   1.214   6.517
10095TIP3   OH230227   1.074   3.997   5.217
10095TIP3    H130228   1.041   4.010   5.306
10095TIP3    H230229   1.085   4.085   5.182
10096TIP3   OH230230   4.894   1.518   4.326
10096TIP3    H130231   4.980   1.485   4.300
10096TIP3    H230232   4.893   1.510   4.421
10097TIP3   OH230233   5.938   0.035   3.154
10097TIP3    H130234   5.844   0.025   3.173
10097TIP3    H230235   5.966  -0.052   3.126
10098TIP3   OH230236   2.849   7.177   2.339
10098TIP3    H130237   2.911   7.204   2.272
10098TIP3    H230238   2.821   7.260   2.380
10099TIP3   OH230239   3.035   3.093   0.350
10099TIP3    H130240   2.980   3.026   0.311
10099TIP3    H230241   3.125   3.062   0.335
10100TIP3   OH230242   5.076   1.320   2.151
10100TIP3    H130243   5.037   1.381   2.089
10100TIP3    H230244   5.100   1.244   2.099
10101TIP3   OH230245   8.209   2.025   1.283
10101TIP3    H130246   8.124   2.047   1.243
10101TIP3    H230247   8.271   2.082   1.238
10102TIP3   OH230248   6.528   5.992   0.529
10102TIP3    H130249   6.450   5.937   0.518
10102TIP3    H230250   6.601   5.931   0.526
10103TIP3   OH230251   6.619   3.361   4.038
10103TIP3    H130252   6.670   3.432   3.999
10103TIP3    H230253   6.681   3.288   4.046
10104TIP3   OH230254   6.907   1.715   6.468
10104TIP3    H130255   6.970   1.761   6.412
10104TIP3    H230256   6.948   1.713   6.554
10105TIP3   OH230257   1.510   2.366   4.683
10105TIP3    H130258   1.603   2.379   4.705
10105TIP3    H230259   1.498   2.271   4.691
10106TIP3   OH230260   6.915   7.595   1.099
10106TIP3    H130261   6.944   7.610   1.009
10106TIP3    H230262   6.831   7.551   1.090
10107TIP3   OH230263   3.249   5.185   6.392
10107TIP3    H130264   3.217   5.197   6.481
10107TIP3    H230265   3.259   5.091   6.382
10108TIP3   OH230266   0.044   5.182   4.668
10108TIP3    H130267   0.137   5.162   4.672
10108TIP3    H230268   0.040   5.273   4.637
10109TIP3   OH230269   3.821   6.300   4.120
10109TIP3    H130270   3.779   6.222   4.082
10109TIP3    H230271   3.901   6.267   4.160
10110TIP3   OH230272   1.692   7.244   0.853
10110TIP3    H130273   1.740   7.183   0.797
10110TIP3    H230274   1.612   7.263   0.805
10111TIP3   OH230275   0.896   1.377   3.180
10111TIP3    H130276   0.866   1.467   3.187
10111TIP3    H230277   0.979   1.375   3.229
10112TIP3   OH230278   7.647   3.714   1.742
10112TIP3    H130279   7.705   3.641   1.722
10112TIP3    H230280   7.628   3.754   1.657
10113TIP3   OH230281   6.488   3.795   2.673
10113TIP3    H130282   6.438   3.819   2.594
10113TIP3    H230283   6.579   3.790   2.643
10114TIP3   OH230284   7.528   7.088   2.618
10114TIP3    H130285   7.577   7.160   2.657
10114TIP3    H230286   7.501   7.034   2.692
10115TIP3   OH230287   1.584   0.811   2.970
10115TIP3    H130288   1.645   0.786   2.900
10115TIP3    H230289   1.559   0.901   2.948
10116TIP3   OH230290   2.203   2.960   1.571
10116TIP3    H130291   2.159   3.030   1.619
10116TIP3    H230292   2.175   2.879   1.614
10117TIP3   OH230293   0.039   1.124   2.437
10117TIP3    H130294   0.046   1.209   2.481
10117TIP3    H230295  -0.030   1.078   2.484
10118TIP3   OH230296   5.893   7.340   0.399
10118TIP3    H130297   5.861   7.404   0.335
10118TIP3    H230298   5.815   7.311   0.446
10119TIP3   OH230299   3.006   2.356   6.488
10119TIP3    H130300   3.067   2.314   6.427
10119TIP3    H230301   2.938   2.393   6.432
10120TIP3   OH230302   5.777   5.530   3.203
10120TIP3    H130303   5.716   5.550   3.274
10120TIP3    H230304   5.758   5.439   3.181
10121TIP3   OH230305   7.874   5.346   5.945
10121TIP3    H130306   7.783   5.367   5.926
10121TIP3    H230307   7.883   5.359   6.040
10122TIP3   OH230308   1.075   4.564   1.229
10122TIP3    H130309   1.039   4.579   1.142
10122TIP3    H230310   1.012   4.506   1.272
10123TIP3   OH230311   5.498   5.907   4.944
10123TIP3    H130312   5.491   5.819   4.982
10123TIP3    H230313   5.502   5.966   5.019
10124TIP3   OH230314   5.018   7.522   3.391
10124TIP3    H130315   5.005   7.583   3.463
10124TIP3    H230316   5.022   7.577   3.313
10125TIP3   OH230317   0.085   0.639   5.807
10125TIP3    H130318   0.124   0.699   5.870
10125TIP3    H230319   0.147   0.640   5.733
10126TIP3   OH230320   5.633   5.077   4.060
10126TIP3    H130321   5.622   5.066   3.966
10126TIP3    H230322   5.654   4.990   4.092
10127TIP3   OH230323   2.139   7.437   3.715
10127TIP3    H130324   2.168   7.463   3.627
10127TIP3    H230325   2.059   7.387   3.699
10128TIP3   OH230326   5.596   4.758   0.730
10128TIP3    H130327   5.626   4.848   0.714
10128TIP3    H230328   5.509   4.768   0.769
10129TIP3   OH230329   7.462   6.529   4.821
10129TIP3    H130330   7.391   6.532   4.758
10129TIP3    H230331   7.493   6.438   4.819
10130TIP3   OH230332   0.128   3.222   1.679
10130TIP3    H130333   0.065   3.257   1.742
10130TIP3    H230334   0.100   3.131   1.666
10131TIP3   OH230335   3.068   7.120   5.908
10131TIP3    H130336   3.028   7.104   5.993
10131TIP3    H230337   3.078   7.034   5.869
10132TIP3   OH230338   8.205   2.718   6.575
10132TIP3    H130339   8.138   2.760   6.522
10132TIP3    H230340   8.157   2.666   6.639
10133TIP3   OH230341   7.287   2.331   3.424
10133TIP3    H130342   7.362   2.291   3.380
10133TIP3    H230343   7.269   2.273   3.498
10134TIP3   OH230344   2.245   7.134   0.395
10134TIP3    H130345   2.227   7.113   0.303
10134TIP3    H230346   2.340   7.138   0.401
10135TIP3   OH230347   7.192   4.215   4.354
10135TIP3    H130348   7.148   4.300   4.359
10135TIP3    H230349   7.145   4.168   4.285
10136TIP3   OH230350   0.102   5.530   5.031
10136TIP3    H130351   0.147   5.524   5.115
10136TIP3    H230352   0.086   5.438   5.006
10137TIP3   OH230353   1.191   4.375   2.997
10137TIP3    H130354   1.236   4.457   2.980
10137TIP3    H230355   1.161   4.346   2.910
10138TIP3   OH230356   3.854   4.391   4.880
10138TIP3    H130357   3.845   4.335   4.803
10138TIP3    H230358   3.809   4.344   4.950
10139TIP3   OH230359   1.228   4.684   4.037
10139TIP3    H130360   1.225   4.708   3.944
10139TIP3    H230361   1.267   4.597   4.038
10140TIP3   OH230362   6.631   2.345   3.239
10140TIP3    H130363   6.678   2.319   3.318
10140TIP3    H230364   6.581   2.422   3.265
10141TIP3   OH230365   4.301   5.882   3.361
10141TIP3    H130366   4.277   5.790   3.348
10141TIP3    H230367   4.371   5.897   3.299
10142TIP3   OH230368   4.777   0.991   0.878
10142TIP3    H130369   4.739   0.904   0.863
10142TIP3    H230370   4.798   1.024   0.790
10143TIP3   OH230371   6.002   7.800   3.919
10143TIP3    H130372   6.013   7.855   3.841
10143TIP3    H230373   5.922   7.832   3.960
10144TIP3   OH230374   7.540   0.693   2.798
10144TIP3    H130375   7.528   0.775   2.750
10144TIP3    H230376   7.623   0.705   2.844
10145TIP3   OH230377   1.056   3.736   0.479
10145TIP3    H130378   0.966   3.757   0.453
10145TIP3    H230379   1.106   3.813   0.456
10146TIP3   OH230380   7.208   7.434   2.002
10146TIP3    H130381   7.303   7.441   2.009
10146TIP3    H230382   7.194   7.384   1.922
10147TIP3   OH230383   3.466   3.302   1.809
10147TIP3    H130384   3.386   3.250   1.799
10147TIP3    H230385   3.517   3.281   1.731
10148TIP3   OH230386   3.631   3.216   3.251
10148TIP3    H130387   3.575   3.193   3.325
10148TIP3    H230388   3.577   3.274   3.198
10149TIP3   OH230389   4.106   4.112   1.020
10149TIP3    H130390   4.105   4.143   1.110
10149TIP3    H230391   4.085   4.019   1.027
10150TIP3   OH230392   7.921   4.657   0.332
10150TIP3    H130393   7.897   4.585   0.391
10150TIP3    H230394   7.917   4.735   0.388
10151TIP3   OH230395   6.881   1.592   0.408
10151TIP3    H130396   6.827   1.668   0.385
10151TIP3    H230397   6.847   1.521   0.353
10152TIP3   OH230398   2.592   5.519   2.868
10152TIP3    H130399   2.595   5.584   2.938
10152TIP3    H230400   2.552   5.442   2.909
10153TIP3   OH230401   2.608   2.596   0.120
10153TIP3    H130402   2.696   2.566   0.099
10153TIP3    H230403   2.563   2.598   0.035
10154TIP3   OH230404   4.363   2.213   5.355
10154TIP3    H130405   4.309   2.276   5.307
10154TIP3    H230406   4.332   2.127   5.326
10155TIP3   OH230407   6.323   4.542   4.185
10155TIP3    H130408   6.293   4.627   4.216
10155TIP3    H230409   6.344   4.556   4.092
10156TIP3   OH230410   5.319   4.641   3.778
10156TIP3    H130411   5.262   4.569   3.806
10156TIP3    H230412   5.314   4.640   3.683
10157TIP3   OH230413   5.197   6.232   3.369
10157TIP3    H130414   5.282   6.202   3.335
10157TIP3    H230415   5.149   6.261   3.292
10158TIP3   OH230416   2.423   0.107   1.819
10158TIP3    H130417   2.501   0.102   1.873
10158TIP3    H230418   2.366   0.169   1.865
10159TIP3   OH230419   3.663   7.073   2.597
10159TIP3    H130420   3.682   6.981   2.576
10159TIP3    H230421   3.589   7.068   2.658
10160TIP3   OH230422   3.747   6.502   4.303
10160TIP3    H130423   3.658   6.538   4.302
10160TIP3    H230424   3.749   6.442   4.229
10161TIP3   OH230425   2.998   7.797   6.351
10161TIP3    H130426   3.045   7.718   6.376
10161TIP3    H230427   2.962   7.831   6.433
10162TIP3   OH230428   0.125   0.515   4.616
10162TIP3    H130429   0.200   0.469   4.652
10162TIP3    H230430   0.054   0.451   4.615
10163TIP3   OH230431   2.435   4.851   6.631
10163TIP3    H130432   2.405   4.810   6.550
10163TIP3    H230433   2.383   4.931   6.639
10164TIP3   OH230434   3.459   5.278   2.369
10164TIP3    H130435   3.468   5.336   2.444
10164TIP3    H230436   3.521   5.208   2.385
10165TIP3   OH230437   5.382   3.611   3.045
10165TIP3    H130438   5.416   3.546   2.985
10165TIP3    H230439   5.337   3.560   3.113
10166TIP3   OH230440   5.290   4.528   2.245
10166TIP3    H130441   5.367   4.538   2.300
10166TIP3    H230442   5.251   4.616   2.243
10167TIP3   OH230443   0.417   4.888   2.553
10167TIP3    H130444   0.336   4.839   2.542
10167TIP3    H230445   0.419   4.912   2.645
10168TIP3   OH230446   0.424   0.991   5.609
10168TIP3    H130447   0.414   0.916   5.668
10168TIP3    H230448   0.455   1.061   5.666
10169TIP3   OH230449   7.210   6.995   1.011
10169TIP3    H130450   7.235   7.002   0.919
10169TIP3    H230451   7.175   6.907   1.020
10170TIP3   OH230452   2.762   0.632   4.487
10170TIP3    H130453   2.838   0.579   4.510
10170TIP3    H230454   2.770   0.645   4.392
10171TIP3   OH230455   4.699   1.586   0.680
10171TIP3    H130456   4.621   1.638   0.661
10171TIP3    H230457   4.667   1.514   0.734
10172TIP3   OH230458   7.141   7.602   6.217
10172TIP3    H130459   7.158   7.644   6.302
10172TIP3    H230460   7.181   7.515   6.225
10173TIP3   OH230461   6.263   1.999   1.800
10173TIP3    H130462   6.233   1.919   1.842
10173TIP3    H230463   6.345   2.020   1.844
10174TIP3   OH230464   5.843   7.045   4.268
10174TIP3    H130465   5.845   6.964   4.218
10174TIP3    H230466   5.919   7.039   4.326
10175TIP3   OH230467   0.386   0.741   0.635
10175TIP3    H130468   0.473   0.703   0.624
10175TIP3    H230469   0.326   0.669   0.614
10176TIP3   OH230470   1.526   1.635   6.647
10176TIP3    H130471   1.527   1.702   6.578
10176TIP3    H230472   1.613   1.638   6.685
10177TIP3   OH230473   2.400   2.670   4.615
10177TIP3    H130474   2.436   2.751   4.651
10177TIP3    H230475   2.323   2.652   4.669
10178TIP3   OH230476   1.384   1.605   4.980
10178TIP3    H130477   1.353   1.611   4.890
10178TIP3    H230478   1.465   1.554   4.975
10179TIP3   OH230479   4.803   7.276   4.759
10179TIP3    H130480   4.874   7.327   4.798
10179TIP3    H230481   4.845   7.198   4.724
10180TIP3   OH230482   6.574   7.648   4.235
10180TIP3    H130483   6.505   7.581   4.229
10180TIP3    H230484   6.613   7.634   4.321
10181TIP3   OH230485   5.583   7.237   1.415
10181TIP3    H130486   5.649   7.251   1.348
10181TIP3    H230487   5.618   7.167   1.470
10182TIP3   OH230488   8.176   6.553   1.677
10182TIP3    H130489   8.236   6.500   1.625
10182TIP3    H230490   8.109   6.581   1.615
10183TIP3   OH230491   0.058   0.537   0.366
10183TIP3    H130492   0.058   0.617   0.313
10183TIP3    H230493  -0.024   0.493   0.343
10184TIP3   OH230494   0.060   6.757   1.480
10184TIP3    H130495   0.103   6.843   1.486
10184TIP3    H230496  -0.022   6.775   1.434
10185TIP3   OH230497   3.283   0.701   3.769
10185TIP3    H130498   3.316   0.633   3.826
10185TIP3    H230499   3.243   0.765   3.828
10186TIP3   OH230500   7.632   3.768   1.059
10186TIP3    H130501   7.564   3.764   1.127
10186TIP3    H230502   7.702   3.822   1.098
10187TIP3   OH230503   7.479   3.806   4.998
10187TIP3    H130504   7.419   3.859   4.945
10187TIP3    H230505   7.546   3.777   4.936
10188TIP3   OH230506   5.419   6.785   5.937
10188TIP3    H130507   5.335   6.780   5.983
10188TIP3    H230508   5.478   6.729   5.988
10189TIP3   OH230509   7.694   4.567   2.929
10189TIP3    H130510   7.689   4.603   3.017
10189TIP3    H230511   7.681   4.473   2.942
10190TIP3   OH230512   0.798   4.145   3.979
10190TIP3    H130513   0.731   4.205   3.945
10190TIP3    H230514   0.829   4.187   4.059
10191TIP3   OH230515   7.221   1.306   5.714
10191TIP3    H130516   7.229   1.218   5.750
10191TIP3    H230517   7.208   1.293   5.621
10192TIP3   OH230518   1.628   6.523   4.379
10192TIP3    H130519   1.584   6.517   4.464
10192TIP3    H230520   1.721   6.529   4.401
10193TIP3   OH230521   6.980   2.492   0.486
10193TIP3    H130522   6.991   2.441   0.566
10193TIP3    H230523   7.056   2.469   0.433
10194TIP3   OH230524   4.983   2.791   2.770
10194TIP3    H130525   4.891   2.800   2.796
10194TIP3    H230526   5.032   2.819   2.847
10195TIP3   OH230527   0.502   7.234   5.094
10195TIP3    H130528   0.589   7.227   5.054
10195TIP3    H230529   0.453   7.160   5.058
10196TIP3   OH230530   2.147   5.908   3.059
10196TIP3    H130531   2.192   5.964   3.123
10196TIP3    H230532   2.080   5.862   3.110
10197TIP3   OH230533   1.790   2.590   0.458
10197TIP3    H130534   1.759   2.536   0.531
10197TIP3    H230535   1.882   2.567   0.448
10198TIP3   OH230536   1.412   2.367   0.488
10198TIP3    H130537   1.504   2.356   0.512
10198TIP3    H230538   1.414   2.396   0.397
10199TIP3   OH230539   2.150   4.073   5.787
10199TIP3    H130540   2.214   4.048   5.854
10199TIP3    H230541   2.066   4.050   5.826
10200TIP3   OH230542   2.381   7.609   0.886
10200TIP3    H130543   2.466   7.583   0.920
10200TIP3    H230544   2.396   7.629   0.793
10201TIP3   OH230545   5.925   3.031   0.628
10201TIP3    H130546   5.878   3.109   0.599
10201TIP3    H230547   5.876   2.958   0.590
10202TIP3   OH230548   3.196   4.173   1.143
10202TIP3    H130549   3.144   4.094   1.126
10202TIP3    H230550   3.133   4.236   1.178
10203TIP3   OH230551   7.259   4.154   2.707
10203TIP3    H130552   7.242   4.096   2.781
10203TIP3    H230553   7.293   4.096   2.639
10204TIP3   OH230554   6.365   2.404   5.218
10204TIP3    H130555   6.353   2.448   5.134
10204TIP3    H230556   6.375   2.312   5.197
10205TIP3   OH230557   0.010   0.000   4.806
10205TIP3    H130558  -0.039   0.042   4.877
10205TIP3    H230559   0.042   0.073   4.753
10206TIP3   OH230560   3.012   2.673   4.974
10206TIP3    H130561   3.071   2.748   4.978
10206TIP3    H230562   3.066   2.599   5.005
10207TIP3   OH230563   1.693   3.220   5.349
10207TIP3    H130564   1.652   3.273   5.418
10207TIP3    H230565   1.697   3.132   5.386
10208TIP3   OH230566   7.537   5.974   0.187
10208TIP3    H130567   7.547   5.955   0.094
10208TIP3    H230568   7.444   5.961   0.204
10209TIP3   OH230569   7.664   6.779   2.647
10209TIP3    H130570   7.732   6.786   2.580
10209TIP3    H230571   7.699   6.829   2.721
10210TIP3   OH230572   0.113   4.158   1.639
10210TIP3    H130573   0.120   4.164   1.734
10210TIP3    H230574   0.035   4.105   1.623
10211TIP3   OH230575   0.934   2.462   1.767
10211TIP3    H130576   0.993   2.432   1.698
10211TIP3    H230577   0.896   2.543   1.733
10212TIP3   OH230578   2.644   1.672   0.895
10212TIP3    H130579   2.578   1.679   0.964
10212TIP3    H230580   2.721   1.717   0.930
10213TIP3   OH230581   3.902   0.230   1.496
10213TIP3    H130582   3.977   0.231   1.556
10213TIP3    H230583   3.932   0.278   1.419
10214TIP3   OH230584   3.289   1.433   1.861
10214TIP3    H130585   3.218   1.476   1.908
10214TIP3    H230586   3.353   1.411   1.929
10215TIP3   OH230587   6.387   2.700   5.903
10215TIP3    H130588   6.344   2.646   5.969
10215TIP3    H230589   6.338   2.683   5.823
10216TIP3   OH230590   1.380   0.983   0.407
10216TIP3    H130591   1.404   1.056   0.465
10216TIP3    H230592   1.379   0.907   0.465
10217TIP3   OH230593   2.812   0.883   6.025
10217TIP3    H130594   2.801   0.812   6.088
10217TIP3    H230595   2.788   0.845   5.940
10218TIP3   OH230596   6.725   2.237   3.473
10218TIP3    H130597   6.764   2.310   3.521
10218TIP3    H230598   6.673   2.191   3.539
10219TIP3   OH230599   3.986   1.443   4.166
10219TIP3    H130600   4.047   1.514   4.182
10219TIP3    H230601   3.966   1.448   4.073
10220TIP3   OH230602   2.977   5.924   0.320
10220TIP3    H130603   3.024   5.919   0.404
10220TIP3    H230604   2.900   5.977   0.340
10221TIP3   OH230605   7.486   7.421   4.903
10221TIP3    H130606   7.508   7.496   4.957
10221TIP3    H230607   7.404   7.387   4.940
10222TIP3   OH230608   1.794   3.071   5.591
10222TIP3    H130609   1.837   2.989   5.567
10222TIP3    H230610   1.864   3.137   5.582
10223TIP3   OH230611   0.129   6.281   5.701
10223TIP3    H130612   0.205   6.261   5.757
10223TIP3    H230613   0.066   6.212   5.722
10224TIP3   OH230614   8.332   6.166   4.070
10224TIP3    H130615   8.415   6.122   4.089
10224TIP3    H230616   8.273   6.096   4.043
10225TIP3   OH230617   2.746   3.313   5.256
10225TIP3    H130618   2.707   3.240   5.207
10225TIP3    H230619   2.824   3.276   5.297
10226TIP3   OH230620   3.593   4.788   3.357
10226TIP3    H130621   3.618   4.867   3.309
10226TIP3    H230622   3.675   4.740   3.369
10227TIP3   OH230623   0.324   5.872   2.448
10227TIP3    H130624   0.357   5.889   2.360
10227TIP3    H230625   0.403   5.865   2.502
10228TIP3   OH230626   1.526   1.639   6.138
10228TIP3    H130627   1.499   1.728   6.160
10228TIP3    H230628   1.460   1.609   6.076
10229TIP3   OH230629   6.360   2.285   4.152
10229TIP3    H130630   6.374   2.378   4.134
10229TIP3    H230631   6.316   2.284   4.237
10230TIP3   OH230632   4.366   1.965   3.840
10230TIP3    H130633   4.321   2.048   3.858
10230TIP3    H230634   4.342   1.908   3.913
10231TIP3   OH230635   8.033   5.001   3.720
10231TIP3    H130636   8.115   4.957   3.742
10231TIP3    H230637   7.989   5.014   3.804
10232TIP3   OH230638   1.027   6.247   4.000
10232TIP3    H130639   1.061   6.300   4.072
10232TIP3    H230640   1.103   6.231   3.944
10233TIP3   OH230641   3.051   2.352   2.115
10233TIP3    H130642   3.132   2.332   2.068
10233TIP3    H230643   3.069   2.324   2.205
10234TIP3   OH230644   2.060   0.077   6.085
10234TIP3    H130645   1.970   0.109   6.091
10234TIP3    H230646   2.058  -0.007   6.131
10235TIP3   OH230647   4.760   6.703   1.944
10235TIP3    H130648   4.781   6.669   2.030
10235TIP3    H230649   4.732   6.794   1.961
10236TIP3   OH230650   2.378   3.082   1.801
10236TIP3    H130651   2.301   3.092   1.746
10236TIP3    H230652   2.351   3.019   1.869
10237TIP3   OH230653   4.676   4.846   2.007
10237TIP3    H130654   4.715   4.767   2.044
10237TIP3    H230655   4.587   4.847   2.041
10238TIP3   OH230656   5.581   1.080   1.777
10238TIP3    H130657   5.536   1.014   1.831
10238TIP3    H230658   5.632   1.131   1.839
10239TIP3   OH230659   2.793   7.457   4.176
10239TIP3    H130660   2.790   7.363   4.159
10239TIP3    H230661   2.718   7.474   4.233
10240TIP3   OH230662   7.951   6.052   5.269
10240TIP3    H130663   8.024   5.998   5.296
10240TIP3    H230664   7.881   5.990   5.248
10241TIP3   OH230665   4.605   3.486   2.707
10241TIP3    H130666   4.530   3.535   2.673
10241TIP3    H230667   4.599   3.496   2.802
10242TIP3   OH230668   7.538   3.192   1.788
10242TIP3    H130669   7.451   3.226   1.767
10242TIP3    H230670   7.528   3.097   1.785
10243TIP3   OH230671   8.052   6.995   1.329
10243TIP3    H130672   8.019   7.018   1.242
10243TIP3    H230673   8.122   6.932   1.312
10244TIP3   OH230674   1.239   6.532   4.784
10244TIP3    H130675   1.152   6.564   4.810
10244TIP3    H230676   1.234   6.437   4.793
10245TIP3   OH230677   3.634   6.101   1.218
10245TIP3    H130678   3.581   6.092   1.139
10245TIP3    H230679   3.663   6.012   1.238
10246TIP3   OH230680   6.391   1.000   1.108
10246TIP3    H130681   6.450   1.053   1.162
10246TIP3    H230682   6.307   1.045   1.114
10247TIP3   OH230683   3.374   2.014   2.996
10247TIP3    H130684   3.316   1.989   3.068
10247TIP3    H230685   3.319   2.009   2.918
10248TIP3   OH230686   3.906   6.712   0.664
10248TIP3    H130687   3.860   6.756   0.736
10248TIP3    H230688   3.978   6.667   0.708
10249TIP3   OH230689   4.665   1.912   2.168
10249TIP3    H130690   4.626   1.974   2.229
10249TIP3    H230691   4.612   1.833   2.177
10250TIP3   OH230692   3.419   2.325   0.249
10250TIP3    H130693   3.483   2.392   0.226
10250TIP3    H230694   3.396   2.344   0.340
10251TIP3   OH230695   3.187   4.085   5.052
10251TIP3    H130696   3.116   4.094   4.989
10251TIP3    H230697   3.198   3.991   5.064
10252TIP3   OH230698   2.027   6.343   2.211
10252TIP3    H130699   2.121   6.355   2.197
10252TIP3    H230700   2.018   6.327   2.305
10253TIP3   OH230701   3.967   6.596   0.105
10253TIP3    H130702   4.053   6.556   0.111
10253TIP3    H230703   3.972   6.653   0.029
10254TIP3   OH230704   7.478   6.838   5.825
10254TIP3    H130705   7.470   6.923   5.782
10254TIP3    H230706   7.454   6.775   5.756
10255TIP3   OH230707   3.780   6.809   1.497
10255TIP3    H130708   3.828   6.890   1.511
10255TIP3    H230709   3.731   6.823   1.416
10256TIP3   OH230710   0.395   0.513   1.110
10256TIP3    H130711   0.320   0.571   1.124
10256TIP3    H230712   0.361   0.444   1.053
10257TIP3   OH230713   0.841   5.878   1.694
10257TIP3    H130714   0.901   5.830   1.637
10257TIP3    H230715   0.867   5.970   1.684
10258TIP3   OH230716   1.099   6.025   6.140
10258TIP3    H130717   1.126   5.938   6.171
10258TIP3    H230718   1.107   6.081   6.217
10259TIP3   OH230719   6.532   7.667   5.923
10259TIP3    H130720   6.527   7.601   5.993
10259TIP3    H230721   6.572   7.620   5.850
10260TIP3   OH230722   3.125   3.239   3.881
10260TIP3    H130723   3.139   3.218   3.789
10260TIP3    H230724   3.067   3.315   3.880
10261TIP3   OH230725   0.502   6.098   0.539
10261TIP3    H130726   0.431   6.057   0.588
10261TIP3    H230727   0.464   6.178   0.503
10262TIP3   OH230728   7.254   7.494   3.050
10262TIP3    H130729   7.248   7.578   3.096
10262TIP3    H230730   7.331   7.452   3.088
10263TIP3   OH230731   3.828   1.044   1.458
10263TIP3    H130732   3.835   1.121   1.400
10263TIP3    H230733   3.749   0.999   1.429
10264TIP3   OH230734   7.666   2.384   2.648
10264TIP3    H130735   7.695   2.383   2.739
10264TIP3    H230736   7.576   2.350   2.651
10265TIP3   OH230737   1.673   2.807   1.618
10265TIP3    H130738   1.751   2.761   1.588
10265TIP3    H230739   1.639   2.852   1.540
10266TIP3   OH230740   5.881   3.009   0.918
10266TIP3    H130741   5.802   3.057   0.946
10266TIP3    H230742   5.901   3.045   0.832
10267TIP3   OH230743   6.054   6.242   6.706
10267TIP3    H130744   6.075   6.152   6.683
10267TIP3    H230745   6.137   6.289   6.697
10268TIP3   OH230746   4.508   7.441   4.163
10268TIP3    H130747   4.597   7.468   4.188
10268TIP3    H230748   4.485   7.373   4.226
10269TIP3   OH230749   0.220   0.399   4.118
10269TIP3    H130750   0.283   0.355   4.175
10269TIP3    H230751   0.138   0.395   4.166
10270TIP3   OH230752   4.617   7.440   4.630
10270TIP3    H130753   4.545   7.388   4.666
10270TIP3    H230754   4.695   7.406   4.672
10271TIP3   OH230755   7.818   6.905   2.861
10271TIP3    H130756   7.852   6.835   2.916
10271TIP3    H230757   7.896   6.955   2.835
10272TIP3   OH230758   4.599   6.000   4.578
10272TIP3    H130759   4.559   6.085   4.562
10272TIP3    H230760   4.564   5.973   4.663
10273TIP3   OH230761   4.947   5.031   0.955
10273TIP3    H130762   4.862   4.987   0.957
10273TIP3    H230763   4.935   5.109   1.009
10274TIP3   OH230764   2.027   5.420   5.809
10274TIP3    H130765   2.111   5.374   5.802
10274TIP3    H230766   2.020   5.469   5.727
10275TIP3   OH230767   0.304   6.092   6.446
10275TIP3    H130768   0.333   6.156   6.511
10275TIP3    H230769   0.373   6.091   6.380
10276TIP3   OH230770   5.059   6.419   0.579
10276TIP3    H130771   5.106   6.419   0.495
10276TIP3    H230772   5.109   6.359   0.635
10277TIP3   OH230773   3.008   4.325   6.103
10277TIP3    H130774   3.077   4.299   6.165
10277TIP3    H230775   3.046   4.308   6.017
10278TIP3   OH230776   6.648   5.619   1.445
10278TIP3    H130777   6.599   5.584   1.370
10278TIP3    H230778   6.737   5.629   1.412
10279TIP3   OH230779   2.043   7.358   3.031
10279TIP3    H130780   1.998   7.286   2.986
10279TIP3    H230781   2.134   7.349   3.004
10280TIP3   OH230782   4.805   2.744   6.362
10280TIP3    H130783   4.794   2.782   6.449
10280TIP3    H230784   4.760   2.804   6.303
10281TIP3   OH230785   2.203   1.842   3.173
10281TIP3    H130786   2.129   1.826   3.231
10281TIP3    H230787   2.275   1.791   3.211
10282TIP3   OH230788   3.904   1.318   4.846
10282TIP3    H130789   3.985   1.365   4.865
10282TIP3    H230790   3.838   1.357   4.903
10283TIP3   OH230791   8.057   2.216   1.904
10283TIP3    H130792   8.129   2.255   1.953
10283TIP3    H230793   8.067   2.122   1.916
10284TIP3   OH230794   7.067   3.757   5.478
10284TIP3    H130795   7.034   3.841   5.449
10284TIP3    H230796   7.162   3.763   5.464
10285TIP3   OH230797   4.416   5.942   2.684
10285TIP3    H130798   4.472   5.866   2.697
10285TIP3    H230799   4.477   6.014   2.668
10286TIP3   OH230800   2.353   5.593   0.053
10286TIP3    H130801   2.444   5.621   0.052
10286TIP3    H230802   2.351   5.519   0.114
10287TIP3   OH230803   1.259   3.195   0.365
10287TIP3    H130804   1.213   3.202   0.448
10287TIP3    H230805   1.315   3.118   0.374
10288TIP3   OH230806   6.813   4.115   5.089
10288TIP3    H130807   6.737   4.161   5.055
10288TIP3    H230808   6.880   4.183   5.098
10289TIP3   OH230809   2.635   2.203   0.818
10289TIP3    H130810   2.673   2.290   0.826
10289TIP3    H230811   2.699   2.144   0.858
10290TIP3   OH230812   7.763   6.260   1.094
10290TIP3    H130813   7.814   6.181   1.115
10290TIP3    H230814   7.675   6.240   1.124
10291TIP3   OH230815   3.111   6.228   1.950
10291TIP3    H130816   3.049   6.199   2.017
10291TIP3    H230817   3.064   6.216   1.867
10292TIP3   OH230818   7.386   2.691   5.062
10292TIP3    H130819   7.482   2.691   5.069
10292TIP3    H230820   7.363   2.598   5.058
10293TIP3   OH230821   6.182   3.128   4.400
10293TIP3    H130822   6.170   3.061   4.467
10293TIP3    H230823   6.264   3.104   4.357
10294TIP3   OH230824   1.998   7.136   4.819
10294TIP3    H130825   1.989   7.122   4.913
10294TIP3    H230826   1.937   7.206   4.798
10295TIP3   OH230827   5.055   1.549   2.515
10295TIP3    H130828   5.139   1.518   2.481
10295TIP3    H230829   5.044   1.636   2.476
10296TIP3   OH230830   0.224   2.191   0.829
10296TIP3    H130831   0.301   2.156   0.784
10296TIP3    H230832   0.192   2.118   0.882
10297TIP3   OH230833   8.225   7.624   1.269
10297TIP3    H130834   8.167   7.585   1.333
10297TIP3    H230835   8.265   7.550   1.223
10298TIP3   OH230836   1.007   5.986   0.203
10298TIP3    H130837   0.994   5.895   0.175
10298TIP3    H230838   1.062   6.024   0.134
10299TIP3   OH230839   0.526   1.274   2.025
10299TIP3    H130840   0.549   1.222   2.102
10299TIP3    H230841   0.438   1.244   2.001
10300TIP3   OH230842   3.527   2.202   4.089
10300TIP3    H130843   3.523   2.298   4.092
10300TIP3    H230844   3.498   2.180   4.000
10301TIP3   OH230845   5.448   1.846   2.019
10301TIP3    H130846   5.420   1.809   2.103
10301TIP3    H230847   5.445   1.941   2.033
10302TIP3   OH230848   5.895   4.251   3.618
10302TIP3    H130849   5.951   4.230   3.542
10302TIP3    H230850   5.824   4.188   3.614
10303TIP3   OH230851   0.121   0.835   5.021
10303TIP3    H130852   0.132   0.854   4.928
10303TIP3    H230853   0.139   0.918   5.065
10304TIP3   OH230854   3.524   2.782   2.303
10304TIP3    H130855   3.575   2.771   2.223
10304TIP3    H230856   3.445   2.730   2.289
10305TIP3   OH230857   7.957   4.384   1.162
10305TIP3    H130858   8.001   4.400   1.246
10305TIP3    H230859   7.919   4.297   1.171
10306TIP3   OH230860   2.442   5.262   2.373
10306TIP3    H130861   2.395   5.201   2.316
10306TIP3    H230862   2.451   5.342   2.321
10307TIP3   OH230863   8.101   1.473   1.172
10307TIP3    H130864   8.028   1.535   1.167
10307TIP3    H230865   8.059   1.390   1.195
10308TIP3   OH230866   0.664   0.951   0.834
10308TIP3    H130867   0.676   1.042   0.807
10308TIP3    H230868   0.571   0.943   0.853
10309TIP3   OH230869   3.108   3.219   5.640
10309TIP3    H130870   3.016   3.194   5.639
10309TIP3    H230871   3.138   3.197   5.729
10310TIP3   OH230872   7.652   5.264   6.340
10310TIP3    H130873   7.636   5.190   6.399
10310TIP3    H230874   7.566   5.300   6.322
10311TIP3   OH230875   8.221   2.330   2.991
10311TIP3    H130876   8.231   2.416   2.949
10311TIP3    H230877   8.219   2.350   3.085
10312TIP3   OH230878   3.251   1.025   0.256
10312TIP3    H130879   3.177   1.037   0.196
10312TIP3    H230880   3.320   0.987   0.202
10313TIP3   OH230881   4.316   4.600   2.628
10313TIP3    H130882   4.271   4.676   2.591
10313TIP3    H230883   4.373   4.636   2.696
10314TIP3   OH230884   3.994   1.044   2.049
10314TIP3    H130885   4.026   1.087   2.129
10314TIP3    H230886   3.996   0.951   2.070
10315TIP3   OH230887   0.763   4.687   5.451
10315TIP3    H130888   0.688   4.742   5.426
10315TIP3    H230889   0.801   4.732   5.527
10316TIP3   OH230890   2.846   1.442   0.910
10316TIP3    H130891   2.810   1.529   0.923
10316TIP3    H230892   2.927   1.457   0.862
10317TIP3   OH230893   2.844   3.446   4.659
10317TIP3    H130894   2.912   3.435   4.594
10317TIP3    H230895   2.870   3.523   4.709
10318TIP3   OH230896   4.062   7.583   3.232
10318TIP3    H130897   4.119   7.593   3.309
10318TIP3    H230898   3.974   7.603   3.264
10319TIP3   OH230899   6.845   5.947   4.836
10319TIP3    H130900   6.800   5.872   4.797
10319TIP3    H230901   6.789   6.022   4.816
10320TIP3   OH230902   7.588   1.581   4.804
10320TIP3    H130903   7.529   1.596   4.878
10320TIP3    H230904   7.531   1.557   4.731
10321TIP3   OH230905   1.317   6.618   5.682
10321TIP3    H130906   1.297   6.669   5.603
10321TIP3    H230907   1.360   6.680   5.740
10322TIP3   OH230908   2.507   5.210   6.780
10322TIP3    H130909   2.478   5.176   6.695
10322TIP3    H230910   2.462   5.157   6.845
10323TIP3   OH230911   7.543   2.784   6.042
10323TIP3    H130912   7.532   2.699   6.000
10323TIP3    H230913   7.546   2.765   6.136
10324TIP3   OH230914   0.282   1.162   3.976
10324TIP3    H130915   0.249   1.250   3.993
10324TIP3    H230916   0.377   1.172   3.978
10325TIP3   OH230917   3.261   1.119   3.285
10325TIP3    H130918   3.248   1.211   3.306
10325TIP3    H230919   3.221   1.108   3.199
10326TIP3   OH230920   3.824   1.511   0.571
10326TIP3    H130921   3.747   1.471   0.530
10326TIP3    H230922   3.896   1.490   0.512
10327TIP3   OH230923   6.125   4.039   5.847
10327TIP3    H130924   6.196   3.975   5.838
10327TIP3    H230925   6.076   4.032   5.766
10328TIP3   OH230926   2.883   0.632   4.106
10328TIP3    H130927   2.894   0.544   4.070
10328TIP3    H230928   2.788   0.645   4.108
10329TIP3   OH230929   2.775   1.091   5.586
10329TIP3    H130930   2.706   1.143   5.629
10329TIP3    H230931   2.839   1.156   5.557
10330TIP3   OH230932   0.837   2.841   6.507
10330TIP3    H130933   0.862   2.910   6.446
10330TIP3    H230934   0.900   2.849   6.579
10331TIP3   OH230935   3.015   6.374   5.564
10331TIP3    H130936   3.022   6.351   5.471
10331TIP3    H230937   3.076   6.448   5.575
10332TIP3   OH230938   1.540   1.024   1.447
10332TIP3    H130939   1.611   0.972   1.484
10332TIP3    H230940   1.579   1.068   1.371
10333TIP3   OH230941   5.557   0.302   6.766
10333TIP3    H130942   5.473   0.264   6.791
10333TIP3    H230943   5.622   0.235   6.788
10334TIP3   OH230944   0.632   0.670   4.747
10334TIP3    H130945   0.576   0.625   4.811
10334TIP3    H230946   0.705   0.703   4.799
10335TIP3   OH230947   0.561   5.694   1.122
10335TIP3    H130948   0.593   5.604   1.131
10335TIP3    H230949   0.508   5.708   1.200
10336TIP3   OH230950   7.888   1.814   3.677
10336TIP3    H130951   7.876   1.845   3.766
10336TIP3    H230952   7.932   1.729   3.686
10337TIP3   OH230953   3.071   3.783   1.646
10337TIP3    H130954   3.071   3.876   1.667
10337TIP3    H230955   3.089   3.780   1.552
10338TIP3   OH230956   4.329   2.716   0.013
10338TIP3    H130957   4.375   2.793  -0.021
10338TIP3    H230958   4.359   2.708   0.104
10339TIP3   OH230959   7.084   6.195   5.601
10339TIP3    H130960   7.064   6.110   5.640
10339TIP3    H230961   7.031   6.257   5.651
10340TIP3   OH230962   1.902   1.011   1.003
10340TIP3    H130963   1.811   1.034   0.983
10340TIP3    H230964   1.918   1.050   1.089
10341TIP3   OH230965   3.268   3.511   4.870
10341TIP3    H130966   3.291   3.541   4.782
10341TIP3    H230967   3.192   3.455   4.856
10342TIP3   OH230968   2.818   0.855   4.280
10342TIP3    H130969   2.768   0.840   4.200
10342TIP3    H230970   2.906   0.876   4.249
10343TIP3   OH230971   4.050   5.214   2.638
10343TIP3    H130972   4.058   5.275   2.564
10343TIP3    H230973   4.127   5.232   2.692
10344TIP3   OH230974   4.528   0.689   6.763
10344TIP3    H130975   4.565   0.670   6.678
10344TIP3    H230976   4.529   0.606   6.810
10345TIP3   OH230977   7.622   7.441   4.011
10345TIP3    H130978   7.536   7.424   3.972
10345TIP3    H230979   7.682   7.445   3.937
10346TIP3   OH230980   2.373   6.506   4.666
10346TIP3    H130981   2.445   6.516   4.728
10346TIP3    H230982   2.379   6.415   4.636
10347TIP3   OH230983   4.804   7.346   2.656
10347TIP3    H130984   4.792   7.318   2.747
10347TIP3    H230985   4.872   7.413   2.661
10348TIP3   OH230986   6.184   4.979   1.853
10348TIP3    H130987   6.145   5.012   1.933
10348TIP3    H230988   6.179   4.884   1.861
10349TIP3   OH230989   7.259   1.055   5.843
10349TIP3    H130990   7.282   1.054   5.936
10349TIP3    H230991   7.170   1.021   5.840
10350TIP3   OH230992   4.139   6.625   0.751
10350TIP3    H130993   4.208   6.621   0.684
10350TIP3    H230994   4.147   6.543   0.799
10351TIP3   OH230995   0.026   2.692   4.071
10351TIP3    H130996   0.006   2.614   4.020
10351TIP3    H230997   0.020   2.664   4.162
10352TIP3   OH230998   7.100   2.056   5.508
10352TIP3    H130999   7.027   2.060   5.569
10352TIP3    H231000   7.078   2.119   5.439
10353TIP3   OH231001   2.578   1.482   2.015
10353TIP3    H131002   2.515   1.545   1.981
10353TIP3    H231003   2.546   1.461   2.103
10354TIP3   OH231004   3.490   2.999   0.415
10354TIP3    H131005   3.423   2.937   0.388
10354TIP3    H231006   3.537   2.955   0.486
10355TIP3   OH231007   5.595   3.077   5.964
10355TIP3    H131008   5.600   2.993   5.919
10355TIP3    H231009   5.551   3.058   6.046
10356TIP3   OH231010   2.324   4.631   5.153
10356TIP3    H131011   2.415   4.608   5.137
10356TIP3    H231012   2.275   4.551   5.134
10357TIP3   OH231013   3.320   2.088   5.645
10357TIP3    H131014   3.242   2.079   5.700
10357TIP3    H231015   3.309   2.023   5.577
10358TIP3   OH231016   5.913   1.889   0.770
10358TIP3    H131017   5.878   1.964   0.818
10358TIP3    H231018   5.937   1.925   0.684
10359TIP3   OH231019   2.056   4.355   1.394
10359TIP3    H131020   1.996   4.319   1.459
10359TIP3    H231021   2.041   4.302   1.316
10360TIP3   OH231022   3.356   0.047   2.038
10360TIP3    H131023   3.291  -0.012   1.998
10360TIP3    H231024   3.378   0.006   2.121
10361TIP3   OH231025   8.249   1.214   4.817
10361TIP3    H131026   8.236   1.119   4.825
10361TIP3    H231027   8.161   1.250   4.811
10362TIP3   OH231028   5.148   2.078   1.074
10362TIP3    H131029   5.129   1.984   1.084
10362TIP3    H231030   5.225   2.092   1.129
10363TIP3   OH231031   3.461   6.157   5.575
10363TIP3    H131032   3.450   6.079   5.629
10363TIP3    H231033   3.407   6.141   5.498
10364TIP3   OH231034   7.107   5.348   0.665
10364TIP3    H131035   7.032   5.376   0.718
10364TIP3    H231036   7.170   5.419   0.673
10365TIP3   OH231037   7.583   4.737   1.329
10365TIP3    H131038   7.629   4.762   1.249
10365TIP3    H231039   7.553   4.820   1.367
10366TIP3   OH231040   0.231   0.694   2.603
10366TIP3    H131041   0.196   0.738   2.526
10366TIP3    H231042   0.305   0.748   2.630
10367TIP3   OH231043   2.066   1.714   4.165
10367TIP3    H131044   2.049   1.639   4.223
10367TIP3    H231045   2.145   1.690   4.117
10368TIP3   OH231046   5.768   5.067   5.386
10368TIP3    H131047   5.673   5.059   5.393
10368TIP3    H231048   5.800   4.977   5.384
10369TIP3   OH231049   5.389   5.355   3.784
10369TIP3    H131050   5.456   5.287   3.781
10369TIP3    H231051   5.404   5.399   3.868
10370TIP3   OH231052   0.267   0.128   0.602
10370TIP3    H131053   0.250   0.191   0.532
10370TIP3    H231054   0.360   0.141   0.624
10371TIP3   OH231055   4.665   6.561   4.948
10371TIP3    H131056   4.577   6.585   4.978
10371TIP3    H231057   4.712   6.536   5.027
10372TIP3   OH231058   3.841   6.472   3.119
10372TIP3    H131059   3.870   6.559   3.144
10372TIP3    H231060   3.746   6.478   3.111
10373TIP3   OH231061   0.304   1.013   3.718
10373TIP3    H131062   0.277   1.060   3.797
10373TIP3    H231063   0.262   0.928   3.725
10374TIP3   OH231064   8.199   2.384   6.165
10374TIP3    H131065   8.187   2.290   6.175
10374TIP3    H231066   8.259   2.393   6.091
10375TIP3   OH231067   0.188   2.269   4.134
10375TIP3    H131068   0.232   2.210   4.195
10375TIP3    H231069   0.158   2.342   4.189
10376TIP3   OH231070   5.079   3.406   2.457
10376TIP3    H131071   5.009   3.420   2.520
10376TIP3    H231072   5.114   3.494   2.440
10377TIP3   OH231073   5.738   7.324   6.472
10377TIP3    H131074   5.721   7.412   6.437
10377TIP3    H231075   5.816   7.335   6.526
10378TIP3   OH231076   7.885   4.963   3.935
10378TIP3    H131077   7.828   4.888   3.922
10378TIP3    H231078   7.911   4.958   4.027
10379TIP3   OH231079   5.514   4.261   4.450
10379TIP3    H131080   5.570   4.317   4.396
10379TIP3    H231081   5.548   4.271   4.539
10380TIP3   OH231082   5.602   2.665   2.023
10380TIP3    H131083   5.583   2.579   2.061
10380TIP3    H231084   5.583   2.655   1.929
10381TIP3   OH231085   3.119   2.785   6.696
10381TIP3    H131086   3.151   2.717   6.756
10381TIP3    H231087   3.025   2.791   6.714
10382TIP3   OH231088   0.891   6.676   1.243
10382TIP3    H131089   0.891   6.581   1.228
10382TIP3    H231090   0.983   6.701   1.238
10383TIP3   OH231091   3.481   4.170   4.128
10383TIP3    H131092   3.412   4.115   4.163
10383TIP3    H231093   3.479   4.153   4.033
10384TIP3   OH231094   5.292   6.268   5.963
10384TIP3    H131095   5.362   6.212   5.997
10384TIP3    H231096   5.307   6.353   6.004
10385TIP3   OH231097   5.597   7.120   4.719
10385TIP3    H131098   5.578   7.210   4.744
10385TIP3    H231099   5.548   7.106   4.638
10386TIP3   OH231100   7.568   7.010   2.874
10386TIP3    H131101   7.655   6.976   2.851
10386TIP3    H231102   7.517   6.932   2.895
10387TIP3   OH231103   6.884   7.120   4.296
10387TIP3    H131104   6.918   7.165   4.373
10387TIP3    H231105   6.919   7.169   4.222
10388TIP3   OH231106   3.893   7.699   2.203
10388TIP3    H131107   3.916   7.748   2.281
10388TIP3    H231108   3.800   7.718   2.189
10389TIP3   OH231109   0.537   1.151   3.914
10389TIP3    H131110   0.507   1.066   3.880
10389TIP3    H231111   0.590   1.187   3.843
10390TIP3   OH231112   0.392   1.794   0.812
10390TIP3    H131113   0.484   1.797   0.784
10390TIP3    H231114   0.353   1.725   0.759
10391TIP3   OH231115   2.177   5.868   3.560
10391TIP3    H131116   2.096   5.821   3.580
10391TIP3    H231117   2.240   5.835   3.623
10392TIP3   OH231118   6.497   5.750   0.939
10392TIP3    H131119   6.569   5.757   0.876
10392TIP3    H231120   6.435   5.817   0.912
10393TIP3   OH231121   6.847   5.420   4.680
10393TIP3    H131122   6.780   5.352   4.673
10393TIP3    H231123   6.929   5.372   4.693
10394TIP3   OH231124   0.476   3.918   5.226
10394TIP3    H131125   0.436   3.848   5.174
10394TIP3    H231126   0.446   3.902   5.315
10395TIP3   OH231127   4.818   3.929   2.850
10395TIP3    H131128   4.728   3.929   2.818
10395TIP3    H231129   4.871   3.912   2.772
10396TIP3   OH231130   4.691   3.664   5.754
10396TIP3    H131131   4.598   3.687   5.752
10396TIP3    H231132   4.699   3.591   5.693
10397TIP3   OH231133   1.280   6.673   4.500
10397TIP3    H131134   1.321   6.682   4.586
10397TIP3    H231135   1.289   6.580   4.478
10398TIP3   OH231136   7.439   3.512   0.285
10398TIP3    H131137   7.376   3.450   0.249
10398TIP3    H231138   7.403   3.538   0.370
10399TIP3   OH231139   2.626   2.685   3.920
10399TIP3    H131140   2.621   2.779   3.938
10399TIP3    H231141   2.696   2.653   3.977
10400TIP3   OH231142   2.134   2.451   0.200
10400TIP3    H131143   2.107   2.381   0.260
10400TIP3    H231144   2.190   2.407   0.136
10401TIP3   OH231145   1.898   3.686   3.599
10401TIP3    H131146   1.936   3.673   3.513
10401TIP3    H231147   1.851   3.605   3.617
10402TIP3   OH231148   8.153   0.489   2.434
10402TIP3    H131149   8.183   0.472   2.345
10402TIP3    H231150   8.060   0.510   2.424
10403TIP3   OH231151   7.992   7.531   1.109
10403TIP3    H131152   8.086   7.521   1.092
10403TIP3    H231153   7.985   7.533   1.205
10404TIP3   OH231154   2.903   6.571   0.627
10404TIP3    H131155   2.822   6.620   0.610
10404TIP3    H231156   2.880   6.480   0.611
10405TIP3   OH231157   3.530   4.926   2.720
10405TIP3    H131158   3.472   4.855   2.749
10405TIP3    H231159   3.615   4.904   2.757
10406TIP3   OH231160   0.950   2.721   2.107
10406TIP3    H131161   0.893   2.658   2.063
10406TIP3    H231162   0.904   2.805   2.098
10407TIP3   OH231163   0.083   7.450   6.626
10407TIP3    H131164   0.129   7.366   6.621
10407TIP3    H231165   0.082   7.471   6.719
10408TIP3   OH231166   6.557   5.022   2.485
10408TIP3    H131167   6.512   4.996   2.405
10408TIP3    H231168   6.487   5.038   2.548
10409TIP3   OH231169   0.492   0.558   4.962
10409TIP3    H131170   0.532   0.499   5.025
10409TIP3    H231171   0.438   0.617   5.014
10410TIP3   OH231172   5.479   6.832   4.328
10410TIP3    H131173   5.538   6.893   4.285
10410TIP3    H231174   5.480   6.754   4.272
10411TIP3   OH231175   6.659   5.334   6.436
10411TIP3    H131176   6.660   5.372   6.524
10411TIP3    H231177   6.722   5.262   6.441
10412TIP3   OH231178   1.700   6.873   4.611
10412TIP3    H131179   1.704   6.862   4.516
10412TIP3    H231180   1.792   6.868   4.639
10413TIP3   OH231181   3.404   4.323   6.121
10413TIP3    H131182   3.341   4.308   6.192
10413TIP3    H231183   3.481   4.272   6.146
10414TIP3   OH231184   8.132   4.129   5.070
10414TIP3    H131185   8.039   4.141   5.053
10414TIP3    H231186   8.161   4.068   5.002
10415TIP3   OH231187   0.428   6.313   0.897
10415TIP3    H131188   0.363   6.374   0.931
10415TIP3    H231189   0.376   6.236   0.872
10416TIP3   OH231190   1.827   5.472   1.815
10416TIP3    H131191   1.809   5.535   1.745
10416TIP3    H231192   1.745   5.426   1.828
10417TIP3   OH231193   0.693   4.834   0.518
10417TIP3    H131194   0.706   4.862   0.427
10417TIP3    H231195   0.774   4.857   0.562
10418TIP3   OH231196   5.671   2.925   2.153
10418TIP3    H131197   5.658   2.845   2.102
10418TIP3    H231198   5.675   2.995   2.087
10419TIP3   OH231199   5.986   1.725   1.079
10419TIP3    H131200   5.903   1.747   1.036
10419TIP3    H231201   5.972   1.637   1.113
10420TIP3   OH231202   7.039   3.866   2.525
10420TIP3    H131203   7.105   3.881   2.459
10420TIP3    H231204   6.994   3.951   2.535
10421TIP3   OH231205   7.768   6.727   0.420
10421TIP3    H131206   7.685   6.700   0.381
10421TIP3    H231207   7.820   6.759   0.346
10422TIP3   OH231208   7.023   0.992   1.454
10422TIP3    H131209   6.985   1.062   1.507
10422TIP3    H231210   7.083   0.947   1.514
10423TIP3   OH231211   4.759   3.937   4.443
10423TIP3    H131212   4.848   3.901   4.446
10423TIP3    H231213   4.768   4.025   4.480
10424TIP3   OH231214   6.568   1.440   6.717
10424TIP3    H131215   6.656   1.475   6.732
10424TIP3    H231216   6.563   1.427   6.622
10425TIP3   OH231217   4.445   5.524   4.990
10425TIP3    H131218   4.362   5.571   4.982
10425TIP3    H231219   4.435   5.447   4.934
10426TIP3   OH231220   8.041   1.816   6.548
10426TIP3    H131221   8.044   1.753   6.620
10426TIP3    H231222   8.133   1.833   6.527
10427TIP3   OH231223   7.777   3.830   4.699
10427TIP3    H131224   7.823   3.898   4.651
10427TIP3    H231225   7.831   3.751   4.687
10428TIP3   OH231226   3.818   7.382   3.894
10428TIP3    H131227   3.877   7.323   3.942
10428TIP3    H231228   3.816   7.347   3.805
10429TIP3   OH231229   8.082   0.804   0.749
10429TIP3    H131230   8.012   0.868   0.735
10429TIP3    H231231   8.089   0.757   0.666
10430TIP3   OH231232   2.365   6.941   2.533
10430TIP3    H131233   2.423   6.871   2.562
10430TIP3    H231234   2.300   6.897   2.478
10431TIP3   OH231235   1.122   6.139   1.912
10431TIP3    H131236   1.085   6.095   1.836
10431TIP3    H231237   1.104   6.080   1.985
10432TIP3   OH231238   5.646   1.226   1.427
10432TIP3    H131239   5.657   1.246   1.334
10432TIP3    H231240   5.583   1.154   1.429
10433TIP3   OH231241   3.949   6.370   5.087
10433TIP3    H131242   3.912   6.331   5.167
10433TIP3    H231243   3.932   6.464   5.096
10434TIP3   OH231244   7.190   1.781   2.970
10434TIP3    H131245   7.104   1.761   3.006
10434TIP3    H231246   7.185   1.874   2.947
10435TIP3   OH231247   7.749   2.098   5.790
10435TIP3    H131248   7.705   2.157   5.851
10435TIP3    H231249   7.724   2.010   5.818
10436TIP3   OH231250   6.440   6.530   5.504
10436TIP3    H131251   6.352   6.540   5.466
10436TIP3    H231252   6.483   6.468   5.445
10437TIP3   OH231253   1.217   0.528   4.675
10437TIP3    H131254   1.170   0.464   4.728
10437TIP3    H231255   1.167   0.535   4.594
10438TIP3   OH231256   6.855   2.819   4.861
10438TIP3    H131257   6.846   2.889   4.925
10438TIP3    H231258   6.798   2.845   4.788
10439TIP3   OH231259   7.428   5.854   6.007
10439TIP3    H131260   7.368   5.783   5.983
10439TIP3    H231261   7.474   5.821   6.084
10440TIP3   OH231262   3.584   4.117   1.678
10440TIP3    H131263   3.497   4.106   1.717
10440TIP3    H231264   3.609   4.207   1.701
10441TIP3   OH231265   1.023   4.893   6.556
10441TIP3    H131266   1.060   4.823   6.504
10441TIP3    H231267   1.076   4.970   6.533
10442TIP3   OH231268   8.166   1.202   2.945
10442TIP3    H131269   8.200   1.161   3.024
10442TIP3    H231270   8.158   1.295   2.968
10443TIP3   OH231271   1.570   1.836   3.809
10443TIP3    H131272   1.488   1.805   3.848
10443TIP3    H231273   1.562   1.932   3.811
10444TIP3   OH231274   7.016   0.865   0.575
10444TIP3    H131275   7.083   0.837   0.513
10444TIP3    H231276   6.956   0.791   0.581
10445TIP3   OH231277   3.953   2.942   3.555
10445TIP3    H131278   3.953   2.982   3.468
10445TIP3    H231279   3.861   2.924   3.573
10446TIP3   OH231280   0.821   5.545   3.978
10446TIP3    H131281   0.859   5.459   3.959
10446TIP3    H231282   0.727   5.533   3.965
10447TIP3   OH231283   7.602   3.698   0.658
10447TIP3    H131284   7.677   3.684   0.715
10447TIP3    H231285   7.540   3.629   0.681
10448TIP3   OH231286   7.428   7.630   2.414
10448TIP3    H131287   7.352   7.586   2.375
10448TIP3    H231288   7.501   7.570   2.399
10449TIP3   OH231289   4.632   5.363   4.622
10449TIP3    H131290   4.609   5.313   4.544
10449TIP3    H231291   4.721   5.395   4.605
10450TIP3   OH231292   0.560   2.383   6.045
10450TIP3    H131293   0.501   2.331   6.100
10450TIP3    H231294   0.520   2.470   6.043
10451TIP3   OH231295   6.149   7.193   2.095
10451TIP3    H131296   6.187   7.107   2.117
10451TIP3    H231297   6.095   7.176   2.018
10452TIP3   OH231298   4.109   6.719   6.713
10452TIP3    H131299   4.014   6.727   6.721
10452TIP3    H231300   4.124   6.704   6.619
10453TIP3   OH231301   2.412   7.754   2.535
10453TIP3    H131302   2.428   7.663   2.561
10453TIP3    H231303   2.325   7.774   2.567
10454TIP3   OH231304   4.699   6.540   5.949
10454TIP3    H131305   4.791   6.517   5.938
10454TIP3    H231306   4.665   6.478   6.013
10455TIP3   OH231307   5.082   6.608   1.080
10455TIP3    H131308   5.125   6.584   1.162
10455TIP3    H231309   5.011   6.667   1.107
10456TIP3   OH231310   3.836   4.442   3.574
10456TIP3    H131311   3.756   4.389   3.578
10456TIP3    H231312   3.852   4.467   3.665
10457TIP3   OH231313   3.752   0.928   4.375
10457TIP3    H131314   3.814   0.987   4.418
10457TIP3    H231315   3.666   0.968   4.391
10458TIP3   OH231316   8.318   1.357   2.227
10458TIP3    H131317   8.329   1.375   2.320
10458TIP3    H231318   8.252   1.420   2.198
10459TIP3   OH231319   3.908   7.254   3.663
10459TIP3    H131320   3.846   7.244   3.591
10459TIP3    H231321   3.984   7.297   3.623
10460TIP3   OH231322   6.597   7.532   2.804
10460TIP3    H131323   6.513   7.520   2.849
10460TIP3    H231324   6.577   7.592   2.732
10461TIP3   OH231325   4.605   3.112   3.542
10461TIP3    H131326   4.564   3.028   3.523
10461TIP3    H231327   4.574   3.135   3.630
10462TIP3   OH231328   7.780   1.202   4.350
10462TIP3    H131329   7.818   1.275   4.300
10462TIP3    H231330   7.853   1.142   4.364
10463TIP3   OH231331   2.274   0.145   5.940
10463TIP3    H131332   2.193   0.120   5.984
10463TIP3    H231333   2.317   0.062   5.918
10464TIP3   OH231334   4.661   1.651   2.628
10464TIP3    H131335   4.643   1.558   2.621
10464TIP3    H231336   4.591   1.686   2.682
10465TIP3   OH231337   0.900   2.945   1.304
10465TIP3    H131338   0.971   2.978   1.248
10465TIP3    H231339   0.840   2.902   1.243
10466TIP3   OH231340   2.503   4.875   2.156
10466TIP3    H131341   2.546   4.949   2.199
10466TIP3    H231342   2.410   4.888   2.173
10467TIP3   OH231343   4.401   3.653   5.779
10467TIP3    H131344   4.415   3.570   5.825
10467TIP3    H231345   4.312   3.646   5.744
10468TIP3   OH231346   4.396   3.001   2.695
10468TIP3    H131347   4.325   3.028   2.753
10468TIP3    H231348   4.373   3.039   2.610
10469TIP3   OH231349   4.985   4.843   5.649
10469TIP3    H131350   4.964   4.932   5.678
10469TIP3    H231351   5.059   4.818   5.704
10470TIP3   OH231352   2.689   1.925   6.017
10470TIP3    H131353   2.649   1.852   6.064
10470TIP3    H231354   2.739   1.884   5.947
10471TIP3   OH231355   3.997   3.867   0.953
10471TIP3    H131356   4.022   3.775   0.942
10471TIP3    H231357   3.921   3.865   1.011
10472TIP3   OH231358   7.821   2.435   6.334
10472TIP3    H131359   7.767   2.373   6.385
10472TIP3    H231360   7.810   2.406   6.243
10473TIP3   OH231361   7.830   3.455   4.184
10473TIP3    H131362   7.900   3.439   4.248
10473TIP3    H231363   7.873   3.447   4.099
10474TIP3   OH231364   5.292   0.365   0.054
10474TIP3    H131365   5.260   0.276   0.037
10474TIP3    H231366   5.222   0.422   0.024
10475TIP3   OH231367   1.707   0.490   0.456
10475TIP3    H131368   1.719   0.425   0.526
10475TIP3    H231369   1.704   0.574   0.502
10476TIP3   OH231370   0.499   4.462   2.193
10476TIP3    H131371   0.449   4.543   2.207
10476TIP3    H231372   0.589   4.485   2.215
10477TIP3   OH231373   4.018   2.732   1.709
10477TIP3    H131374   4.074   2.748   1.784
10477TIP3    H231375   4.078   2.712   1.637
10478TIP3   OH231376   6.300   1.138   3.328
10478TIP3    H131377   6.380   1.089   3.308
10478TIP3    H231378   6.252   1.081   3.388
10479TIP3   OH231379   6.371   0.024   5.631
10479TIP3    H131380   6.360   0.063   5.718
10479TIP3    H231381   6.385   0.099   5.573
10480TIP3   OH231382   3.691   6.291   2.033
10480TIP3    H131383   3.720   6.202   2.015
10480TIP3    H231384   3.610   6.280   2.084
10481TIP3   OH231385   1.876   5.415   2.266
10481TIP3    H131386   1.790   5.391   2.230
10481TIP3    H231387   1.886   5.507   2.246
10482TIP3   OH231388   4.638   0.058   5.702
10482TIP3    H131389   4.682   0.143   5.704
10482TIP3    H231390   4.550   0.078   5.668
10483TIP3   OH231391   6.216   2.721   1.088
10483TIP3    H131392   6.181   2.757   1.170
10483TIP3    H231393   6.265   2.794   1.049
10484TIP3   OH231394   0.905   1.187   2.082
10484TIP3    H131395   0.855   1.222   2.008
10484TIP3    H231396   0.995   1.179   2.048
10485TIP3   OH231397   2.111   7.085   1.383
10485TIP3    H131398   2.163   7.005   1.380
10485TIP3    H231399   2.113   7.118   1.293
10486TIP3   OH231400   6.455   5.162   6.419
10486TIP3    H131401   6.393   5.151   6.347
10486TIP3    H231402   6.528   5.211   6.380
10487TIP3   OH231403   3.529   7.655   6.635
10487TIP3    H131404   3.596   7.588   6.648
10487TIP3    H231405   3.453   7.623   6.684
10488TIP3   OH231406   4.545   6.178   5.903
10488TIP3    H131407   4.638   6.167   5.919
10488TIP3    H231408   4.522   6.260   5.947
10489TIP3   OH231409   4.693   5.890   0.295
10489TIP3    H131410   4.719   5.801   0.270
10489TIP3    H231411   4.701   5.941   0.215
10490TIP3   OH231412   4.576   2.628   2.219
10490TIP3    H131413   4.569   2.533   2.230
10490TIP3    H231414   4.665   2.649   2.249
10491TIP3   OH231415   4.199   6.850   6.127
10491TIP3    H131416   4.219   6.846   6.034
10491TIP3    H231417   4.196   6.944   6.147
10492TIP3   OH231418   2.693   2.705   1.784
10492TIP3    H131419   2.626   2.773   1.787
10492TIP3    H231420   2.647   2.627   1.752
10493TIP3   OH231421   1.748   7.449   1.312
10493TIP3    H131422   1.677   7.484   1.257
10493TIP3    H231423   1.768   7.364   1.274
10494TIP3   OH231424   1.653   7.339   4.301
10494TIP3    H131425   1.703   7.390   4.365
10494TIP3    H231426   1.625   7.403   4.236
10495TIP3   OH231427   0.253   5.923   4.883
10495TIP3    H131428   0.321   5.959   4.827
10495TIP3    H231429   0.229   5.840   4.842
10496TIP3   OH231430   2.577   6.052   6.391
10496TIP3    H131431   2.654   5.996   6.395
10496TIP3    H231432   2.585   6.098   6.307
10497TIP3   OH231433   5.117   2.728   1.572
10497TIP3    H131434   5.029   2.719   1.535
10497TIP3    H231435   5.137   2.821   1.566
10498TIP3   OH231436   6.377   4.694   5.788
10498TIP3    H131437   6.285   4.710   5.807
10498TIP3    H231438   6.387   4.599   5.798
10499TIP3   OH231439   0.100   3.268   6.194
10499TIP3    H131440   0.055   3.332   6.139
10499TIP3    H231441   0.033   3.238   6.255
10500TIP3   OH231442   7.970   4.710   3.256
10500TIP3    H131443   7.881   4.702   3.221
10500TIP3    H231444   7.999   4.619   3.265
10501TIP3   OH231445   5.009   3.152   2.153
10501TIP3    H131446   4.918   3.153   2.183
10501TIP3    H231447   5.060   3.136   2.233
10502TIP3   OH231448   7.748   1.158   5.618
10502TIP3    H131449   7.690   1.226   5.654
10502TIP3    H231450   7.688   1.090   5.588
10503TIP3   OH231451   4.877   5.942   6.168
10503TIP3    H131452   4.943   5.913   6.232
10503TIP3    H231453   4.926   5.952   6.086
10504TIP3   OH231454   6.700   7.518   5.344
10504TIP3    H131455   6.718   7.443   5.287
10504TIP3    H231456   6.766   7.512   5.413
10505TIP3   OH231457   7.349   6.939   3.897
10505TIP3    H131458   7.323   6.975   3.812
10505TIP3    H231459   7.338   7.013   3.958
10506TIP3   OH231460   6.490   4.144   5.332
10506TIP3    H131461   6.444   4.134   5.415
10506TIP3    H231462   6.555   4.074   5.333
10507TIP3   OH231463   3.901   7.094   1.723
10507TIP3    H131464   3.864   7.041   1.794
10507TIP3    H231465   3.994   7.103   1.746
10508TIP3   OH231466   5.817   4.396   1.888
10508TIP3    H131467   5.877   4.364   1.955
10508TIP3    H231468   5.801   4.487   1.912
10509TIP3   OH231469   1.738   5.375   3.884
10509TIP3    H131470   1.693   5.459   3.872
10509TIP3    H231471   1.721   5.352   3.975
10510TIP3   OH231472   0.640   7.062   3.613
10510TIP3    H131473   0.736   7.070   3.614
10510TIP3    H231474   0.623   6.982   3.564
10511TIP3   OH231475   2.552   1.704   6.187
10511TIP3    H131476   2.465   1.744   6.189
10511TIP3    H231477   2.576   1.694   6.279
10512TIP3   OH231478   7.402   0.135   3.933
10512TIP3    H131479   7.488   0.176   3.945
10512TIP3    H231480   7.355   0.195   3.875
10513TIP3   OH231481   5.567   3.193   5.666
10513TIP3    H131482   5.518   3.152   5.595
10513TIP3    H231483   5.529   3.157   5.746
10514TIP3   OH231484   5.192   2.208   5.173
10514TIP3    H131485   5.230   2.288   5.210
10514TIP3    H231486   5.245   2.189   5.096
10515TIP3   OH231487   0.211   0.695   4.178
10515TIP3    H131488   0.253   0.611   4.163
10515TIP3    H231489   0.284   0.757   4.186
10516TIP3   OH231490   2.419   6.318   3.838
10516TIP3    H131491   2.382   6.345   3.922
10516TIP3    H231492   2.428   6.223   3.846
10517TIP3   OH231493   6.536   5.969   5.889
10517TIP3    H131494   6.487   5.887   5.880
10517TIP3    H231495   6.472   6.032   5.921
10518TIP3   OH231496   2.091   5.418   1.848
10518TIP3    H131497   1.997   5.435   1.846
10518TIP3    H231498   2.116   5.412   1.755
10519TIP3   OH231499   7.361   6.703   2.943
10519TIP3    H131500   7.335   6.781   2.992
10519TIP3    H231501   7.329   6.630   2.996
10520TIP3   OH231502   7.734   0.580   3.969
10520TIP3    H131503   7.754   0.557   3.879
10520TIP3    H231504   7.736   0.675   3.971
10521TIP3   OH231505   7.245   6.280   4.119
10521TIP3    H131506   7.216   6.191   4.133
10521TIP3    H231507   7.325   6.272   4.066
10522TIP3   OH231508   1.862   0.404   5.092
10522TIP3    H131509   1.929   0.450   5.041
10522TIP3    H231510   1.791   0.468   5.102
10523TIP3   OH231511   2.065   1.106   3.391
10523TIP3    H131512   2.092   1.015   3.401
10523TIP3    H231513   1.984   1.112   3.441
10524TIP3   OH231514   2.464   5.279   5.711
10524TIP3    H131515   2.558   5.296   5.703
10524TIP3    H231516   2.433   5.276   5.620
10525TIP3   OH231517   7.990   4.094   5.692
10525TIP3    H131518   7.971   4.160   5.625
10525TIP3    H231519   8.037   4.026   5.645
10526TIP3   OH231520   5.747   6.794   6.705
10526TIP3    H131521   5.835   6.790   6.743
10526TIP3    H231522   5.712   6.706   6.716
10527TIP3   OH231523   4.205   4.823   6.130
10527TIP3    H131524   4.186   4.869   6.212
10527TIP3    H231525   4.287   4.776   6.148
10528TIP3   OH231526   6.324   4.605   6.707
10528TIP3    H131527   6.370   4.521   6.711
10528TIP3    H231528   6.240   4.588   6.749
10529TIP3   OH231529   5.369   0.364   2.509
10529TIP3    H131530   5.407   0.299   2.567
10529TIP3    H231531   5.290   0.323   2.474
10530TIP3   OH231532   2.253   4.436   3.710
10530TIP3    H131533   2.289   4.363   3.760
10530TIP3    H231534   2.323   4.461   3.650
10531TIP3   OH231535   0.485   2.895   6.009
10531TIP3    H131536   0.403   2.928   5.974
10531TIP3    H231537   0.494   2.938   6.094
10532TIP3   OH231538   2.776   0.685   6.220
10532TIP3    H131539   2.722   0.622   6.173
10532TIP3    H231540   2.737   0.689   6.307
10533TIP3   OH231541   5.278   6.908   2.342
10533TIP3    H131542   5.209   6.876   2.283
10533TIP3    H231543   5.239   6.984   2.386
10534TIP3   OH231544   0.552   7.385   2.445
10534TIP3    H131545   0.585   7.296   2.432
10534TIP3    H231546   0.542   7.419   2.356
10535TIP3   OH231547   5.248   1.021   6.344
10535TIP3    H131548   5.329   1.039   6.392
10535TIP3    H231549   5.181   1.067   6.393
10536TIP3   OH231550   0.648   3.291   0.775
10536TIP3    H131551   0.726   3.244   0.747
10536TIP3    H231552   0.576   3.250   0.728
10537TIP3   OH231553   4.985   4.627   6.685
10537TIP3    H131554   5.053   4.576   6.729
10537TIP3    H231555   4.942   4.676   6.755
10538TIP3   OH231556   4.429   0.995   2.672
10538TIP3    H131557   4.488   1.069   2.687
10538TIP3    H231558   4.362   1.004   2.740
10539TIP3   OH231559   1.247   2.920   0.493
10539TIP3    H131560   1.338   2.947   0.475
10539TIP3    H231561   1.213   2.894   0.407
10540TIP3   OH231562   7.948   7.841   2.718
10540TIP3    H131563   7.966   7.853   2.811
10540TIP3    H231564   7.985   7.755   2.698
10541TIP3   OH231565   4.833   7.026   3.994
10541TIP3    H131566   4.799   7.021   3.905
10541TIP3    H231567   4.927   7.007   3.985
10542TIP3   OH231568   0.043   0.565   5.478
10542TIP3    H131569   0.126   0.566   5.525
10542TIP3    H231570  -0.014   0.508   5.531
10543TIP3   OH231571   6.720   0.052   0.175
10543TIP3    H131572   6.748  -0.013   0.239
10543TIP3    H231573   6.706   0.002   0.094
10544TIP3   OH231574   4.968   4.175   5.185
10544TIP3    H131575   4.937   4.098   5.231
10544TIP3    H231576   4.909   4.245   5.213
10545TIP3   OH231577   0.255   7.782   2.177
10545TIP3    H131578   0.271   7.691   2.200
10545TIP3    H231579   0.199   7.816   2.247
10546TIP3   OH231580   7.553   0.194   6.208
10546TIP3    H131581   7.607   0.271   6.227
10546TIP3    H231582   7.574   0.132   6.278
10547TIP3   OH231583   4.682   0.654   1.974
10547TIP3    H131584   4.666   0.613   2.059
10547TIP3    H231585   4.668   0.583   1.911
10548TIP3   OH231586   2.727   5.484   2.597
10548TIP3    H131587   2.653   5.514   2.649
10548TIP3    H231588   2.785   5.441   2.660
10549TIP3   OH231589   7.254   4.083   0.188
10549TIP3    H131590   7.241   4.027   0.265
10549TIP3    H231591   7.346   4.111   0.194
10550TIP3   OH231592   8.000   6.810   4.237
10550TIP3    H131593   7.911   6.808   4.273
10550TIP3    H231594   8.017   6.903   4.220
10551TIP3   OH231595   0.752   7.034   4.057
10551TIP3    H131596   0.770   7.117   4.101
10551TIP3    H231597   0.703   6.983   4.122
10552TIP3   OH231598   4.370   3.744   3.147
10552TIP3    H131599   4.321   3.662   3.155
10552TIP3    H231600   4.313   3.811   3.184
10553TIP3   OH231601   3.970   3.934   0.233
10553TIP3    H131602   4.005   3.864   0.287
10553TIP3    H231603   3.889   3.960   0.277
10554TIP3   OH231604   6.737   6.431   4.944
10554TIP3    H131605   6.721   6.397   4.856
10554TIP3    H231606   6.828   6.409   4.961
10555TIP3   OH231607   6.630   6.429   6.318
10555TIP3    H131608   6.725   6.423   6.330
10555TIP3    H231609   6.608   6.519   6.344
10556TIP3   OH231610  -0.003   7.125   3.028
10556TIP3    H131611  -0.005   7.070   3.106
10556TIP3    H231612  -0.089   7.112   2.987
10557TIP3   OH231613   0.623   6.009   4.637
10557TIP3    H131614   0.560   6.059   4.690
10557TIP3    H231615   0.598   6.026   4.547
10558TIP3   OH231616   3.079   0.626   0.237
10558TIP3    H131617   3.052   0.592   0.151
10558TIP3    H231618   3.006   0.681   0.265
10559TIP3   OH231619   7.695   3.868   3.840
10559TIP3    H131620   7.605   3.836   3.832
10559TIP3    H231621   7.700   3.942   3.780
10560TIP3   OH231622   4.153   2.746   5.959
10560TIP3    H131623   4.108   2.737   5.875
10560TIP3    H231624   4.138   2.836   5.985
10561TIP3   OH231625   5.155   4.334   4.699
10561TIP3    H131626   5.105   4.316   4.779
10561TIP3    H231627   5.153   4.429   4.691
10562TIP3   OH231628   1.251   1.001   4.945
10562TIP3    H131629   1.226   1.069   4.881
10562TIP3    H231630   1.168   0.966   4.975
10563TIP3   OH231631   0.922   0.069   4.653
10563TIP3    H131632   0.939  -0.009   4.601
10563TIP3    H231633   0.991   0.130   4.629
10564TIP3   OH231634   6.664   4.459   5.606
10564TIP3    H131635   6.662   4.374   5.650
10564TIP3    H231636   6.639   4.439   5.516
10565TIP3   OH231637   6.400   2.509   4.543
10565TIP3    H131638   6.467   2.506   4.474
10565TIP3    H231639   6.345   2.583   4.519
10566TIP3   OH231640   0.823   5.676   3.613
10566TIP3    H131641   0.912   5.641   3.606
10566TIP3    H231642   0.774   5.607   3.658
10567TIP3   OH231643   2.110   3.974   6.630
10567TIP3    H131644   2.141   4.040   6.691
10567TIP3    H231645   2.079   4.024   6.554
10568TIP3   OH231646   6.206   7.002   4.569
10568TIP3    H131647   6.280   7.053   4.602
10568TIP3    H231648   6.207   6.922   4.623
10569TIP3   OH231649   2.614   5.649   3.836
10569TIP3    H131650   2.657   5.708   3.897
10569TIP3    H231651   2.601   5.701   3.756
10570TIP3   OH231652   7.529   2.785   2.161
10570TIP3    H131653   7.535   2.698   2.121
10570TIP3    H231654   7.606   2.790   2.218
10571TIP3   OH231655   5.208   7.006   4.775
10571TIP3    H131656   5.268   7.015   4.850
10571TIP3    H231657   5.247   7.061   4.707
10572TIP3   OH231658   0.789   6.511   4.394
10572TIP3    H131659   0.819   6.433   4.348
10572TIP3    H231660   0.869   6.546   4.435
10573TIP3   OH231661   0.532   0.899   3.604
10573TIP3    H131662   0.594   0.951   3.553
10573TIP3    H231663   0.464   0.962   3.630
10574TIP3   OH231664   3.991   2.429   1.705
10574TIP3    H131665   3.996   2.367   1.632
10574TIP3    H231666   3.986   2.515   1.664
10575TIP3   OH231667   3.248   2.983   3.475
10575TIP3    H131668   3.340   2.960   3.461
10575TIP3    H231669   3.232   2.960   3.567
10576TIP3   OH231670   6.938   6.133   1.244
10576TIP3    H131671   7.015   6.082   1.217
10576TIP3    H231672   6.936   6.123   1.339
10577TIP3   OH231673   4.209   0.808   4.996
10577TIP3    H131674   4.237   0.852   5.076
10577TIP3    H231675   4.273   0.836   4.930
10578TIP3   OH231676   5.404   4.158   2.138
10578TIP3    H131677   5.309   4.156   2.148
10578TIP3    H231678   5.423   4.091   2.072
10579TIP3   OH231679   1.870   5.887   1.536
10579TIP3    H131680   1.866   5.792   1.524
10579TIP3    H231681   1.948   5.901   1.590
10580TIP3   OH231682   5.648   3.533   5.904
10580TIP3    H131683   5.567   3.535   5.854
10580TIP3    H231684   5.623   3.502   5.991
10581TIP3   OH231685   0.485   1.954   3.686
10581TIP3    H131686   0.415   1.960   3.751
10581TIP3    H231687   0.563   1.985   3.732
10582TIP3   OH231688   2.568   6.994   1.726
10582TIP3    H131689   2.605   6.952   1.648
10582TIP3    H231690   2.614   7.077   1.733
10583TIP3   OH231691   1.086   2.849   1.778
10583TIP3    H131692   0.994   2.822   1.775
10583TIP3    H231693   1.129   2.794   1.713
10584TIP3   OH231694   6.841   7.014   3.167
10584TIP3    H131695   6.907   7.083   3.177
10584TIP3    H231696   6.797   7.036   3.085
10585TIP3   OH231697   6.431   5.707   2.807
10585TIP3    H131698   6.486   5.783   2.827
10585TIP3    H231699   6.355   5.716   2.864
10586TIP3   OH231700   1.000   1.959   6.791
10586TIP3    H131701   1.024   2.051   6.784
10586TIP3    H231702   0.966   1.950   6.880
10587TIP3   OH231703   3.110   5.211   1.073
10587TIP3    H131704   3.170   5.241   1.004
10587TIP3    H231705   3.059   5.142   1.031
10588TIP3   OH231706   0.778   2.065   1.949
10588TIP3    H131707   0.763   1.995   1.886
10588TIP3    H231708   0.871   2.084   1.943
10589TIP3   OH231709   4.561   6.737   6.137
10589TIP3    H131710   4.555   6.735   6.041
10589TIP3    H231711   4.496   6.673   6.166
10590TIP3   OH231712   3.592   2.966   6.713
10590TIP3    H131713   3.507   2.940   6.749
10590TIP3    H231714   3.591   3.062   6.718
10591TIP3   OH231715   0.827   5.590   2.313
10591TIP3    H131716   0.882   5.658   2.274
10591TIP3    H231717   0.739   5.609   2.280
10592TIP3   OH231718   2.644   4.000   4.428
10592TIP3    H131719   2.649   4.085   4.473
10592TIP3    H231720   2.565   4.007   4.374
10593TIP3   OH231721   3.245   0.060   3.661
10593TIP3    H131722   3.264  -0.016   3.606
10593TIP3    H231723   3.324   0.072   3.714
10594TIP3   OH231724   2.344   6.592   5.864
10594TIP3    H131725   2.273   6.656   5.853
10594TIP3    H231726   2.394   6.625   5.938
10595TIP3   OH231727   7.819   2.622   3.414
10595TIP3    H131728   7.848   2.559   3.480
10595TIP3    H231729   7.777   2.569   3.347
10596TIP3   OH231730   5.628   6.442   6.491
10596TIP3    H131731   5.722   6.452   6.501
10596TIP3    H231732   5.616   6.351   6.465
10597TIP3   OH231733   3.147   7.266   3.254
10597TIP3    H131734   3.238   7.239   3.242
10597TIP3    H231735   3.150   7.333   3.322
10598TIP3   OH231736   2.237   7.758   2.212
10598TIP3    H131737   2.279   7.675   2.192
10598TIP3    H231738   2.144   7.740   2.206
10599TIP3   OH231739   3.305   1.214   4.067
10599TIP3    H131740   3.400   1.220   4.070
10599TIP3    H231741   3.279   1.202   4.158
10600TIP3   OH231742   5.421   2.454   1.813
10600TIP3    H131743   5.479   2.401   1.867
10600TIP3    H231744   5.476   2.526   1.782
10601TIP3   OH231745   2.386   1.044   4.041
10601TIP3    H131746   2.462   1.007   3.998
10601TIP3    H231747   2.419   1.122   4.086
10602TIP3   OH231748   5.624   1.725   0.056
10602TIP3    H131749   5.678   1.695  -0.017
10602TIP3    H231750   5.549   1.767   0.014
10603TIP3   OH231751   5.849   1.505   3.257
10603TIP3    H131752   5.782   1.443   3.287
10603TIP3    H231753   5.839   1.581   3.315
10604TIP3   OH231754   6.100   4.688   6.033
10604TIP3    H131755   6.065   4.691   5.944
10604TIP3    H231756   6.082   4.598   6.062
10605TIP3   OH231757   0.238   4.955   5.650
10605TIP3    H131758   0.310   4.893   5.642
10605TIP3    H231759   0.261   5.009   5.726
10606TIP3   OH231760   3.797   4.618   4.101
10606TIP3    H131761   3.791   4.697   4.048
10606TIP3    H231762   3.707   4.585   4.105
10607TIP3   OH231763   2.478   7.043   0.663
10607TIP3    H131764   2.475   7.047   0.568
10607TIP3    H231765   2.562   7.000   0.682
10608TIP3   OH231766   1.914   3.943   1.690
10608TIP3    H131767   1.996   3.944   1.641
10608TIP3    H231768   1.846   3.956   1.624
10609TIP3   OH231769   5.664   2.672   5.521
10609TIP3    H131770   5.730   2.671   5.451
10609TIP3    H231771   5.679   2.590   5.569
10610TIP3   OH231772   1.775   4.525   1.742
10610TIP3    H131773   1.793   4.611   1.781
10610TIP3    H231774   1.797   4.462   1.810
10611TIP3   OH231775   8.237   2.378   4.579
10611TIP3    H131776   8.192   2.392   4.496
10611TIP3    H231777   8.308   2.442   4.579
10612TIP3   OH231778   1.547   7.026   2.592
10612TIP3    H131779   1.519   6.965   2.523
10612TIP3    H231780   1.465   7.054   2.634
10613TIP3   OH231781   5.176   5.590   1.700
10613TIP3    H131782   5.101   5.602   1.642
10613TIP3    H231783   5.226   5.671   1.691
10614TIP3   OH231784   4.110   5.420   4.656
10614TIP3    H131785   4.203   5.408   4.670
10614TIP3    H231786   4.100   5.428   4.562
10615TIP3   OH231787   4.542   7.000   4.647
10615TIP3    H131788   4.459   6.960   4.623
10615TIP3    H231789   4.567   6.957   4.729
10616TIP3   OH231790   4.513   4.779   4.385
10616TIP3    H131791   4.607   4.788   4.399
10616TIP3    H231792   4.477   4.865   4.407
10617TIP3   OH231793   8.190   6.023   6.120
10617TIP3    H131794   8.265   6.028   6.179
10617TIP3    H231795   8.122   6.075   6.162
10618TIP3   OH231796   2.198   4.716   1.919
10618TIP3    H131797   2.260   4.784   1.947
10618TIP3    H231798   2.146   4.698   1.997
10619TIP3   OH231799   0.652   1.478   2.195
10619TIP3    H131800   0.640   1.573   2.186
10619TIP3    H231801   0.632   1.443   2.109
10620TIP3   OH231802   0.415   5.973   2.854
10620TIP3    H131803   0.418   5.889   2.809
10620TIP3    H231804   0.495   6.018   2.827
10621TIP3   OH231805   1.953   1.258   1.248
10621TIP3    H131806   2.014   1.218   1.311
10621TIP3    H231807   1.867   1.230   1.278
10622TIP3   OH231808   7.446   1.994   6.031
10622TIP3    H131809   7.438   2.089   6.036
10622TIP3    H231810   7.430   1.964   6.120
10623TIP3   OH231811   5.494   4.879   3.386
10623TIP3    H131812   5.459   4.842   3.304
10623TIP3    H231813   5.522   4.968   3.362
10624TIP3   OH231814   8.283   1.242   5.217
10624TIP3    H131815   8.194   1.220   5.188
10624TIP3    H231816   8.293   1.334   5.196
10625TIP3   OH231817   4.561   1.581   2.919
10625TIP3    H131818   4.502   1.519   2.963
10625TIP3    H231819   4.503   1.647   2.883
10626TIP3   OH231820   7.797   1.008   4.129
10626TIP3    H131821   7.816   1.069   4.200
10626TIP3    H231822   7.774   1.065   4.055
10627TIP3   OH231823   4.913   4.928   1.844
10627TIP3    H131824   4.891   4.878   1.765
10627TIP3    H231825   4.852   4.895   1.910
10628TIP3   OH231826   7.463   0.725   5.254
10628TIP3    H131827   7.463   0.693   5.345
10628TIP3    H231828   7.451   0.819   5.262
10629TIP3   OH231829   7.858   6.169   2.976
10629TIP3    H131830   7.835   6.213   3.058
10629TIP3    H231831   7.854   6.238   2.910
10630TIP3   OH231832   3.455   1.937   1.625
10630TIP3    H131833   3.525   1.922   1.561
10630TIP3    H231834   3.493   1.997   1.689
10631TIP3   OH231835   0.832   6.623   0.707
10631TIP3    H131836   0.748   6.614   0.752
10631TIP3    H231837   0.897   6.588   0.768
10632TIP3   OH231838   5.138   6.587   2.074
10632TIP3    H131839   5.087   6.540   2.140
10632TIP3    H231840   5.204   6.525   2.046
10633TIP3   OH231841   3.060   3.457   5.083
10633TIP3    H131842   3.093   3.372   5.112
10633TIP3    H231843   2.982   3.436   5.031
10634TIP3   OH231844   5.247   2.383   0.093
10634TIP3    H131845   5.241   2.308   0.153
10634TIP3    H231846   5.163   2.385   0.048
10635TIP3   OH231847   7.015   7.533   4.982
10635TIP3    H131848   6.978   7.566   5.063
10635TIP3    H231849   7.096   7.489   5.008
10636TIP3   OH231850   5.253   1.658   0.795
10636TIP3    H131851   5.310   1.654   0.872
10636TIP3    H231852   5.301   1.610   0.728
10637TIP3   OH231853   1.981   6.635   2.186
10637TIP3    H131854   1.937   6.557   2.220
10637TIP3    H231855   1.988   6.693   2.262
10638TIP3   OH231856   4.155   7.111   0.091
10638TIP3    H131857   4.090   7.052   0.128
10638TIP3    H231858   4.173   7.174   0.161
10639TIP3   OH231859   1.728   3.187   3.792
10639TIP3    H131860   1.714   3.116   3.855
10639TIP3    H231861   1.772   3.145   3.718
10640TIP3   OH231862   0.151   0.286   5.726
10640TIP3    H131863   0.153   0.218   5.793
10640TIP3    H231864   0.214   0.352   5.756
10641TIP3   OH231865   0.901   4.688   5.709
10641TIP3    H131866   0.924   4.600   5.678
10641TIP3    H231867   0.986   4.731   5.722
10642TIP3   OH231868   2.732   1.949   0.298
10642TIP3    H131869   2.727   2.003   0.376
10642TIP3    H231870   2.803   1.887   0.316
10643TIP3   OH231871   7.057   3.030   2.737
10643TIP3    H131872   6.993   2.980   2.787
10643TIP3    H231873   7.011   3.111   2.714
10644TIP3   OH231874   2.302   1.351   0.886
10644TIP3    H131875   2.386   1.331   0.927
10644TIP3    H231876   2.252   1.269   0.892
10645TIP3   OH231877   2.637   4.345   0.762
10645TIP3    H131878   2.621   4.410   0.694
10645TIP3    H231879   2.595   4.382   0.840
10646TIP3   OH231880   3.598   4.994   2.266
10646TIP3    H131881   3.677   4.942   2.251
10646TIP3    H231882   3.599   5.012   2.360
10647TIP3   OH231883   3.539   0.451   4.223
10647TIP3    H131884   3.472   0.385   4.206
10647TIP3    H231885   3.590   0.415   4.295
10648TIP3   OH231886   5.079   2.466   4.445
10648TIP3    H131887   5.151   2.473   4.381
10648TIP3    H231888   5.001   2.489   4.396
10649TIP3   OH231889   1.564   4.831   4.462
10649TIP3    H131890   1.534   4.863   4.547
10649TIP3    H231891   1.596   4.742   4.479
10650TIP3   OH231892   1.730   2.552   2.096
10650TIP3    H131893   1.688   2.637   2.107
10650TIP3    H231894   1.657   2.489   2.102
10651TIP3   OH231895   2.610   2.127   2.118
10651TIP3    H131896   2.689   2.156   2.073
10651TIP3    H231897   2.638   2.049   2.166
10652TIP3   OH231898   4.913   0.362   3.248
10652TIP3    H131899   4.899   0.268   3.263
10652TIP3    H231900   5.004   0.368   3.220
10653TIP3   OH231901   1.525   1.783   1.780
10653TIP3    H131902   1.539   1.872   1.814
10653TIP3    H231903   1.612   1.756   1.748
10654TIP3   OH231904   4.219   2.596   1.580
10654TIP3    H131905   4.279   2.609   1.506
10654TIP3    H231906   4.257   2.523   1.629
10655TIP3   OH231907   7.519   7.090   5.437
10655TIP3    H131908   7.495   7.039   5.514
10655TIP3    H231909   7.473   7.173   5.448
10656TIP3   OH231910   6.512   4.012   3.721
10656TIP3    H131911   6.593   3.977   3.759
10656TIP3    H231912   6.542   4.067   3.648
10657TIP3   OH231913   0.431   5.767   3.714
10657TIP3    H131914   0.438   5.678   3.747
10657TIP3    H231915   0.389   5.759   3.629
10658TIP3   OH231916   0.550   3.774   5.674
10658TIP3    H131917   0.483   3.840   5.655
10658TIP3    H231918   0.577   3.793   5.764
10659TIP3   OH231919   0.515   2.090   2.803
10659TIP3    H131920   0.566   2.150   2.748
10659TIP3    H231921   0.448   2.054   2.743
10660TIP3   OH231922   2.282   3.102   6.056
10660TIP3    H131923   2.187   3.119   6.061
10660TIP3    H231924   2.295   3.064   5.969
10661TIP3   OH231925   5.352   3.354   2.494
10661TIP3    H131926   5.372   3.286   2.430
10661TIP3    H231927   5.257   3.351   2.502
10662TIP3   OH231928   3.886   2.890   5.271
10662TIP3    H131929   3.932   2.817   5.313
10662TIP3    H231930   3.870   2.860   5.182
10663TIP3   OH231931   6.161   2.011   5.798
10663TIP3    H131932   6.240   2.044   5.756
10663TIP3    H231933   6.106   1.983   5.725
10664TIP3   OH231934   2.175   5.963   4.912
10664TIP3    H131935   2.247   5.935   4.970
10664TIP3    H231936   2.170   6.057   4.925
10665TIP3   OH231937   6.587   6.359   5.345
10665TIP3    H131938   6.551   6.279   5.308
10665TIP3    H231939   6.681   6.340   5.355
10666TIP3   OH231940   1.498   1.294   4.272
10666TIP3    H131941   1.566   1.280   4.206
10666TIP3    H231942   1.417   1.268   4.228
10667TIP3   OH231943   2.454   0.264   0.804
10667TIP3    H131944   2.373   0.217   0.821
10667TIP3    H231945   2.517   0.225   0.865
10668TIP3   OH231946   4.508   1.613   1.758
10668TIP3    H131947   4.450   1.680   1.794
10668TIP3    H231948   4.550   1.574   1.835
10669TIP3   OH231949   5.336   7.169   4.567
10669TIP3    H131950   5.338   7.236   4.636
10669TIP3    H231951   5.300   7.214   4.491
10670TIP3   OH231952   4.251   4.677   5.737
10670TIP3    H131953   4.161   4.648   5.749
10670TIP3    H231954   4.260   4.688   5.642
10671TIP3   OH231955   5.868   5.873   0.932
10671TIP3    H131956   5.837   5.891   0.843
10671TIP3    H231957   5.867   5.778   0.938
10672TIP3   OH231958   6.804   4.555   3.368
10672TIP3    H131959   6.872   4.552   3.435
10672TIP3    H231960   6.760   4.639   3.382
10673TIP3   OH231961   0.923   1.276   1.399
10673TIP3    H131962   0.944   1.205   1.460
10673TIP3    H231963   0.996   1.276   1.337
10674TIP3   OH231964   6.171   0.494   6.667
10674TIP3    H131965   6.228   0.480   6.591
10674TIP3    H231966   6.111   0.563   6.639
10675TIP3   OH231967   0.286   4.594   3.967
10675TIP3    H131968   0.371   4.571   4.005
10675TIP3    H231969   0.241   4.642   4.037
10676TIP3   OH231970   5.386   2.298   3.497
10676TIP3    H131971   5.475   2.330   3.513
10676TIP3    H231972   5.370   2.317   3.405
10677TIP3   OH231973   2.051   6.349   6.676
10677TIP3    H131974   2.053   6.270   6.622
10677TIP3    H231975   2.083   6.419   6.618
10678TIP3   OH231976   1.116   7.223   3.290
10678TIP3    H131977   1.087   7.309   3.321
10678TIP3    H231978   1.199   7.208   3.335
10679TIP3   OH231979   6.056   7.192   0.620
10679TIP3    H131980   5.978   7.232   0.582
10679TIP3    H231981   6.127   7.217   0.562
10680TIP3   OH231982   5.711   4.318   3.202
10680TIP3    H131983   5.681   4.329   3.112
10680TIP3    H231984   5.634   4.287   3.250
10681TIP3   OH231985   4.515   0.221   2.584
10681TIP3    H131986   4.505   0.316   2.579
10681TIP3    H231987   4.441   0.192   2.638
10682TIP3   OH231988   4.881   3.434   2.671
10682TIP3    H131989   4.789   3.458   2.668
10682TIP3    H231990   4.921   3.498   2.731
10683TIP3   OH231991   7.121   2.284   4.370
10683TIP3    H131992   7.077   2.363   4.339
10683TIP3    H231993   7.213   2.310   4.379
10684TIP3   OH231994   7.099   4.578   1.378
10684TIP3    H131995   7.183   4.557   1.337
10684TIP3    H231996   7.035   4.524   1.331
10685TIP3   OH231997   5.611   3.102   0.921
10685TIP3    H131998   5.560   3.025   0.948
10685TIP3    H231999   5.580   3.121   0.833
10686TIP3   OH232000   2.181   0.495   2.223
10686TIP3    H132001   2.248   0.536   2.279
10686TIP3    H232002   2.154   0.418   2.271
10687TIP3   OH232003   2.177   1.630   2.758
10687TIP3    H132004   2.189   1.563   2.691
10687TIP3    H232005   2.089   1.664   2.743
10688TIP3   OH232006   4.018   0.888   2.881
10688TIP3    H132007   4.046   0.875   2.790
10688TIP3    H232008   3.930   0.925   2.874
10689TIP3   OH232009   6.253   0.343   2.557
10689TIP3    H132010   6.219   0.383   2.637
10689TIP3    H232011   6.228   0.403   2.487
10690TIP3   OH232012   2.286   5.628   5.824
10690TIP3    H132013   2.262   5.695   5.759
10690TIP3    H232014   2.375   5.602   5.799
10691TIP3   OH232015   8.271   3.444   6.028
10691TIP3    H132016   8.187   3.489   6.037
10691TIP3    H232017   8.311   3.483   5.950
10692TIP3   OH232018   4.312   1.907   3.559
10692TIP3    H132019   4.313   1.938   3.650
10692TIP3    H232020   4.223   1.874   3.547
10693TIP3   OH232021   5.330   0.136   0.983
10693TIP3    H132022   5.364   0.048   0.971
10693TIP3    H232023   5.406   0.193   0.969
10694TIP3   OH232024   7.644   3.892   6.138
10694TIP3    H132025   7.584   3.875   6.064
10694TIP3    H232026   7.589   3.934   6.204
10695TIP3   OH232027   4.251   1.819   6.202
10695TIP3    H132028   4.225   1.728   6.198
10695TIP3    H232029   4.195   1.863   6.138
10696TIP3   OH232030   4.020   4.223   4.318
10696TIP3    H132031   4.095   4.281   4.328
10696TIP3    H232032   4.027   4.161   4.391
10697TIP3   OH232033   8.059   7.707   3.251
10697TIP3    H132034   8.056   7.785   3.307
10697TIP3    H232035   7.995   7.647   3.290
10698TIP3   OH232036   2.080   4.460   6.531
10698TIP3    H132037   2.016   4.454   6.601
10698TIP3    H232038   2.079   4.375   6.489
10699TIP3   OH232039   5.234   5.421   5.865
10699TIP3    H132040   5.323   5.451   5.845
10699TIP3    H232041   5.184   5.443   5.786
10700TIP3   OH232042   6.502   2.714   1.208
10700TIP3    H132043   6.443   2.757   1.146
10700TIP3    H232044   6.457   2.633   1.233
10701TIP3   OH232045   3.267   7.078   4.718
10701TIP3    H132046   3.296   7.064   4.628
10701TIP3    H232047   3.189   7.023   4.727
10702TIP3   OH232048   7.067   1.947   6.691
10702TIP3    H132049   7.101   1.860   6.673
10702TIP3    H232050   7.072   1.993   6.607
10703TIP3   OH232051   6.995   5.099   1.712
10703TIP3    H132052   6.940   5.140   1.645
10703TIP3    H232053   7.051   5.169   1.744
10704TIP3   OH232054   2.197   5.603   1.362
10704TIP3    H132055   2.269   5.566   1.311
10704TIP3    H232056   2.120   5.553   1.335
10705TIP3   OH232057   7.077   6.027   4.114
10705TIP3    H132058   7.030   5.959   4.066
10705TIP3    H232059   7.037   6.027   4.201
10706TIP3   OH232060   5.781   3.411   1.763
10706TIP3    H132061   5.822   3.419   1.677
10706TIP3    H232062   5.698   3.367   1.746
10707TIP3   OH232063   1.250   6.509   5.268
10707TIP3    H132064   1.278   6.574   5.204
10707TIP3    H232065   1.164   6.480   5.238
10708TIP3   OH232066   6.331   3.050   4.886
10708TIP3    H132067   6.415   3.020   4.851
10708TIP3    H232068   6.335   3.031   4.980
10709TIP3   OH232069   1.984   4.387   3.342
10709TIP3    H132070   1.911   4.326   3.331
10709TIP3    H232071   1.945   4.464   3.383
10710TIP3   OH232072   3.419   4.734   3.978
10710TIP3    H132073   3.419   4.784   3.897
10710TIP3    H232074   3.484   4.778   4.033
10711TIP3   OH232075   3.148   1.530   3.848
10711TIP3    H132076   3.198   1.557   3.925
10711TIP3    H232077   3.112   1.444   3.871
10712TIP3   OH232078   3.509   7.470   2.177
10712TIP3    H132079   3.429   7.418   2.180
10712TIP3    H232080   3.555   7.448   2.258
10713TIP3   OH232081   1.253   7.507   1.369
10713TIP3    H132082   1.219   7.420   1.389
10713TIP3    H232083   1.327   7.518   1.428
10714TIP3   OH232084   8.184   0.757   2.242
10714TIP3    H132085   8.126   0.747   2.317
10714TIP3    H232086   8.205   0.850   2.240
10715TIP3   OH232087   4.946   7.040   0.333
10715TIP3    H132088   5.010   7.078   0.273
10715TIP3    H232089   4.895   6.979   0.279
10716TIP3   OH232090   2.767   1.045   4.515
10716TIP3    H132091   2.756   0.979   4.447
10716TIP3    H232092   2.770   1.129   4.468
10717TIP3   OH232093   0.131   7.042   4.000
10717TIP3    H132094   0.093   7.072   4.083
10717TIP3    H232095   0.147   6.948   4.014
10718TIP3   OH232096   2.774   5.568   6.643
10718TIP3    H132097   2.812   5.616   6.716
10718TIP3    H232098   2.681   5.560   6.666
10719TIP3   OH232099   1.456   6.253   4.636
10719TIP3    H132100   1.436   6.188   4.569
10719TIP3    H232101   1.530   6.215   4.684
10720TIP3   OH232102   5.207   7.416   1.352
10720TIP3    H132103   5.241   7.387   1.437
10720TIP3    H232104   5.260   7.369   1.288
10721TIP3   OH232105   6.678   0.594   1.079
10721TIP3    H132106   6.591   0.623   1.106
10721TIP3    H232107   6.681   0.502   1.105
10722TIP3   OH232108   7.164   4.704   4.581
10722TIP3    H132109   7.120   4.771   4.529
10722TIP3    H232110   7.147   4.729   4.672
10723TIP3   OH232111   0.809   1.839   1.758
10723TIP3    H132112   0.825   1.747   1.776
10723TIP3    H232113   0.896   1.874   1.736
10724TIP3   OH232114   4.074   2.793   1.082
10724TIP3    H132115   4.072   2.847   1.003
10724TIP3    H232116   4.156   2.817   1.125
10725TIP3   OH232117   7.546   5.722   1.848
10725TIP3    H132118   7.537   5.785   1.920
10725TIP3    H232119   7.464   5.674   1.848
10726TIP3   OH232120   1.842   4.664   4.574
10726TIP3    H132121   1.841   4.593   4.639
10726TIP3    H232122   1.831   4.620   4.490
10727TIP3   OH232123   4.763   3.335   3.514
10727TIP3    H132124   4.792   3.341   3.423
10727TIP3    H232125   4.727   3.246   3.522
10728TIP3   OH232126   5.190   3.091   0.549
10728TIP3    H132127   5.123   3.160   0.553
10728TIP3    H232128   5.146   3.013   0.584
10729TIP3   OH232129   2.518   3.842   6.425
10729TIP3    H132130   2.520   3.755   6.465
10729TIP3    H232131   2.524   3.824   6.331
10730TIP3   OH232132   5.640   7.400   5.648
10730TIP3    H132133   5.636   7.390   5.743
10730TIP3    H232134   5.651   7.311   5.615
10731TIP3   OH232135   7.012   0.946   2.996
10731TIP3    H132136   7.045   1.023   2.950
10731TIP3    H232137   7.038   0.960   3.087
10732TIP3   OH232138   8.099   3.862   1.942
10732TIP3    H132139   8.085   3.828   2.031
10732TIP3    H232140   8.152   3.941   1.955
10733TIP3   OH232141   1.993   5.954   0.154
10733TIP3    H132142   2.070   5.899   0.169
10733TIP3    H232143   2.023   6.020   0.092
10734TIP3   OH232144   4.555   6.155   5.093
10734TIP3    H132145   4.583   6.111   5.013
10734TIP3    H232146   4.475   6.200   5.069
10735TIP3   OH232147   6.779   3.932   2.346
10735TIP3    H132148   6.703   3.975   2.306
10735TIP3    H232149   6.805   3.866   2.282
10736TIP3   OH232150   5.410   7.640   5.500
10736TIP3    H132151   5.395   7.604   5.588
10736TIP3    H232152   5.394   7.734   5.510
10737TIP3   OH232153   4.882   7.742   1.351
10737TIP3    H132154   4.921   7.829   1.357
10737TIP3    H232155   4.787   7.758   1.355
10738TIP3   OH232156   5.784   6.833   1.291
10738TIP3    H132157   5.724   6.815   1.219
10738TIP3    H232158   5.800   6.748   1.331
10739TIP3   OH232159   6.994   4.598   3.587
10739TIP3    H132160   7.087   4.586   3.604
10739TIP3    H232161   6.981   4.693   3.590
10740TIP3   OH232162   0.606   7.341   3.854
10740TIP3    H132163   0.514   7.368   3.859
10740TIP3    H232164   0.603   7.253   3.818
10741TIP3   OH232165   6.259   5.470   6.408
10741TIP3    H132166   6.266   5.488   6.314
10741TIP3    H232167   6.213   5.386   6.413
10742TIP3   OH232168   1.694   3.262   6.528
10742TIP3    H132169   1.666   3.223   6.445
10742TIP3    H232170   1.710   3.187   6.585
10743TIP3   OH232171   3.480   7.507   4.138
10743TIP3    H132172   3.504   7.423   4.178
10743TIP3    H232173   3.399   7.533   4.183
10744TIP3   OH232174   3.532   3.306   3.938
10744TIP3    H132175   3.585   3.386   3.937
10744TIP3    H232176   3.558   3.261   4.018
10745TIP3   OH232177   5.829   2.243   3.132
10745TIP3    H132178   5.792   2.326   3.161
10745TIP3    H232179   5.759   2.179   3.145
10746TIP3   OH232180   5.994   6.383   3.619
10746TIP3    H132181   6.010   6.293   3.646
10746TIP3    H232182   6.007   6.383   3.524
10747TIP3   OH232183   5.551   1.939   5.590
10747TIP3    H132184   5.466   1.899   5.608
10747TIP3    H232185   5.610   1.865   5.575
10748TIP3   OH232186   0.258   1.670   2.404
10748TIP3    H132187   0.197   1.636   2.470
10748TIP3    H232188   0.205   1.727   2.349
10749TIP3   OH232189   1.771   4.921   4.280
10749TIP3    H132190   1.705   4.893   4.344
10749TIP3    H232191   1.749   4.874   4.200
10750TIP3   OH232192   8.215   7.573   1.692
10750TIP3    H132193   8.143   7.633   1.671
10750TIP3    H232194   8.251   7.606   1.774
10751TIP3   OH232195   1.057   6.696   2.583
10751TIP3    H132196   1.135   6.704   2.528
10751TIP3    H232197   0.990   6.662   2.524
10752TIP3   OH232198   3.976   7.423   1.740
10752TIP3    H132199   4.053   7.390   1.786
10752TIP3    H232200   4.005   7.505   1.700
10753TIP3   OH232201   8.051   6.171   5.656
10753TIP3    H132202   8.051   6.239   5.723
10753TIP3    H232203   8.072   6.090   5.703
10754TIP3   OH232204   5.264   2.795   2.678
10754TIP3    H132205   5.292   2.748   2.599
10754TIP3    H232206   5.177   2.759   2.697
10755TIP3   OH232207   4.458   7.082   3.526
10755TIP3    H132208   4.494   7.171   3.516
10755TIP3    H232209   4.367   7.096   3.551
10756TIP3   OH232210   5.688   6.631   6.257
10756TIP3    H132211   5.699   6.538   6.278
10756TIP3    H232212   5.758   6.675   6.306
10757TIP3   OH232213   5.090   0.115   3.931
10757TIP3    H132214   5.071   0.083   4.019
10757TIP3    H232215   5.156   0.183   3.943
10758TIP3   OH232216   5.984   0.758   0.081
10758TIP3    H132217   6.059   0.785   0.028
10758TIP3    H232218   5.972   0.830   0.143
10759TIP3   OH232219   5.013   0.462   2.508
10759TIP3    H132220   5.029   0.494   2.420
10759TIP3    H232221   5.022   0.367   2.501
10760TIP3   OH232222   8.061   5.541   2.992
10760TIP3    H132223   8.102   5.611   3.043
10760TIP3    H232224   8.056   5.467   3.053
10761TIP3   OH232225   3.366   1.681   3.033
10761TIP3    H132226   3.323   1.722   3.108
10761TIP3    H232227   3.459   1.700   3.045
10762TIP3   OH232228   4.036   0.539   1.135
10762TIP3    H132229   3.956   0.592   1.125
10762TIP3    H232230   4.045   0.493   1.052
10763TIP3   OH232231   3.693   2.079   5.389
10763TIP3    H132232   3.699   2.173   5.404
10763TIP3    H232233   3.600   2.059   5.391
10764TIP3   OH232234   0.858   4.197   4.282
10764TIP3    H132235   0.819   4.279   4.250
10764TIP3    H232236   0.785   4.149   4.321
10765TIP3   OH232237   6.512   2.859   0.194
10765TIP3    H132238   6.544   2.772   0.215
10765TIP3    H232239   6.567   2.918   0.246
10766TIP3   OH232240   1.225   5.413   1.920
10766TIP3    H132241   1.265   5.413   1.833
10766TIP3    H232242   1.185   5.499   1.929
10767TIP3   OH232243   5.855   0.828   5.343
10767TIP3    H132244   5.796   0.848   5.416
10767TIP3    H232245   5.883   0.738   5.359
10768TIP3   OH232246   4.227   7.110   6.447
10768TIP3    H132247   4.280   7.117   6.367
10768TIP3    H232248   4.173   7.032   6.433
10769TIP3   OH232249   2.149   5.098   3.862
10769TIP3    H132250   2.210   5.025   3.846
10769TIP3    H232251   2.205   5.173   3.877
10770TIP3   OH232252   2.503   6.303   0.394
10770TIP3    H132253   2.424   6.249   0.396
10770TIP3    H232254   2.556   6.264   0.324
10771TIP3   OH232255   3.451   4.177   1.459
10771TIP3    H132256   3.388   4.105   1.462
10771TIP3    H232257   3.521   4.150   1.519
10772TIP3   OH232258   3.300   5.283   0.893
10772TIP3    H132259   3.380   5.230   0.892
10772TIP3    H232260   3.264   5.273   0.805
10773TIP3   OH232261   0.671   7.398   3.452
10773TIP3    H132262   0.611   7.331   3.421
10773TIP3    H232263   0.712   7.361   3.530
10774TIP3   OH232264   1.854   4.584   4.294
10774TIP3    H132265   1.929   4.549   4.245
10774TIP3    H232266   1.834   4.667   4.250
10775TIP3   OH232267   0.105   3.693   2.350
10775TIP3    H132268   0.049   3.727   2.420
10775TIP3    H232269   0.183   3.661   2.396
10776TIP3   OH232270   0.845   2.492   2.578
10776TIP3    H132271   0.929   2.451   2.560
10776TIP3    H232272   0.855   2.582   2.548
10777TIP3   OH232273   3.287   6.347   5.780
10777TIP3    H132274   3.282   6.435   5.815
10777TIP3    H232275   3.279   6.358   5.685
10778TIP3   OH232276   2.136   3.441   3.591
10778TIP3    H132277   2.104   3.379   3.657
10778TIP3    H232278   2.229   3.451   3.611
10779TIP3   OH232279   6.672   3.085   6.559
10779TIP3    H132280   6.744   3.140   6.592
10779TIP3    H232281   6.698   3.063   6.470
10780TIP3   OH232282   0.361   0.353   5.476
10780TIP3    H132283   0.377   0.339   5.569
10780TIP3    H232284   0.421   0.292   5.431
10781TIP3   OH232285   2.604   4.527   5.897
10781TIP3    H132286   2.544   4.595   5.864
10781TIP3    H232287   2.601   4.538   5.992
10782TIP3   OH232288   0.123   2.669   2.087
10782TIP3    H132289   0.183   2.733   2.047
10782TIP3    H232290   0.036   2.699   2.062
10783TIP3   OH232291   7.742   6.037   2.316
10783TIP3    H132292   7.754   6.086   2.234
10783TIP3    H232293   7.758   6.102   2.385
10784TIP3   OH232294   4.286   5.749   4.948
10784TIP3    H132295   4.319   5.805   5.018
10784TIP3    H232296   4.193   5.738   4.967
10785TIP3   OH232297   6.139   1.101   6.108
10785TIP3    H132298   6.205   1.100   6.040
10785TIP3    H232299   6.056   1.110   6.061
10786TIP3   OH232300   0.628   0.367   5.135
10786TIP3    H132301   0.719   0.358   5.162
10786TIP3    H232302   0.581   0.303   5.189
10787TIP3   OH232303   4.615   7.803   1.411
10787TIP3    H132304   4.566   7.870   1.364
10787TIP3    H232305   4.549   7.754   1.459
10788TIP3   OH232306   4.155   4.163   2.643
10788TIP3    H132307   4.105   4.123   2.571
10788TIP3    H232308   4.246   4.155   2.615
10789TIP3   OH232309   1.147   3.240   2.172
10789TIP3    H132310   1.144   3.164   2.114
10789TIP3    H232311   1.144   3.316   2.114
10790TIP3   OH232312   7.629   1.363   4.575
10790TIP3    H132313   7.718   1.393   4.590
10790TIP3    H232314   7.597   1.418   4.504
10791TIP3   OH232315   6.110   6.596   2.455
10791TIP3    H132316   6.032   6.651   2.447
10791TIP3    H232317   6.152   6.601   2.369
10792TIP3   OH232318   7.425   4.349   2.595
10792TIP3    H132319   7.377   4.291   2.654
10792TIP3    H232320   7.517   4.330   2.612
10793TIP3   OH232321   7.902   2.142   5.206
10793TIP3    H132322   7.828   2.087   5.233
10793TIP3    H232323   7.884   2.162   5.115
10794TIP3   OH232324   6.521   3.638   5.200
10794TIP3    H132325   6.433   3.611   5.225
10794TIP3    H232326   6.508   3.704   5.132
10795TIP3   OH232327   7.914   5.106   3.238
10795TIP3    H132328   7.827   5.139   3.217
10795TIP3    H232329   7.905   5.071   3.327
10796TIP3   OH232330   4.491   5.685   5.765
10796TIP3    H132331   4.519   5.752   5.827
10796TIP3    H232332   4.443   5.734   5.697
10797TIP3   OH232333   3.008   3.852   4.206
10797TIP3    H132334   3.034   3.896   4.287
10797TIP3    H232335   3.089   3.840   4.157
10798TIP3   OH232336   3.901   1.633   3.822
10798TIP3    H132337   3.860   1.547   3.831
10798TIP3    H232338   3.927   1.657   3.911
10799TIP3   OH232339   6.852   3.034   3.303
10799TIP3    H132340   6.859   2.952   3.353
10799TIP3    H232341   6.780   3.018   3.242
10800TIP3   OH232342   1.907   1.114   5.473
10800TIP3    H132343   1.927   1.145   5.561
10800TIP3    H232344   1.895   1.020   5.483
10801TIP3   OH232345   6.381   7.623   3.210
10801TIP3    H132346   6.336   7.693   3.257
10801TIP3    H232347   6.456   7.666   3.168
10802TIP3   OH232348   1.151   5.765   3.979
10802TIP3    H132349   1.083   5.773   4.046
10802TIP3    H232350   1.231   5.745   4.028
10803TIP3   OH232351   3.341   2.954   6.397
10803TIP3    H132352   3.435   2.966   6.409
10803TIP3    H232353   3.333   2.881   6.336
10804TIP3   OH232354   7.922   4.579   2.217
10804TIP3    H132355   7.960   4.516   2.156
10804TIP3    H232356   7.827   4.573   2.201
10805TIP3   OH232357   4.366   5.419   4.738
10805TIP3    H132358   4.449   5.390   4.700
10805TIP3    H232359   4.355   5.508   4.706
10806TIP3   OH232360   0.990   0.995   5.099
10806TIP3    H132361   0.949   0.972   5.182
10806TIP3    H232362   0.939   1.069   5.066
10807TIP3   OH232363   2.408   3.174   1.126
10807TIP3    H132364   2.325   3.133   1.103
10807TIP3    H232365   2.449   3.113   1.188
10808TIP3   OH232366   6.339   2.492   3.157
10808TIP3    H132367   6.374   2.476   3.245
10808TIP3    H232368   6.250   2.455   3.160
10809TIP3   OH232369   6.459   7.210   2.344
10809TIP3    H132370   6.465   7.300   2.312
10809TIP3    H232371   6.372   7.204   2.383
10810TIP3   OH232372   4.479   5.559   3.310
10810TIP3    H132373   4.388   5.574   3.284
10810TIP3    H232374   4.503   5.477   3.266
10811TIP3   OH232375   0.036   1.408   6.215
10811TIP3    H132376  -0.055   1.409   6.186
10811TIP3    H232377   0.082   1.359   6.147
10812TIP3   OH232378   8.096   4.686   4.103
10812TIP3    H132379   8.171   4.636   4.071
10812TIP3    H232380   8.089   4.662   4.195
10813TIP3   OH232381   5.720   2.242   1.226
10813TIP3    H132382   5.745   2.153   1.199
10813TIP3    H232383   5.630   2.233   1.257
10814TIP3   OH232384   5.197   2.726   2.324
10814TIP3    H132385   5.276   2.713   2.376
10814TIP3    H232386   5.126   2.726   2.387
10815TIP3   OH232387   0.160   1.509   3.692
10815TIP3    H132388   0.130   1.450   3.762
10815TIP3    H232389   0.235   1.554   3.730
10816TIP3   OH232390   6.961   7.047   1.918
10816TIP3    H132391   6.882   7.069   1.967
10816TIP3    H232392   6.992   7.130   1.883
10817TIP3   OH232393   5.443   7.355   4.999
10817TIP3    H132394   5.492   7.434   4.976
10817TIP3    H232395   5.464   7.340   5.091
10818TIP3   OH232396   3.726   5.583   3.946
10818TIP3    H132397   3.814   5.547   3.937
10818TIP3    H232398   3.706   5.572   4.039
10819TIP3   OH232399   5.909   5.103   4.848
10819TIP3    H132400   5.833   5.131   4.899
10819TIP3    H232401   5.984   5.126   4.903
10820TIP3   OH232402   3.277   4.645   0.530
10820TIP3    H132403   3.200   4.621   0.479
10820TIP3    H232404   3.289   4.571   0.591
10821TIP3   OH232405   0.167   4.652   2.472
10821TIP3    H132406   0.153   4.558   2.463
10821TIP3    H232407   0.122   4.676   2.553
10822TIP3   OH232408   1.975   4.675   2.559
10822TIP3    H132409   2.062   4.658   2.595
10822TIP3    H232410   1.980   4.645   2.468
10823TIP3   OH232411   0.331   1.975   5.385
10823TIP3    H132412   0.276   1.901   5.409
10823TIP3    H232413   0.410   1.965   5.439
10824TIP3   OH232414   1.609   5.249   3.627
10824TIP3    H132415   1.527   5.298   3.620
10824TIP3    H232416   1.670   5.311   3.667
10825TIP3   OH232417   6.687   1.039   0.674
10825TIP3    H132418   6.705   1.097   0.749
10825TIP3    H232419   6.757   1.059   0.611
10826TIP3   OH232420   7.060   3.335   0.498
10826TIP3    H132421   7.123   3.399   0.533
10826TIP3    H232422   7.113   3.258   0.477
10827TIP3   OH232423   4.692   4.111   6.771
10827TIP3    H132424   4.597   4.115   6.782
10827TIP3    H232425   4.716   4.199   6.744
10828TIP3   OH232426   1.928   0.713   5.337
10828TIP3    H132427   1.865   0.642   5.348
10828TIP3    H232428   1.933   0.754   5.424
10829TIP3   OH232429   1.683   4.709   2.397
10829TIP3    H132430   1.693   4.765   2.474
10829TIP3    H232431   1.635   4.633   2.429
10830TIP3   OH232432   0.926   6.009   0.700
10830TIP3    H132433   0.834   5.988   0.684
10830TIP3    H232434   0.971   5.980   0.621
10831TIP3   OH232435   5.569   2.671   1.696
10831TIP3    H132436   5.547   2.737   1.630
10831TIP3    H232437   5.650   2.632   1.665
10832TIP3   OH232438   6.376   6.570   0.782
10832TIP3    H132439   6.373   6.530   0.868
10832TIP3    H232440   6.461   6.615   0.779
10833TIP3   OH232441   3.444   5.598   5.848
10833TIP3    H132442   3.398   5.613   5.766
10833TIP3    H232443   3.537   5.599   5.824
10834TIP3   OH232444   3.663   0.593   0.267
10834TIP3    H132445   3.723   0.534   0.312
10834TIP3    H232446   3.650   0.554   0.181
10835TIP3   OH232447   1.005   4.810   2.150
10835TIP3    H132448   0.959   4.831   2.231
10835TIP3    H232449   1.094   4.844   2.164
10836TIP3   OH232450   5.320   6.971   5.017
10836TIP3    H132451   5.365   6.887   5.010
10836TIP3    H232452   5.377   7.024   5.074
10837TIP3   OH232453   0.221   7.136   6.026
10837TIP3    H132454   0.127   7.122   6.019
10837TIP3    H232455   0.244   7.185   5.947
10838TIP3   OH232456   1.847   3.281   5.112
10838TIP3    H132457   1.799   3.269   5.194
10838TIP3    H232458   1.909   3.207   5.109
10839TIP3   OH232459   1.417   2.802   0.935
10839TIP3    H132460   1.413   2.720   0.886
10839TIP3    H232461   1.326   2.830   0.943
10840TIP3   OH232462   6.042   2.819   6.139
10840TIP3    H132463   6.017   2.861   6.056
10840TIP3    H232464   6.058   2.892   6.198
10841TIP3   OH232465   3.525   6.594   1.461
10841TIP3    H132466   3.441   6.601   1.507
10841TIP3    H232467   3.523   6.507   1.422
10842TIP3   OH232468   7.941   2.932   1.994
10842TIP3    H132469   7.917   3.024   1.990
10842TIP3    H232470   8.031   2.931   2.025
10843TIP3   OH232471   7.231   7.168   3.735
10843TIP3    H132472   7.263   7.189   3.647
10843TIP3    H232473   7.140   7.196   3.735
10844TIP3   OH232474   7.731   1.035   5.313
10844TIP3    H132475   7.637   1.055   5.316
10844TIP3    H232476   7.735   0.949   5.271
10845TIP3   OH232477   5.264   6.119   0.276
10845TIP3    H132478   5.220   6.062   0.338
10845TIP3    H232479   5.248   6.079   0.191
10846TIP3   OH232480   6.288   1.664   4.914
10846TIP3    H132481   6.293   1.754   4.945
10846TIP3    H232482   6.201   1.657   4.874
10847TIP3   OH232483   2.751   2.343   0.288
10847TIP3    H132484   2.661   2.341   0.254
10847TIP3    H232485   2.806   2.345   0.210
10848TIP3   OH232486   7.478   2.479   0.140
10848TIP3    H132487   7.518   2.468   0.054
10848TIP3    H232488   7.428   2.561   0.133
10849TIP3   OH232489   5.609   7.280   0.490
10849TIP3    H132490   5.633   7.188   0.504
10849TIP3    H232491   5.590   7.285   0.396
10850TIP3   OH232492   2.847   6.729   2.649
10850TIP3    H132493   2.879   6.684   2.572
10850TIP3    H232494   2.807   6.661   2.703
10851TIP3   OH232495   1.353   5.198   6.717
10851TIP3    H132496   1.420   5.150   6.669
10851TIP3    H232497   1.350   5.155   6.803
10852TIP3   OH232498   5.310   1.694   2.227
10852TIP3    H132499   5.329   1.774   2.276
10852TIP3    H232500   5.314   1.624   2.292
10853TIP3   OH232501   2.143   2.922   4.163
10853TIP3    H132502   2.217   2.909   4.104
10853TIP3    H232503   2.121   3.015   4.154
10854TIP3   OH232504   6.739   1.932   5.414
10854TIP3    H132505   6.745   2.028   5.408
10854TIP3    H232506   6.741   1.914   5.508
10855TIP3   OH232507   3.661   3.827   3.724
10855TIP3    H132508   3.737   3.857   3.674
10855TIP3    H232509   3.587   3.837   3.664
10856TIP3   OH232510   4.485   7.036   1.283
10856TIP3    H132511   4.505   7.044   1.190
10856TIP3    H232512   4.539   7.104   1.325
10857TIP3   OH232513   6.958   2.102   0.369
10857TIP3    H132514   7.037   2.054   0.345
10857TIP3    H232515   6.938   2.156   0.292
10858TIP3   OH232516   4.215   4.506   2.054
10858TIP3    H132517   4.146   4.486   2.117
10858TIP3    H232518   4.249   4.591   2.082
10859TIP3   OH232519   0.843   0.221   3.022
10859TIP3    H132520   0.822   0.288   2.957
10859TIP3    H232521   0.847   0.268   3.105
10860TIP3   OH232522   0.211   1.421   3.965
10860TIP3    H132523   0.213   1.475   4.044
10860TIP3    H232524   0.280   1.458   3.909
10861TIP3   OH232525   1.470   2.227   2.965
10861TIP3    H132526   1.505   2.190   2.884
10861TIP3    H232527   1.432   2.153   3.012
10862TIP3   OH232528   6.350   1.161   2.890
10862TIP3    H132529   6.273   1.217   2.880
10862TIP3    H232530   6.323   1.094   2.953
10863TIP3   OH232531   6.298   1.432   1.778
10863TIP3    H132532   6.330   1.344   1.797
10863TIP3    H232533   6.375   1.488   1.788
10864TIP3   OH232534   3.335   7.129   4.205
10864TIP3    H132535   3.390   7.206   4.221
10864TIP3    H232536   3.330   7.122   4.110
10865TIP3   OH232537   5.793   3.636   0.987
10865TIP3    H132538   5.863   3.690   0.950
10865TIP3    H232539   5.723   3.699   1.005
10866TIP3   OH232540   1.888   1.424   2.265
10866TIP3    H132541   1.820   1.422   2.332
10866TIP3    H232542   1.956   1.365   2.298
10867TIP3   OH232543   7.283   6.845   4.546
10867TIP3    H132544   7.257   6.802   4.465
10867TIP3    H232545   7.235   6.927   4.546
10868TIP3   OH232546   2.334   5.541   6.515
10868TIP3    H132547   2.383   5.546   6.433
10868TIP3    H232548   2.317   5.447   6.527
10869TIP3   OH232549   0.347   7.521   2.906
10869TIP3    H132550   0.356   7.451   2.970
10869TIP3    H232551   0.356   7.478   2.821
10870TIP3   OH232552   5.561   4.526   3.582
10870TIP3    H132553   5.484   4.520   3.638
10870TIP3    H232554   5.606   4.605   3.612
10871TIP3   OH232555   0.224   7.022   3.188
10871TIP3    H132556   0.280   6.966   3.243
10871TIP3    H232557   0.268   7.023   3.103
10872TIP3   OH232558   7.057   1.705   5.076
10872TIP3    H132559   7.096   1.777   5.026
10872TIP3    H232560   6.972   1.738   5.105
10873TIP3   OH232561   2.197   2.589   2.587
10873TIP3    H132562   2.182   2.655   2.519
10873TIP3    H232563   2.193   2.506   2.540
10874TIP3   OH232564   7.727   6.671   5.344
10874TIP3    H132565   7.777   6.638   5.270
10874TIP3    H232566   7.680   6.747   5.309
10875TIP3   OH232567   7.489   5.328   4.414
10875TIP3    H132568   7.418   5.390   4.394
10875TIP3    H232569   7.449   5.266   4.475
10876TIP3   OH232570   3.523   5.759   4.936
10876TIP3    H132571   3.497   5.790   4.849
10876TIP3    H232572   3.457   5.694   4.960
10877TIP3   OH232573   5.166   6.709   5.476
10877TIP3    H132574   5.227   6.708   5.550
10877TIP3    H232575   5.128   6.796   5.477
10878TIP3   OH232576   1.666   0.345   2.446
10878TIP3    H132577   1.597   0.395   2.490
10878TIP3    H232578   1.653   0.364   2.353
10879TIP3   OH232579   0.740   2.398   3.891
10879TIP3    H132580   0.801   2.370   3.959
10879TIP3    H232581   0.770   2.487   3.868
10880TIP3   OH232582   0.322   2.841   1.996
10880TIP3    H132583   0.339   2.929   1.964
10880TIP3    H232584   0.376   2.785   1.941
10881TIP3   OH232585   7.057   2.489   3.503
10881TIP3    H132586   7.145   2.491   3.542
10881TIP3    H232587   7.069   2.442   3.420
10882TIP3   OH232588   4.165   1.163   1.480
10882TIP3    H132589   4.148   1.253   1.453
10882TIP3    H232590   4.247   1.168   1.529
10883TIP3   OH232591   7.318   0.397   6.317
10883TIP3    H132592   7.364   0.373   6.237
10883TIP3    H232593   7.269   0.318   6.341
10884TIP3   OH232594   7.988   0.534   4.078
10884TIP3    H132595   7.902   0.547   4.038
10884TIP3    H232596   8.018   0.450   4.044
10885TIP3   OH232597   4.129   6.835   2.305
10885TIP3    H132598   4.167   6.914   2.344
10885TIP3    H232599   4.205   6.781   2.283
10886TIP3   OH232600   1.476   5.853   3.906
10886TIP3    H132601   1.516   5.938   3.884
10886TIP3    H232602   1.437   5.866   3.992
10887TIP3   OH232603   8.177   6.953   0.493
10887TIP3    H132604   8.208   6.914   0.411
10887TIP3    H232605   8.243   7.019   0.514
10888TIP3   OH232606   6.224   3.569   4.861
10888TIP3    H132607   6.206   3.482   4.897
10888TIP3    H232608   6.319   3.577   4.864
10889TIP3   OH232609   7.895   5.824   2.869
10889TIP3    H132610   7.829   5.836   2.937
10889TIP3    H232611   7.921   5.733   2.876
10890TIP3   OH232612   5.166   4.785   5.415
10890TIP3    H132613   5.207   4.849   5.358
10890TIP3    H232614   5.130   4.836   5.487
10891TIP3   OH232615   0.056   5.236   4.199
10891TIP3    H132616   0.133   5.286   4.170
10891TIP3    H232617   0.005   5.222   4.119
10892TIP3   OH232618   0.258   4.258   1.304
10892TIP3    H132619   0.201   4.308   1.363
10892TIP3    H232620   0.292   4.322   1.243
10893TIP3   OH232621   1.784   7.767   3.506
10893TIP3    H132622   1.770   7.686   3.554
10893TIP3    H232623   1.731   7.832   3.553
10894TIP3   OH232624   5.973   5.267   2.472
10894TIP3    H132625   6.014   5.316   2.543
10894TIP3    H232626   5.940   5.334   2.412
10895TIP3   OH232627   2.999   6.989   1.029
10895TIP3    H132628   3.069   7.053   1.032
10895TIP3    H232629   3.044   6.904   1.024
10896TIP3   OH232630   7.071   2.450   3.212
10896TIP3    H132631   7.083   2.482   3.123
10896TIP3    H232632   7.029   2.364   3.201
10897TIP3   OH232633   0.467   5.795   4.709
10897TIP3    H132634   0.553   5.835   4.705
10897TIP3    H232635   0.461   5.742   4.630
10898TIP3   OH232636   5.461   5.002   0.564
10898TIP3    H132637   5.445   5.077   0.507
10898TIP3    H232638   5.512   5.038   0.637
10899TIP3   OH232639   0.295   1.838  -0.030
10899TIP3    H132640   0.281   1.927   0.005
10899TIP3    H232641   0.244   1.782   0.029
10900TIP3   OH232642   1.657   4.615   6.344
10900TIP3    H132643   1.709   4.576   6.274
10900TIP3    H232644   1.624   4.540   6.393
10901TIP3   OH232645   0.259   7.664   0.280
10901TIP3    H132646   0.348   7.696   0.293
10901TIP3    H232647   0.229   7.708   0.201
10902TIP3   OH232648   4.655   7.161   3.293
10902TIP3    H132649   4.668   7.069   3.271
10902TIP3    H232650   4.744   7.195   3.305
10903TIP3   OH232651   7.588   7.165   0.208
10903TIP3    H132652   7.643   7.234   0.246
10903TIP3    H232653   7.501   7.180   0.245
10904TIP3   OH232654   4.663   6.556   3.996
10904TIP3    H132655   4.581   6.540   4.041
10904TIP3    H232656   4.705   6.626   4.047
10905TIP3   OH232657   0.821   0.732   3.550
10905TIP3    H132658   0.853   0.821   3.560
10905TIP3    H232659   0.740   0.730   3.602
10906TIP3   OH232660   6.905   2.344   5.114
10906TIP3    H132661   6.876   2.265   5.067
10906TIP3    H232662   6.878   2.417   5.058
10907TIP3   OH232663   1.938   3.250   1.260
10907TIP3    H132664   1.979   3.266   1.345
10907TIP3    H232665   1.949   3.157   1.245
10908TIP3   OH232666   0.195   4.143   1.893
10908TIP3    H132667   0.258   4.085   1.936
10908TIP3    H232668   0.133   4.166   1.963
10909TIP3   OH232669   1.866   4.297   1.590
10909TIP3    H132670   1.903   4.284   1.677
10909TIP3    H232671   1.824   4.383   1.594
10910TIP3   OH232672   1.265   5.309   2.311
10910TIP3    H132673   1.334   5.368   2.340
10910TIP3    H232674   1.306   5.223   2.304
10911TIP3   OH232675   7.290   5.780   0.197
10911TIP3    H132676   7.297   5.745   0.285
10911TIP3    H232677   7.324   5.711   0.140
10912TIP3   OH232678   3.258   0.457   3.999
10912TIP3    H132679   3.299   0.371   4.007
10912TIP3    H232680   3.245   0.487   4.089
10913TIP3   OH232681   6.848   3.900   0.515
10913TIP3    H132682   6.908   3.830   0.543
10913TIP3    H232683   6.857   3.903   0.420
10914TIP3   OH232684   4.737   3.870   3.771
10914TIP3    H132685   4.745   3.789   3.721
10914TIP3    H232686   4.645   3.896   3.762
10915TIP3   OH232687   5.365   7.527   5.744
10915TIP3    H132688   5.331   7.462   5.807
10915TIP3    H232689   5.433   7.481   5.696
10916TIP3   OH232690   4.959   2.437   0.093
10916TIP3    H132691   4.960   2.513   0.035
10916TIP3    H232692   4.910   2.466   0.170
10917TIP3   OH232693   5.056   4.953   4.913
10917TIP3    H132694   5.116   4.998   4.973
10917TIP3    H232695   5.081   4.860   4.920
10918TIP3   OH232696   6.276   4.661   0.154
10918TIP3    H132697   6.233   4.594   0.101
10918TIP3    H232698   6.247   4.744   0.115
10919TIP3   OH232699   3.489   6.149   4.312
10919TIP3    H132700   3.565   6.156   4.370
10919TIP3    H232701   3.522   6.178   4.226
10920TIP3   OH232702   2.048   5.710   2.350
10920TIP3    H132703   2.004   5.705   2.265
10920TIP3    H232704   2.139   5.688   2.332
10921TIP3   OH232705   0.186   2.004   6.186
10921TIP3    H132706   0.274   1.965   6.181
10921TIP3    H232707   0.179   2.038   6.275
10922TIP3   OH232708   0.575   3.212   3.032
10922TIP3    H132709   0.511   3.223   3.102
10922TIP3    H232710   0.526   3.172   2.960
10923TIP3   OH232711   5.236   3.781   0.522
10923TIP3    H132712   5.185   3.817   0.595
10923TIP3    H232713   5.170   3.753   0.458
10924TIP3   OH232714   7.617   1.029   3.339
10924TIP3    H132715   7.647   1.117   3.359
10924TIP3    H232716   7.665   0.973   3.400
10925TIP3   OH232717   7.754   4.431   0.842
10925TIP3    H132718   7.686   4.416   0.777
10925TIP3    H232719   7.836   4.412   0.796
10926TIP3   OH232720   2.503   6.679   5.000
10926TIP3    H132721   2.539   6.617   4.937
10926TIP3    H232722   2.486   6.758   4.948
10927TIP3   OH232723   0.288   3.655   6.516
10927TIP3    H132724   0.205   3.677   6.557
10927TIP3    H232725   0.265   3.589   6.450
10928TIP3   OH232726   6.751   4.496   5.926
10928TIP3    H132727   6.696   4.539   5.861
10928TIP3    H232728   6.828   4.466   5.877
10929TIP3   OH232729   0.507   3.584   4.630
10929TIP3    H132730   0.558   3.522   4.681
10929TIP3    H232731   0.439   3.531   4.588
10930TIP3   OH232732   1.427   6.324   1.703
10930TIP3    H132733   1.454   6.246   1.752
10930TIP3    H232734   1.501   6.342   1.644
10931TIP3   OH232735   3.412   5.225   5.556
10931TIP3    H132736   3.464   5.192   5.483
10931TIP3    H232737   3.450   5.310   5.576
10932TIP3   OH232738   4.669   6.418   3.292
10932TIP3    H132739   4.662   6.339   3.347
10932TIP3    H232740   4.759   6.446   3.303
10933TIP3   OH232741   1.645   7.261   5.453
10933TIP3    H132742   1.583   7.258   5.526
10933TIP3    H232743   1.598   7.308   5.383
10934TIP3   OH232744   6.156   7.397   4.668
10934TIP3    H132745   6.217   7.356   4.606
10934TIP3    H232746   6.168   7.348   4.750
10935TIP3   OH232747   7.579   7.368   5.190
10935TIP3    H132748   7.636   7.333   5.121
10935TIP3    H232749   7.621   7.448   5.219
10936TIP3   OH232750   7.710   6.347   2.349
10936TIP3    H132751   7.655   6.396   2.409
10936TIP3    H232752   7.691   6.384   2.263
10937TIP3   OH232753   7.261   6.563   4.631
10937TIP3    H132754   7.274   6.540   4.539
10937TIP3    H232755   7.270   6.659   4.633
10938TIP3   OH232756   5.683   1.122   6.786
10938TIP3    H132757   5.706   1.209   6.817
10938TIP3    H232758   5.764   1.086   6.751
10939TIP3   OH232759   4.332   5.745   2.921
10939TIP3    H132760   4.424   5.735   2.947
10939TIP3    H232761   4.317   5.674   2.858
10940TIP3   OH232762   4.524   2.436   6.734
10940TIP3    H132763   4.611   2.459   6.766
10940TIP3    H232764   4.479   2.520   6.726
10941TIP3   OH232765   0.345   7.616   3.219
10941TIP3    H132766   0.373   7.524   3.215
10941TIP3    H232767   0.422   7.665   3.189
10942TIP3   OH232768   6.924   0.148   4.228
10942TIP3    H132769   6.963   0.092   4.295
10942TIP3    H232770   6.853   0.194   4.272
10943TIP3   OH232771   0.918   6.916   0.453
10943TIP3    H132772   0.905   6.905   0.547
10943TIP3    H232773   0.987   6.855   0.431
10944TIP3   OH232774   5.266   3.202   2.735
10944TIP3    H132775   5.196   3.145   2.702
10944TIP3    H232776   5.338   3.189   2.673
10945TIP3   OH232777   2.048   2.487   0.514
10945TIP3    H132778   2.018   2.405   0.477
10945TIP3    H232779   2.127   2.464   0.563
10946TIP3   OH232780   5.110   7.036   6.079
10946TIP3    H132781   5.098   6.942   6.089
10946TIP3    H232782   5.148   7.047   5.992
10947TIP3   OH232783   0.639   6.195   1.068
10947TIP3    H132784   0.599   6.193   0.981
10947TIP3    H232785   0.729   6.225   1.053
10948TIP3   OH232786   0.768   3.874   4.143
10948TIP3    H132787   0.858   3.907   4.135
10948TIP3    H232788   0.778   3.785   4.176
10949TIP3   OH232789   5.264   0.473   4.323
10949TIP3    H132790   5.195   0.417   4.360
10949TIP3    H232791   5.234   0.495   4.235
10950TIP3   OH232792   0.183   4.677   6.756
10950TIP3    H132793   0.276   4.678   6.775
10950TIP3    H232794   0.169   4.752   6.699
10951TIP3   OH232795   5.968   4.852   2.461
10951TIP3    H132796   5.904   4.922   2.471
10951TIP3    H232797   6.030   4.866   2.532
10952TIP3   OH232798   8.270   5.076   2.666
10952TIP3    H132799   8.275   5.171   2.654
10952TIP3    H232800   8.183   5.053   2.635
10953TIP3   OH232801   6.685   4.503   1.003
10953TIP3    H132802   6.658   4.507   1.094
10953TIP3    H232803   6.624   4.441   0.963
10954TIP3   OH232804   2.268   2.292   1.297
10954TIP3    H132805   2.330   2.260   1.363
10954TIP3    H232806   2.318   2.295   1.216
10955TIP3   OH232807   5.322   7.038   3.391
10955TIP3    H132808   5.326   6.944   3.374
10955TIP3    H232809   5.357   7.048   3.480
10956TIP3   OH232810   1.512   2.039   1.566
10956TIP3    H132811   1.552   1.969   1.514
10956TIP3    H232812   1.575   2.054   1.637
10957TIP3   OH232813   4.755   2.332   2.528
10957TIP3    H132814   4.830   2.298   2.480
10957TIP3    H232815   4.776   2.424   2.543
10958TIP3   OH232816   4.694   1.732   6.102
10958TIP3    H132817   4.676   1.638   6.107
10958TIP3    H232818   4.690   1.753   6.009
10959TIP3   OH232819   5.895   6.606   5.570
10959TIP3    H132820   5.947   6.680   5.538
10959TIP3    H232821   5.945   6.572   5.644
10960TIP3   OH232822   1.208   4.816   4.312
10960TIP3    H132823   1.187   4.734   4.356
10960TIP3    H232824   1.234   4.790   4.224
10961TIP3   OH232825   6.523   5.293   3.081
10961TIP3    H132826   6.498   5.377   3.043
10961TIP3    H232827   6.611   5.276   3.047
10962TIP3   OH232828   4.746   2.445   1.744
10962TIP3    H132829   4.711   2.489   1.667
10962TIP3    H232830   4.803   2.510   1.785
10963TIP3   OH232831   4.815   6.674   0.177
10963TIP3    H132832   4.811   6.588   0.134
10963TIP3    H232833   4.772   6.734   0.116
10964TIP3   OH232834   4.128   3.337   1.306
10964TIP3    H132835   4.218   3.368   1.317
10964TIP3    H232836   4.128   3.292   1.221
10965TIP3   OH232837   2.566   5.169   2.966
10965TIP3    H132838   2.568   5.074   2.973
10965TIP3    H232839   2.638   5.190   2.906
10966TIP3   OH232840   7.969   6.553   6.643
10966TIP3    H132841   8.048   6.585   6.599
10966TIP3    H232842   7.932   6.490   6.582
10967TIP3   OH232843   7.852   7.515   2.710
10967TIP3    H132844   7.943   7.509   2.680
10967TIP3    H232845   7.807   7.562   2.640
10968TIP3   OH232846   4.937   1.944   0.125
10968TIP3    H132847   4.882   2.008   0.080
10968TIP3    H232848   5.026   1.962   0.094
10969TIP3   OH232849   5.485   2.799   4.190
10969TIP3    H132850   5.543   2.872   4.169
10969TIP3    H232851   5.445   2.822   4.273
10970TIP3   OH232852   2.750   4.574   2.592
10970TIP3    H132853   2.712   4.488   2.576
10970TIP3    H232854   2.677   4.635   2.581
10971TIP3   OH232855   3.964   0.938   3.884
10971TIP3    H132856   4.033   0.879   3.912
10971TIP3    H232857   3.979   0.949   3.790
10972TIP3   OH232858   5.513   2.870   0.537
10972TIP3    H132859   5.480   2.782   0.556
10972TIP3    H232860   5.591   2.855   0.483
10973TIP3   OH232861   2.234   5.509   2.257
10973TIP3    H132862   2.302   5.473   2.199
10973TIP3    H232863   2.154   5.464   2.231
10974TIP3   OH232864   4.253   7.159   6.737
10974TIP3    H132865   4.232   7.135   6.647
10974TIP3    H232866   4.349   7.154   6.741
10975TIP3   OH232867   6.678   2.094   4.374
10975TIP3    H132868   6.636   2.100   4.460
10975TIP3    H232869   6.716   2.006   4.373
10976TIP3   OH232870   0.714   2.913   0.619
10976TIP3    H132871   0.728   2.820   0.635
10976TIP3    H232872   0.738   2.926   0.528
10977TIP3   OH232873   3.840   0.581   2.040
10977TIP3    H132874   3.805   0.628   2.115
10977TIP3    H232875   3.763   0.542   1.998
10978TIP3   OH232876   3.067   5.314   6.255
10978TIP3    H132877   3.116   5.248   6.303
10978TIP3    H232878   3.108   5.397   6.280
10979TIP3   OH232879   3.034   0.124   1.945
10979TIP3    H132880   2.980   0.202   1.953
10979TIP3    H232881   3.033   0.085   2.033
10980TIP3   OH232882   0.478   6.625   2.842
10980TIP3    H132883   0.441   6.628   2.930
10980TIP3    H232884   0.414   6.672   2.788
10981TIP3   OH232885   0.681   6.288   6.631
10981TIP3    H132886   0.596   6.259   6.664
10981TIP3    H232887   0.664   6.375   6.594
10982TIP3   OH232888   5.154   1.500   3.672
10982TIP3    H132889   5.192   1.424   3.716
10982TIP3    H232890   5.139   1.470   3.582
10983TIP3   OH232891   7.828   3.069   5.876
10983TIP3    H132892   7.821   3.157   5.913
10983TIP3    H232893   7.895   3.025   5.928
10984TIP3   OH232894   7.017   5.195   4.041
10984TIP3    H132895   6.976   5.257   3.982
10984TIP3    H232896   6.978   5.214   4.127
10985TIP3   OH232897   2.694   5.854   3.667
10985TIP3    H132898   2.761   5.894   3.722
10985TIP3    H232899   2.648   5.927   3.626
10986TIP3   OH232900   7.379   4.536   1.334
10986TIP3    H132901   7.369   4.553   1.428
10986TIP3    H232902   7.451   4.592   1.307
10987TIP3   OH232903   3.584   6.336   6.660
10987TIP3    H132904   3.555   6.396   6.729
10987TIP3    H232905   3.545   6.372   6.580
10988TIP3   OH232906   5.319   4.918   0.289
10988TIP3    H132907   5.241   4.974   0.287
10988TIP3    H232908   5.362   4.932   0.205
10989TIP3   OH232909   0.406   7.369   2.665
10989TIP3    H132910   0.463   7.331   2.731
10989TIP3    H232911   0.464   7.387   2.591
10990TIP3   OH232912   6.723   2.467   1.034
10990TIP3    H132913   6.765   2.381   1.040
10990TIP3    H232914   6.631   2.447   1.017
10991TIP3   OH232915   2.757   4.859   1.594
10991TIP3    H132916   2.695   4.919   1.636
10991TIP3    H232917   2.786   4.906   1.515
10992TIP3   OH232918   3.040   3.229   4.325
10992TIP3    H132919   3.085   3.272   4.398
10992TIP3    H232920   3.108   3.219   4.258
10993TIP3   OH232921   0.776   2.338   6.510
10993TIP3    H132922   0.813   2.426   6.515
10993TIP3    H232923   0.841   2.288   6.460
10994TIP3   OH232924   6.674   1.815   3.300
10994TIP3    H132925   6.690   1.889   3.241
10994TIP3    H232926   6.652   1.742   3.243
10995TIP3   OH232927   5.574   2.423   0.420
10995TIP3    H132928   5.524   2.488   0.371
10995TIP3    H232929   5.566   2.342   0.369
10996TIP3   OH232930   6.850   3.216   3.525
10996TIP3    H132931   6.829   3.169   3.444
10996TIP3    H232932   6.924   3.167   3.562
10997TIP3   OH232933   3.514   0.673   5.322
10997TIP3    H132934   3.423   0.647   5.337
10997TIP3    H232935   3.514   0.710   5.234
10998TIP3   OH232936   0.073   0.148   1.452
10998TIP3    H132937   0.123   0.170   1.530
10998TIP3    H232938   0.001   0.211   1.451
10999TIP3   OH232939   7.563   3.968   5.222
10999TIP3    H132940   7.535   3.923   5.142
10999TIP3    H232941   7.585   4.057   5.194
11000TIP3   OH232942   8.166   2.761   4.802
11000TIP3    H132943   8.226   2.810   4.859
11000TIP3    H232944   8.142   2.684   4.852
11001TIP3   OH232945   7.915   6.457   2.563
11001TIP3    H132946   7.951   6.545   2.561
11001TIP3    H232947   7.888   6.440   2.473
11002TIP3   OH232948   4.381   5.495   0.809
11002TIP3    H132949   4.453   5.504   0.872
11002TIP3    H232950   4.422   5.510   0.724
11003TIP3   OH232951   4.965   3.230   0.453
11003TIP3    H132952   5.030   3.292   0.419
11003TIP3    H232953   4.892   3.285   0.481
11004TIP3   OH232954   7.644   3.314   6.711
11004TIP3    H132955   7.645   3.281   6.801
11004TIP3    H232956   7.583   3.387   6.713
11005TIP3   OH232957   3.193   5.490   3.115
11005TIP3    H132958   3.115   5.530   3.155
11005TIP3    H232959   3.171   5.486   3.022
11006TIP3   OH232960   4.424   7.042   1.581
11006TIP3    H132961   4.364   7.004   1.517
11006TIP3    H232962   4.460   7.119   1.538
11007TIP3   OH232963   1.017   0.598   0.693
11007TIP3    H132964   0.977   0.677   0.728
11007TIP3    H232965   0.992   0.529   0.756
11008TIP3   OH232966   0.695   4.132   2.572
11008TIP3    H132967   0.708   4.226   2.578
11008TIP3    H232968   0.608   4.117   2.608
11009TIP3   OH232969   7.990   7.350   0.742
11009TIP3    H132970   7.993   7.280   0.678
11009TIP3    H232971   8.078   7.387   0.741
11010TIP3   OH232972   2.640   1.594   5.264
11010TIP3    H132973   2.546   1.574   5.266
11010TIP3    H232974   2.683   1.512   5.289
11011TIP3   OH232975   3.447   5.049   1.793
11011TIP3    H132976   3.530   5.079   1.757
11011TIP3    H232977   3.447   5.078   1.884
11012TIP3   OH232978   8.243   2.960   4.214
11012TIP3    H132979   8.314   2.931   4.271
11012TIP3    H232980   8.221   2.883   4.162
11013TIP3   OH232981   1.227   6.337   0.914
11013TIP3    H132982   1.291   6.306   0.850
11013TIP3    H232983   1.142   6.314   0.876
11014TIP3   OH232984   0.252   4.774   4.978
11014TIP3    H132985   0.222   4.689   5.010
11014TIP3    H232986   0.177   4.810   4.930
11015TIP3   OH232987   1.121   5.110   3.097
11015TIP3    H132988   1.137   5.063   3.015
11015TIP3    H232989   1.148   5.048   3.165
11016TIP3   OH232990   0.362   3.027   5.784
11016TIP3    H132991   0.270   3.034   5.811
11016TIP3    H232992   0.391   3.118   5.774
11017TIP3   OH232993   6.938   7.751   6.104
11017TIP3    H132994   7.021   7.718   6.140
11017TIP3    H232995   6.963   7.825   6.049
11018TIP3   OH232996   4.054   2.127   6.623
11018TIP3    H132997   4.143   2.140   6.592
11018TIP3    H232998   4.051   2.174   6.706
11019TIP3   OH232999   5.964   4.950   3.972
11019TIP3    H133000   5.955   4.858   3.995
11019TIP3    H233001   5.899   4.995   4.027
11020TIP3   OH233002   4.062   6.340   4.463
11020TIP3    H133003   4.083   6.275   4.395
11020TIP3    H233004   4.035   6.288   4.538
11021TIP3   OH233005   7.647   1.334   6.021
11021TIP3    H133006   7.675   1.279   6.093
11021TIP3    H233007   7.565   1.295   5.991
11022TIP3   OH233008   3.285   0.273   5.092
11022TIP3    H133009   3.354   0.268   5.025
11022TIP3    H233010   3.237   0.353   5.071
11023TIP3   OH233011   7.086   0.031   6.587
11023TIP3    H133012   7.015   0.084   6.624
11023TIP3    H233013   7.089  -0.047   6.643
11024TIP3   OH233014   6.675   0.418   2.547
11024TIP3    H133015   6.639   0.456   2.627
11024TIP3    H233016   6.616   0.447   2.478
11025TIP3   OH233017   3.496   0.271   2.454
11025TIP3    H133018   3.446   0.191   2.435
11025TIP3    H233019   3.535   0.254   2.539
11026TIP3   OH233020   7.537   2.295   6.483
11026TIP3    H133021   7.493   2.289   6.399
11026TIP3    H233022   7.508   2.378   6.521
11027TIP3   OH233023   2.735   5.150   1.076
11027TIP3    H133024   2.696   5.210   1.013
11027TIP3    H233025   2.665   5.134   1.140
11028TIP3   OH233026   7.333   0.530   3.828
11028TIP3    H133027   7.324   0.452   3.774
11028TIP3    H233028   7.250   0.537   3.875
11029TIP3   OH233029   0.888   5.016   4.452
11029TIP3    H133030   0.802   5.054   4.467
11029TIP3    H233031   0.888   4.993   4.359
11030TIP3   OH233032   0.708   7.603   4.972
11030TIP3    H133033   0.698   7.512   5.000
11030TIP3    H233034   0.664   7.607   4.887
11031TIP3   OH233035   5.484   6.082   6.109
11031TIP3    H133036   5.437   6.074   6.193
11031TIP3    H233037   5.456   6.005   6.059
11032TIP3   OH233038   5.276   2.567   4.290
11032TIP3    H133039   5.233   2.652   4.287
11032TIP3    H233040   5.351   2.580   4.349
11033TIP3   OH233041   1.754   1.048   5.738
11033TIP3    H133042   1.663   1.018   5.727
11033TIP3    H233043   1.799   0.972   5.775
11034TIP3   OH233044   2.818   0.222   2.140
11034TIP3    H133045   2.762   0.276   2.196
11034TIP3    H233046   2.870   0.170   2.202
11035TIP3   OH233047   4.708   4.789   5.844
11035TIP3    H133048   4.658   4.837   5.909
11035TIP3    H233049   4.692   4.835   5.762
11036TIP3   OH233050   7.975   5.369   5.350
11036TIP3    H133051   7.907   5.305   5.328
11036TIP3    H233052   8.056   5.329   5.319
11037TIP3   OH233053   3.826   4.079   3.677
11037TIP3    H133054   3.861   4.098   3.763
11037TIP3    H233055   3.903   4.050   3.626
11038TIP3   OH233056   5.864   4.562   1.488
11038TIP3    H133057   5.927   4.634   1.481
11038TIP3    H233058   5.823   4.558   1.402
11039TIP3   OH233059   3.572   3.101   1.208
11039TIP3    H133060   3.513   3.161   1.163
11039TIP3    H233061   3.515   3.048   1.264
11040TIP3   OH233062   4.640   7.220   1.391
11040TIP3    H133063   4.568   7.277   1.421
11040TIP3    H233064   4.671   7.261   1.311
11041TIP3   OH233065   1.264   2.893   2.461
11041TIP3    H133066   1.357   2.882   2.479
11041TIP3    H233067   1.238   2.810   2.420
11042TIP3   OH233068   6.509   7.478   5.056
11042TIP3    H133069   6.451   7.445   5.125
11042TIP3    H233070   6.592   7.432   5.070
11043TIP3   OH233071   0.597   6.987   4.308
11043TIP3    H133072   0.660   6.938   4.360
11043TIP3    H233073   0.529   7.013   4.371
11044TIP3   OH233074   2.336   5.282   0.453
11044TIP3    H133075   2.321   5.355   0.394
11044TIP3    H233076   2.313   5.316   0.540
11045TIP3   OH233077   6.860   5.160   4.518
11045TIP3    H133078   6.764   5.162   4.512
11045TIP3    H233079   6.879   5.084   4.572
11046TIP3   OH233080   8.106   4.364   1.419
11046TIP3    H133081   8.143   4.279   1.393
11046TIP3    H233082   8.069   4.348   1.505
11047TIP3   OH233083   5.925   4.243   5.405
11047TIP3    H133084   5.841   4.245   5.452
11047TIP3    H233085   5.910   4.297   5.328
11048TIP3   OH233086   5.162   1.986   1.797
11048TIP3    H133087   5.081   1.958   1.755
11048TIP3    H233088   5.193   1.908   1.843
11049TIP3   OH233089   1.636   6.617   5.772
11049TIP3    H133090   1.658   6.656   5.857
11049TIP3    H233091   1.706   6.553   5.757
11050TIP3   OH233092   3.665   3.627   1.769
11050TIP3    H133093   3.760   3.621   1.779
11050TIP3    H233094   3.643   3.714   1.801
11051TIP3   OH233095   5.819   0.455   4.997
11051TIP3    H133096   5.780   0.447   5.084
11051TIP3    H233097   5.841   0.548   4.989
11052TIP3   OH233098   3.526   4.157   5.810
11052TIP3    H133099   3.538   4.250   5.794
11052TIP3    H233100   3.614   4.119   5.801
11053TIP3   OH233101   1.431   3.490   0.865
11053TIP3    H133102   1.398   3.498   0.954
11053TIP3    H233103   1.412   3.399   0.840
11054TIP3   OH233104   2.590   7.589   6.620
11054TIP3    H133105   2.634   7.523   6.568
11054TIP3    H233106   2.641   7.669   6.607
11055TIP3   OH233107   2.128   1.217   0.581
11055TIP3    H133108   2.197   1.161   0.616
11055TIP3    H233109   2.089   1.165   0.511
11056TIP3   OH233110   3.454   5.093   1.237
11056TIP3    H133111   3.418   5.180   1.254
11056TIP3    H233112   3.465   5.091   1.142
11057TIP3   OH233113   6.561   6.485   1.575
11057TIP3    H133114   6.640   6.436   1.600
11057TIP3    H233115   6.490   6.421   1.581
11058TIP3   OH233116   7.681   5.366   5.479
11058TIP3    H133117   7.716   5.282   5.512
11058TIP3    H233118   7.748   5.430   5.503
11059TIP3   OH233119   3.858   7.309   1.304
11059TIP3    H133120   3.877   7.326   1.211
11059TIP3    H233121   3.764   7.327   1.312
11060TIP3   OH233122   7.327   1.945   2.752
11060TIP3    H133123   7.280   1.863   2.738
11060TIP3    H233124   7.280   1.988   2.824
11061TIP3   OH233125   7.423   5.087   3.299
11061TIP3    H133126   7.408   5.176   3.331
11061TIP3    H233127   7.505   5.094   3.249
11062TIP3   OH233128   0.056   6.791   2.159
11062TIP3    H133129   0.054   6.699   2.133
11062TIP3    H233130   0.122   6.796   2.227
11063TIP3   OH233131   3.629   3.547   3.759
11063TIP3    H133132   3.659   3.638   3.756
11063TIP3    H233133   3.708   3.497   3.781
11064TIP3   OH233134   1.758   5.899   2.808
11064TIP3    H133135   1.838   5.872   2.764
11064TIP3    H233136   1.694   5.910   2.737
11065TIP3   OH233137   4.646   1.219   2.312
11065TIP3    H133138   4.736   1.242   2.334
11065TIP3    H233139   4.646   1.123   2.311
11066TIP3   OH233140   6.686   7.040   2.936
11066TIP3    H133141   6.673   6.952   2.899
11066TIP3    H233142   6.601   7.082   2.926
11067TIP3   OH233143   3.962   3.956   4.922
11067TIP3    H133144   3.960   3.918   5.009
11067TIP3    H233145   4.017   4.033   4.930
11068TIP3   OH233146   3.323   6.921   5.312
11068TIP3    H133147   3.309   6.826   5.307
11068TIP3    H233148   3.241   6.959   5.283
11069TIP3   OH233149   2.038   5.265   2.456
11069TIP3    H133150   1.968   5.217   2.500
11069TIP3    H233151   1.992   5.330   2.402
11070TIP3   OH233152   6.044   4.758   2.116
11070TIP3    H133153   6.094   4.762   2.034
11070TIP3    H233154   6.044   4.666   2.140
11071TIP3   OH233155   3.433   7.210   3.523
11071TIP3    H133156   3.408   7.126   3.562
11071TIP3    H233157   3.384   7.275   3.573
11072TIP3   OH233158   4.073   2.006   4.003
11072TIP3    H133159   3.999   1.951   4.028
11072TIP3    H233160   4.077   1.998   3.907
11073TIP3   OH233161   2.722   3.739   4.192
11073TIP3    H133162   2.711   3.732   4.287
11073TIP3    H233163   2.816   3.748   4.180
11074TIP3   OH233164   8.094   0.035   2.760
11074TIP3    H133165   8.169  -0.023   2.771
11074TIP3    H233166   8.132   0.123   2.751
11075TIP3   OH233167   1.599   7.633   0.239
11075TIP3    H133168   1.556   7.571   0.180
11075TIP3    H233169   1.568   7.608   0.326
11076TIP3   OH233170   5.719   4.045   3.037
11076TIP3    H133171   5.799   4.095   3.020
11076TIP3    H233172   5.670   4.098   3.100
11077TIP3   OH233173   2.666   1.457   4.902
11077TIP3    H133174   2.575   1.458   4.872
11077TIP3    H233175   2.661   1.424   4.992
11078TIP3   OH233176   7.017   6.929   6.527
11078TIP3    H133177   7.017   7.022   6.506
11078TIP3    H233178   7.098   6.895   6.488
11079TIP3   OH233179   0.226   1.707   6.020
11079TIP3    H133180   0.182   1.662   5.948
11079TIP3    H233181   0.156   1.727   6.082
11080TIP3   OH233182   1.500   4.359   3.641
11080TIP3    H133183   1.537   4.447   3.637
11080TIP3    H233184   1.464   4.344   3.553
11081TIP3   OH233185   0.574   4.225   6.543
11081TIP3    H133186   0.611   4.157   6.600
11081TIP3    H233187   0.633   4.299   6.552
11082TIP3   OH233188   5.748   5.675   6.445
11082TIP3    H133189   5.781   5.590   6.473
11082TIP3    H233190   5.664   5.656   6.402
11083TIP3   OH233191   6.967   4.107   6.608
11083TIP3    H133192   7.026   4.072   6.542
11083TIP3    H233193   6.906   4.162   6.560
11084TIP3   OH233194   3.254   3.073   4.728
11084TIP3    H133195   3.331   3.088   4.783
11084TIP3    H233196   3.288   3.072   4.639
11085TIP3   OH233197   5.565   7.286   0.209
11085TIP3    H133198   5.586   7.199   0.176
11085TIP3    H233199   5.621   7.345   0.158
11086TIP3   OH233200   3.728   0.455   3.844
11086TIP3    H133201   3.808   0.405   3.826
11086TIP3    H233202   3.751   0.546   3.826
11087TIP3   OH233203   4.818   2.800   3.193
11087TIP3    H133204   4.848   2.811   3.103
11087TIP3    H233205   4.886   2.841   3.247
11088TIP3   OH233206   6.800   5.258   3.003
11088TIP3    H133207   6.849   5.270   2.922
11088TIP3    H233208   6.861   5.288   3.072
11089TIP3   OH233209   3.260   4.498   3.323
11089TIP3    H133210   3.211   4.427   3.281
11089TIP3    H233211   3.320   4.454   3.383
11090TIP3   OH233212   5.962   1.781   6.401
11090TIP3    H133213   5.943   1.854   6.460
11090TIP3    H233214   5.912   1.707   6.437
11091TIP3   OH233215   0.200   6.377   0.701
11091TIP3    H133216   0.233   6.338   0.782
11091TIP3    H233217   0.163   6.303   0.652
11092TIP3   OH233218  -0.013   7.059   6.501
11092TIP3    H133219  -0.008   7.007   6.420
11092TIP3    H233220   0.065   7.115   6.498
11093TIP3   OH233221   6.208   7.815   2.535
11093TIP3    H133222   6.151   7.808   2.458
11093TIP3    H233223   6.266   7.739   2.529
11094TIP3   OH233224   0.698   4.575   0.469
11094TIP3    H133225   0.669   4.551   0.381
11094TIP3    H233226   0.676   4.668   0.478
11095TIP3   OH233227   5.946  -0.031   5.025
11095TIP3    H133228   5.904   0.051   5.048
11095TIP3    H233229   6.040  -0.013   5.034
11096TIP3   OH233230   4.805   3.942   0.813
11096TIP3    H133231   4.761   3.969   0.893
11096TIP3    H233232   4.758   3.987   0.743
11097TIP3   OH233233   6.428   0.982   2.536
11097TIP3    H133234   6.380   0.987   2.453
11097TIP3    H233235   6.478   0.901   2.530
11098TIP3   OH233236   1.957   7.103   2.930
11098TIP3    H133237   1.870   7.092   2.892
11098TIP3    H233238   2.010   7.033   2.890
11099TIP3   OH233239   7.973   4.915   4.211
11099TIP3    H133240   7.999   4.915   4.303
11099TIP3    H233241   8.021   4.841   4.172
11100TIP3   OH233242   4.967   3.596   2.895
11100TIP3    H133243   5.050   3.582   2.940
11100TIP3    H233244   4.980   3.676   2.845
11101TIP3   OH233245   1.715   7.551   2.095
11101TIP3    H133246   1.742   7.484   2.157
11101TIP3    H233247   1.709   7.505   2.011
11102TIP3   OH233248   4.274   2.284   2.989
11102TIP3    H133249   4.328   2.351   3.031
11102TIP3    H233250   4.186   2.298   3.024
11103TIP3   OH233251   2.514   1.316   0.374
11103TIP3    H133252   2.458   1.337   0.448
11103TIP3    H233253   2.500   1.387   0.311
11104TIP3   OH233254   1.338   7.527   3.202
11104TIP3    H133255   1.418   7.557   3.245
11104TIP3    H233256   1.268   7.549   3.263
11105TIP3   OH233257   6.305   3.468   4.517
11105TIP3    H133258   6.288   3.396   4.457
11105TIP3    H233259   6.339   3.426   4.596
11106TIP3   OH233260   3.578   1.560   3.713
11106TIP3    H133261   3.598   1.499   3.641
11106TIP3    H233262   3.585   1.506   3.792
11107TIP3   OH233263   1.763   0.949   4.580
11107TIP3    H133264   1.832   0.995   4.627
11107TIP3    H233265   1.801   0.864   4.557
11108TIP3   OH233266   7.377   6.171   1.516
11108TIP3    H133267   7.438   6.215   1.575
11108TIP3    H233268   7.325   6.242   1.479
11109TIP3   OH233269   4.167   5.357   1.559
11109TIP3    H133270   4.075   5.331   1.565
11109TIP3    H233271   4.182   5.369   1.465
11110TIP3   OH233272   2.573   3.810   5.911
11110TIP3    H133273   2.527   3.735   5.872
11110TIP3    H233274   2.556   3.883   5.851
11111TIP3   OH233275   1.819   0.557   0.118
11111TIP3    H133276   1.747   0.613   0.088
11111TIP3    H233277   1.792   0.529   0.206
11112TIP3   OH233278   6.647   5.347   2.509
11112TIP3    H133279   6.735   5.310   2.521
11112TIP3    H233280   6.590   5.292   2.562
11113TIP3   OH233281   6.828   0.129   4.508
11113TIP3    H133282   6.908   0.152   4.555
11113TIP3    H233283   6.814   0.037   4.530
11114TIP3   OH233284   4.979   1.972   2.220
11114TIP3    H133285   4.890   1.967   2.184
11114TIP3    H233286   5.026   2.030   2.160
11115TIP3   OH233287   4.319   1.719   1.226
11115TIP3    H133288   4.356   1.683   1.307
11115TIP3    H233289   4.225   1.702   1.232
11116TIP3   OH233290   6.486   1.473   5.803
11116TIP3    H133291   6.567   1.440   5.842
11116TIP3    H233292   6.439   1.513   5.876
11117TIP3   OH233293   5.653   6.811   5.425
11117TIP3    H133294   5.642   6.763   5.507
11117TIP3    H233295   5.572   6.795   5.377
11118TIP3   OH233296   2.214   1.854   2.342
11118TIP3    H133297   2.298   1.828   2.380
11118TIP3    H233298   2.184   1.777   2.293
11119TIP3   OH233299   7.476   6.566   5.635
11119TIP3    H133300   7.432   6.514   5.703
11119TIP3    H233301   7.422   6.554   5.557
11120TIP3   OH233302   0.273   0.312   3.312
11120TIP3    H133303   0.338   0.262   3.361
11120TIP3    H233304   0.284   0.402   3.344
11121TIP3   OH233305   6.916   5.197   2.515
11121TIP3    H133306   6.996   5.227   2.472
11121TIP3    H233307   6.920   5.102   2.509
11122TIP3   OH233308   1.951   6.654   4.874
11122TIP3    H133309   2.024   6.652   4.936
11122TIP3    H233310   1.962   6.736   4.826
11123TIP3   OH233311   5.213   1.747   1.932
11123TIP3    H133312   5.304   1.764   1.958
11123TIP3    H233313   5.212   1.655   1.906
11124TIP3   OH233314   6.750   4.149   0.959
11124TIP3    H133315   6.825   4.206   0.976
11124TIP3    H233316   6.684   4.207   0.921
11125TIP3   OH233317   6.056   4.109   0.743
11125TIP3    H133318   6.061   4.192   0.697
11125TIP3    H233319   5.965   4.080   0.730
11126TIP3   OH233320   5.575   5.349   5.731
11126TIP3    H133321   5.656   5.374   5.686
11126TIP3    H233322   5.538   5.433   5.760
11127TIP3   OH233323   1.865   0.956   2.051
11127TIP3    H133324   1.809   0.937   1.976
11127TIP3    H233325   1.953   0.966   2.014
11128TIP3   OH233326   7.444   1.062   0.326
11128TIP3    H133327   7.513   1.116   0.366
11128TIP3    H233328   7.430   0.991   0.388
11129TIP3   OH233329   5.410   1.089   4.052
11129TIP3    H133330   5.414   1.028   4.126
11129TIP3    H233331   5.318   1.088   4.025
11130TIP3   OH233332   2.583   0.901   3.870
11130TIP3    H133333   2.667   0.879   3.830
11130TIP3    H233334   2.529   0.933   3.798
11131TIP3   OH233335   4.285   7.659   1.126
11131TIP3    H133336   4.276   7.682   1.034
11131TIP3    H233337   4.375   7.626   1.134
11132TIP3   OH233338   1.689   1.546   3.099
11132TIP3    H133339   1.723   1.470   3.145
11132TIP3    H233340   1.659   1.604   3.169
11133TIP3   OH233341   4.710   7.737   2.367
11133TIP3    H133342   4.672   7.801   2.307
11133TIP3    H233343   4.800   7.727   2.337
11134TIP3   OH233344   4.937   1.647   0.192
11134TIP3    H133345   4.921   1.646   0.286
11134TIP3    H233346   4.900   1.730   0.162
11135TIP3   OH233347   5.136   6.736   5.052
11135TIP3    H133348   5.194   6.663   5.073
11135TIP3    H233349   5.192   6.798   5.004
11136TIP3   OH233350   2.901   5.923   2.500
11136TIP3    H133351   2.805   5.930   2.496
11136TIP3    H233352   2.919   5.888   2.587
11137TIP3   OH233353   0.364   4.906   5.182
11137TIP3    H133354   0.344   4.852   5.105
11137TIP3    H233355   0.304   4.981   5.174
11138TIP3   OH233356   4.830   4.293   3.388
11138TIP3    H133357   4.873   4.378   3.396
11138TIP3    H233358   4.888   4.232   3.433
11139TIP3   OH233359   6.084   7.746   3.106
11139TIP3    H133360   6.013   7.720   3.165
11139TIP3    H233361   6.050   7.820   3.057
11140TIP3   OH233362   0.406   1.405   1.448
11140TIP3    H133363   0.496   1.407   1.414
11140TIP3    H233364   0.377   1.315   1.434
11141TIP3   OH233365   1.619   4.035   2.732
11141TIP3    H133366   1.701   4.003   2.770
11141TIP3    H233367   1.595   4.110   2.786
11142TIP3   OH233368   5.783   3.235   6.696
11142TIP3    H133369   5.745   3.189   6.771
11142TIP3    H233370   5.874   3.250   6.721
11143TIP3   OH233371   6.349   2.628   1.807
11143TIP3    H133372   6.388   2.714   1.823
11143TIP3    H233373   6.314   2.602   1.892
11144TIP3   OH233374   6.164   6.807   3.084
11144TIP3    H133375   6.144   6.869   3.014
11144TIP3    H233376   6.255   6.827   3.108
11145TIP3   OH233377   6.264   3.228   3.686
11145TIP3    H133378   6.220   3.146   3.663
11145TIP3    H233379   6.335   3.236   3.622
11146TIP3   OH233380   8.222   0.165   5.017
11146TIP3    H133381   8.165   0.241   5.003
11146TIP3    H233382   8.163   0.097   5.049
11147TIP3   OH233383   4.229   4.178   4.590
11147TIP3    H133384   4.247   4.199   4.498
11147TIP3    H233385   4.172   4.248   4.620
11148TIP3   OH233386   1.400   3.084   1.689
11148TIP3    H133387   1.366   3.034   1.615
11148TIP3    H233388   1.350   3.053   1.764
11149TIP3   OH233389   1.440   2.698   4.445
11149TIP3    H133390   1.533   2.685   4.428
11149TIP3    H233391   1.437   2.755   4.522
11150TIP3   OH233392   4.398   0.146   5.571
11150TIP3    H133393   4.337   0.186   5.633
11150TIP3    H233394   4.389   0.198   5.491
11151TIP3   OH233395   5.904   6.787   2.156
11151TIP3    H133396   5.858   6.748   2.081
11151TIP3    H233397   5.871   6.739   2.231
11152TIP3   OH233398   7.974   1.336   4.791
11152TIP3    H133399   7.954   1.373   4.705
11152TIP3    H233400   7.934   1.248   4.789
11153TIP3   OH233401   7.580   1.354   2.904
11153TIP3    H133402   7.554   1.429   2.851
11153TIP3    H233403   7.498   1.318   2.938
11154TIP3   OH233404   7.964   6.537   3.982
11154TIP3    H133405   7.971   6.628   3.951
11154TIP3    H233406   8.051   6.517   4.016
11155TIP3   OH233407   7.293   1.547   3.963
11155TIP3    H133408   7.314   1.558   4.055
11155TIP3    H233409   7.251   1.461   3.958
11156TIP3   OH233410   0.989   0.522   5.500
11156TIP3    H133411   1.011   0.486   5.586
11156TIP3    H233412   1.033   0.607   5.498
11157TIP3   OH233413   2.146   7.699   1.322
11157TIP3    H133414   2.063   7.691   1.275
11157TIP3    H233415   2.213   7.691   1.255
11158TIP3   OH233416   0.552   3.631   0.018
11158TIP3    H133417   0.528   3.709   0.068
11158TIP3    H233418   0.473   3.577   0.018
11159TIP3   OH233419   3.579   5.244   3.883
11159TIP3    H133420   3.498   5.267   3.838
11159TIP3    H233421   3.635   5.321   3.871
11160TIP3   OH233422   8.162   0.997   2.600
11160TIP3    H133423   8.151   0.913   2.645
11160TIP3    H233424   8.091   1.052   2.633
11161TIP3   OH233425   7.277   0.672   1.132
11161TIP3    H133426   7.220   0.748   1.146
11161TIP3    H233427   7.362   0.710   1.109
11162TIP3   OH233428   6.804   5.138   1.164
11162TIP3    H133429   6.887   5.126   1.117
11162TIP3    H233430   6.739   5.094   1.108
11163TIP3   OH233431   5.450   1.289   2.330
11163TIP3    H133432   5.492   1.229   2.268
11163TIP3    H233433   5.494   1.271   2.414
11164TIP3   OH233434   3.568   5.709   1.546
11164TIP3    H133435   3.568   5.755   1.630
11164TIP3    H233436   3.478   5.678   1.535
11165TIP3   OH233437   0.634   3.073   6.207
11165TIP3    H133438   0.646   3.168   6.208
11165TIP3    H233439   0.706   3.040   6.153
11166TIP3   OH233440   1.653   5.572   5.460
11166TIP3    H133441   1.730   5.528   5.423
11166TIP3    H233442   1.690   5.645   5.510
11167TIP3   OH233443   2.263   3.554   2.943
11167TIP3    H133444   2.305   3.474   2.910
11167TIP3    H233445   2.244   3.605   2.864
11168TIP3   OH233446   7.263   3.335   0.206
11168TIP3    H133447   7.258   3.268   0.273
11168TIP3    H233448   7.173   3.346   0.175
11169TIP3   OH233449   1.266   5.025   3.666
11169TIP3    H133450   1.315   5.021   3.583
11169TIP3    H233451   1.316   5.087   3.720
11170TIP3   OH233452   6.412   6.722   4.503
11170TIP3    H133453   6.464   6.791   4.546
11170TIP3    H233454   6.478   6.665   4.462
11171TIP3   OH233455   5.905   1.556   0.619
11171TIP3    H133456   5.833   1.579   0.678
11171TIP3    H233457   5.971   1.515   0.676
11172TIP3   OH233458   6.824   4.915   4.083
11172TIP3    H133459   6.794   4.831   4.048
11172TIP3    H233460   6.818   4.905   4.178
11173TIP3   OH233461   3.898   6.657   3.957
11173TIP3    H133462   3.865   6.747   3.962
11173TIP3    H233463   3.900   6.627   4.048
11174TIP3   OH233464   5.816   6.580   4.282
11174TIP3    H133465   5.901   6.570   4.325
11174TIP3    H233466   5.757   6.607   4.353
11175TIP3   OH233467   3.567   4.179   6.300
11175TIP3    H133468   3.612   4.094   6.304
11175TIP3    H233469   3.517   4.184   6.382
11176TIP3   OH233470   4.552   1.451   6.570
11176TIP3    H133471   4.611   1.402   6.627
11176TIP3    H233472   4.591   1.538   6.562
11177TIP3   OH233473   2.650   5.061   1.879
11177TIP3    H133474   2.718   5.105   1.828
11177TIP3    H233475   2.621   5.127   1.942
11178TIP3   OH233476   4.358   3.168   3.076
11178TIP3    H133477   4.422   3.237   3.060
11178TIP3    H233478   4.386   3.095   3.022
11179TIP3   OH233479  -0.010   5.679   2.107
11179TIP3    H133480   0.010   5.674   2.014
11179TIP3    H233481   0.047   5.614   2.148
11180TIP3   OH233482   7.793   3.433   1.644
11180TIP3    H133483   7.698   3.434   1.642
11180TIP3    H233484   7.819   3.486   1.568
11181TIP3   OH233485   2.179   4.648   4.721
11181TIP3    H133486   2.247   4.580   4.730
11181TIP3    H233487   2.097   4.602   4.736
11182TIP3   OH233488   4.331   6.612   6.234
11182TIP3    H133489   4.284   6.694   6.221
11182TIP3    H233490   4.301   6.555   6.163
11183TIP3   OH233491   1.255   1.245   5.926
11183TIP3    H133492   1.279   1.167   5.975
11183TIP3    H233493   1.184   1.216   5.868
11184TIP3   OH233494   6.083   0.478   1.003
11184TIP3    H133495   6.066   0.429   0.922
11184TIP3    H233496   6.138   0.551   0.977
11185TIP3   OH233497   2.001   4.196   4.539
11185TIP3    H133498   2.034   4.285   4.523
11185TIP3    H233499   1.915   4.195   4.497
11186TIP3   OH233500   3.525   4.858   5.023
11186TIP3    H133501   3.452   4.822   4.973
11186TIP3    H233502   3.578   4.906   4.959
11187TIP3   OH233503   3.084   2.673   3.665
11187TIP3    H133504   3.134   2.753   3.683
11187TIP3    H233505   3.052   2.684   3.576
11188TIP3   OH233506   3.628   4.433   2.672
11188TIP3    H133507   3.586   4.348   2.655
11188TIP3    H233508   3.674   4.421   2.755
11189TIP3   OH233509   6.108   5.961   6.652
11189TIP3    H133510   6.116   6.004   6.566
11189TIP3    H233511   6.033   5.903   6.643
11190TIP3   OH233512   0.748   1.836   5.301
11190TIP3    H133513   0.744   1.741   5.316
11190TIP3    H233514   0.711   1.848   5.214
11191TIP3   OH233515   4.191   5.639   2.423
11191TIP3    H133516   4.102   5.623   2.391
11191TIP3    H233517   4.192   5.731   2.449
11192TIP3   OH233518   2.230   4.671   6.464
11192TIP3    H133519   2.167   4.604   6.493
11192TIP3    H233520   2.208   4.686   6.372
11193TIP3   OH233521   2.760   6.581   1.566
11193TIP3    H133522   2.669   6.571   1.594
11193TIP3    H233523   2.758   6.654   1.504
11194TIP3   OH233524   0.149   3.602   2.834
11194TIP3    H133525   0.072   3.576   2.783
11194TIP3    H233526   0.193   3.519   2.854
11195TIP3   OH233527   8.268   5.010   1.067
11195TIP3    H133528   8.197   4.946   1.054
11195TIP3    H233529   8.225   5.085   1.108
11196TIP3   OH233530   6.250   5.754   4.679
11196TIP3    H133531   6.295   5.751   4.595
11196TIP3    H233532   6.201   5.672   4.684
11197TIP3   OH233533   0.062   3.154   3.906
11197TIP3    H133534   0.040   3.185   3.818
11197TIP3    H233535   0.099   3.067   3.892
11198TIP3   OH233536   5.510   3.661   2.396
11198TIP3    H133537   5.558   3.584   2.427
11198TIP3    H233538   5.508   3.652   2.301
11199TIP3   OH233539   0.700   0.927   4.649
11199TIP3    H133540   0.744   0.915   4.733
11199TIP3    H233541   0.620   0.876   4.657
11200TIP3   OH233542   7.072   0.021   0.880
11200TIP3    H133543   6.983  -0.012   0.867
11200TIP3    H233544   7.073   0.106   0.836
11201TIP3   OH233545   2.389   4.848   4.976
11201TIP3    H133546   2.344   4.782   5.029
11201TIP3    H233547   2.482   4.825   4.982
11202TIP3   OH233548   3.493   6.154   4.910
11202TIP3    H133549   3.421   6.096   4.883
11202TIP3    H233550   3.538   6.176   4.828
11203TIP3   OH233551   5.372   4.386   1.726
11203TIP3    H133552   5.441   4.354   1.668
11203TIP3    H233553   5.416   4.401   1.810
11204TIP3   OH233554   0.524   6.377   4.374
11204TIP3    H133555   0.513   6.372   4.279
11204TIP3    H233556   0.599   6.435   4.387
11205TIP3   OH233557   7.558   4.826   6.073
11205TIP3    H133558   7.599   4.908   6.102
11205TIP3    H233559   7.499   4.853   6.002
11206TIP3   OH233560   0.921   7.190   3.903
11206TIP3    H133561   0.997   7.145   3.942
11206TIP3    H233562   0.848   7.129   3.918
11207TIP3   OH233563   0.811   5.217   5.502
11207TIP3    H133564   0.753   5.266   5.444
11207TIP3    H233565   0.850   5.284   5.559
11208TIP3   OH233566   4.102   0.383   6.253
11208TIP3    H133567   4.174   0.322   6.268
11208TIP3    H233568   4.145   0.467   6.237
11209TIP3   OH233569   2.307   3.365   2.734
11209TIP3    H133570   2.226   3.324   2.765
11209TIP3    H233571   2.278   3.425   2.665
11210TIP3   OH233572   3.093   1.097   2.098
11210TIP3    H133573   3.140   1.014   2.099
11210TIP3    H233574   3.135   1.148   2.029
11211TIP3   OH233575   0.990   3.947   1.624
11211TIP3    H133576   0.939   3.866   1.627
11211TIP3    H233577   0.928   4.015   1.647
11212TIP3   OH233578   5.213   6.425   0.050
11212TIP3    H133579   5.276   6.361   0.018
11212TIP3    H233580   5.220   6.499  -0.011
11213TIP3   OH233581   1.287   6.012   4.597
11213TIP3    H133582   1.227   6.029   4.525
11213TIP3    H233583   1.230   5.986   4.670
11214TIP3   OH233584   6.163   7.140   4.294
11214TIP3    H133585   6.185   7.213   4.352
11214TIP3    H233586   6.165   7.063   4.350
11215TIP3   OH233587   6.245   6.153   2.069
11215TIP3    H133588   6.224   6.244   2.093
11215TIP3    H233589   6.313   6.161   2.002
11216TIP3   OH233590   4.556   7.052   2.826
11216TIP3    H133591   4.621   7.117   2.852
11216TIP3    H233592   4.563   6.983   2.893
11217TIP3   OH233593   7.062   1.705   4.386
11217TIP3    H133594   7.109   1.657   4.454
11217TIP3    H233595   7.118   1.780   4.367
11218TIP3   OH233596   1.884   1.499   2.586
11218TIP3    H133597   1.804   1.471   2.541
11218TIP3    H233598   1.857   1.514   2.677
11219TIP3   OH233599   3.687   4.359   4.593
11219TIP3    H133600   3.677   4.300   4.518
11219TIP3    H233601   3.597   4.375   4.622
11220TIP3   OH233602   4.509   4.027   3.647
11220TIP3    H133603   4.457   4.105   3.669
11220TIP3    H233604   4.554   4.050   3.566
11221TIP3   OH233605   4.072   4.037   6.364
11221TIP3    H133606   4.082   4.056   6.270
11221TIP3    H233607   4.064   4.123   6.405
11222TIP3   OH233608   1.469   3.489   4.621
11222TIP3    H133609   1.506   3.553   4.561
11222TIP3    H233610   1.488   3.524   4.708
11223TIP3   OH233611   7.509   2.669   6.589
11223TIP3    H133612   7.441   2.631   6.644
11223TIP3    H233613   7.583   2.610   6.598
11224TIP3   OH233614   5.736   0.742   6.636
11224TIP3    H133615   5.664   0.767   6.577
11224TIP3    H233616   5.749   0.820   6.691
11225TIP3   OH233617   6.626   6.207   1.400
11225TIP3    H133618   6.716   6.176   1.404
11225TIP3    H233619   6.588   6.181   1.484
11226TIP3   OH233620   4.793   0.289   3.487
11226TIP3    H133621   4.714   0.288   3.434
11226TIP3    H233622   4.858   0.333   3.431
11227TIP3   OH233623   2.355   5.836   2.596
11227TIP3    H133624   2.266   5.871   2.589
11227TIP3    H233625   2.366   5.783   2.517
11228TIP3   OH233626   7.480   1.566   3.177
11228TIP3    H133627   7.504   1.487   3.224
11228TIP3    H233628   7.429   1.536   3.102
11229TIP3   OH233629   5.479   0.154   5.530
11229TIP3    H133630   5.513   0.073   5.569
11229TIP3    H233631   5.541   0.222   5.559
11230TIP3   OH233632   4.494   7.416   2.643
11230TIP3    H133633   4.446   7.343   2.605
11230TIP3    H233634   4.440   7.447   2.715
11231TIP3   OH233635   6.481   6.534   2.436
11231TIP3    H133636   6.435   6.595   2.378
11231TIP3    H233637   6.574   6.549   2.418
11232TIP3   OH233638   6.815   7.518   6.693
11232TIP3    H133639   6.904   7.524   6.729
11232TIP3    H233640   6.799   7.424   6.686
11233TIP3   OH233641   2.341   2.466   3.624
11233TIP3    H133642   2.338   2.545   3.677
11233TIP3    H233643   2.251   2.433   3.625
11234TIP3   OH233644   7.770   6.449   0.781
11234TIP3    H133645   7.768   6.466   0.875
11234TIP3    H233646   7.682   6.416   0.761
11235TIP3   OH233647   0.417   6.777   4.214
11235TIP3    H133648   0.461   6.861   4.229
11235TIP3    H233649   0.335   6.800   4.172
11236TIP3   OH233650   3.288   3.111   3.039
11236TIP3    H133651   3.216   3.049   3.053
11236TIP3    H233652   3.359   3.057   3.004
11237TIP3   OH233653   3.243   6.258   4.142
11237TIP3    H133654   3.177   6.321   4.170
11237TIP3    H233655   3.326   6.299   4.163
11238TIP3   OH233656   1.041   0.525   3.006
11238TIP3    H133657   1.089   0.546   2.926
11238TIP3    H233658   0.957   0.492   2.975
11239TIP3   OH233659   3.280   5.135   0.279
11239TIP3    H133660   3.308   5.116   0.190
11239TIP3    H233661   3.228   5.059   0.305
11240TIP3   OH233662   5.669   1.484   0.141
11240TIP3    H133663   5.655   1.575   0.116
11240TIP3    H233664   5.759   1.481   0.173
11241TIP3   OH233665   5.870   1.077   2.682
11241TIP3    H133666   5.903   1.027   2.607
11241TIP3    H233667   5.921   1.158   2.680
11242TIP3   OH233668   2.177  -0.011   2.260
11242TIP3    H133669   2.121   0.066   2.263
11242TIP3    H233670   2.210  -0.020   2.349
11243TIP3   OH233671   3.141   2.807   5.587
11243TIP3    H133672   3.152   2.793   5.681
11243TIP3    H233673   3.128   2.720   5.550
11244TIP3   OH233674   7.925   7.444   1.377
11244TIP3    H133675   7.947   7.365   1.426
11244TIP3    H233676   7.831   7.437   1.362
11245TIP3   OH233677   4.854   4.615   6.447
11245TIP3    H133678   4.773   4.572   6.474
11245TIP3    H233679   4.910   4.613   6.525
11246TIP3   OH233680   6.027   2.097   3.705
11246TIP3    H133681   6.111   2.065   3.674
11246TIP3    H233682   5.995   2.029   3.764
11247TIP3   OH233683   3.323   7.383   0.893
11247TIP3    H133684   3.416   7.366   0.877
11247TIP3    H233685   3.309   7.471   0.859
11248TIP3   OH233686   1.628   5.319   4.844
11248TIP3    H133687   1.553   5.363   4.885
11248TIP3    H233688   1.599   5.302   4.755
11249TIP3   OH233689   4.133   2.869   3.748
11249TIP3    H133690   4.075   2.885   3.674
11249TIP3    H233691   4.075   2.868   3.824
11250TIP3   OH233692   3.305   6.463   5.528
11250TIP3    H133693   3.396   6.451   5.556
11250TIP3    H233694   3.286   6.555   5.545
11251TIP3   OH233695   4.332   6.736   5.584
11251TIP3    H133696   4.397   6.683   5.631
11251TIP3    H233697   4.251   6.687   5.592
11252TIP3   OH233698   7.798   7.053   6.145
11252TIP3    H133699   7.830   7.031   6.057
11252TIP3    H233700   7.793   6.969   6.191
11253TIP3   OH233701   4.233   3.297   0.084
11253TIP3    H133702   4.141   3.274   0.073
11253TIP3    H233703   4.281   3.221   0.051
11254TIP3   OH233704   2.340   3.461   0.859
11254TIP3    H133705   2.294   3.517   0.797
11254TIP3    H233706   2.274   3.440   0.926
11255TIP3   OH233707   6.470   6.338   4.987
11255TIP3    H133708   6.422   6.404   5.036
11255TIP3    H233709   6.562   6.358   5.004
11256TIP3   OH233710   3.941   3.528   1.804
11256TIP3    H133711   3.900   3.449   1.770
11256TIP3    H233712   4.018   3.542   1.748
11257TIP3   OH233713   1.429   7.591   2.071
11257TIP3    H133714   1.518   7.588   2.106
11257TIP3    H233715   1.374   7.556   2.142
11258TIP3   OH233716   2.896   4.171   1.838
11258TIP3    H133717   2.862   4.232   1.903
11258TIP3    H233718   2.847   4.090   1.853
11259TIP3   OH233719   8.189   3.918   3.090
11259TIP3    H133720   8.136   3.847   3.055
11259TIP3    H233721   8.181   3.910   3.185
11260TIP3   OH233722   8.075   4.239   5.461
11260TIP3    H133723   8.033   4.322   5.439
11260TIP3    H233724   8.164   4.247   5.429
11261TIP3   OH233725   7.869   6.500   4.675
11261TIP3    H133726   7.881   6.432   4.741
11261TIP3    H233727   7.836   6.454   4.598
11262TIP3   OH233728   1.613   2.682   6.346
11262TIP3    H133729   1.670   2.750   6.311
11262TIP3    H233730   1.534   2.729   6.373
11263TIP3   OH233731   1.769   0.154   6.112
11263TIP3    H133732   1.794   0.223   6.050
11263TIP3    H233733   1.683   0.126   6.083
11264TIP3   OH233734   5.383   2.791   2.962
11264TIP3    H133735   5.358   2.811   2.872
11264TIP3    H233736   5.361   2.698   2.973
11265TIP3   OH233737   6.136   6.141   1.140
11265TIP3    H133738   6.222   6.146   1.098
11265TIP3    H233739   6.119   6.047   1.148
11266TIP3   OH233740   7.441   0.713   3.643
11266TIP3    H133741   7.418   0.665   3.722
11266TIP3    H233742   7.357   0.742   3.607
11267TIP3   OH233743   0.765   4.946   5.623
11267TIP3    H133744   0.858   4.930   5.608
11267TIP3    H233745   0.747   5.030   5.581
11268TIP3   OH233746   6.988   2.794   5.475
11268TIP3    H133747   6.895   2.787   5.454
11268TIP3    H233748   7.003   2.888   5.487
11269TIP3   OH233749   8.005   5.657   5.280
11269TIP3    H133750   7.999   5.569   5.318
11269TIP3    H233751   7.926   5.666   5.228
11270TIP3   OH233752   0.316   4.625   0.578
11270TIP3    H133753   0.354   4.712   0.564
11270TIP3    H233754   0.222   4.637   0.567
11271TIP3   OH233755   6.308   2.199   5.609
11271TIP3    H133756   6.237   2.181   5.547
11271TIP3    H233757   6.273   2.266   5.667
11272TIP3   OH233758   5.972   3.732   0.614
11272TIP3    H133759   5.929   3.659   0.658
11272TIP3    H233760   5.914   3.753   0.540
11273TIP3   OH233761   5.528   7.570   1.808
11273TIP3    H133762   5.483   7.653   1.796
11273TIP3    H233763   5.463   7.514   1.851
11274TIP3   OH233764   6.873   4.195   5.593
11274TIP3    H133765   6.923   4.142   5.531
11274TIP3    H233766   6.786   4.154   5.593
11275TIP3   OH233767   5.863   6.662   3.558
11275TIP3    H133768   5.944   6.625   3.523
11275TIP3    H233769   5.888   6.749   3.589
11276TIP3   OH233770   3.263   7.490   0.320
11276TIP3    H133771   3.343   7.535   0.350
11276TIP3    H233772   3.272   7.486   0.225
11277TIP3   OH233773   0.073   1.468   1.274
11277TIP3    H133774   0.079   1.388   1.326
11277TIP3    H233775  -0.019   1.471   1.247
11278TIP3   OH233776   6.866   3.487   1.512
11278TIP3    H133777   6.825   3.527   1.589
11278TIP3    H233778   6.941   3.543   1.493
11279TIP3   OH233779   3.522   6.635   2.871
11279TIP3    H133780   3.545   6.728   2.876
11279TIP3    H233781   3.563   6.596   2.948
11280TIP3   OH233782   2.049   4.967   2.895
11280TIP3    H133783   2.040   4.877   2.862
11280TIP3    H233784   2.136   4.995   2.866
11281TIP3   OH233785   1.050   1.604   2.113
11281TIP3    H133786   1.130   1.654   2.102
11281TIP3    H233787   1.022   1.620   2.203
11282TIP3   OH233788   1.405   7.245   5.579
11282TIP3    H133789   1.423   7.283   5.665
11282TIP3    H233790   1.319   7.204   5.589
11283TIP3   OH233791   2.327   7.263   0.697
11283TIP3    H133792   2.345   7.299   0.784
11283TIP3    H233793   2.386   7.188   0.690
11284TIP3   OH233794   2.841   7.046   4.406
11284TIP3    H133795   2.770   6.996   4.447
11284TIP3    H233796   2.866   7.111   4.472
11285TIP3   OH233797   3.065   1.283   1.085
11285TIP3    H133798   3.051   1.377   1.097
11285TIP3    H233799   2.980   1.250   1.056
11286TIP3   OH233800   1.008   1.731   6.573
11286TIP3    H133801   0.927   1.691   6.606
11286TIP3    H233802   1.029   1.799   6.636
11287TIP3   OH233803   6.071   2.437   5.444
11287TIP3    H133804   5.989   2.486   5.436
11287TIP3    H233805   6.098   2.421   5.353
11288TIP3   OH233806   1.341   5.440   4.515
11288TIP3    H133807   1.400   5.510   4.544
11288TIP3    H233808   1.364   5.365   4.571
11289TIP3   OH233809   0.510   4.786   6.245
11289TIP3    H133810   0.470   4.828   6.169
11289TIP3    H233811   0.441   4.731   6.281
11290TIP3   OH233812   5.569   7.814   1.154
11290TIP3    H133813   5.610   7.748   1.098
11290TIP3    H233814   5.497   7.768   1.197
11291TIP3   OH233815   6.222   3.710   5.233
11291TIP3    H133816   6.268   3.786   5.269
11291TIP3    H233817   6.231   3.643   5.301
11292TIP3   OH233818   1.130   1.711   3.098
11292TIP3    H133819   1.126   1.792   3.047
11292TIP3    H233820   1.180   1.734   3.176
11293TIP3   OH233821   5.133   0.298   0.561
11293TIP3    H133822   5.165   0.363   0.624
11293TIP3    H233823   5.107   0.223   0.616
11294TIP3   OH233824   5.728   5.669   1.956
11294TIP3    H133825   5.821   5.674   1.977
11294TIP3    H233826   5.725   5.645   1.863
11295TIP3   OH233827   4.769   6.046   1.604
11295TIP3    H133828   4.687   6.080   1.641
11295TIP3    H233829   4.833   6.055   1.674
11296TIP3   OH233830   5.800   2.187   5.802
11296TIP3    H133831   5.719   2.142   5.779
11296TIP3    H233832   5.845   2.127   5.861
11297TIP3   OH233833   3.735   6.205   0.807
11297TIP3    H133834   3.691   6.210   0.722
11297TIP3    H233835   3.741   6.111   0.825
11298TIP3   OH233836   3.660   1.329   1.616
11298TIP3    H133837   3.714   1.330   1.537
11298TIP3    H233838   3.715   1.287   1.682
11299TIP3   OH233839   5.609   7.542   6.360
11299TIP3    H133840   5.648   7.628   6.369
11299TIP3    H233841   5.544   7.537   6.430
11300TIP3   OH233842   6.097   6.773   5.474
11300TIP3    H133843   6.175   6.827   5.477
11300TIP3    H233844   6.026   6.835   5.455
11301TIP3   OH233845   6.795   7.744   2.902
11301TIP3    H133846   6.887   7.721   2.908
11301TIP3    H233847   6.761   7.690   2.831
11302TIP3   OH233848   3.933   7.619   0.571
11302TIP3    H133849   3.990   7.600   0.496
11302TIP3    H233850   3.904   7.709   0.558
11303TIP3   OH233851   1.785   7.479   0.949
11303TIP3    H133852   1.744   7.397   0.923
11303TIP3    H233853   1.858   7.490   0.888
11304TIP3   OH233854   2.922   3.557   2.989
11304TIP3    H133855   2.895   3.547   2.898
11304TIP3    H233856   3.017   3.545   2.987
11305TIP3   OH233857   4.497   2.377   1.877
11305TIP3    H133858   4.568   2.418   1.828
11305TIP3    H233859   4.417   2.417   1.841
11306TIP3   OH233860   2.428   2.864   2.685
11306TIP3    H133861   2.442   2.834   2.595
11306TIP3    H233862   2.471   2.798   2.739
11307TIP3   OH233863   4.019   6.275   3.131
11307TIP3    H133864   3.950   6.341   3.130
11307TIP3    H233865   4.021   6.243   3.222
11308TIP3   OH233866   0.168   3.804   6.747
11308TIP3    H133867   0.179   3.756   6.829
11308TIP3    H233868   0.227   3.879   6.755
11309TIP3   OH233869   7.674   4.668   2.670
11309TIP3    H133870   7.721   4.749   2.692
11309TIP3    H233871   7.660   4.625   2.754
11310TIP3   OH233872   5.327   3.184   1.807
11310TIP3    H133873   5.242   3.168   1.766
11310TIP3    H233874   5.306   3.224   1.891
11311TIP3   OH233875   4.254   6.037   2.893
11311TIP3    H133876   4.311   6.018   2.818
11311TIP3    H233877   4.247   5.953   2.938
11312TIP3   OH233878   4.009   0.988   0.614
11312TIP3    H133879   4.076   1.054   0.631
11312TIP3    H233880   4.057   0.906   0.605
11313TIP3   OH233881   5.118   7.547   6.294
11313TIP3    H133882   5.124   7.610   6.366
11313TIP3    H233883   5.113   7.602   6.216
11314TIP3   OH233884   4.708   6.333   0.147
11314TIP3    H133885   4.799   6.351   0.125
11314TIP3    H233886   4.707   6.327   0.242
11315TIP3   OH233887   7.022   2.787   6.777
11315TIP3    H133888   6.991   2.818   6.692
11315TIP3    H233889   6.947   2.798   6.835
11316TIP3   OH233890   1.572   6.585   0.584
11316TIP3    H133891   1.542   6.626   0.503
11316TIP3    H233892   1.663   6.615   0.593
11317TIP3   OH233893   4.025   2.352   3.110
11317TIP3    H133894   4.086   2.389   3.175
11317TIP3    H233895   4.000   2.268   3.147
11318TIP3   OH233896   4.615   2.140   3.924
11318TIP3    H133897   4.588   2.105   4.009
11318TIP3    H233898   4.534   2.143   3.873
11319TIP3   OH233899   5.098   4.742   2.157
11319TIP3    H133900   5.121   4.703   2.073
11319TIP3    H233901   5.150   4.823   2.161
11320TIP3   OH233902   4.561   5.782   6.519
11320TIP3    H133903   4.600   5.810   6.602
11320TIP3    H233904   4.595   5.693   6.505
11321TIP3   OH233905   8.283   7.124   0.939
11321TIP3    H133906   8.220   7.053   0.929
11321TIP3    H233907   8.309   7.122   1.031
11322TIP3   OH233908   5.477   2.954   1.946
11322TIP3    H133909   5.451   3.018   1.880
11322TIP3    H233910   5.402   2.947   2.005
11323TIP3   OH233911   7.642   6.465   3.618
11323TIP3    H133912   7.591   6.538   3.584
11323TIP3    H233913   7.604   6.448   3.705
11324TIP3   OH233914   4.509   7.350   6.477
11324TIP3    H133915   4.458   7.308   6.546
11324TIP3    H233916   4.571   7.283   6.448
11325TIP3   OH233917   6.607   5.909   1.218
11325TIP3    H133918   6.540   5.842   1.230
11325TIP3    H233919   6.578   5.958   1.141
11326TIP3   OH233920   3.451   7.635   2.869
11326TIP3    H133921   3.482   7.598   2.787
11326TIP3    H233922   3.363   7.598   2.880
11327TIP3   OH233923   0.243   6.482   1.017
11327TIP3    H133924   0.157   6.441   1.012
11327TIP3    H233925   0.247   6.519   1.105
11328TIP3   OH233926   1.307   5.949   1.725
11328TIP3    H133927   1.259   5.884   1.674
11328TIP3    H233928   1.395   5.948   1.689
11329TIP3   OH233929   4.361   6.597   4.159
11329TIP3    H133930   4.270   6.610   4.135
11329TIP3    H233931   4.369   6.503   4.175
11330TIP3   OH233932   2.636   2.334   6.709
11330TIP3    H133933   2.595   2.256   6.746
11330TIP3    H233934   2.703   2.300   6.649
11331TIP3   OH233935   1.176   0.235   2.495
11331TIP3    H133936   1.211   0.174   2.429
11331TIP3    H233937   1.085   0.247   2.470
11332TIP3   OH233938   3.221   6.390   0.547
11332TIP3    H133939   3.150   6.355   0.493
11332TIP3    H233940   3.177   6.428   0.623
11333TIP3   OH233941   6.115   2.338   1.798
11333TIP3    H133942   6.116   2.251   1.759
11333TIP3    H233943   6.206   2.357   1.819
11334TIP3   OH233944   3.988   1.467   5.568
11334TIP3    H133945   3.929   1.452   5.641
11334TIP3    H233946   3.958   1.550   5.530
11335TIP3   OH233947   0.084   5.666   3.668
11335TIP3    H133948   0.139   5.701   3.597
11335TIP3    H233949   0.089   5.733   3.736
11336TIP3   OH233950   5.501   7.810   2.320
11336TIP3    H133951   5.417   7.818   2.274
11336TIP3    H233952   5.555   7.757   2.263
11337TIP3   OH233953   1.025   7.328   5.113
11337TIP3    H133954   1.111   7.293   5.137
11337TIP3    H233955   1.026   7.418   5.146
11338TIP3   OH233956   1.682   0.164   0.207
11338TIP3    H133957   1.604   0.176   0.153
11338TIP3    H233958   1.678   0.236   0.271
11339TIP3   OH233959   0.323   2.860   1.015
11339TIP3    H133960   0.312   2.953   1.034
11339TIP3    H233961   0.257   2.816   1.069
11340TIP3   OH233962   3.330   7.008   6.600
11340TIP3    H133963   3.378   6.998   6.518
11340TIP3    H233964   3.397   7.039   6.662
11341TIP3   OH233965   5.613   2.317   2.431
11341TIP3    H133966   5.608   2.238   2.485
11341TIP3    H233967   5.699   2.355   2.452
11342TIP3   OH233968   5.071   3.236   1.095
11342TIP3    H133969   5.055   3.150   1.134
11342TIP3    H233970   5.150   3.225   1.043
11343TIP3   OH233971   0.738   4.386   2.641
11343TIP3    H133972   0.656   4.431   2.620
11343TIP3    H233973   0.798   4.413   2.572
11344TIP3   OH233974   0.562   2.344   1.285
11344TIP3    H133975   0.560   2.303   1.198
11344TIP3    H233976   0.470   2.348   1.311
11345TIP3   OH233977   5.338   3.878   5.876
11345TIP3    H133978   5.357   3.967   5.849
11345TIP3    H233979   5.324   3.884   5.971
11346TIP3   OH233980   6.308   5.536   0.186
11346TIP3    H133981   6.269   5.532   0.099
11346TIP3    H233982   6.347   5.623   0.190
11347TIP3   OH233983   6.797   6.693   0.337
11347TIP3    H133984   6.853   6.713   0.262
11347TIP3    H233985   6.809   6.768   0.396
11348TIP3   OH233986   6.324   5.988   3.356
11348TIP3    H133987   6.251   5.930   3.381
11348TIP3    H233988   6.397   5.958   3.409
11349TIP3   OH233989   3.043   4.198   1.437
11349TIP3    H133990   3.109   4.267   1.429
11349TIP3    H233991   2.978   4.234   1.498
11350TIP3   OH233992   7.715   1.313  -0.028
11350TIP3    H133993   7.631   1.350  -0.055
11350TIP3    H233994   7.693   1.229   0.011
11351TIP3   OH233995   5.495   5.820   5.395
11351TIP3    H133996   5.451   5.804   5.478
11351TIP3    H233997   5.504   5.915   5.390
11352TIP3   OH233998   5.721   4.629   6.115
11352TIP3    H133999   5.635   4.587   6.105
11352TIP3    H234000   5.728   4.647   6.208
11353TIP3   OH234001   1.335   3.257   2.991
11353TIP3    H134002   1.256   3.218   2.953
11353TIP3    H234003   1.403   3.241   2.925
11354TIP3   OH234004   1.666   0.418   1.341
11354TIP3    H134005   1.697   0.328   1.355
11354TIP3    H234006   1.695   0.440   1.253
11355TIP3   OH234007   4.975   4.411   1.012
11355TIP3    H134008   4.956   4.324   1.047
11355TIP3    H234009   5.070   4.420   1.020
11356TIP3   OH234010   3.510   3.885   6.157
11356TIP3    H134011   3.604   3.899   6.169
11356TIP3    H234012   3.482   3.955   6.098
11357TIP3   OH234013   2.407   1.626   5.907
11357TIP3    H134014   2.321   1.659   5.882
11357TIP3    H234015   2.439   1.690   5.971
11358TIP3   OH234016   7.010   6.423   0.076
11358TIP3    H134017   7.032   6.442   0.168
11358TIP3    H234018   7.043   6.497   0.027
11359TIP3   OH234019   4.682   4.237   1.129
11359TIP3    H134020   4.762   4.213   1.080
11359TIP3    H234021   4.707   4.316   1.177
11360TIP3   OH234022   3.955   0.319   0.106
11360TIP3    H134023   3.960   0.386   0.174
11360TIP3    H234024   4.041   0.320   0.064
11361TIP3   OH234025   1.713   5.105   0.518
11361TIP3    H134026   1.746   5.017   0.502
11361TIP3    H234027   1.787   5.162   0.497
11362TIP3   OH234028   7.600   5.079   2.551
11362TIP3    H134029   7.645   4.996   2.569
11362TIP3    H234030   7.657   5.146   2.591
11363TIP3   OH234031   3.637   0.434   0.025
11363TIP3    H134032   3.567   0.392  -0.025
11363TIP3    H234033   3.698   0.363   0.045
11364TIP3   OH234034   3.011   6.648   1.336
11364TIP3    H134035   2.979   6.562   1.362
11364TIP3    H234036   3.076   6.631   1.267
11365TIP3   OH234037   7.099   5.665   4.739
11365TIP3    H134038   7.043   5.599   4.699
11365TIP3    H234039   7.094   5.646   4.833
11366TIP3   OH234040   1.390   3.758   0.598
11366TIP3    H134041   1.327   3.693   0.630
11366TIP3    H234042   1.475   3.714   0.607
11367TIP3   OH234043   7.793   7.605   4.361
11367TIP3    H134044   7.743   7.644   4.290
11367TIP3    H234045   7.844   7.677   4.397
11368TIP3   OH234046   5.781   5.674   0.020
11368TIP3    H134047   5.717   5.744   0.028
11368TIP3    H234048   5.805   5.653   0.111
11369TIP3   OH234049   8.228   6.867   3.629
11369TIP3    H134050   8.177   6.894   3.553
11369TIP3    H234051   8.217   6.938   3.693
11370TIP3   OH234052   5.728   3.465   4.740
11370TIP3    H134053   5.667   3.535   4.763
11370TIP3    H234054   5.673   3.389   4.725
11371TIP3   OH234055   6.666   3.910   5.301
11371TIP3    H134056   6.728   3.953   5.242
11371TIP3    H234057   6.660   3.820   5.267
11372TIP3   OH234058   1.890   0.306   2.897
11372TIP3    H134059   1.861   0.277   2.810
11372TIP3    H234060   1.820   0.363   2.928
11373TIP3   OH234061   0.753   3.908   5.164
11373TIP3    H134062   0.797   3.993   5.157
11373TIP3    H234063   0.660   3.929   5.170
11374TIP3   OH234064   5.233   7.128   3.636
11374TIP3    H134065   5.312   7.174   3.663
11374TIP3    H234066   5.169   7.197   3.621
11375TIP3   OH234067   7.417   7.086   5.795
11375TIP3    H134068   7.435   7.179   5.812
11375TIP3    H234069   7.324   7.076   5.812
11376TIP3   OH234070   0.809   0.826   6.383
11376TIP3    H134071   0.859   0.798   6.307
11376TIP3    H234072   0.870   0.882   6.433
11377TIP3   OH234073   2.306   1.259   6.455
11377TIP3    H134074   2.314   1.292   6.544
11377TIP3    H234075   2.273   1.334   6.405
11378TIP3   OH234076   6.975   7.652   5.679
11378TIP3    H134077   6.928   7.591   5.623
11378TIP3    H234078   6.935   7.641   5.766
11379TIP3   OH234079   0.266   4.002   1.435
11379TIP3    H134080   0.198   4.026   1.498
11379TIP3    H234081   0.268   4.075   1.373
11380TIP3   OH234082   4.292   5.347   2.406
11380TIP3    H134083   4.328   5.358   2.494
11380TIP3    H234084   4.245   5.429   2.390
11381TIP3   OH234085   3.880   5.336   1.526
11381TIP3    H134086   3.794   5.332   1.568
11381TIP3    H234087   3.878   5.416   1.475
11382TIP3   OH234088   5.534   7.170   6.554
11382TIP3    H134089   5.592   7.109   6.600
11382TIP3    H234090   5.593   7.234   6.515
11383TIP3   OH234091   5.248   2.112   3.146
11383TIP3    H134092   5.261   2.116   3.241
11383TIP3    H234093   5.153   2.112   3.135
11384TIP3   OH234094   1.623   2.169   6.565
11384TIP3    H134095   1.570   2.146   6.489
11384TIP3    H234096   1.648   2.260   6.551
11385TIP3   OH234097   1.782   3.394   3.981
11385TIP3    H134098   1.715   3.399   4.049
11385TIP3    H234099   1.752   3.324   3.923
11386TIP3   OH234100   5.346   6.768   3.746
11386TIP3    H134101   5.421   6.774   3.686
11386TIP3    H234102   5.350   6.849   3.797
11387TIP3   OH234103   7.663   1.482   3.958
11387TIP3    H134104   7.648   1.557   4.016
11387TIP3    H234105   7.588   1.425   3.973
11388TIP3   OH234106   4.670   0.588   3.328
11388TIP3    H134107   4.753   0.542   3.318
11388TIP3    H234108   4.604   0.525   3.299
11389TIP3   OH234109   6.456   4.423   5.871
11389TIP3    H134110   6.512   4.359   5.826
11389TIP3    H234111   6.381   4.372   5.902
11390TIP3   OH234112   1.547   5.946   3.490
11390TIP3    H134113   1.472   5.898   3.525
11390TIP3    H234114   1.540   5.935   3.395
11391TIP3   OH234115   6.420   6.754   6.646
11391TIP3    H134116   6.367   6.681   6.614
11391TIP3    H234117   6.357   6.817   6.681
11392TIP3   OH234118   4.089   4.667   4.755
11392TIP3    H134119   4.091   4.761   4.739
11392TIP3    H234120   4.061   4.659   4.846
11393TIP3   OH234121   2.667   1.283   1.403
11393TIP3    H134122   2.649   1.324   1.318
11393TIP3    H234123   2.717   1.349   1.452
11394TIP3   OH234124   4.353   5.920   3.630
11394TIP3    H134125   4.325   5.896   3.542
11394TIP3    H234126   4.402   6.002   3.618
11395TIP3   OH234127   5.923   4.589   2.488
11395TIP3    H134128   5.963   4.676   2.477
11395TIP3    H234129   5.887   4.569   2.402
11396TIP3   OH234130   7.939   4.146   4.778
11396TIP3    H134131   7.907   4.110   4.695
11396TIP3    H234132   8.033   4.129   4.777
11397TIP3   OH234133   6.425   7.574   3.813
11397TIP3    H134134   6.483   7.538   3.746
11397TIP3    H234135   6.465   7.548   3.896
11398TIP3   OH234136   0.217   1.305   6.760
11398TIP3    H134137   0.237   1.343   6.846
11398TIP3    H234138   0.253   1.367   6.697
11399TIP3   OH234139   5.480   1.947   6.069
11399TIP3    H134140   5.556   1.900   6.102
11399TIP3    H234141   5.449   1.998   6.144
11400TIP3   OH234142   2.548   0.024   3.686
11400TIP3    H134143   2.605  -0.042   3.647
11400TIP3    H234144   2.563   0.016   3.780
11401TIP3   OH234145   2.851   4.346   1.562
11401TIP3    H134146   2.780   4.317   1.619
11401TIP3    H234147   2.878   4.430   1.600
11402TIP3   OH234148   8.037   7.593   3.552
11402TIP3    H134149   8.071   7.584   3.641
11402TIP3    H234150   8.103   7.551   3.497
11403TIP3   OH234151   4.356   7.532   4.530
11403TIP3    H134152   4.382   7.601   4.470
11403TIP3    H234153   4.438   7.498   4.566
11404TIP3   OH234154   0.471   1.888   0.269
11404TIP3    H134155   0.400   1.826   0.287
11404TIP3    H234156   0.514   1.901   0.354
11405TIP3   OH234157   0.054   0.113   3.278
11405TIP3    H134158   0.114   0.187   3.285
11405TIP3    H234159   0.027   0.096   3.368
11406TIP3   OH234160   3.059   0.095   3.121
11406TIP3    H134161   3.044   0.176   3.170
11406TIP3    H234162   3.153   0.079   3.129
11407TIP3   OH234163   7.587   2.992   2.556
11407TIP3    H134164   7.581   2.902   2.587
11407TIP3    H234165   7.496   3.023   2.556
11408TIP3   OH234166   2.690   1.096   0.079
11408TIP3    H134167   2.623   1.074   0.144
11408TIP3    H234168   2.753   1.149   0.127
11409TIP3   OH234169   7.847   0.897   6.782
11409TIP3    H134170   7.871   0.839   6.710
11409TIP3    H234171   7.929   0.939   6.808
11410TIP3   OH234172   1.400   7.622   2.793
11410TIP3    H134173   1.457   7.696   2.772
11410TIP3    H234174   1.418   7.557   2.725
11411TIP3   OH234175   7.061   4.734   0.525
11411TIP3    H134176   6.967   4.744   0.540
11411TIP3    H234177   7.102   4.782   0.597
11412TIP3   OH234178   4.912   1.261   6.085
11412TIP3    H134179   4.828   1.295   6.053
11412TIP3    H234180   4.889   1.183   6.134
11413TIP3   OH234181   5.511   2.146   0.011
11413TIP3    H134182   5.430   2.123   0.056
11413TIP3    H234183   5.495   2.124  -0.081
11414TIP3   OH234184   0.413   5.068   1.216
11414TIP3    H134185   0.490   5.011   1.208
11414TIP3    H234186   0.396   5.071   1.310
11415TIP3   OH234187   1.049   3.978   4.896
11415TIP3    H134188   1.144   3.983   4.894
11415TIP3    H234189   1.026   3.978   4.989
11416TIP3   OH234190   3.264   1.086   1.086
11416TIP3    H134191   3.195   1.121   1.142
11416TIP3    H234192   3.256   1.136   1.004
11417TIP3   OH234193   1.474   3.467   0.131
11417TIP3    H134194   1.472   3.392   0.072
11417TIP3    H234195   1.399   3.455   0.188
11418TIP3   OH234196   0.391   4.379   5.425
11418TIP3    H134197   0.476   4.422   5.413
11418TIP3    H234198   0.366   4.350   5.338
11419TIP3   OH234199   6.048   7.359   0.083
11419TIP3    H134200   6.054   7.358  -0.013
11419TIP3    H234201   6.081   7.445   0.109
11420TIP3   OH234202   3.575   2.846   5.124
11420TIP3    H134203   3.524   2.770   5.096
11420TIP3    H234204   3.665   2.825   5.101
11421TIP3   OH234205   4.050   3.493   4.970
11421TIP3    H134206   3.996   3.535   5.037
11421TIP3    H234207   4.140   3.511   4.998
11422TIP3   OH234208   6.318   7.652   6.752
11422TIP3    H134209   6.410   7.677   6.756
11422TIP3    H234210   6.294   7.664   6.660
11423TIP3   OH234211   1.074   0.669   2.602
11423TIP3    H134212   1.006   0.719   2.648
11423TIP3    H234213   1.033   0.642   2.520
11424TIP3   OH234214   1.597   2.923   2.701
11424TIP3    H134215   1.691   2.936   2.687
11424TIP3    H234216   1.589   2.833   2.731
11425TIP3   OH234217   2.836   4.134   5.337
11425TIP3    H134218   2.848   4.094   5.424
11425TIP3    H234219   2.778   4.209   5.353
11426TIP3   OH234220   1.447   1.871   0.755
11426TIP3    H134221   1.464   1.896   0.665
11426TIP3    H234222   1.398   1.944   0.793
11427TIP3   OH234223   3.428   7.329   1.649
11427TIP3    H134224   3.335   7.343   1.662
11427TIP3    H234225   3.434   7.278   1.568
11428TIP3   OH234226   5.844   4.333   0.992
11428TIP3    H134227   5.796   4.347   0.910
11428TIP3    H234228   5.861   4.239   0.994
11429TIP3   OH234229   6.223   7.615   1.743
11429TIP3    H134230   6.252   7.563   1.818
11429TIP3    H234231   6.134   7.583   1.726
11430TIP3   OH234232   0.621   4.430   3.425
11430TIP3    H134233   0.654   4.492   3.490
11430TIP3    H234234   0.599   4.483   3.349
11431TIP3   OH234235   0.097   4.295   4.669
11431TIP3    H134236   0.080   4.378   4.623
11431TIP3    H234237   0.089   4.228   4.601
11432TIP3   OH234238   4.450   6.253   4.799
11432TIP3    H134239   4.406   6.249   4.884
11432TIP3    H234240   4.452   6.346   4.777
11433TIP3   OH234241   2.407   1.064   2.229
11433TIP3    H134242   2.425   1.042   2.321
11433TIP3    H234243   2.338   1.003   2.203
11434TIP3   OH234244   6.692   4.354   5.002
11434TIP3    H134245   6.650   4.427   5.048
11434TIP3    H234246   6.781   4.384   4.986
11435TIP3   OH234247   2.603   2.372   5.181
11435TIP3    H134248   2.541   2.360   5.253
11435TIP3    H234249   2.583   2.459   5.147
11436TIP3   OH234250   7.262   2.315   2.959
11436TIP3    H134251   7.193   2.369   2.921
11436TIP3    H234252   7.304   2.372   3.024
11437TIP3   OH234253   4.789   7.687   4.131
11437TIP3    H134254   4.780   7.635   4.210
11437TIP3    H234255   4.700   7.698   4.099
11438TIP3   OH234256   7.306   3.959   0.469
11438TIP3    H134257   7.325   3.932   0.559
11438TIP3    H234258   7.234   4.021   0.478
11439TIP3   OH234259   4.427   1.848   4.918
11439TIP3    H134260   4.454   1.890   4.837
11439TIP3    H234261   4.392   1.920   4.971
11440TIP3   OH234262   0.634   0.576   1.000
11440TIP3    H134263   0.555   0.556   1.051
11440TIP3    H234264   0.659   0.664   1.027
11441TIP3   OH234265   1.225   0.991   2.744
11441TIP3    H134266   1.217   0.960   2.834
11441TIP3    H234267   1.246   0.913   2.693
11442TIP3   OH234268   2.163   4.490   5.384
11442TIP3    H134269   2.151   4.584   5.401
11442TIP3    H234270   2.075   4.459   5.364
11443TIP3   OH234271   4.977   1.428   5.744
11443TIP3    H134272   4.891   1.394   5.717
11443TIP3    H234273   4.963   1.459   5.834
11444TIP3   OH234274   1.035   2.186   3.673
11444TIP3    H134275   0.987   2.224   3.600
11444TIP3    H234276   1.125   2.179   3.641
11445TIP3   OH234277   5.513   1.564   2.510
11445TIP3    H134278   5.450   1.572   2.582
11445TIP3    H234279   5.513   1.470   2.488
11446TIP3   OH234280   2.101   0.740   3.662
11446TIP3    H134281   2.051   0.659   3.668
11446TIP3    H234282   2.090   0.782   3.747
11447TIP3   OH234283   7.195   6.368   1.914
11447TIP3    H134284   7.249   6.445   1.932
11447TIP3    H234285   7.196   6.318   1.996
11448TIP3   OH234286   0.610   3.757   4.457
11448TIP3    H134287   0.680   3.721   4.403
11448TIP3    H234288   0.592   3.690   4.523
11449TIP3   OH234289   3.656   7.784   4.397
11449TIP3    H134290   3.688   7.774   4.486
11449TIP3    H234291   3.720   7.737   4.343
11450TIP3   OH234292   2.028   7.059   5.085
11450TIP3    H134293   1.980   7.094   5.161
11450TIP3    H234294   1.994   6.970   5.074
11451TIP3   OH234295   3.699   6.091   3.772
11451TIP3    H134296   3.701   6.164   3.710
11451TIP3    H234297   3.652   6.022   3.725
11452TIP3   OH234298   0.884   2.562   3.467
11452TIP3    H134299   0.896   2.467   3.470
11452TIP3    H234300   0.973   2.597   3.475
11453TIP3   OH234301   7.007   1.004   2.113
11453TIP3    H134302   6.957   1.050   2.045
11453TIP3    H234303   7.004   0.913   2.086
11454TIP3   OH234304   4.227   4.111   3.533
11454TIP3    H134305   4.137   4.127   3.506
11454TIP3    H234306   4.229   4.133   3.626
11455TIP3   OH234307   7.695   2.538   5.689
11455TIP3    H134308   7.716   2.550   5.781
11455TIP3    H234309   7.776   2.508   5.649
11456TIP3   OH234310   4.140   1.711   3.458
11456TIP3    H134311   4.176   1.684   3.542
11456TIP3    H234312   4.045   1.712   3.471
11457TIP3   OH234313   8.122   6.251   0.506
11457TIP3    H134314   8.073   6.329   0.481
11457TIP3    H234315   8.065   6.206   0.569
11458TIP3   OH234316   0.057   4.311   3.787
11458TIP3    H134317   0.022   4.241   3.731
11458TIP3    H234318   0.151   4.293   3.791
11459TIP3   OH234319   5.978   1.485   6.678
11459TIP3    H134320   5.913   1.536   6.630
11459TIP3    H234321   6.057   1.540   6.677
11460TIP3   OH234322   8.233   7.011   2.287
11460TIP3    H134323   8.202   7.073   2.221
11460TIP3    H234324   8.285   6.947   2.237
11461TIP3   OH234325   4.666   1.526   0.057
11461TIP3    H134326   4.633   1.616   0.060
11461TIP3    H234327   4.650   1.492   0.145
11462TIP3   OH234328   5.418   2.400   3.842
11462TIP3    H134329   5.415   2.494   3.857
11462TIP3    H234330   5.328   2.377   3.815
11463TIP3   OH234331   7.535   2.229   2.230
11463TIP3    H134332   7.558   2.235   2.138
11463TIP3    H234333   7.614   2.254   2.277
11464TIP3   OH234334   0.479   4.024   3.274
11464TIP3    H134335   0.437   3.956   3.221
11464TIP3    H234336   0.568   4.030   3.240
11465TIP3   OH234337   4.399   3.982   2.071
11465TIP3    H134338   4.380   4.055   2.131
11465TIP3    H234339   4.318   3.932   2.069
11466TIP3   OH234340   4.353   4.963   3.624
11466TIP3    H134341   4.266   4.973   3.585
11466TIP3    H234342   4.358   4.871   3.650
11467TIP3   OH234343   5.753   4.097   1.472
11467TIP3    H134344   5.819   4.147   1.424
11467TIP3    H234345   5.801   4.060   1.547
11468TIP3   OH234346   0.401   3.382   5.226
11468TIP3    H134347   0.380   3.386   5.320
11468TIP3    H234348   0.411   3.473   5.200
11469TIP3   OH234349   7.516   3.381   5.463
11469TIP3    H134350   7.571   3.441   5.413
11469TIP3    H234351   7.555   3.295   5.448
11470TIP3   OH234352   5.318   2.361   5.516
11470TIP3    H134353   5.240   2.362   5.461
11470TIP3    H234354   5.348   2.452   5.517
11471TIP3   OH234355   5.841   5.249   6.358
11471TIP3    H134356   5.824   5.286   6.272
11471TIP3    H234357   5.757   5.215   6.387
11472TIP3   OH234358   7.416   2.388   1.084
11472TIP3    H134359   7.411   2.470   1.035
11472TIP3    H234360   7.477   2.334   1.034
11473TIP3   OH234361   4.730   0.599   0.573
11473TIP3    H134362   4.781   0.518   0.571
11473TIP3    H234363   4.795   0.669   0.565
11474TIP3   OH234364   3.291   6.623   3.883
11474TIP3    H134365   3.209   6.672   3.888
11474TIP3    H234366   3.327   6.645   3.798
11475TIP3   OH234367   1.991   3.262   4.785
11475TIP3    H134368   2.078   3.290   4.811
11475TIP3    H234369   1.938   3.342   4.787
11476TIP3   OH234370   0.127   2.573   1.375
11476TIP3    H134371   0.119   2.656   1.327
11476TIP3    H234372   0.086   2.591   1.460
11477TIP3   OH234373   6.920   1.815   3.125
11477TIP3    H134374   6.947   1.746   3.186
11477TIP3    H234375   6.903   1.891   3.180
11478TIP3   OH234376   3.770   4.948   2.846
11478TIP3    H134377   3.845   4.931   2.788
11478TIP3    H234378   3.766   4.870   2.902
11479TIP3   OH234379   3.587   4.238   5.515
11479TIP3    H134380   3.498   4.206   5.532
11479TIP3    H234381   3.574   4.323   5.474
11480TIP3   OH234382   7.920   3.727   5.864
11480TIP3    H134383   7.934   3.769   5.779
11480TIP3    H234384   7.825   3.716   5.870
11481TIP3   OH234385   1.701   0.775   0.448
11481TIP3    H134386   1.785   0.749   0.409
11481TIP3    H234387   1.682   0.860   0.409
11482TIP3   OH234388   7.137   7.296   2.877
11482TIP3    H134389   7.158   7.368   2.936
11482TIP3    H234390   7.187   7.314   2.798
11483TIP3   OH234391   7.397   2.206   3.702
11483TIP3    H134392   7.427   2.288   3.662
11483TIP3    H234393   7.338   2.234   3.772
11484TIP3   OH234394   0.713   2.476   5.560
11484TIP3    H134395   0.803   2.494   5.536
11484TIP3    H234396   0.717   2.448   5.651
11485TIP3   OH234397   7.548   1.634   5.346
11485TIP3    H134398   7.534   1.694   5.419
11485TIP3    H234399   7.463   1.626   5.304
11486TIP3   OH234400   6.799   0.336   1.101
11486TIP3    H134401   6.877   0.282   1.112
11486TIP3    H234402   6.751   0.326   1.184
11487TIP3   OH234403   3.717   1.635   3.351
11487TIP3    H134404   3.723   1.540   3.363
11487TIP3    H234405   3.789   1.670   3.404
11488TIP3   OH234406   0.204   7.411   0.386
11488TIP3    H134407   0.226   7.496   0.349
11488TIP3    H234408   0.137   7.376   0.327
11489TIP3   OH234409   2.082   4.008   4.739
11489TIP3    H134410   2.019   3.995   4.810
11489TIP3    H234411   2.033   4.058   4.673
11490TIP3   OH234412   5.402   0.200   1.388
11490TIP3    H134413   5.368   0.114   1.364
11490TIP3    H234414   5.435   0.189   1.477
11491TIP3   OH234415   5.164   2.839   4.947
11491TIP3    H134416   5.155   2.870   5.037
11491TIP3    H234417   5.219   2.905   4.904
11492TIP3   OH234418   1.481   5.142   2.283
11492TIP3    H134419   1.555   5.133   2.343
11492TIP3    H234420   1.509   5.098   2.203
11493TIP3   OH234421   7.837   3.705   0.281
11493TIP3    H134422   7.799   3.622   0.254
11493TIP3    H234423   7.903   3.724   0.215
11494TIP3   OH234424   1.570   2.585   2.471
11494TIP3    H134425   1.665   2.572   2.465
11494TIP3    H234426   1.555   2.672   2.434
11495TIP3   OH234427   4.489   0.364   4.275
11495TIP3    H134428   4.443   0.287   4.308
11495TIP3    H234429   4.540   0.331   4.201
11496TIP3   OH234430   6.213   3.882   0.668
11496TIP3    H134431   6.139   3.826   0.646
11496TIP3    H234432   6.173   3.960   0.707
11497TIP3   OH234433   6.559   1.776   4.233
11497TIP3    H134434   6.636   1.762   4.179
11497TIP3    H234435   6.540   1.870   4.225
11498TIP3   OH234436   0.129   6.706   1.803
11498TIP3    H134437   0.054   6.694   1.745
11498TIP3    H234438   0.202   6.664   1.758
11499TIP3   OH234439   7.010   1.212   3.292
11499TIP3    H134440   7.007   1.239   3.200
11499TIP3    H234441   7.089   1.254   3.327
11500TIP3   OH234442   2.223   1.389   2.009
11500TIP3    H134443   2.225   1.293   2.011
11500TIP3    H234444   2.308   1.415   2.044
11501TIP3   OH234445   2.594   6.996   5.119
11501TIP3    H134446   2.539   7.068   5.088
11501TIP3    H234447   2.535   6.938   5.166
11502TIP3   OH234448   2.597   6.597   6.083
11502TIP3    H134449   2.689   6.603   6.111
11502TIP3    H234450   2.599   6.539   6.007
11503TIP3   OH234451   0.961   6.481   3.872
11503TIP3    H134452   0.977   6.395   3.910
11503TIP3    H234453   1.027   6.490   3.804
11504TIP3   OH234454   7.576   5.583   0.099
11504TIP3    H134455   7.651   5.524   0.107
11504TIP3    H234456   7.615   5.671   0.093
11505TIP3   OH234457   6.015   4.555   4.357
11505TIP3    H134458   6.021   4.500   4.278
11505TIP3    H234459   5.926   4.589   4.356
11506TIP3   OH234460   4.916   2.904   3.847
11506TIP3    H134461   4.954   2.990   3.829
11506TIP3    H234462   4.971   2.843   3.798
11507TIP3   OH234463   5.486   6.325   3.062
11507TIP3    H134464   5.431   6.259   3.105
11507TIP3    H234465   5.487   6.399   3.123
11508TIP3   OH234466   0.071   7.529   4.948
11508TIP3    H134467   0.146   7.531   5.008
11508TIP3    H234468  -0.005   7.523   5.004
11509TIP3   OH234469   3.384   4.666   2.702
11509TIP3    H134470   3.291   4.683   2.721
11509TIP3    H234471   3.385   4.576   2.668
11510TIP3   OH234472   6.155   3.506   2.121
11510TIP3    H134473   6.228   3.554   2.082
11510TIP3    H234474   6.098   3.484   2.047
11511TIP3   OH234475   7.693   2.817   4.785
11511TIP3    H134476   7.623   2.863   4.830
11511TIP3    H234477   7.773   2.863   4.811
11512TIP3   OH234478   3.387   4.441   3.846
11512TIP3    H134479   3.356   4.460   3.934
11512TIP3    H234480   3.480   4.419   3.857
11513TIP3   OH234481   5.967   7.484   4.457
11513TIP3    H134482   6.016   7.450   4.532
11513TIP3    H234483   5.876   7.486   4.486
11514TIP3   OH234484   2.446   0.473   0.226
11514TIP3    H134485   2.409   0.422   0.154
11514TIP3    H234486   2.442   0.414   0.302
11515TIP3   OH234487   0.754   7.347   5.064
11515TIP3    H134488   0.844   7.315   5.074
11515TIP3    H234489   0.721   7.354   5.153
11516TIP3   OH234490   3.781   6.582   3.435
11516TIP3    H134491   3.874   6.559   3.440
11516TIP3    H234492   3.778   6.660   3.379
11517TIP3   OH234493   2.900   6.486   1.997
11517TIP3    H134494   2.806   6.475   2.003
11517TIP3    H234495   2.914   6.531   1.913
11518TIP3   OH234496   1.048   0.569   3.529
11518TIP3    H134497   1.057   0.551   3.436
11518TIP3    H234498   0.963   0.613   3.536
11519TIP3   OH234499   4.992   4.232   1.976
11519TIP3    H134500   4.898   4.212   1.969
11519TIP3    H234501   5.017   4.259   1.887
11520TIP3   OH234502   0.274   7.183   5.311
11520TIP3    H134503   0.286   7.095   5.347
11520TIP3    H234504   0.218   7.169   5.234
11521TIP3   OH234505   1.017   6.512   6.640
11521TIP3    H134506   1.095   6.491   6.692
11521TIP3    H234507   0.965   6.568   6.697
11522TIP3   OH234508   7.463   3.735   4.497
11522TIP3    H134509   7.436   3.804   4.558
11522TIP3    H234510   7.490   3.781   4.418
11523TIP3   OH234511   4.587   1.785   1.152
11523TIP3    H134512   4.630   1.746   1.228
11523TIP3    H234513   4.494   1.763   1.163
11524TIP3   OH234514   1.387   4.807   6.343
11524TIP3    H134515   1.400   4.868   6.415
11524TIP3    H234516   1.405   4.858   6.264
11525TIP3   OH234517   2.098   5.770   5.502
11525TIP3    H134518   2.145   5.808   5.576
11525TIP3    H234519   2.156   5.784   5.427
11526TIP3   OH234520   8.013   5.063   2.429
11526TIP3    H134521   7.981   5.041   2.342
11526TIP3    H234522   8.029   5.158   2.425
11527TIP3   OH234523   3.509   0.796   5.852
11527TIP3    H134524   3.426   0.836   5.880
11527TIP3    H234525   3.489   0.757   5.767
11528TIP3   OH234526   7.858   2.838   2.734
11528TIP3    H134527   7.828   2.778   2.665
11528TIP3    H234528   7.781   2.851   2.789
11529TIP3   OH234529   5.116   7.153   3.218
11529TIP3    H134530   5.075   7.084   3.166
11529TIP3    H234531   5.193   7.112   3.256
11530TIP3   OH234532   4.129   5.593   5.125
11530TIP3    H134533   4.085   5.663   5.174
11530TIP3    H234534   4.094   5.513   5.163
11531TIP3   OH234535   2.200   7.314   5.950
11531TIP3    H134536   2.288   7.347   5.968
11531TIP3    H234537   2.154   7.321   6.033
11532TIP3   OH234538   2.784   5.711   1.199
11532TIP3    H134539   2.720   5.645   1.228
11532TIP3    H234540   2.769   5.718   1.105
11533TIP3   OH234541   5.805   2.907   4.814
11533TIP3    H134542   5.805   2.894   4.720
11533TIP3    H234543   5.804   2.818   4.850
11534TIP3   OH234544   0.275   3.376   2.602
11534TIP3    H134545   0.248   3.299   2.552
11534TIP3    H234546   0.204   3.391   2.664
11535TIP3   OH234547   3.785   2.888   0.186
11535TIP3    H134548   3.802   2.836   0.264
11535TIP3    H234549   3.864   2.941   0.174
11536TIP3   OH234550   1.829   7.809   6.267
11536TIP3    H134551   1.770   7.812   6.342
11536TIP3    H234552   1.837   7.716   6.246
11537TIP3   OH234553   1.204   5.787   5.662
11537TIP3    H134554   1.227   5.800   5.754
11537TIP3    H234555   1.284   5.809   5.614
11538TIP3   OH234556   1.422   1.579   0.683
11538TIP3    H134557   1.409   1.604   0.592
11538TIP3    H234558   1.444   1.661   0.727
11539TIP3   OH234559   3.371   7.630   5.689
11539TIP3    H134560   3.343   7.580   5.612
11539TIP3    H234561   3.456   7.593   5.713
11540TIP3   OH234562   1.416   0.069   4.847
11540TIP3    H134563   1.380   0.031   4.926
11540TIP3    H234564   1.349   0.055   4.780
11541TIP3   OH234565   5.908   0.893   2.459
11541TIP3    H134566   5.975   0.833   2.490
11541TIP3    H234567   5.864   0.846   2.388
11542TIP3   OH234568   0.821   3.122   0.439
11542TIP3    H134569   0.811   3.097   0.531
11542TIP3    H234570   0.869   3.049   0.399
11543TIP3   OH234571   5.982   3.707   5.565
11543TIP3    H134572   5.980   3.770   5.493
11543TIP3    H234573   5.891   3.701   5.594
11544TIP3   OH234574   1.884   5.834   3.299
11544TIP3    H134575   1.802   5.814   3.253
11544TIP3    H234576   1.866   5.916   3.344
11545TIP3   OH234577   4.391   2.236   1.137
11545TIP3    H134578   4.345   2.297   1.080
11545TIP3    H234579   4.467   2.207   1.086
11546TIP3   OH234580   6.416   2.901   1.383
11546TIP3    H134581   6.482   2.858   1.329
11546TIP3    H234582   6.431   2.994   1.371
11547TIP3   OH234583   4.307   4.703   3.856
11547TIP3    H134584   4.322   4.698   3.761
11547TIP3    H234585   4.390   4.674   3.895
11548TIP3   OH234586   7.494   0.417   2.651
11548TIP3    H134587   7.488   0.513   2.659
11548TIP3    H234588   7.404   0.388   2.639
11549TIP3   OH234589   7.426   6.775   4.229
11549TIP3    H134590   7.474   6.740   4.154
11549TIP3    H234591   7.397   6.862   4.201
11550TIP3   OH234592   5.664   3.670   1.723
11550TIP3    H134593   5.704   3.583   1.731
11550TIP3    H234594   5.672   3.708   1.810
11551TIP3   OH234595   1.566   5.592   4.247
11551TIP3    H134596   1.610   5.587   4.332
11551TIP3    H234597   1.638   5.589   4.184
11552TIP3   OH234598   7.506   5.609   3.415
11552TIP3    H134599   7.429   5.625   3.469
11552TIP3    H234600   7.524   5.692   3.372
11553TIP3   OH234601   1.968   0.301   1.001
11553TIP3    H134602   1.906   0.344   1.060
11553TIP3    H234603   1.960   0.347   0.918
11554TIP3   OH234604   7.885   5.357   4.811
11554TIP3    H134605   7.945   5.430   4.827
11554TIP3    H234606   7.939   5.292   4.766
11555TIP3   OH234607   3.846   2.023   2.153
11555TIP3    H134608   3.824   1.974   2.231
11555TIP3    H234609   3.862   2.112   2.184
11556TIP3   OH234610   5.196   7.017   1.944
11556TIP3    H134611   5.275   6.992   1.992
11556TIP3    H234612   5.158   6.935   1.915
11557TIP3   OH234613   4.564   1.492   4.990
11557TIP3    H134614   4.511   1.498   4.911
11557TIP3    H234615   4.639   1.438   4.965
11558TIP3   OH234616   0.570   6.387   4.109
11558TIP3    H134617   0.603   6.476   4.103
11558TIP3    H234618   0.635   6.334   4.063
11559TIP3   OH234619   5.233   1.456   2.351
11559TIP3    H134620   5.315   1.414   2.325
11559TIP3    H234621   5.168   1.421   2.290
11560TIP3   OH234622   2.571   3.565   1.376
11560TIP3    H134623   2.528   3.602   1.299
11560TIP3    H234624   2.617   3.488   1.342
11561TIP3   OH234625   7.275   2.395   1.839
11561TIP3    H134626   7.243   2.332   1.773
11561TIP3    H234627   7.196   2.442   1.866
11562TIP3   OH234628   7.525   4.964   1.496
11562TIP3    H134629   7.579   5.030   1.539
11562TIP3    H234630   7.437   4.977   1.533
11563TIP3   OH234631   0.408   5.899   2.187
11563TIP3    H134632   0.425   5.822   2.132
11563TIP3    H234633   0.340   5.948   2.141
11564TIP3   OH234634   3.241   4.695   4.965
11564TIP3    H134635   3.208   4.613   5.002
11564TIP3    H234636   3.268   4.672   4.876
11565TIP3   OH234637   0.931   3.590   0.183
11565TIP3    H134638   0.966   3.535   0.253
11565TIP3    H234639   0.943   3.680   0.215
11566TIP3   OH234640   2.978   7.247   5.474
11566TIP3    H134641   3.009   7.307   5.542
11566TIP3    H234642   2.962   7.164   5.520
11567TIP3   OH234643   5.330   5.487   6.548
11567TIP3    H134644   5.251   5.533   6.521
11567TIP3    H234645   5.319   5.398   6.516
11568TIP3   OH234646   6.825   6.612   0.931
11568TIP3    H134647   6.794   6.552   0.999
11568TIP3    H234648   6.752   6.621   0.871
11569TIP3   OH234649   4.994   7.380   2.984
11569TIP3    H134650   5.005   7.456   3.042
11569TIP3    H234651   4.985   7.418   2.896
11570TIP3   OH234652   3.569   4.424   4.083
11570TIP3    H134653   3.538   4.336   4.102
11570TIP3    H234654   3.609   4.418   3.996
11571TIP3   OH234655   3.239   1.623   5.551
11571TIP3    H134656   3.224   1.716   5.568
11571TIP3    H234657   3.285   1.621   5.467
11572TIP3   OH234658   1.382   3.836   1.150
11572TIP3    H134659   1.289   3.830   1.174
11572TIP3    H234660   1.426   3.777   1.211
11573TIP3   OH234661   2.483   2.358   2.828
11573TIP3    H134662   2.516   2.334   2.741
11573TIP3    H234663   2.557   2.342   2.887
11574TIP3   OH234664   3.506   5.307   6.276
11574TIP3    H134665   3.428   5.269   6.315
11574TIP3    H234666   3.473   5.370   6.212
11575TIP3   OH234667   7.714   5.723   4.354
11575TIP3    H134668   7.762   5.674   4.287
11575TIP3    H234669   7.631   5.745   4.311
11576TIP3   OH234670   6.110   0.878   6.292
11576TIP3    H134671   6.111   0.803   6.231
11576TIP3    H234672   6.111   0.955   6.235
11577TIP3   OH234673   0.417   1.059   3.301
11577TIP3    H134674   0.512   1.067   3.308
11577TIP3    H234675   0.383   1.136   3.347
11578TIP3   OH234676   0.617   6.743   3.621
11578TIP3    H134677   0.686   6.716   3.561
11578TIP3    H234678   0.622   6.680   3.693
11579TIP3   OH234679   6.658   4.723   2.563
11579TIP3    H134680   6.642   4.640   2.517
11579TIP3    H234681   6.632   4.790   2.500
11580TIP3   OH234682   2.577   4.705   3.870
11580TIP3    H134683   2.569   4.715   3.775
11580TIP3    H234684   2.647   4.641   3.882
11581TIP3   OH234685   2.270   2.149   6.025
11581TIP3    H134686   2.177   2.163   6.042
11581TIP3    H234687   2.311   2.153   6.111
11582TIP3   OH234688   4.730   3.114   2.166
11582TIP3    H134689   4.668   3.085   2.232
11582TIP3    H234690   4.702   3.202   2.143
11583TIP3   OH234691   1.939   2.811   4.590
11583TIP3    H134692   1.949   2.895   4.634
11583TIP3    H234693   2.002   2.814   4.517
11584TIP3   OH234694   7.752   3.938   2.919
11584TIP3    H134695   7.825   4.000   2.913
11584TIP3    H234696   7.718   3.933   2.829
11585TIP3   OH234697   0.513   7.429   1.088
11585TIP3    H134698   0.583   7.467   1.034
11585TIP3    H234699   0.540   7.448   1.178
11586TIP3   OH234700   5.937   4.022   4.982
11586TIP3    H134701   5.988   3.941   4.986
11586TIP3    H234702   5.991   4.087   5.028
11587TIP3   OH234703   3.040   1.498   3.208
11587TIP3    H134704   3.063   1.437   3.278
11587TIP3    H234705   3.083   1.462   3.130
11588TIP3   OH234706   5.742   7.271   4.405
11588TIP3    H134707   5.828   7.310   4.388
11588TIP3    H234708   5.761   7.188   4.448
11589TIP3   OH234709   3.352   2.346   1.513
11589TIP3    H134710   3.394   2.430   1.496
11589TIP3    H234711   3.388   2.287   1.446
11590TIP3   OH234712   0.717   7.582   3.800
11590TIP3    H134713   0.783   7.622   3.857
11590TIP3    H234714   0.698   7.497   3.840
11591TIP3   OH234715   2.997   0.228   1.564
11591TIP3    H134716   2.981   0.259   1.474
11591TIP3    H234717   2.921   0.260   1.613
11592TIP3   OH234718   5.215   7.569   3.046
11592TIP3    H134719   5.155   7.640   3.023
11592TIP3    H234720   5.299   7.596   3.009
11593TIP3   OH234721   0.899   7.380   0.815
11593TIP3    H134722   0.912   7.289   0.788
11593TIP3    H234723   0.929   7.432   0.740
11594TIP3   OH234724   0.354   3.751   1.477
11594TIP3    H134725   0.319   3.727   1.563
11594TIP3    H234726   0.322   3.841   1.462
11595TIP3   OH234727   8.094   7.581   2.651
11595TIP3    H134728   8.157   7.616   2.715
11595TIP3    H234729   8.140   7.587   2.567
11596TIP3   OH234730   3.749   2.171   6.281
11596TIP3    H134731   3.725   2.260   6.306
11596TIP3    H234732   3.841   2.162   6.307
11597TIP3   OH234733   5.522   6.871   6.276
11597TIP3    H134734   5.565   6.786   6.288
11597TIP3    H234735   5.588   6.935   6.302
11598TIP3   OH234736   8.306   1.829   0.792
11598TIP3    H134737   8.346   1.816   0.706
11598TIP3    H234738   8.214   1.850   0.773
11599TIP3   OH234739   7.455   5.929   2.741
11599TIP3    H134740   7.474   5.882   2.823
11599TIP3    H234741   7.500   5.878   2.673
11600TIP3   OH234742   7.797   7.214   5.576
11600TIP3    H134743   7.708   7.230   5.607
11600TIP3    H234744   7.808   7.119   5.585
11601TIP3   OH234745   7.014   3.917   5.855
11601TIP3    H134746   7.079   3.864   5.902
11601TIP3    H234747   7.014   4.001   5.902
11602TIP3   OH234748   4.036   0.998   5.744
11602TIP3    H134749   4.052   1.092   5.745
11602TIP3    H234750   3.941   0.990   5.735
11603TIP3   OH234751   0.343   1.677   3.809
11603TIP3    H134752   0.425   1.688   3.761
11603TIP3    H234753   0.362   1.713   3.896
11604TIP3   OH234754   1.363   6.283   0.685
11604TIP3    H134755   1.418   6.299   0.609
11604TIP3    H234756   1.388   6.196   0.716
11605TIP3   OH234757   6.598   0.607   4.612
11605TIP3    H134758   6.540   0.681   4.594
11605TIP3    H234759   6.681   0.647   4.640
11606TIP3   OH234760   2.131   3.590   6.206
11606TIP3    H134761   2.225   3.596   6.221
11606TIP3    H234762   2.096   3.674   6.237
11607TIP3   OH234763   2.262   1.142   4.411
11607TIP3    H134764   2.249   1.092   4.492
11607TIP3    H234765   2.278   1.231   4.441
11608TIP3   OH234766   3.001   1.196   6.370
11608TIP3    H134767   3.018   1.265   6.305
11608TIP3    H234768   2.921   1.154   6.339
11609TIP3   OH234769   7.902   6.668   1.172
11609TIP3    H134770   7.851   6.641   1.096
11609TIP3    H234771   7.914   6.588   1.222
11610TIP3   OH234772   0.139   4.424   6.174
11610TIP3    H134773   0.226   4.407   6.210
11610TIP3    H234774   0.079   4.379   6.234
11611TIP3   OH234775   2.487   2.702   6.361
11611TIP3    H134776   2.442   2.617   6.359
11611TIP3    H234777   2.466   2.742   6.277
11612TIP3   OH234778   6.826   6.632   4.547
11612TIP3    H134779   6.841   6.630   4.452
11612TIP3    H234780   6.903   6.590   4.585
11613TIP3   OH234781   0.561   4.588   4.243
11613TIP3    H134782   0.502   4.563   4.314
11613TIP3    H234783   0.646   4.550   4.268
11614TIP3   OH234784   2.733   7.007   2.630
11614TIP3    H134785   2.761   6.916   2.634
11614TIP3    H234786   2.685   7.021   2.711
11615TIP3   OH234787   4.407   2.295   0.213
11615TIP3    H134788   4.322   2.251   0.222
11615TIP3    H234789   4.446   2.257   0.135
11616TIP3   OH234790   1.901   5.012   3.859
11616TIP3    H134791   1.901   4.927   3.904
11616TIP3    H234792   1.992   5.041   3.861
11617TIP3   OH234793   7.504   2.163   3.087
11617TIP3    H134794   7.519   2.088   3.028
11617TIP3    H234795   7.466   2.230   3.030
11618TIP3   OH234796   2.847   1.412   6.543
11618TIP3    H134797   2.758   1.377   6.553
11618TIP3    H234798   2.900   1.359   6.602
11619TIP3   OH234799   0.176   1.880   4.283
11619TIP3    H134800   0.210   1.966   4.259
11619TIP3    H234801   0.178   1.880   4.379
11620TIP3   OH234802   7.241   5.020   3.102
11620TIP3    H134803   7.294   5.020   3.181
11620TIP3    H234804   7.240   5.112   3.074
11621TIP3   OH234805   0.306   0.749   6.105
11621TIP3    H134806   0.335   0.830   6.145
11621TIP3    H234807   0.269   0.698   6.177
11622TIP3   OH234808   2.089   4.639   2.849
11622TIP3    H134809   2.094   4.558   2.799
11622TIP3    H234810   2.049   4.614   2.932
11623TIP3   OH234811   3.474   5.904   6.048
11623TIP3    H134812   3.481   5.817   6.089
11623TIP3    H234813   3.500   5.965   6.117
11624TIP3   OH234814   7.727   0.730   0.794
11624TIP3    H134815   7.673   0.809   0.791
11624TIP3    H234816   7.779   0.733   0.714
11625TIP3   OH234817   3.084   1.024   4.955
11625TIP3    H134818   3.050   1.010   4.867
11625TIP3    H234819   3.015   1.071   5.001
11626TIP3   OH234820   7.762   1.924   0.770
11626TIP3    H134821   7.715   1.901   0.850
11626TIP3    H234822   7.737   1.857   0.707
11627TIP3   OH234823   0.411   6.436   6.263
11627TIP3    H134824   0.463   6.516   6.255
11627TIP3    H234825   0.474   6.365   6.261
11628TIP3   OH234826   7.548   0.513   5.122
11628TIP3    H134827   7.526   0.599   5.157
11628TIP3    H234828   7.599   0.471   5.192
11629TIP3   OH234829   6.976   6.489   2.408
11629TIP3    H134830   6.963   6.428   2.335
11629TIP3    H234831   7.046   6.547   2.378
11630TIP3   OH234832   4.618   0.760   3.545
11630TIP3    H134833   4.642   0.695   3.479
11630TIP3    H234834   4.700   0.805   3.565
11631TIP3   OH234835   6.577   4.002   2.191
11631TIP3    H134836   6.546   4.091   2.206
11631TIP3    H234837   6.607   4.003   2.100
11632TIP3   OH234838   7.844   7.612   0.666
11632TIP3    H134839   7.872   7.674   0.734
11632TIP3    H234840   7.905   7.539   0.673
11633TIP3   OH234841   0.569   4.735   1.219
11633TIP3    H134842   0.615   4.663   1.177
11633TIP3    H234843   0.615   4.747   1.303
11634TIP3   OH234844   8.066   1.475   2.196
11634TIP3    H134845   8.029   1.391   2.224
11634TIP3    H234846   8.033   1.538   2.260
11635TIP3   OH234847   6.963   7.742   0.229
11635TIP3    H134848   7.011   7.800   0.287
11635TIP3    H234849   6.935   7.798   0.156
11636TIP3   OH234850   3.851   0.806   0.267
11636TIP3    H134851   3.762   0.772   0.261
11636TIP3    H234852   3.906   0.728   0.279
11637TIP3   OH234853   6.799   2.673   4.556
11637TIP3    H134854   6.783   2.579   4.563
11637TIP3    H234855   6.886   2.685   4.593
11638TIP3   OH234856   3.721   1.290   2.385
11638TIP3    H134857   3.794   1.339   2.425
11638TIP3    H234858   3.727   1.311   2.292
11639TIP3   OH234859   2.336   4.720   2.481
11639TIP3    H134860   2.308   4.630   2.469
11639TIP3    H234861   2.406   4.715   2.546
11640TIP3   OH234862   4.697   0.084   3.110
11640TIP3    H134863   4.643   0.163   3.116
11640TIP3    H234864   4.714   0.060   3.201
11641TIP3   OH234865   6.779   1.238   0.839
11641TIP3    H134866   6.864   1.268   0.871
11641TIP3    H234867   6.724   1.234   0.917
11642TIP3   OH234868   1.044   4.007   5.507
11642TIP3    H134869   1.059   3.915   5.529
11642TIP3    H234870   0.989   4.040   5.577
11643TIP3   OH234871   6.654   2.672   6.715
11643TIP3    H134872   6.686   2.607   6.778
11643TIP3    H234873   6.568   2.639   6.688
11644TIP3   OH234874   2.015   0.626   2.400
11644TIP3    H134875   1.957   0.697   2.374
11644TIP3    H234876   2.069   0.610   2.323
11645TIP3   OH234877   6.013   3.527   2.376
11645TIP3    H134878   6.008   3.433   2.393
11645TIP3    H234879   6.055   3.534   2.291
11646TIP3   OH234880   2.382   7.219   2.357
11646TIP3    H134881   2.358   7.199   2.448
11646TIP3    H234882   2.466   7.175   2.345
11647TIP3   OH234883   7.266   1.328   3.335
11647TIP3    H134884   7.289   1.417   3.363
11647TIP3    H234885   7.296   1.272   3.407
11648TIP3   OH234886   4.352   3.140   2.445
11648TIP3    H134887   4.292   3.099   2.383
11648TIP3    H234888   4.313   3.226   2.463
11649TIP3   OH234889   8.059   2.758   4.559
11649TIP3    H134890   8.095   2.754   4.647
11649TIP3    H234891   8.015   2.843   4.555
11650TIP3   OH234892   3.357   3.856   1.491
11650TIP3    H134893   3.290   3.802   1.449
11650TIP3    H234894   3.438   3.833   1.445
11651TIP3   OH234895   0.700   5.829   6.075
11651TIP3    H134896   0.790   5.810   6.050
11651TIP3    H234897   0.662   5.871   5.997
11652TIP3   OH234898   1.712   5.083   6.245
11652TIP3    H134899   1.794   5.124   6.272
11652TIP3    H234900   1.733   5.042   6.160
11653TIP3   OH234901   1.763   5.737   4.119
11653TIP3    H134902   1.797   5.792   4.048
11653TIP3    H234903   1.744   5.798   4.190
11654TIP3   OH234904   0.700   0.957   3.006
11654TIP3    H134905   0.783   0.932   3.048
11654TIP3    H234906   0.727   1.004   2.927
11655TIP3   OH234907   5.196   1.287   5.822
11655TIP3    H134908   5.179   1.258   5.912
11655TIP3    H234909   5.111   1.318   5.791
11656TIP3   OH234910   6.748   4.438   2.910
11656TIP3    H134911   6.778   4.427   3.000
11656TIP3    H234912   6.789   4.367   2.862
11657TIP3   OH234913   2.982   7.761   2.816
11657TIP3    H134914   2.975   7.857   2.815
11657TIP3    H234915   2.892   7.730   2.820
11658TIP3   OH234916   3.897   6.706   2.384
11658TIP3    H134917   3.984   6.745   2.370
11658TIP3    H234918   3.855   6.764   2.448
11659TIP3   OH234919   0.479   0.884   2.570
11659TIP3    H134920   0.567   0.869   2.535
11659TIP3    H234921   0.424   0.896   2.493
11660TIP3   OH234922   6.090   0.859   4.520
11660TIP3    H134923   6.081   0.776   4.567
11660TIP3    H234924   6.183   0.879   4.523
11661TIP3   OH234925   7.810   0.215   2.180
11661TIP3    H134926   7.812   0.265   2.262
11661TIP3    H234927   7.771   0.275   2.116
11662TIP3   OH234928   0.384   6.946   4.527
11662TIP3    H134929   0.420   6.866   4.488
11662TIP3    H234930   0.417   6.945   4.617
11663TIP3   OH234931   2.813   5.682   0.415
11663TIP3    H134932   2.826   5.772   0.386
11663TIP3    H234933   2.771   5.640   0.339
11664TIP3   OH234934   6.546   7.770   2.567
11664TIP3    H134935   6.626   7.794   2.520
11664TIP3    H234936   6.546   7.824   2.646
11665TIP3   OH234937   2.632   2.369   5.905
11665TIP3    H134938   2.641   2.368   6.000
11665TIP3    H234939   2.574   2.296   5.885
11666TIP3   OH234940   5.427   6.452   0.619
11666TIP3    H134941   5.516   6.472   0.590
11666TIP3    H234942   5.434   6.439   0.713
11667TIP3   OH234943   6.357   2.180   3.896
11667TIP3    H134944   6.361   2.229   3.978
11667TIP3    H234945   6.288   2.115   3.910
11668TIP3   OH234946   1.276   2.528   1.102
11668TIP3    H134947   1.205   2.485   1.150
11668TIP3    H234948   1.271   2.492   1.014
11669TIP3   OH234949   3.796   3.961   6.259
11669TIP3    H134950   3.884   3.984   6.290
11669TIP3    H234951   3.807   3.943   6.165
11670TIP3   OH234952   2.925   1.954   1.305
11670TIP3    H134953   2.987   1.982   1.238
11670TIP3    H234954   2.973   1.959   1.387
11671TIP3   OH234955   5.689   6.390   5.233
11671TIP3    H134956   5.631   6.441   5.290
11671TIP3    H234957   5.749   6.455   5.196
11672TIP3   OH234958   3.782   5.255   2.656
11672TIP3    H134959   3.744   5.214   2.734
11672TIP3    H234960   3.875   5.231   2.660
11673TIP3   OH234961   2.116   3.493   2.230
11673TIP3    H134962   2.043   3.555   2.237
11673TIP3    H234963   2.147   3.503   2.140
11674TIP3   OH234964   4.484   2.745   2.712
11674TIP3    H134965   4.449   2.831   2.689
11674TIP3    H234966   4.465   2.690   2.636
11675TIP3   OH234967   1.981   0.772   4.208
11675TIP3    H134968   1.941   0.857   4.191
11675TIP3    H234969   2.064   0.792   4.251
11676TIP3   OH234970   6.121   7.755   0.064
11676TIP3    H134971   6.122   7.678   0.121
11676TIP3    H234972   6.028   7.770   0.046
11677TIP3   OH234973   6.374   4.717   5.028
11677TIP3    H134974   6.303   4.655   5.044
11677TIP3    H234975   6.336   4.803   5.045
11678TIP3   OH234976   0.931   1.377   6.423
11678TIP3    H134977   0.992   1.343   6.489
11678TIP3    H234978   0.987   1.398   6.348
11679TIP3   OH234979   7.472   3.259   4.627
11679TIP3    H134980   7.433   3.346   4.633
11679TIP3    H234981   7.402   3.205   4.589
11680TIP3   OH234982   0.591   0.898   5.101
11680TIP3    H134983   0.530   0.835   5.139
11680TIP3    H234984   0.622   0.856   5.021
11681TIP3   OH234985   7.639   2.311   1.991
11681TIP3    H134986   7.634   2.404   1.968
11681TIP3    H234987   7.692   2.272   1.921
11682TIP3   OH234988   5.493   6.522   5.422
11682TIP3    H134989   5.445   6.584   5.366
11682TIP3    H234990   5.431   6.452   5.440
11683TIP3   OH234991   7.124   4.726   4.231
11683TIP3    H134992   7.207   4.680   4.221
11683TIP3    H234993   7.149   4.816   4.250
11684TIP3   OH234994   1.823   6.097   3.372
11684TIP3    H134995   1.837   6.124   3.463
11684TIP3    H234996   1.892   6.141   3.323
11685TIP3   OH234997   0.987   1.952   3.358
11685TIP3    H134998   1.067   1.999   3.335
11685TIP3    H234999   0.955   1.917   3.275
11686TIP3   OH235000   2.422   1.344   2.224
11686TIP3    H135001   2.395   1.365   2.313
11686TIP3    H235002   2.448   1.252   2.228
11687TIP3   OH235003   7.916   2.460   2.162
11687TIP3    H135004   7.958   2.448   2.076
11687TIP3    H235005   7.922   2.554   2.179
11688TIP3   OH235006   8.226   4.499   2.804
11688TIP3    H135007   8.180   4.561   2.746
11688TIP3    H235008   8.223   4.540   2.890
11689TIP3   OH235009   7.054   2.822   4.358
11689TIP3    H135010   7.044   2.814   4.263
11689TIP3    H235011   7.144   2.793   4.374
11690TIP3   OH235012   3.879   3.572   4.662
11690TIP3    H135013   3.920   3.487   4.643
11690TIP3    H235014   3.949   3.625   4.699
11691TIP3   OH235015   5.185   4.971   0.584
11691TIP3    H135016   5.259   4.935   0.534
11691TIP3    H235017   5.221   4.987   0.671
11692TIP3   OH235018   1.572   6.112   4.000
11692TIP3    H135019   1.569   6.200   3.962
11692TIP3    H235020   1.513   6.116   4.075
11693TIP3   OH235021   7.106   3.057   3.547
11693TIP3    H135022   7.185   3.008   3.571
11693TIP3    H235023   7.128   3.148   3.566
11694TIP3   OH235024   7.541   7.150   1.049
11694TIP3    H135025   7.510   7.061   1.065
11694TIP3    H235026   7.514   7.200   1.126
11695TIP3   OH235027   1.578   0.436   6.268
11695TIP3    H135028   1.673   0.431   6.271
11695TIP3    H235029   1.554   0.392   6.187
11696TIP3   OH235030   1.188   7.092   5.733
11696TIP3    H135031   1.212   7.114   5.823
11696TIP3    H235032   1.146   7.006   5.740
11697TIP3   OH235033   2.576   2.788   0.624
11697TIP3    H135034   2.560   2.839   0.703
11697TIP3    H235035   2.495   2.795   0.574
11698TIP3   OH235036   2.149   0.121   0.103
11698TIP3    H135037   2.167   0.027   0.105
11698TIP3    H235038   2.074   0.129   0.044
11699TIP3   OH235039   0.066   6.328   1.407
11699TIP3    H135040   0.091   6.238   1.387
11699TIP3    H235041   0.040   6.326   1.499
11700TIP3   OH235042   0.504   5.822   5.083
11700TIP3    H135043   0.486   5.819   5.177
11700TIP3    H235044   0.418   5.823   5.042
11701TIP3   OH235045   7.713   7.796   3.913
11701TIP3    H135046   7.736   7.846   3.835
11701TIP3    H235047   7.623   7.768   3.899
11702TIP3   OH235048   4.288   5.261   2.089
11702TIP3    H135049   4.238   5.340   2.066
11702TIP3    H235050   4.327   5.282   2.174
11703TIP3   OH235051   4.184   7.083   3.678
11703TIP3    H135052   4.136   7.041   3.606
11703TIP3    H235053   4.165   7.029   3.754
11704TIP3   OH235054   4.482   0.543   2.433
11704TIP3    H135055   4.523   0.608   2.489
11704TIP3    H235056   4.395   0.580   2.414
11705TIP3   OH235057   7.203   5.081   0.063
11705TIP3    H135058   7.140   5.011   0.079
11705TIP3    H235059   7.287   5.045   0.092
11706TIP3   OH235060   0.046   5.728   0.170
11706TIP3    H135061   0.110   5.661   0.145
11706TIP3    H235062   0.066   5.746   0.262
11707TIP3   OH235063   5.970   1.670   2.125
11707TIP3    H135064   6.058   1.638   2.105
11707TIP3    H235065   5.973   1.763   2.106
11708TIP3   OH235066   6.308   0.153   4.234
11708TIP3    H135067   6.337   0.229   4.283
11708TIP3    H235068   6.322   0.079   4.294
11709TIP3   OH235069   3.316   2.000   6.054
11709TIP3    H135070   3.271   2.054   5.989
11709TIP3    H235071   3.406   2.032   6.053
11710TIP3   OH235072   7.319   5.467   6.033
11710TIP3    H135073   7.237   5.422   6.055
11710TIP3    H235074   7.294   5.532   5.967
11711TIP3   OH235075   5.473   2.662   5.824
11711TIP3    H135076   5.431   2.722   5.886
11711TIP3    H235077   5.414   2.586   5.821
11712TIP3   OH235078   3.145   4.926   5.055
11712TIP3    H135079   3.184   4.843   5.028
11712TIP3    H235080   3.180   4.942   5.143
11713TIP3   OH235081   0.637   4.567   3.912
11713TIP3    H135082   0.581   4.615   3.850
11713TIP3    H235083   0.671   4.493   3.862
11714TIP3   OH235084   7.144   0.851   3.208
11714TIP3    H135085   7.207   0.853   3.280
11714TIP3    H235086   7.190   0.806   3.137
11715TIP3   OH235087   4.657   0.456   2.894
11715TIP3    H135088   4.618   0.543   2.888
11715TIP3    H235089   4.715   0.450   2.818
11716TIP3   OH235090   1.321   3.532   6.477
11716TIP3    H135091   1.249   3.592   6.495
11716TIP3    H235092   1.384   3.548   6.547
11717TIP3   OH235093   0.970   5.531   6.018
11717TIP3    H135094   0.884   5.514   5.980
11717TIP3    H235095   0.962   5.502   6.109
11718TIP3   OH235096   1.720   0.750   0.734
11718TIP3    H135097   1.797   0.761   0.789
11718TIP3    H235098   1.747   0.783   0.648
11719TIP3   OH235099   2.240   2.673   3.293
11719TIP3    H135100   2.234   2.709   3.205
11719TIP3    H235101   2.208   2.583   3.285
11720TIP3   OH235102   3.808   3.814   5.385
11720TIP3    H135103   3.863   3.773   5.451
11720TIP3    H235104   3.747   3.745   5.359
11721TIP3   OH235105   1.460   5.949   6.254
11721TIP3    H135106   1.447   5.981   6.165
11721TIP3    H235107   1.503   5.864   6.244
11722TIP3   OH235108   3.586   2.085   0.283
11722TIP3    H135109   3.537   2.167   0.291
11722TIP3    H235110   3.560   2.049   0.198
11723TIP3   OH235111   5.097   4.349   5.716
11723TIP3    H135112   5.089   4.269   5.768
11723TIP3    H235113   5.185   4.345   5.680
11724TIP3   OH235114   2.381   6.883   3.343
11724TIP3    H135115   2.304   6.937   3.359
11724TIP3    H235116   2.416   6.915   3.260
11725TIP3   OH235117   1.350   4.468   2.058
11725TIP3    H135118   1.385   4.428   1.978
11725TIP3    H235119   1.279   4.525   2.027
11726TIP3   OH235120   3.526   0.756   1.026
11726TIP3    H135121   3.483   0.671   1.034
11726TIP3    H235122   3.489   0.808   1.098
11727TIP3   OH235123   6.558   0.296   3.862
11727TIP3    H135124   6.572   0.240   3.939
11727TIP3    H235125   6.635   0.280   3.808
11728TIP3   OH235126   7.975   6.517   4.297
11728TIP3    H135127   7.977   6.600   4.249
11728TIP3    H235128   7.883   6.493   4.300
11729TIP3   OH235129   5.585   0.701   0.201
11729TIP3    H135130   5.638   0.725   0.125
11729TIP3    H235131   5.642   0.718   0.276
11730TIP3   OH235132   1.632   7.036   5.694
11730TIP3    H135133   1.554   7.090   5.687
11730TIP3    H235134   1.694   7.090   5.744
11731TIP3   OH235135   5.478   5.148   4.645
11731TIP3    H135136   5.433   5.099   4.714
11731TIP3    H235137   5.443   5.237   4.651
11732TIP3   OH235138   7.018   1.171   2.325
11732TIP3    H135139   7.004   1.093   2.271
11732TIP3    H235140   7.106   1.200   2.302
11733TIP3   OH235141   4.405   2.919   2.953
11733TIP3    H135142   4.425   2.877   2.870
11733TIP3    H235143   4.338   2.862   2.993
11734TIP3   OH235144   3.160   6.785   0.199
11734TIP3    H135145   3.162   6.784   0.295
11734TIP3    H235146   3.115   6.704   0.175
11735TIP3   OH235147   2.288   3.830   4.804
11735TIP3    H135148   2.204   3.866   4.773
11735TIP3    H235149   2.352   3.861   4.740
11736TIP3   OH235150   3.750   0.978   4.074
11736TIP3    H135151   3.781   0.941   4.157
11736TIP3    H235152   3.826   0.973   4.016
11737TIP3   OH235153   3.497   1.768   5.972
11737TIP3    H135154   3.480   1.703   6.039
11737TIP3    H235155   3.420   1.824   5.972
11738TIP3   OH235156   4.737   4.444   4.591
11738TIP3    H135157   4.775   4.503   4.655
11738TIP3    H235158   4.646   4.433   4.619
11739TIP3   OH235159   6.730   6.910   4.224
11739TIP3    H135160   6.800   6.872   4.171
11739TIP3    H235161   6.763   6.995   4.251
11740TIP3   OH235162   1.344   3.971   2.457
11740TIP3    H135163   1.359   4.057   2.496
11740TIP3    H235164   1.401   3.968   2.381
11741TIP3   OH235165   4.340   1.377   6.700
11741TIP3    H135166   4.368   1.314   6.766
11741TIP3    H235167   4.420   1.402   6.655
11742TIP3   OH235168   7.673   4.294   2.975
11742TIP3    H135169   7.692   4.274   2.883
11742TIP3    H235170   7.749   4.262   3.023
11743TIP3   OH235171   4.903   4.498   3.011
11743TIP3    H135172   4.899   4.570   3.073
11743TIP3    H235173   4.912   4.540   2.925
11744TIP3   OH235174   7.647   4.535   2.151
11744TIP3    H135175   7.612   4.464   2.097
11744TIP3    H235176   7.612   4.615   2.113
11745TIP3   OH235177   3.274   3.614   4.621
11745TIP3    H135178   3.219   3.657   4.556
11745TIP3    H235179   3.360   3.656   4.612
11746TIP3   OH235180   4.588   3.016   1.343
11746TIP3    H135181   4.586   2.976   1.256
11746TIP3    H235182   4.498   3.008   1.375
11747TIP3   OH235183   0.881   6.762   6.708
11747TIP3    H135184   0.806   6.822   6.698
11747TIP3    H235185   0.895   6.758   6.803
11748TIP3   OH235186   2.072   0.981   0.400
11748TIP3    H135187   2.038   0.892   0.412
11748TIP3    H235188   2.031   1.013   0.320
11749TIP3   OH235189   6.733   4.118   4.691
11749TIP3    H135190   6.719   4.182   4.621
11749TIP3    H235191   6.822   4.136   4.722
11750TIP3   OH235192   5.736   5.104   0.322
11750TIP3    H135193   5.687   5.037   0.275
11750TIP3    H235194   5.820   5.063   0.342
11751TIP3   OH235195   6.049   7.518   2.960
11751TIP3    H135196   5.960   7.530   2.927
11751TIP3    H235197   6.067   7.598   3.010
11752TIP3   OH235198   2.767   7.126   5.761
11752TIP3    H135199   2.845   7.074   5.742
11752TIP3    H235200   2.784   7.164   5.847
11753TIP3   OH235201   6.131   2.869   1.332
11753TIP3    H135202   6.219   2.887   1.363
11753TIP3    H235203   6.092   2.956   1.320
11754TIP3   OH235204   7.556   1.495   1.570
11754TIP3    H135205   7.624   1.505   1.503
11754TIP3    H235206   7.601   1.513   1.653
11755TIP3   OH235207   0.011   2.368   3.294
11755TIP3    H135208  -0.033   2.451   3.277
11755TIP3    H235209   0.097   2.377   3.253
11756TIP3   OH235210   2.262   0.050   3.656
11756TIP3    H135211   2.356   0.040   3.642
11756TIP3    H235212   2.234   0.115   3.591
11757TIP3   OH235213   6.251   7.724   4.088
11757TIP3    H135214   6.239   7.758   4.000
11757TIP3    H235215   6.165   7.692   4.115
11758TIP3   OH235216   7.863   5.619   3.221
11758TIP3    H135217   7.928   5.559   3.258
11758TIP3    H235218   7.888   5.705   3.253
11759TIP3   OH235219   1.352   4.774   1.925
11759TIP3    H135220   1.433   4.736   1.961
11759TIP3    H235221   1.318   4.830   1.995
11760TIP3   OH235222   5.099   0.488   2.870
11760TIP3    H135223   5.019   0.539   2.886
11760TIP3    H235224   5.070   0.415   2.815
11761TIP3   OH235225   1.951   7.741   2.130
11761TIP3    H135226   1.929   7.649   2.141
11761TIP3    H235227   1.921   7.783   2.211
11762TIP3   OH235228   7.383   7.564   1.718
11762TIP3    H135229   7.358   7.476   1.690
11762TIP3    H235230   7.473   7.574   1.685
11763TIP3   OH235231   5.739   3.525   4.307
11763TIP3    H135232   5.689   3.602   4.279
11763TIP3    H235233   5.827   3.559   4.324
11764TIP3   OH235234   0.959   0.202   0.828
11764TIP3    H135235   1.043   0.190   0.873
11764TIP3    H235236   0.917   0.274   0.876
11765TIP3   OH235237   3.246   7.384   2.190
11765TIP3    H135238   3.213   7.433   2.114
11765TIP3    H235239   3.222   7.438   2.265
11766TIP3   OH235240   5.366   0.145   6.151
11766TIP3    H135241   5.392   0.118   6.063
11766TIP3    H235242   5.273   0.167   6.142
11767TIP3   OH235243   1.959   0.289   3.611
11767TIP3    H135244   2.004   0.305   3.694
11767TIP3    H235245   1.912   0.370   3.592
11768TIP3   OH235246   1.767   4.932   5.277
11768TIP3    H135247   1.744   5.005   5.335
11768TIP3    H235248   1.852   4.956   5.241
11769TIP3   OH235249   1.156   3.910   1.915
11769TIP3    H135250   1.168   3.978   1.848
11769TIP3    H235251   1.106   3.953   1.984
11770TIP3   OH235252   3.922   1.270   3.003
11770TIP3    H135253   3.880   1.191   3.038
11770TIP3    H235254   3.962   1.311   3.080
11771TIP3   OH235255   2.410   4.298   6.252
11771TIP3    H135256   2.417   4.225   6.314
11771TIP3    H235257   2.478   4.281   6.187
11772TIP3   OH235258   4.052   6.877   4.523
11772TIP3    H135259   4.053   6.909   4.613
11772TIP3    H235260   4.021   6.787   4.530
11773TIP3   OH235261   4.332   2.960   6.622
11773TIP3    H135262   4.291   2.927   6.542
11773TIP3    H235263   4.260   2.970   6.684
11774TIP3   OH235264   4.360   5.320   4.007
11774TIP3    H135265   4.305   5.365   3.942
11774TIP3    H235266   4.377   5.235   3.968
11775TIP3   OH235267   3.005   7.594   2.590
11775TIP3    H135268   2.923   7.547   2.574
11775TIP3    H235269   2.986   7.650   2.665
11776TIP3   OH235270   1.156   0.170   1.021
11776TIP3    H135271   1.195   0.241   1.073
11776TIP3    H235272   1.120   0.110   1.086
11777TIP3   OH235273   1.911   2.269   0.075
11777TIP3    H135274   1.847   2.338   0.084
11777TIP3    H235275   1.971   2.301   0.008
11778TIP3   OH235276   8.084   2.876   5.048
11778TIP3    H135277   8.056   2.913   5.132
11778TIP3    H235278   8.140   2.802   5.072
11779TIP3   OH235279   2.112   4.177   2.334
11779TIP3    H135280   2.167   4.255   2.339
11779TIP3    H235281   2.132   4.140   2.248
11780TIP3   OH235282   7.454   2.647   2.420
11780TIP3    H135283   7.391   2.720   2.414
11780TIP3    H235284   7.439   2.597   2.339
11781TIP3   OH235285   6.757   6.365   1.684
11781TIP3    H135286   6.709   6.415   1.750
11781TIP3    H235287   6.838   6.339   1.728
11782TIP3   OH235288   5.945   3.636   5.142
11782TIP3    H135289   6.031   3.677   5.151
11782TIP3    H235290   5.953   3.553   5.189
11783TIP3   OH235291   2.658   1.123   2.729
11783TIP3    H135292   2.638   1.127   2.823
11783TIP3    H235293   2.724   1.054   2.722
11784TIP3   OH235294   4.102   2.181   0.750
11784TIP3    H135295   4.087   2.274   0.733
11784TIP3    H235296   4.016   2.141   0.744
11785TIP3   OH235297   0.039   5.606   5.341
11785TIP3    H135298  -0.030   5.556   5.385
11785TIP3    H235299   0.054   5.682   5.397
11786TIP3   OH235300   1.173   4.297   6.435
11786TIP3    H135301   1.195   4.207   6.458
11786TIP3    H235302   1.080   4.295   6.414
11787TIP3   OH235303   2.311   1.601   4.916
11787TIP3    H135304   2.298   1.695   4.903
11787TIP3    H235305   2.340   1.593   5.007
11788TIP3   OH235306   2.852   3.962   5.577
11788TIP3    H135307   2.911   4.034   5.597
11788TIP3    H235308   2.785   3.967   5.644
11789TIP3   OH235309   5.218   1.497   1.884
11789TIP3    H135310   5.126   1.513   1.904
11789TIP3    H235311   5.246   1.432   1.949
11790TIP3   OH235312   7.160   5.263   2.399
11790TIP3    H135313   7.192   5.236   2.313
11790TIP3    H235314   7.214   5.216   2.461
11791TIP3   OH235315   4.153   6.307   0.739
11791TIP3    H135316   4.120   6.316   0.828
11791TIP3    H235317   4.078   6.277   0.688
11792TIP3   OH235318   4.339   0.834   0.017
11792TIP3    H135319   4.415   0.842   0.075
11792TIP3    H235320   4.296   0.753   0.044
11793TIP3   OH235321   0.380   2.945   4.143
11793TIP3    H135322   0.345   2.905   4.064
11793TIP3    H235323   0.304   2.963   4.197
11794TIP3   OH235324   2.562   4.772   2.636
11794TIP3    H135325   2.574   4.741   2.725
11794TIP3    H235326   2.569   4.867   2.642
11795TIP3   OH235327   0.650   1.183   4.516
11795TIP3    H135328   0.692   1.112   4.565
11795TIP3    H235329   0.581   1.215   4.574
11796TIP3   OH235330   7.033   4.325   0.247
11796TIP3    H135331   7.107   4.307   0.190
11796TIP3    H235332   7.019   4.419   0.238
11797TIP3   OH235333   4.405   3.599   5.494
11797TIP3    H135334   4.494   3.588   5.527
11797TIP3    H235335   4.349   3.592   5.571
11798TIP3   OH235336   2.326   2.975   5.112
11798TIP3    H135337   2.396   2.946   5.054
11798TIP3    H235338   2.335   2.920   5.190
11799TIP3   OH235339   8.177   3.686   2.523
11799TIP3    H135340   8.101   3.628   2.520
11799TIP3    H235341   8.150   3.764   2.474
11800TIP3   OH235342   3.925   3.029   4.934
11800TIP3    H135343   4.000   3.069   4.977
11800TIP3    H235344   3.920   2.941   4.972
11801TIP3   OH235345   7.200   6.592   2.290
11801TIP3    H135346   7.238   6.636   2.214
11801TIP3    H235347   7.253   6.513   2.301
11802TIP3   OH235348   7.370   2.922   6.324
11802TIP3    H135349   7.334   2.922   6.236
11802TIP3    H235350   7.361   3.012   6.354
11803TIP3   OH235351   6.214   0.534   1.601
11803TIP3    H135352   6.284   0.502   1.545
11803TIP3    H235353   6.256   0.595   1.661
11804TIP3   OH235354   8.213   0.420   5.754
11804TIP3    H135355   8.255   0.505   5.764
11804TIP3    H235356   8.286   0.358   5.745
11805TIP3   OH235357   5.222   7.297   3.973
11805TIP3    H135358   5.298   7.295   3.914
11805TIP3    H235359   5.258   7.279   4.059
11806TIP3   OH235360   7.171   3.822   1.771
11806TIP3    H135361   7.130   3.742   1.805
11806TIP3    H235362   7.171   3.882   1.846
11807TIP3   OH235363   4.982   5.992   3.015
11807TIP3    H135364   4.958   6.069   2.964
11807TIP3    H235365   4.948   6.010   3.103
11808TIP3   OH235366   1.089   5.677   0.143
11808TIP3    H135367   1.180   5.697   0.124
11808TIP3    H235368   1.092   5.625   0.223
11809TIP3   OH235369   5.960   1.286   3.980
11809TIP3    H135370   5.875   1.326   3.997
11809TIP3    H235371   5.962   1.208   4.035
11810TIP3   OH235372   6.880   2.348   6.647
11810TIP3    H135373   6.951   2.411   6.659
11810TIP3    H235374   6.852   2.360   6.556
11811TIP3   OH235375   5.386   6.441   1.737
11811TIP3    H135376   5.388   6.360   1.686
11811TIP3    H235377   5.297   6.446   1.771
11812TIP3   OH235378   8.145   7.012   4.117
11812TIP3    H135379   8.093   7.064   4.055
11812TIP3    H235380   8.142   7.063   4.198
11813TIP3   OH235381   2.070   0.571   1.750
11813TIP3    H135382   2.052   0.493   1.698
11813TIP3    H235383   2.149   0.609   1.711
11814TIP3   OH235384   7.916   6.829   4.914
11814TIP3    H135385   7.912   6.796   4.824
11814TIP3    H235386   7.828   6.862   4.931
11815TIP3   OH235387   4.025   4.297   6.452
11815TIP3    H135388   3.963   4.307   6.525
11815TIP3    H235389   4.029   4.384   6.413
11816TIP3   OH235390   2.620   5.377   1.781
11816TIP3    H135391   2.569   5.355   1.860
11816TIP3    H235392   2.708   5.345   1.800
11817TIP3   OH235393   2.363   5.334   2.841
11817TIP3    H135394   2.403   5.264   2.894
11817TIP3    H235395   2.364   5.299   2.752
11818TIP3   OH235396   7.352   2.120   4.630
11818TIP3    H135397   7.395   2.057   4.571
11818TIP3    H235398   7.265   2.083   4.644
11819TIP3   OH235399   3.884   6.187   1.154
11819TIP3    H135400   3.807   6.153   1.201
11819TIP3    H235401   3.957   6.172   1.215
11820TIP3   OH235402   7.862   6.954   5.619
11820TIP3    H135403   7.944   6.916   5.587
11820TIP3    H235404   7.800   6.881   5.618
11821TIP3   OH235405   0.953   6.845   1.771
11821TIP3    H135406   0.970   6.754   1.792
11821TIP3    H235407   0.921   6.844   1.681
11822TIP3   OH235408   1.715   1.546   0.596
11822TIP3    H135409   1.708   1.458   0.558
11822TIP3    H235410   1.629   1.564   0.633
11823TIP3   OH235411   7.876   0.641   1.559
11823TIP3    H135412   7.894   0.547   1.562
11823TIP3    H235413   7.852   0.663   1.649
11824TIP3   OH235414   5.894   4.028   4.191
11824TIP3    H135415   5.942   3.946   4.204
11824TIP3    H235416   5.957   4.084   4.145
11825TIP3   OH235417   1.982   0.448   0.351
11825TIP3    H135418   1.900   0.461   0.399
11825TIP3    H235419   1.991   0.353   0.344
11826TIP3   OH235420   2.912   2.758   2.084
11826TIP3    H135421   2.933   2.742   1.992
11826TIP3    H235422   2.984   2.812   2.115
11827TIP3   OH235423   6.531   5.421   6.060
11827TIP3    H135424   6.610   5.438   6.111
11827TIP3    H235425   6.550   5.341   6.012
11828TIP3   OH235426   1.273   6.474   5.916
11828TIP3    H135427   1.363   6.441   5.916
11828TIP3    H235428   1.269   6.530   5.838
11829TIP3   OH235429   3.634   4.554   0.866
11829TIP3    H135430   3.545   4.520   0.853
11829TIP3    H235431   3.684   4.517   0.793
11830TIP3   OH235432   2.209   2.649   0.807
11830TIP3    H135433   2.128   2.624   0.762
11830TIP3    H235434   2.225   2.740   0.779
11831TIP3   OH235435   1.367   3.490   1.133
11831TIP3    H135436   1.293   3.546   1.152
11831TIP3    H235437   1.428   3.506   1.205
11832TIP3   OH235438   4.716   3.153   3.036
11832TIP3    H135439   4.652   3.177   2.968
11832TIP3    H235440   4.801   3.155   2.992
11833TIP3   OH235441   6.157   5.913   0.350
11833TIP3    H135442   6.177   5.929   0.258
11833TIP3    H235443   6.203   5.832   0.371
11834TIP3   OH235444   7.611   3.283   4.209
11834TIP3    H135445   7.692   3.333   4.208
11834TIP3    H235446   7.543   3.348   4.227
11835TIP3   OH235447   1.190   1.478   3.703
11835TIP3    H135448   1.174   1.388   3.674
11835TIP3    H235449   1.125   1.493   3.771
11836TIP3   OH235450   6.280   5.790   2.298
11836TIP3    H135451   6.205   5.843   2.325
11836TIP3    H235452   6.253   5.700   2.315
11837TIP3   OH235453   7.333   1.433   3.584
11837TIP3    H135454   7.406   1.385   3.622
11837TIP3    H235455   7.335   1.518   3.629
11838TIP3   OH235456   3.090   1.981   6.204
11838TIP3    H135457   3.056   2.058   6.158
11838TIP3    H235458   3.176   1.965   6.165
11839TIP3   OH235459   3.752   5.659   1.887
11839TIP3    H135460   3.704   5.738   1.863
11839TIP3    H235461   3.819   5.650   1.818
11840TIP3   OH235462   7.511  -0.036   4.939
11840TIP3    H135463   7.564   0.030   4.983
11840TIP3    H235464   7.430   0.009   4.914
11841TIP3   OH235465   1.457   3.109   3.670
11841TIP3    H135466   1.372   3.153   3.675
11841TIP3    H235467   1.514   3.161   3.727
11842TIP3   OH235468   1.550   5.293   1.514
11842TIP3    H135469   1.544   5.204   1.549
11842TIP3    H235470   1.633   5.294   1.467
11843TIP3   OH235471   1.289   6.653   5.030
11843TIP3    H135472   1.264   6.742   5.004
11843TIP3    H235473   1.296   6.605   4.948
11844TIP3   OH235474   4.050   5.047   4.448
11844TIP3    H135475   4.055   4.989   4.372
11844TIP3    H235476   3.957   5.050   4.469
11845TIP3   OH235477   3.522   3.475   0.003
11845TIP3    H135478   3.499   3.465   0.095
11845TIP3    H235479   3.544   3.568  -0.006
11846TIP3   OH235480   0.779   0.365   2.579
11846TIP3    H135481   0.686   0.351   2.594
11846TIP3    H235482   0.821   0.287   2.616
11847TIP3   OH235483   0.978   3.387   0.396
11847TIP3    H135484   0.964   3.294   0.413
11847TIP3    H235485   0.954   3.431   0.477
11848TIP3   OH235486   6.616   3.465   3.386
11848TIP3    H135487   6.570   3.511   3.317
11848TIP3    H235488   6.694   3.518   3.403
11849TIP3   OH235489   7.935   4.753   6.244
11849TIP3    H135490   7.968   4.663   6.233
11849TIP3    H235491   7.969   4.800   6.168
11850TIP3   OH235492   6.837   3.925   1.393
11850TIP3    H135493   6.771   3.871   1.437
11850TIP3    H235494   6.904   3.939   1.459
11851TIP3   OH235495   1.872   2.591   6.727
11851TIP3    H135496   1.779   2.611   6.732
11851TIP3    H235497   1.887   2.528   6.798
11852TIP3   OH235498   2.442   5.393   3.369
11852TIP3    H135499   2.448   5.340   3.448
11852TIP3    H235500   2.349   5.402   3.352
11853TIP3   OH235501   1.422   4.527   4.374
11853TIP3    H135502   1.328   4.538   4.392
11853TIP3    H235503   1.424   4.487   4.287
11854TIP3   OH235504   2.464   0.552   0.775
11854TIP3    H135505   2.543   0.606   0.773
11854TIP3    H235506   2.496   0.462   0.772
11855TIP3   OH235507   0.205   4.477   1.884
11855TIP3    H135508   0.118   4.517   1.881
11855TIP3    H235509   0.195   4.401   1.942
11856TIP3   OH235510   3.669   3.978   4.786
11856TIP3    H135511   3.759   4.007   4.802
11856TIP3    H235512   3.669   3.948   4.695
11857TIP3   OH235513   1.389   4.057   0.679
11857TIP3    H135514   1.406   3.969   0.643
11857TIP3    H235515   1.301   4.079   0.648
11858TIP3   OH235516   0.089   0.050   6.603
11858TIP3    H135517   0.056   0.140   6.598
11858TIP3    H235518   0.062   0.010   6.521
11859TIP3   OH235519   6.825   0.165   3.010
11859TIP3    H135520   6.803   0.080   2.970
11859TIP3    H235521   6.890   0.203   2.951
11860TIP3   OH235522   4.548   2.512   1.179
11860TIP3    H135523   4.524   2.422   1.204
11860TIP3    H235524   4.641   2.507   1.157
11861TIP3   OH235525   4.499   7.009   2.551
11861TIP3    H135526   4.452   6.927   2.535
11861TIP3    H235527   4.503   7.016   2.647
11862TIP3   OH235528   0.396   5.712   1.923
11862TIP3    H135529   0.304   5.689   1.936
11862TIP3    H235530   0.395   5.775   1.851
11863TIP3   OH235531   7.537   6.420   1.657
11863TIP3    H135532   7.518   6.510   1.682
11863TIP3    H235533   7.618   6.425   1.607
11864TIP3   OH235534   2.367   7.414   6.571
11864TIP3    H135535   2.367   7.385   6.480
11864TIP3    H235536   2.444   7.469   6.579
11865TIP3   OH235537   5.841   2.878   3.930
11865TIP3    H135538   5.908   2.934   3.969
11865TIP3    H235539   5.761   2.929   3.934
11866TIP3   OH235540   4.518   7.388   0.403
11866TIP3    H135541   4.503   7.322   0.472
11866TIP3    H235542   4.559   7.338   0.332
11867TIP3   OH235543   6.690   0.999   4.908
11867TIP3    H135544   6.704   0.942   4.984
11867TIP3    H235545   6.775   1.039   4.891
11868TIP3   OH235546   7.390   7.369   3.860
11868TIP3    H135547   7.325   7.434   3.886
11868TIP3    H235548   7.339   7.298   3.820
11869TIP3   OH235549   8.115   7.852   3.962
11869TIP3    H135550   8.112   7.885   4.052
11869TIP3    H235551   8.065   7.770   3.966
11870TIP3   OH235552   5.019   4.079   1.579
11870TIP3    H135553   5.036   4.160   1.626
11870TIP3    H235554   4.929   4.056   1.602
11871TIP3   OH235555   4.456   7.227   3.076
11871TIP3    H135556   4.550   7.209   3.080
11871TIP3    H235557   4.437   7.236   2.983
11872TIP3   OH235558   8.324   3.980   5.543
11872TIP3    H135559   8.376   4.060   5.549
11872TIP3    H235560   8.274   3.989   5.462
11873TIP3   OH235561   1.225   6.645   4.120
11873TIP3    H135562   1.225   6.682   4.032
11873TIP3    H235563   1.150   6.688   4.164
11874TIP3   OH235564   4.272   3.203   4.380
11874TIP3    H135565   4.210   3.147   4.334
11874TIP3    H235566   4.225   3.285   4.395
11875TIP3   OH235567   1.279   2.477   3.634
11875TIP3    H135568   1.225   2.484   3.712
11875TIP3    H235569   1.239   2.536   3.571
11876TIP3   OH235570   4.514   3.001   1.063
11876TIP3    H135571   4.533   2.968   0.975
11876TIP3    H235572   4.588   3.059   1.083
11877TIP3   OH235573   1.706   3.370   4.829
11877TIP3    H135574   1.719   3.312   4.904
11877TIP3    H235575   1.720   3.458   4.864
11878TIP3   OH235576   6.744   5.712   4.065
11878TIP3    H135577   6.739   5.790   4.009
11878TIP3    H235578   6.653   5.692   4.087
11879TIP3   OH235579   5.462   3.236   3.637
11879TIP3    H135580   5.550   3.210   3.663
11879TIP3    H235581   5.416   3.154   3.621
11880TIP3   OH235582   1.137   5.722   6.558
11880TIP3    H135583   1.209   5.740   6.618
11880TIP3    H235584   1.168   5.649   6.505
11881TIP3   OH235585   4.207   2.708   2.999
11881TIP3    H135586   4.137   2.643   3.003
11881TIP3    H235587   4.287   2.655   2.993
11882TIP3   OH235588   6.991   2.869   1.580
11882TIP3    H135589   7.000   2.846   1.673
11882TIP3    H235590   6.956   2.790   1.540
11883TIP3   OH235591   4.933   4.666   0.083
11883TIP3    H135592   5.022   4.637   0.103
11883TIP3    H235593   4.897   4.691   0.168
11884TIP3   OH235594   6.949   2.639   6.249
11884TIP3    H135595   6.942   2.554   6.294
11884TIP3    H235596   6.876   2.690   6.284
11885TIP3   OH235597   3.460   7.234   3.978
11885TIP3    H135598   3.551   7.254   4.001
11885TIP3    H235599   3.424   7.319   3.951
11886TIP3   OH235600   6.684   2.687   3.701
11886TIP3    H135601   6.691   2.592   3.694
11886TIP3    H235602   6.609   2.710   3.647
11887TIP3   OH235603   4.923   5.766   6.765
11887TIP3    H135604   4.975   5.785   6.843
11887TIP3    H235605   4.835   5.748   6.798
11888TIP3   OH235606   5.690   0.194   4.208
11888TIP3    H135607   5.625   0.124   4.200
11888TIP3    H235608   5.698   0.229   4.119
11889TIP3   OH235609   2.383   7.007   0.155
11889TIP3    H135610   2.340   6.923   0.137
11889TIP3    H235611   2.410   7.039   0.069
11890TIP3   OH235612   3.955   3.963   2.546
11890TIP3    H135613   4.031   3.905   2.536
11890TIP3    H235614   3.902   3.922   2.615
11891TIP3   OH235615   4.226   1.390   1.112
11891TIP3    H135616   4.203   1.298   1.122
11891TIP3    H235617   4.311   1.388   1.067
11892TIP3   OH235618   6.379   5.723   4.423
11892TIP3    H135619   6.315   5.668   4.377
11892TIP3    H235620   6.464   5.688   4.397
11893TIP3   OH235621   2.715   7.186   4.849
11893TIP3    H135622   2.711   7.180   4.945
11893TIP3    H235623   2.706   7.280   4.831
11894TIP3   OH235624   1.321   7.760   6.054
11894TIP3    H135625   1.235   7.719   6.057
11894TIP3    H235626   1.365   7.730   6.134
11895TIP3   OH235627   2.719   2.487   2.999
11895TIP3    H135628   2.794   2.492   2.941
11895TIP3    H235629   2.752   2.515   3.084
11896TIP3   OH235630   3.716   3.605   3.416
11896TIP3    H135631   3.769   3.539   3.372
11896TIP3    H235632   3.649   3.555   3.462
11897TIP3   OH235633   4.348   3.824   0.690
11897TIP3    H135634   4.332   3.879   0.613
11897TIP3    H235635   4.358   3.886   0.762
11898TIP3   OH235636   4.424   4.051   4.736
11898TIP3    H135637   4.463   4.120   4.789
11898TIP3    H235638   4.361   4.097   4.680
11899TIP3   OH235639   5.926   2.638   3.531
11899TIP3    H135640   5.945   2.719   3.578
11899TIP3    H235641   5.880   2.583   3.595
11900TIP3   OH235642   1.233   5.036   6.000
11900TIP3    H135643   1.319   5.034   6.042
11900TIP3    H235644   1.213   4.943   5.983
11901TIP3   OH235645   7.732   7.123   3.899
11901TIP3    H135646   7.776   7.131   3.814
11901TIP3    H235647   7.790   7.169   3.960
11902TIP3   OH235648   3.699   0.789   6.027
11902TIP3    H135649   3.765   0.739   5.980
11902TIP3    H235650   3.626   0.797   5.964
11903TIP3   OH235651   7.121   3.414   2.584
11903TIP3    H135652   7.099   3.491   2.533
11903TIP3    H235653   7.210   3.430   2.615
11904TIP3   OH235654   1.385   0.220   2.002
11904TIP3    H135655   1.320   0.284   1.970
11904TIP3    H235656   1.449   0.214   1.931
11905TIP3   OH235657   3.058   6.339   2.333
11905TIP3    H135658   3.133   6.281   2.333
11905TIP3    H235659   3.035   6.349   2.241
11906TIP3   OH235660   2.076   5.323   2.101
11906TIP3    H135661   1.985   5.329   2.129
11906TIP3    H235662   2.074   5.340   2.007
11907TIP3   OH235663   7.642   0.650   2.462
11907TIP3    H135664   7.707   0.632   2.530
11907TIP3    H235665   7.608   0.563   2.440
11908TIP3   OH235666   6.238   1.560   2.732
11908TIP3    H135667   6.204   1.482   2.775
11908TIP3    H235668   6.225   1.543   2.639
11909TIP3   OH235669   4.749   0.717   6.123
11909TIP3    H135670   4.668   0.675   6.094
11909TIP3    H235671   4.746   0.711   6.219
11910TIP3   OH235672   5.083   1.398   5.486
11910TIP3    H135673   5.051   1.477   5.443
11910TIP3    H235674   5.078   1.419   5.580
11911TIP3   OH235675   2.801   2.448   3.314
11911TIP3    H135676   2.735   2.388   3.281
11911TIP3    H235677   2.769   2.474   3.400
11912TIP3   OH235678   5.669   4.663   1.279
11912TIP3    H135679   5.603   4.710   1.330
11912TIP3    H235680   5.680   4.717   1.200
11913TIP3   OH235681   7.928   6.446   2.924
11913TIP3    H135682   7.901   6.470   2.835
11913TIP3    H235683   7.926   6.528   2.973
11914TIP3   OH235684   8.076   3.156   3.537
11914TIP3    H135685   8.056   3.069   3.572
11914TIP3    H235686   8.024   3.216   3.592
11915TIP3   OH235687   3.503   6.195   1.767
11915TIP3    H135688   3.450   6.249   1.827
11915TIP3    H235689   3.440   6.164   1.702
11916TIP3   OH235690   0.201   0.205   2.863
11916TIP3    H135691   0.222   0.115   2.837
11916TIP3    H235692   0.132   0.196   2.928
11917TIP3   OH235693   3.726   3.064   2.543
11917TIP3    H135694   3.647   3.040   2.496
11917TIP3    H235695   3.696   3.088   2.631
11918TIP3   OH235696   0.138   0.901   4.749
11918TIP3    H135697   0.054   0.886   4.791
11918TIP3    H235698   0.117   0.953   4.671
11919TIP3   OH235699  -0.034   3.391   0.072
11919TIP3    H135700   0.019   3.324   0.116
11919TIP3    H235701  -0.005   3.389  -0.019
11920TIP3   OH235702   5.513   4.907   6.297
11920TIP3    H135703   5.450   4.947   6.357
11920TIP3    H235704   5.498   4.951   6.213
11921TIP3   OH235705   3.253   3.612   4.279
11921TIP3    H135706   3.281   3.690   4.232
11921TIP3    H235707   3.184   3.643   4.338
11922TIP3   OH235708   2.646   2.091   6.275
11922TIP3    H135709   2.587   2.027   6.314
11922TIP3    H235710   2.683   2.048   6.199
11923TIP3   OH235711   0.246   4.491   4.783
11923TIP3    H135712   0.222   4.553   4.714
11923TIP3    H235713   0.213   4.531   4.863
11924TIP3   OH235714   1.645   1.425   2.437
11924TIP3    H135715   1.588   1.349   2.424
11924TIP3    H235716   1.599   1.497   2.394
11925TIP3   OH235717   6.218   3.131   5.453
11925TIP3    H135718   6.294   3.084   5.486
11925TIP3    H235719   6.187   3.183   5.527
11926TIP3   OH235720   4.910   0.671   1.793
11926TIP3    H135721   4.823   0.640   1.818
11926TIP3    H235722   4.895   0.726   1.716
11927TIP3   OH235723   1.000   1.602   1.299
11927TIP3    H135724   1.069   1.563   1.353
11927TIP3    H235725   0.929   1.621   1.361
11928TIP3   OH235726   8.186   3.916   5.275
11928TIP3    H135727   8.174   3.978   5.203
11928TIP3    H235728   8.261   3.863   5.249
11929TIP3   OH235729   3.631   3.212   4.177
11929TIP3    H135730   3.708   3.262   4.202
11929TIP3    H235731   3.561   3.247   4.231
11930TIP3   OH235732   5.090   1.165   3.263
11930TIP3    H135733   5.100   1.255   3.295
11930TIP3    H235734   5.036   1.173   3.185
11931TIP3   OH235735   7.967   1.927   2.923
11931TIP3    H135736   7.954   2.002   2.865
11931TIP3    H235737   7.925   1.953   3.006
11932TIP3   OH235738   3.878   4.599   1.660
11932TIP3    H135739   3.831   4.622   1.580
11932TIP3    H235740   3.936   4.674   1.676
11933TIP3   OH235741   4.347   0.981   0.701
11933TIP3    H135742   4.302   1.065   0.701
11933TIP3    H235743   4.363   0.962   0.608
11934TIP3   OH235744   5.598   6.971   5.127
11934TIP3    H135745   5.677   6.956   5.076
11934TIP3    H235746   5.555   6.885   5.129
11935TIP3   OH235747   7.025   3.487   2.147
11935TIP3    H135748   6.933   3.472   2.125
11935TIP3    H235749   7.023   3.518   2.238
11936TIP3   OH235750   5.619   4.270   2.220
11936TIP3    H135751   5.664   4.199   2.266
11936TIP3    H235752   5.536   4.232   2.193
11937TIP3   OH235753   0.987   1.751   3.714
11937TIP3    H135754   1.044   1.822   3.683
11937TIP3    H235755   0.935   1.726   3.638
11938TIP3   OH235756   2.309   0.227   3.955
11938TIP3    H135757   2.385   0.268   3.915
11938TIP3    H235758   2.328   0.133   3.951
11939TIP3   OH235759   1.458   3.521   3.011
11939TIP3    H135760   1.447   3.585   2.941
11939TIP3    H235761   1.370   3.486   3.026
11940TIP3   OH235762   8.029   6.305   0.965
11940TIP3    H135763   8.075   6.256   1.033
11940TIP3    H235764   7.937   6.297   0.988
11941TIP3   OH235765   6.453   7.637   1.630
11941TIP3    H135766   6.366   7.616   1.662
11941TIP3    H235767   6.456   7.732   1.625
11942TIP3   OH235768   1.866   5.521   4.905
11942TIP3    H135769   1.882   5.470   4.826
11942TIP3    H235770   1.772   5.513   4.921
11943TIP3   OH235771   5.949   7.260   5.540
11943TIP3    H135772   5.915   7.338   5.495
11943TIP3    H235773   5.871   7.210   5.564
11944TIP3   OH235774   2.159   7.417   0.942
11944TIP3    H135775   2.239   7.469   0.950
11944TIP3    H235776   2.101   7.470   0.888
11945TIP3   OH235777   7.864   1.607   5.806
11945TIP3    H135778   7.803   1.600   5.880
11945TIP3    H235779   7.808   1.609   5.729
11946TIP3   OH235780   6.524   1.750   0.217
11946TIP3    H135781   6.520   1.654   0.218
11946TIP3    H235782   6.521   1.773   0.124
11947TIP3   OH235783   2.085   1.088   2.832
11947TIP3    H135784   2.175   1.057   2.841
11947TIP3    H235785   2.065   1.128   2.916
11948TIP3   OH235786   1.828   1.205   2.699
11948TIP3    H135787   1.908   1.157   2.720
11948TIP3    H235788   1.769   1.188   2.772
11949TIP3   OH235789   1.461   6.717   2.123
11949TIP3    H135790   1.445   6.637   2.073
11949TIP3    H235791   1.557   6.724   2.127
11950TIP3   OH235792   7.779   2.728   0.321
11950TIP3    H135793   7.859   2.678   0.333
11950TIP3    H235794   7.711   2.675   0.362
11951TIP3   OH235795   1.376   2.425   2.554
11951TIP3    H135796   1.447   2.487   2.534
11951TIP3    H235797   1.418   2.356   2.605
11952TIP3   OH235798   2.439   4.925   2.989
11952TIP3    H135799   2.365   4.946   2.933
11952TIP3    H235800   2.421   4.837   3.021
11953TIP3   OH235801   0.817   6.454   0.194
11953TIP3    H135802   0.843   6.465   0.286
11953TIP3    H235803   0.823   6.360   0.178
11954TIP3   OH235804   4.221   0.054   1.704
11954TIP3    H135805   4.248  -0.037   1.693
11954TIP3    H235806   4.169   0.054   1.785
11955TIP3   OH235807   7.695   3.115   4.480
11955TIP3    H135808   7.624   3.141   4.539
11955TIP3    H235809   7.707   3.191   4.423
11956TIP3   OH235810   6.706   0.610   3.637
11956TIP3    H135811   6.749   0.582   3.717
11956TIP3    H235812   6.743   0.555   3.568
11957TIP3   OH235813   0.800   1.324   0.579
11957TIP3    H135814   0.814   1.417   0.597
11957TIP3    H235815   0.712   1.320   0.542
11958TIP3   OH235816   5.094   1.127   4.888
11958TIP3    H135817   5.034   1.056   4.867
11958TIP3    H235818   5.063   1.162   4.971
11959TIP3   OH235819   7.476   6.628   6.404
11959TIP3    H135820   7.473   6.581   6.320
11959TIP3    H235821   7.424   6.574   6.463
11960TIP3   OH235822   7.420   0.633   0.082
11960TIP3    H135823   7.404   0.566   0.015
11960TIP3    H235824   7.349   0.695   0.072
11961TIP3   OH235825   7.779   0.592   1.241
11961TIP3    H135826   7.700   0.538   1.252
11961TIP3    H235827   7.831   0.575   1.319
11962TIP3   OH235828   3.576   5.345   4.201
11962TIP3    H135829   3.664   5.307   4.212
11962TIP3    H235830   3.593   5.434   4.170
11963TIP3   OH235831   6.057   1.856   3.361
11963TIP3    H135832   6.082   1.764   3.353
11963TIP3    H235833   6.086   1.896   3.279
11964TIP3   OH235834   1.383   6.024   6.505
11964TIP3    H135835   1.332   5.944   6.502
11964TIP3    H235836   1.424   6.029   6.418
11965TIP3   OH235837   2.085   6.543   3.516
11965TIP3    H135838   2.103   6.532   3.610
11965TIP3    H235839   2.047   6.631   3.509
11966TIP3   OH235840   3.702   5.573   4.551
11966TIP3    H135841   3.705   5.481   4.575
11966TIP3    H235842   3.766   5.615   4.608
11967TIP3   OH235843   4.750   4.763   5.546
11967TIP3    H135844   4.721   4.854   5.554
11967TIP3    H235845   4.841   4.764   5.573
11968TIP3   OH235846   4.545   2.536   5.436
11968TIP3    H135847   4.613   2.602   5.424
11968TIP3    H235848   4.587   2.454   5.411
11969TIP3   OH235849   5.344   1.856   3.683
11969TIP3    H135850   5.371   1.776   3.636
11969TIP3    H235851   5.254   1.839   3.710
11970TIP3   OH235852   6.218   4.333   4.447
11970TIP3    H135853   6.187   4.417   4.480
11970TIP3    H235854   6.312   4.333   4.465
11971TIP3   OH235855   5.513   1.473   1.024
11971TIP3    H135856   5.575   1.447   0.955
11971TIP3    H235857   5.474   1.391   1.053
11972TIP3   OH235858   6.599   4.986   0.753
11972TIP3    H135859   6.647   4.903   0.754
11972TIP3    H235860   6.507   4.960   0.745
11973TIP3   OH235861   5.738   5.588   1.685
11973TIP3    H135862   5.785   5.649   1.628
11973TIP3    H235863   5.709   5.517   1.627
11974TIP3   OH235864   1.201   5.362   1.090
11974TIP3    H135865   1.251   5.365   1.172
11974TIP3    H235866   1.110   5.350   1.118
11975TIP3   OH235867   2.902   2.906   0.203
11975TIP3    H135868   2.887   2.813   0.222
11975TIP3    H235869   2.898   2.912   0.107
11976TIP3   OH235870   7.352   0.470   5.367
11976TIP3    H135871   7.284   0.504   5.426
11976TIP3    H235872   7.310   0.467   5.281
11977TIP3   OH235873   3.554   6.403   3.475
11977TIP3    H135874   3.619   6.473   3.481
11977TIP3    H235875   3.540   6.389   3.382
11978TIP3   OH235876   6.130   4.889   0.106
11978TIP3    H135877   6.173   4.936   0.035
11978TIP3    H235878   6.065   4.951   0.139
11979TIP3   OH235879   1.409   5.515   5.320
11979TIP3    H135880   1.397   5.610   5.319
11979TIP3    H235881   1.496   5.502   5.356
11980TIP3   OH235882   1.107   1.090   4.036
11980TIP3    H135883   1.075   1.018   4.089
11980TIP3    H235884   1.158   1.048   3.967
11981TIP3   OH235885   3.230   0.797   5.912
11981TIP3    H135886   3.211   0.727   5.974
11981TIP3    H235887   3.184   0.874   5.947
11982TIP3   OH235888   2.249   2.354   6.644
11982TIP3    H135889   2.217   2.399   6.722
11982TIP3    H235890   2.308   2.286   6.678
11983TIP3   OH235891   4.719   0.995   2.479
11983TIP3    H135892   4.636   0.957   2.452
11983TIP3    H235893   4.710   1.011   2.572
11984TIP3   OH235894   0.377   5.724   0.916
11984TIP3    H135895   0.352   5.640   0.879
11984TIP3    H235896   0.458   5.707   0.964
11985TIP3   OH235897   3.766   4.580   1.405
11985TIP3    H135898   3.827   4.548   1.338
11985TIP3    H235899   3.692   4.520   1.400
11986TIP3   OH235900   8.266   3.066   2.872
11986TIP3    H135901   8.175   3.077   2.901
11986TIP3    H235902   8.295   2.985   2.913
11987TIP3   OH235903   3.714   4.023   6.537
11987TIP3    H135904   3.719   3.998   6.445
11987TIP3    H235905   3.661   3.954   6.577
11988TIP3   OH235906   2.981   0.476   1.776
11988TIP3    H135907   2.900   0.527   1.770
11988TIP3    H235908   3.004   0.480   1.868
11989TIP3   OH235909   4.419   1.048   3.117
11989TIP3    H135910   4.403   0.976   3.177
11989TIP3    H235911   4.514   1.053   3.110
11990TIP3   OH235912   5.647   3.005   4.373
11990TIP3    H135913   5.716   3.021   4.308
11990TIP3    H235914   5.645   3.085   4.425
11991TIP3   OH235915   0.999   7.532   3.734
11991TIP3    H135916   0.947   7.482   3.672
11991TIP3    H235917   0.946   7.610   3.752
11992TIP3   OH235918   6.739   3.774   2.582
11992TIP3    H135919   6.794   3.828   2.639
11992TIP3    H235920   6.743   3.818   2.497
11993TIP3   OH235921   3.623   1.974   2.502
11993TIP3    H135922   3.599   1.906   2.565
11993TIP3    H235923   3.556   1.968   2.434
11994TIP3   OH235924   4.373   4.661   3.598
11994TIP3    H135925   4.353   4.636   3.508
11994TIP3    H235926   4.447   4.606   3.622
11995TIP3   OH235927   8.292   6.853   2.500
11995TIP3    H135928   8.266   6.911   2.428
11995TIP3    H235929   8.322   6.913   2.569
11996TIP3   OH235930   1.588   5.498   3.379
11996TIP3    H135931   1.650   5.551   3.429
11996TIP3    H235932   1.641   5.426   3.344
11997TIP3   OH235933   5.290   2.890   6.635
11997TIP3    H135934   5.208   2.918   6.677
11997TIP3    H235935   5.266   2.873   6.544
11998TIP3   OH235936   4.519   0.549   6.503
11998TIP3    H135937   4.518   0.509   6.416
11998TIP3    H235938   4.510   0.475   6.564
11999TIP3   OH235939   3.573   3.388   6.039
11999TIP3    H135940   3.500   3.353   5.987
11999TIP3    H235941   3.578   3.480   6.014
12000TIP3   OH235942   6.631   6.818   0.039
12000TIP3    H135943   6.585   6.814   0.123
12000TIP3    H235944   6.563   6.836  -0.025
12001TIP3   OH235945   4.357   1.405   1.667
12001TIP3    H135946   4.270   1.409   1.627
12001TIP3    H235947   4.374   1.494   1.696
12002TIP3   OH235948   4.114   3.670   0.702
12002TIP3    H135949   4.103   3.638   0.792
12002TIP3    H235950   4.156   3.755   0.712
12003TIP3   OH235951   4.402   0.414   0.291
12003TIP3    H135952   4.351   0.388   0.215
12003TIP3    H235953   4.342   0.407   0.365
12004TIP3   OH235954   0.401   1.522   0.657
12004TIP3    H135955   0.362   1.445   0.615
12004TIP3    H235956   0.463   1.486   0.720
12005TIP3   OH235957   2.094   4.597   2.260
12005TIP3    H135958   2.176   4.587   2.308
12005TIP3    H235959   2.039   4.525   2.292
12006TIP3   OH235960   5.209   0.677   1.121
12006TIP3    H135961   5.160   0.647   1.197
12006TIP3    H235962   5.142   0.710   1.061
12007TIP3   OH235963   1.419   4.351   1.815
12007TIP3    H135964   1.406   4.257   1.801
12007TIP3    H235965   1.363   4.392   1.750
12008TIP3   OH235966   6.822   5.410   5.169
12008TIP3    H135967   6.805   5.484   5.111
12008TIP3    H235968   6.773   5.430   5.249
12009TIP3   OH235969   3.332   6.636   6.605
12009TIP3    H135970   3.258   6.606   6.657
12009TIP3    H235971   3.364   6.557   6.561
12010TIP3   OH235972   3.413   0.253   1.520
12010TIP3    H135973   3.479   0.318   1.544
12010TIP3    H235974   3.362   0.240   1.600
12011TIP3   OH235975   7.406   5.090   4.603
12011TIP3    H135976   7.329   5.044   4.638
12011TIP3    H235977   7.453   5.120   4.681
12012TIP3   OH235978   6.435   5.491   0.699
12012TIP3    H135979   6.450   5.426   0.630
12012TIP3    H235980   6.341   5.510   0.692
12013TIP3   OH235981   4.517   7.466   1.358
12013TIP3    H135982   4.560   7.502   1.280
12013TIP3    H235983   4.433   7.432   1.326
12014TIP3   OH235984   8.133   4.774   1.362
12014TIP3    H135985   8.210   4.719   1.381
12014TIP3    H235986   8.168   4.863   1.359
12015TIP3   OH235987   4.962   6.556   3.370
12015TIP3    H135988   5.010   6.626   3.326
12015TIP3    H235989   5.030   6.496   3.401
12016TIP3   OH235990   5.820   2.056   4.443
12016TIP3    H135991   5.802   2.138   4.397
12016TIP3    H235992   5.887   2.013   4.390
12017TIP3   OH235993   1.195   2.617   3.200
12017TIP3    H135994   1.284   2.649   3.217
12017TIP3    H235995   1.203   2.567   3.119
12018TIP3   OH235996   2.162   5.729   4.636
12018TIP3    H135997   2.137   5.663   4.700
12018TIP3    H235998   2.193   5.803   4.688
12019TIP3   OH235999   6.387   1.904   3.158
12019TIP3    H136000   6.421   1.990   3.181
12019TIP3    H236001   6.301   1.921   3.118
12020TIP3   OH236002   0.915   7.675   1.220
12020TIP3    H136003   1.004   7.661   1.190
12020TIP3    H236004   0.860   7.632   1.154
12021TIP3   OH236005   2.847   4.460   4.517
12021TIP3    H136006   2.755   4.488   4.509
12021TIP3    H236007   2.879   4.506   4.595
12022TIP3   OH236008   3.917   2.318   0.459
12022TIP3    H136009   3.970   2.297   0.382
12022TIP3    H236010   3.950   2.261   0.528
12023TIP3   OH236011   3.918   1.226   3.905
12023TIP3    H136012   3.898   1.135   3.885
12023TIP3    H236013   4.010   1.225   3.930
12024TIP3   OH236014   6.037   7.208   2.651
12024TIP3    H136015   6.022   7.129   2.599
12024TIP3    H236016   5.952   7.251   2.655
12025TIP3   OH236017   6.370   4.306   3.126
12025TIP3    H136018   6.314   4.301   3.204
12025TIP3    H236019   6.451   4.347   3.158
12026TIP3   OH236020   2.236   4.333   3.028
12026TIP3    H136021   2.291   4.257   3.012
12026TIP3    H236022   2.222   4.335   3.123
12027TIP3   OH236023   7.997   2.237   5.628
12027TIP3    H136024   8.081   2.207   5.662
12027TIP3    H236025   7.932   2.199   5.687
12028TIP3   OH236026   0.273   6.834   2.307
12028TIP3    H136027   0.296   6.832   2.400
12028TIP3    H236028   0.340   6.781   2.264
12029TIP3   OH236029   6.524   1.979   6.302
12029TIP3    H136030   6.438   1.993   6.264
12029TIP3    H236031   6.557   1.900   6.260
12030TIP3   OH236032   4.295   4.052   1.386
12030TIP3    H136033   4.236   4.002   1.443
12030TIP3    H236034   4.367   3.992   1.367
12031TIP3   OH236035   6.805   3.182   2.979
12031TIP3    H136036   6.795   3.091   2.953
12031TIP3    H236037   6.884   3.183   3.033
12032TIP3   OH236038   0.330   2.558   6.557
12032TIP3    H136039   0.248   2.524   6.594
12032TIP3    H236040   0.332   2.524   6.468
12033TIP3   OH236041   4.133   4.238   1.254
12033TIP3    H136042   4.178   4.198   1.328
12033TIP3    H236043   4.182   4.318   1.235
12034TIP3   OH236044   1.202   6.896   1.115
12034TIP3    H136045   1.211   6.809   1.077
12034TIP3    H236046   1.275   6.946   1.080
12035TIP3   OH236047   6.512   3.660   2.924
12035TIP3    H136048   6.442   3.601   2.952
12035TIP3    H236049   6.467   3.734   2.884
12036TIP3   OH236050   8.071   1.586   3.681
12036TIP3    H136051   8.031   1.537   3.753
12036TIP3    H236052   8.147   1.534   3.655
12037TIP3   OH236053   3.595   3.260   6.652
12037TIP3    H136054   3.681   3.286   6.686
12037TIP3    H236055   3.602   3.273   6.558
12038TIP3   OH236056   2.817   2.349   2.308
12038TIP3    H136057   2.763   2.351   2.229
12038TIP3    H236058   2.854   2.437   2.315
12039TIP3   OH236059   1.467   3.522   2.274
12039TIP3    H136060   1.457   3.433   2.240
12039TIP3    H236061   1.391   3.535   2.331
12040TIP3   OH236062   5.814   7.083   1.664
12040TIP3    H136063   5.737   7.026   1.661
12040TIP3    H236064   5.841   7.092   1.573
12041TIP3   OH236065   1.418   6.122   2.277
12041TIP3    H136066   1.412   6.128   2.372
12041TIP3    H236067   1.501   6.164   2.255
12042TIP3   OH236068   6.841   7.056   0.238
12042TIP3    H136069   6.762   7.076   0.188
12042TIP3    H236070   6.811   7.000   0.310
12043TIP3   OH236071   1.413   2.322   6.057
12043TIP3    H136072   1.369   2.400   6.023
12043TIP3    H236073   1.482   2.304   5.994
12044TIP3   OH236074   0.994   4.429   3.503
12044TIP3    H136075   0.972   4.351   3.451
12044TIP3    H236076   0.971   4.405   3.592
12045TIP3   OH236077   2.481   7.230   0.918
12045TIP3    H136078   2.472   7.281   0.999
12045TIP3    H236079   2.556   7.173   0.934
12046TIP3   OH236080   0.739   5.559   6.724
12046TIP3    H136081   0.720   5.529   6.813
12046TIP3    H236082   0.814   5.617   6.734
12047TIP3   OH236083   0.842   5.138   2.033
12047TIP3    H136084   0.924   5.129   2.081
12047TIP3    H236085   0.839   5.062   1.976
12048TIP3   OH236086   0.466   0.231   2.970
12048TIP3    H136087   0.513   0.211   2.890
12048TIP3    H236088   0.378   0.256   2.942
12049TIP3   OH236089   5.021   6.556   2.994
12049TIP3    H136090   5.100   6.589   3.038
12049TIP3    H236091   5.055   6.503   2.922
12050TIP3   OH236092   0.761   2.147   4.772
12050TIP3    H136093   0.813   2.213   4.726
12050TIP3    H236094   0.687   2.130   4.714
12051TIP3   OH236095   0.867   0.085   1.353
12051TIP3    H136096   0.846   0.154   1.289
12051TIP3    H236097   0.940   0.038   1.313
12052TIP3   OH236098   7.459   0.576   0.845
12052TIP3    H136099   7.384   0.608   0.795
12052TIP3    H236100   7.508   0.654   0.870
12053TIP3   OH236101   6.127   0.724   2.266
12053TIP3    H136102   6.150   0.681   2.349
12053TIP3    H236103   6.203   0.709   2.210
12054TIP3   OH236104   8.032   4.171   3.470
12054TIP3    H136105   8.068   4.104   3.412
12054TIP3    H236106   8.044   4.137   3.558
12055TIP3   OH236107   2.271   3.073   3.863
12055TIP3    H136108   2.331   3.083   3.789
12055TIP3    H236109   2.204   3.140   3.849
12056TIP3   OH236110   5.034   2.314   2.684
12056TIP3    H136111   5.127   2.300   2.702
12056TIP3    H236112   4.997   2.226   2.684
12057TIP3   OH236113   0.233   4.726   3.294
12057TIP3    H136114   0.205   4.635   3.305
12057TIP3    H236115   0.312   4.734   3.347
12058TIP3   OH236116   5.984   0.211   4.697
12058TIP3    H136117   5.957   0.178   4.612
12058TIP3    H236118   5.976   0.306   4.690
12059TIP3   OH236119   1.652   4.883   0.193
12059TIP3    H136120   1.623   4.804   0.240
12059TIP3    H236121   1.733   4.856   0.150
12060TIP3   OH236122   6.588   6.677   6.407
12060TIP3    H136123   6.511   6.695   6.352
12060TIP3    H236124   6.552   6.659   6.493
12061TIP3   OH236125   5.678   3.218   6.366
12061TIP3    H136126   5.663   3.129   6.333
12061TIP3    H236127   5.701   3.205   6.458
12062TIP3   OH236128   7.318   3.575   2.749
12062TIP3    H136129   7.273   3.656   2.771
12062TIP3    H236130   7.329   3.530   2.833
12063TIP3   OH236131   5.145   4.727   5.836
12063TIP3    H136132   5.069   4.677   5.866
12063TIP3    H236133   5.212   4.711   5.902
12064TIP3   OH236134   2.640   1.059   5.313
12064TIP3    H136135   2.599   1.037   5.397
12064TIP3    H236136   2.725   1.015   5.315
12065TIP3   OH236137   0.812   6.795   1.518
12065TIP3    H136138   0.874   6.741   1.470
12065TIP3    H236139   0.839   6.885   1.501
12066TIP3   OH236140   7.576   4.357   1.954
12066TIP3    H136141   7.551   4.338   1.863
12066TIP3    H236142   7.603   4.273   1.990
12067TIP3   OH236143   2.317   2.909   6.496
12067TIP3    H136144   2.258   2.984   6.504
12067TIP3    H236145   2.340   2.906   6.403
12068TIP3   OH236146   2.948   1.726   5.171
12068TIP3    H136147   2.939   1.706   5.078
12068TIP3    H236148   2.939   1.821   5.176
12069TIP3   OH236149   1.582   5.638   6.503
12069TIP3    H136150   1.625   5.556   6.530
12069TIP3    H236151   1.654   5.694   6.475
12070TIP3   OH236152   4.824   1.969   1.123
12070TIP3    H136153   4.750   1.916   1.153
12070TIP3    H236154   4.846   1.933   1.037
12071TIP3   OH236155   2.531   5.132   4.037
12071TIP3    H136156   2.578   5.051   4.056
12071TIP3    H236157   2.488   5.155   4.119
12072TIP3   OH236158   3.047   0.449   1.055
12072TIP3    H136159   3.118   0.513   1.049
12072TIP3    H236160   3.052   0.401   0.972
12073TIP3   OH236161   1.069   3.636   3.921
12073TIP3    H136162   0.985   3.591   3.921
12073TIP3    H236163   1.124   3.584   3.863
12074TIP3   OH236164   7.706   6.545   4.265
12074TIP3    H136165   7.669   6.476   4.320
12074TIP3    H236166   7.638   6.564   4.201
12075TIP3   OH236167   7.929   1.237   0.274
12075TIP3    H136168   7.911   1.166   0.336
12075TIP3    H236169   7.844   1.278   0.261
12076TIP3   OH236170   4.485   2.990   0.072
12076TIP3    H136171   4.550   3.002   0.002
12076TIP3    H236172   4.532   3.015   0.152
12077TIP3   OH236173   5.554   0.659   5.503
12077TIP3    H136174   5.618   0.720   5.540
12077TIP3    H236175   5.577   0.574   5.541
12078TIP3   OH236176   1.575   0.363   1.802
12078TIP3    H136177   1.671   0.362   1.796
12078TIP3    H236178   1.546   0.313   1.726
12079TIP3   OH236179   3.330   5.497   4.593
12079TIP3    H136180   3.313   5.539   4.677
12079TIP3    H236181   3.426   5.496   4.586
12080TIP3   OH236182   7.928   3.405   0.464
12080TIP3    H136183   7.894   3.480   0.415
12080TIP3    H236184   7.964   3.444   0.544
12081TIP3   OH236185   7.828   7.171   6.505
12081TIP3    H136186   7.772   7.157   6.429
12081TIP3    H236187   7.873   7.254   6.486
12082TIP3   OH236188   5.106   1.175   3.560
12082TIP3    H136189   5.010   1.174   3.564
12082TIP3    H236190   5.128   1.106   3.497
12083TIP3   OH236191   2.253   5.084   3.541
12083TIP3    H136192   2.164   5.105   3.568
12083TIP3    H236193   2.278   5.010   3.596
12084TIP3   OH236194   7.123   3.318   5.545
12084TIP3    H136195   7.034   3.352   5.532
12084TIP3    H236196   7.179   3.393   5.524
12085TIP3   OH236197   5.108   3.314   5.805
12085TIP3    H136198   5.095   3.219   5.807
12085TIP3    H236199   5.176   3.327   5.739
12086TIP3   OH236200   5.678   0.248   3.416
12086TIP3    H136201   5.584   0.264   3.413
12086TIP3    H236202   5.700   0.216   3.328
12087TIP3   OH236203   0.994   3.597   1.034
12087TIP3    H136204   1.009   3.505   1.010
12087TIP3    H236205   0.947   3.633   0.958
12088TIP3   OH236206   6.111   3.406   3.102
12088TIP3    H136207   6.120   3.311   3.102
12088TIP3    H236208   6.145   3.435   3.187
12089TIP3   OH236209   4.189   4.642   3.382
12089TIP3    H136210   4.212   4.734   3.371
12089TIP3    H236211   4.262   4.594   3.342
12090TIP3   OH236212   2.467   6.577   5.577
12090TIP3    H136213   2.451   6.583   5.671
12090TIP3    H236214   2.559   6.602   5.566
12091TIP3   OH236215   5.054   3.963   4.233
12091TIP3    H136216   4.984   3.908   4.269
12091TIP3    H236217   5.134   3.930   4.273
12092TIP3   OH236218   8.222   4.078   4.748
12092TIP3    H136219   8.284   4.149   4.731
12092TIP3    H236220   8.245   4.011   4.683
12093TIP3   OH236221   2.592   3.296   5.748
12093TIP3    H136222   2.519   3.296   5.810
12093TIP3    H236223   2.655   3.358   5.785
12094TIP3   OH236224   0.097   6.037   6.283
12094TIP3    H136225   0.139   6.083   6.356
12094TIP3    H236226   0.160   5.968   6.260
12095TIP3   OH236227   1.042   3.458   2.667
12095TIP3    H136228   1.110   3.405   2.709
12095TIP3    H236229   1.077   3.547   2.667
12096TIP3   OH236230   2.007   7.850   3.376
12096TIP3    H136231   1.918   7.827   3.400
12096TIP3    H236232   2.052   7.865   3.459
12097TIP3   OH236233   3.875   6.525   2.188
12097TIP3    H136234   3.944   6.496   2.247
12097TIP3    H236235   3.840   6.605   2.228
12098TIP3   OH236236   6.224   7.502   6.025
12098TIP3    H136237   6.310   7.478   6.059
12098TIP3    H236238   6.230   7.596   6.007
12099TIP3   OH236239   2.033   7.278   3.919
12099TIP3    H136240   1.982   7.255   3.841
12099TIP3    H236241   2.114   7.315   3.884
12100TIP3   OH236242   0.544   6.094   4.356
12100TIP3    H136243   0.637   6.084   4.340
12100TIP3    H236244   0.531   6.189   4.363
12101TIP3   OH236245   6.741   5.842   1.867
12101TIP3    H136246   6.786   5.898   1.803
12101TIP3    H236247   6.748   5.754   1.830
12102TIP3   OH236248   5.045   0.768   1.383
12102TIP3    H136249   5.031   0.676   1.362
12102TIP3    H236250   4.971   0.792   1.437
12103TIP3   OH236251   3.438   4.822   0.339
12103TIP3    H136252   3.451   4.749   0.400
12103TIP3    H236253   3.527   4.851   0.318
12104TIP3   OH236254   5.583   4.174   0.784
12104TIP3    H136255   5.637   4.247   0.816
12104TIP3    H236256   5.626   4.096   0.818
12105TIP3   OH236257   1.629   3.155   0.560
12105TIP3    H136258   1.667   3.194   0.481
12105TIP3    H236259   1.581   3.078   0.527
12106TIP3   OH236260   4.327   6.443   3.294
12106TIP3    H136261   4.390   6.515   3.302
12106TIP3    H236262   4.377   6.372   3.253
12107TIP3   OH236263   8.167   4.946   0.662
12107TIP3    H136264   8.154   5.006   0.736
12107TIP3    H236265   8.207   4.869   0.702
12108TIP3   OH236266   0.652   4.676   0.849
12108TIP3    H136267   0.571   4.631   0.825
12108TIP3    H236268   0.715   4.648   0.782
12109TIP3   OH236269   5.803   2.731   6.249
12109TIP3    H136270   5.831   2.701   6.336
12109TIP3    H236271   5.879   2.778   6.215
12110TIP3   OH236272   3.063   6.922   0.732
12110TIP3    H136273   3.069   6.906   0.637
12110TIP3    H236274   3.120   6.996   0.747
12111TIP3   OH236275   0.074   6.090   4.655
12111TIP3    H136276   0.144   6.031   4.629
12111TIP3    H236277   0.021   6.101   4.576
12112TIP3   OH236278   0.408   6.738   0.628
12112TIP3    H136279   0.497   6.706   0.611
12112TIP3    H236280   0.395   6.725   0.722
12113TIP3   OH236281   0.344   3.041   3.598
12113TIP3    H136282   0.355   3.132   3.570
12113TIP3    H236283   0.423   3.023   3.650
12114TIP3   OH236284   4.778   7.482   1.959
12114TIP3    H136285   4.833   7.481   1.881
12114TIP3    H236286   4.841   7.483   2.032
12115TIP3   OH236287   5.252   3.269   1.408
12115TIP3    H136288   5.162   3.302   1.413
12115TIP3    H236289   5.242   3.177   1.382
12116TIP3   OH236290   5.475   0.782   1.431
12116TIP3    H136291   5.564   0.747   1.422
12116TIP3    H236292   5.437   0.772   1.343
12117TIP3   OH236293   2.106   7.420   2.665
12117TIP3    H136294   2.012   7.403   2.662
12117TIP3    H236295   2.122   7.450   2.754
12118TIP3   OH236296   6.529   1.479   2.818
12118TIP3    H136297   6.545   1.560   2.867
12118TIP3    H236298   6.452   1.499   2.765
12119TIP3   OH236299   3.672   3.425   4.988
12119TIP3    H136300   3.594   3.460   5.031
12119TIP3    H236301   3.737   3.495   4.994
12120TIP3   OH236302   2.425   3.418   3.388
12120TIP3    H136303   2.492   3.358   3.355
12120TIP3    H236304   2.432   3.411   3.484
12121TIP3   OH236305   7.880   4.289   5.986
12121TIP3    H136306   7.860   4.202   5.950
12121TIP3    H236307   7.833   4.350   5.930
12122TIP3   OH236308   7.197   1.943   1.247
12122TIP3    H136309   7.208   1.944   1.342
12122TIP3    H236310   7.105   1.967   1.234
12123TIP3   OH236311   6.117   3.594   1.371
12123TIP3    H136312   6.063   3.607   1.293
12123TIP3    H236313   6.072   3.642   1.440
12124TIP3   OH236314   6.399   4.106   1.500
12124TIP3    H136315   6.387   4.141   1.411
12124TIP3    H236316   6.315   4.121   1.543
12125TIP3   OH236317   0.931   5.911   6.421
12125TIP3    H136318   0.933   5.946   6.510
12125TIP3    H236319   1.015   5.866   6.410
12126TIP3   OH236320   6.053   1.382   0.783
12126TIP3    H136321   6.068   1.302   0.733
12126TIP3    H236322   6.134   1.395   0.834
12127TIP3   OH236323   2.204   1.934   0.437
12127TIP3    H136324   2.109   1.942   0.430
12127TIP3    H236325   2.218   1.867   0.504
12128TIP3   OH236326   4.917   4.908   6.576
12128TIP3    H136327   4.956   4.822   6.591
12128TIP3    H236328   4.943   4.959   6.652
12129TIP3   OH236329   2.210   6.023   6.401
12129TIP3    H136330   2.188   5.941   6.356
12129TIP3    H236331   2.125   6.060   6.427
12130TIP3   OH236332   4.502   5.422   1.514
12130TIP3    H136333   4.421   5.396   1.470
12130TIP3    H236334   4.473   5.473   1.590
12131TIP3   OH236335   0.778   7.461   6.400
12131TIP3    H136336   0.725   7.469   6.479
12131TIP3    H236337   0.735   7.519   6.337
12132TIP3   OH236338   1.042   0.137   0.097
12132TIP3    H136339   0.951   0.106   0.090
12132TIP3    H236340   1.052   0.197   0.023
12133TIP3   OH236341   7.599   3.728   2.972
12133TIP3    H136342   7.578   3.673   2.896
12133TIP3    H236343   7.648   3.802   2.935
12134TIP3   OH236344   4.744   1.252   6.678
12134TIP3    H136345   4.747   1.171   6.730
12134TIP3    H236346   4.832   1.289   6.687
12135TIP3   OH236347   7.799   5.145   5.613
12135TIP3    H136348   7.792   5.146   5.708
12135TIP3    H236349   7.805   5.052   5.590
12136TIP3   OH236350   3.033   5.761   2.303
12136TIP3    H136351   2.989   5.813   2.370
12136TIP3    H236352   3.078   5.826   2.248
12137TIP3   OH236353   5.340   4.744   3.198
12137TIP3    H136354   5.353   4.654   3.167
12137TIP3    H236355   5.253   4.768   3.168
12138TIP3   OH236356   2.531   4.890   4.662
12138TIP3    H136357   2.525   4.818   4.724
12138TIP3    H236358   2.497   4.855   4.580
12139TIP3   OH236359   2.968   1.214   2.917
12139TIP3    H136360   2.991   1.290   2.971
12139TIP3    H236361   2.943   1.252   2.832
12140TIP3   OH236362   3.104   5.914   6.552
12140TIP3    H136363   3.117   5.843   6.615
12140TIP3    H236364   3.069   5.871   6.475
12141TIP3   OH236365   1.707   5.423   6.632
12141TIP3    H136366   1.801   5.409   6.642
12141TIP3    H236367   1.666   5.354   6.685
12142TIP3   OH236368   2.306   6.394   2.202
12142TIP3    H136369   2.362   6.468   2.226
12142TIP3    H236370   2.337   6.322   2.257
12143TIP3   OH236371   0.351   3.410   1.913
12143TIP3    H136372   0.278   3.464   1.881
12143TIP3    H236373   0.378   3.451   1.995
12144TIP3   OH236374   3.009   6.066   5.875
12144TIP3    H136375   3.026   6.003   5.805
12144TIP3    H236376   2.946   6.021   5.932
12145TIP3   OH236377   5.956   3.168   3.715
12145TIP3    H136378   5.972   3.261   3.697
12145TIP3    H236379   5.988   3.123   3.637
12146TIP3   OH236380   1.264   5.919   3.167
12146TIP3    H136381   1.188   5.962   3.207
12146TIP3    H236382   1.311   5.880   3.240
12147TIP3   OH236383   2.295   0.515   1.353
12147TIP3    H136384   2.302   0.473   1.438
12147TIP3    H236385   2.363   0.583   1.354
12148TIP3   OH236386   3.528   2.471   4.084
12148TIP3    H136387   3.521   2.560   4.120
12148TIP3    H236388   3.572   2.483   4.000
12149TIP3   OH236389   3.291   1.659   1.065
12149TIP3    H136390   3.367   1.665   1.007
12149TIP3    H236391   3.304   1.728   1.129
12150TIP3   OH236392   1.009   0.530   2.360
12150TIP3    H136393   1.036   0.581   2.284
12150TIP3    H236394   1.022   0.439   2.334
12151TIP3   OH236395   6.713   2.858   2.302
12151TIP3    H136396   6.650   2.864   2.374
12151TIP3    H236397   6.660   2.863   2.223
12152TIP3   OH236398   2.212   3.862   2.410
12152TIP3    H136399   2.259   3.929   2.461
12152TIP3    H236400   2.161   3.814   2.474
12153TIP3   OH236401   7.607   5.609   6.423
12153TIP3    H136402   7.561   5.685   6.459
12153TIP3    H236403   7.646   5.566   6.498
12154TIP3   OH236404   5.881   1.030   4.540
12154TIP3    H136405   5.946   0.962   4.521
12154TIP3    H236406   5.833   1.041   4.458
12155TIP3   OH236407   0.524   0.078   2.278
12155TIP3    H136408   0.442   0.054   2.322
12155TIP3    H236409   0.538   0.169   2.303
12156TIP3   OH236410   4.062   1.830   2.981
12156TIP3    H136411   4.142   1.807   3.028
12156TIP3    H236412   3.995   1.832   3.049
12157TIP3   OH236413   5.413   2.102   5.031
12157TIP3    H136414   5.403   2.032   4.967
12157TIP3    H236415   5.475   2.068   5.096
12158TIP3   OH236416   7.707   2.163   5.527
12158TIP3    H136417   7.707   2.170   5.622
12158TIP3    H236418   7.724   2.252   5.496
12159TIP3   OH236419   7.451   4.086   5.812
12159TIP3    H136420   7.534   4.099   5.766
12159TIP3    H236421   7.449   4.154   5.878
12160TIP3   OH236422   5.969   7.657   5.751
12160TIP3    H136423   5.967   7.708   5.670
12160TIP3    H236424   6.027   7.584   5.732
12161TIP3   OH236425   5.678   1.107   5.707
12161TIP3    H136426   5.714   1.195   5.715
12161TIP3    H236427   5.601   1.118   5.650
12162TIP3   OH236428   6.062   0.259   3.086
12162TIP3    H136429   6.049   0.170   3.119
12162TIP3    H236430   5.974   0.293   3.073
12163TIP3   OH236431   5.877   3.103   1.674
12163TIP3    H136432   5.892   3.031   1.613
12163TIP3    H236433   5.827   3.064   1.745
12164TIP3   OH236434   1.131   7.056   4.040
12164TIP3    H136435   1.179   6.989   3.991
12164TIP3    H236436   1.199   7.112   4.077
12165TIP3   OH236437   4.971   2.783   3.582
12165TIP3    H136438   4.921   2.857   3.546
12165TIP3    H236439   5.024   2.751   3.509
12166TIP3   OH236440   4.409   6.328   4.146
12166TIP3    H136441   4.468   6.276   4.202
12166TIP3    H236442   4.414   6.285   4.061
12167TIP3   OH236443   7.628   1.074   6.715
12167TIP3    H136444   7.704   1.019   6.732
12167TIP3    H236445   7.638   1.148   6.775
12168TIP3   OH236446   7.511   0.761   2.201
12168TIP3    H136447   7.430   0.809   2.218
12168TIP3    H236448   7.534   0.722   2.285
12169TIP3   OH236449   4.879   5.835   3.321
12169TIP3    H136450   4.953   5.874   3.368
12169TIP3    H236451   4.869   5.890   3.243
12170TIP3   OH236452   1.640   4.559   3.450
12170TIP3    H136453   1.570   4.623   3.459
12170TIP3    H236454   1.635   4.531   3.358
12171TIP3   OH236455   4.605   4.170   0.365
12171TIP3    H136456   4.636   4.254   0.332
12171TIP3    H236457   4.551   4.135   0.295
12172TIP3   OH236458   7.883   3.411   2.819
12172TIP3    H136459   7.883   3.406   2.915
12172TIP3    H236460   7.796   3.379   2.794
12173TIP3   OH236461   0.573   4.964   4.510
12173TIP3    H136462   0.534   4.939   4.593
12173TIP3    H236463   0.579   5.059   4.513
12174TIP3   OH236464   4.003   3.359   4.513
12174TIP3    H136465   4.046   3.289   4.563
12174TIP3    H236466   3.910   3.335   4.514
12175TIP3   OH236467   3.344   6.665   5.782
12175TIP3    H136468   3.379   6.721   5.712
12175TIP3    H236469   3.421   6.626   5.822
12176TIP3   OH236470   2.357   7.339   4.383
12176TIP3    H136471   2.290   7.377   4.440
12176TIP3    H236472   2.401   7.274   4.437
12177TIP3   OH236473   0.118   2.848   0.352
12177TIP3    H136474   0.063   2.789   0.302
12177TIP3    H236475   0.082   2.935   0.335
12178TIP3   OH236476   5.391   3.583   1.937
12178TIP3    H136477   5.453   3.516   1.967
12178TIP3    H236478   5.395   3.651   2.004
12179TIP3   OH236479   6.969   1.313   3.017
12179TIP3    H136480   6.876   1.291   3.020
12179TIP3    H236481   6.970   1.404   2.987
12180TIP3   OH236482   5.141   4.246   2.821
12180TIP3    H136483   5.091   4.233   2.740
12180TIP3    H236484   5.075   4.260   2.888
12181TIP3   OH236485   7.866   7.027   1.100
12181TIP3    H136486   7.877   7.114   1.061
12181TIP3    H236487   7.806   7.042   1.173
12182TIP3   OH236488   6.080   2.234   1.277
12182TIP3    H136489   6.142   2.196   1.215
12182TIP3    H236490   5.997   2.190   1.258
12183TIP3   OH236491   5.546   4.406   6.369
12183TIP3    H136492   5.520   4.463   6.442
12183TIP3    H236493   5.499   4.324   6.385
12184TIP3   OH236494   7.267   3.315   3.148
12184TIP3    H136495   7.208   3.351   3.215
12184TIP3    H236496   7.211   3.260   3.094
12185TIP3   OH236497   1.119   1.606   4.190
12185TIP3    H136498   1.053   1.590   4.257
12185TIP3    H236499   1.071   1.604   4.107
12186TIP3   OH236500   4.836   0.988   1.317
12186TIP3    H136501   4.911   0.930   1.326
12186TIP3    H236502   4.802   0.996   1.406
12187TIP3   OH236503   2.700   1.494   1.701
12187TIP3    H136504   2.766   1.452   1.645
12187TIP3    H236505   2.657   1.421   1.745
12188TIP3   OH236506   3.959   5.481   3.620
12188TIP3    H136507   3.958   5.566   3.664
12188TIP3    H236508   3.915   5.496   3.537
12189TIP3   OH236509   1.394   1.631   0.415
12189TIP3    H136510   1.333   1.624   0.342
12189TIP3    H236511   1.448   1.708   0.394
12190TIP3   OH236512   4.395   6.170   1.479
12190TIP3    H136513   4.414   6.170   1.386
12190TIP3    H236514   4.429   6.253   1.511
12191TIP3   OH236515   3.395   4.871   5.435
12191TIP3    H136516   3.321   4.912   5.393
12191TIP3    H236517   3.445   4.831   5.364
12192TIP3   OH236518   5.941   0.455   4.602
12192TIP3    H136519   5.986   0.533   4.636
12192TIP3    H236520   5.850   0.467   4.628
12193TIP3   OH236521   7.178   1.051   4.719
12193TIP3    H136522   7.136   1.103   4.650
12193TIP3    H236523   7.188   0.964   4.681
12194TIP3   OH236524   0.672   6.609   5.068
12194TIP3    H136525   0.709   6.696   5.078
12194TIP3    H236526   0.703   6.561   5.145
12195TIP3   OH236527   6.703   4.803   0.026
12195TIP3    H136528   6.677   4.890  -0.003
12195TIP3    H236529   6.664   4.793   0.113
12196TIP3   OH236530   6.660   5.156   6.168
12196TIP3    H136531   6.644   5.063   6.187
12196TIP3    H236532   6.664   5.161   6.073
12197TIP3   OH236533   3.197   0.209   6.404
12197TIP3    H136534   3.226   0.122   6.378
12197TIP3    H236535   3.243   0.269   6.346
12198TIP3   OH236536   7.754   3.344   5.252
12198TIP3    H136537   7.731   3.260   5.291
12198TIP3    H236538   7.670   3.383   5.227
12199TIP3   OH236539   4.270   3.070   4.834
12199TIP3    H136540   4.227   3.150   4.803
12199TIP3    H236541   4.249   3.005   4.767
12200TIP3   OH236542   4.939   6.946   2.794
12200TIP3    H136543   4.997   6.946   2.870
12200TIP3    H236544   4.997   6.935   2.719
12201TIP3   OH236545   1.266   1.367   2.620
12201TIP3    H136546   1.250   1.369   2.526
12201TIP3    H236547   1.217   1.442   2.655
12202TIP3   OH236548   1.772   0.804   2.780
12202TIP3    H136549   1.743   0.778   2.693
12202TIP3    H236550   1.748   0.896   2.787
12203TIP3   OH236551   7.195   3.335   3.620
12203TIP3    H136552   7.169   3.325   3.712
12203TIP3    H236553   7.273   3.391   3.623
12204TIP3   OH236554   6.198   3.305   2.558
12204TIP3    H136555   6.240   3.224   2.588
12204TIP3    H236556   6.182   3.355   2.638
12205TIP3   OH236557   0.166   5.842   1.480
12205TIP3    H136558   0.091   5.893   1.449
12205TIP3    H236559   0.128   5.759   1.509
12206TIP3   OH236560   1.096   3.064   6.504
12206TIP3    H136561   1.137   2.990   6.461
12206TIP3    H236562   1.167   3.110   6.547
12207TIP3   OH236563   4.495   1.313   6.344
12207TIP3    H136564   4.542   1.232   6.364
12207TIP3    H236565   4.511   1.369   6.420
12208TIP3   OH236566   5.485   4.746   0.452
12208TIP3    H136567   5.431   4.799   0.393
12208TIP3    H236568   5.514   4.808   0.519
12209TIP3   OH236569   0.163   4.013   5.935
12209TIP3    H136570   0.126   3.925   5.934
12209TIP3    H236571   0.196   4.027   5.846
12210TIP3   OH236572   4.359   6.524   6.726
12210TIP3    H136573   4.448   6.561   6.720
12210TIP3    H236574   4.302   6.600   6.733
12211TIP3   OH236575   7.995   2.069   6.635
12211TIP3    H136576   7.901   2.084   6.626
12211TIP3    H236577   8.008   1.978   6.610
12212TIP3   OH236578   7.881   1.501   3.448
12212TIP3    H136579   7.861   1.561   3.521
12212TIP3    H236580   7.968   1.466   3.470
12213TIP3   OH236581   4.179   7.146   5.957
12213TIP3    H136582   4.186   7.220   6.016
12213TIP3    H236583   4.086   7.143   5.933
12214TIP3   OH236584   4.395   6.749   4.689
12214TIP3    H136585   4.316   6.694   4.692
12214TIP3    H236586   4.439   6.723   4.608
12215TIP3   OH236587   4.681   7.106   4.209
12215TIP3    H136588   4.753   7.087   4.149
12215TIP3    H236589   4.723   7.130   4.291
12216TIP3   OH236590   0.378   5.801   1.279
12216TIP3    H136591   0.388   5.896   1.278
12216TIP3    H236592   0.317   5.784   1.350
12217TIP3   OH236593   1.017   6.526   4.533
12217TIP3    H136594   1.102   6.496   4.500
12217TIP3    H236595   1.034   6.615   4.565
12218TIP3   OH236596   7.006   3.224   6.710
12218TIP3    H136597   6.951   3.218   6.788
12218TIP3    H236598   7.095   3.235   6.745
12219TIP3   OH236599   8.295   3.489   6.596
12219TIP3    H136600   8.265   3.487   6.505
12219TIP3    H236601   8.266   3.574   6.629
12220TIP3   OH236602   4.775   4.353   6.727
12220TIP3    H136603   4.754   4.375   6.636
12220TIP3    H236604   4.713   4.405   6.779
12221TIP3   OH236605   6.032   2.335   1.529
12221TIP3    H136606   6.033   2.259   1.588
12221TIP3    H236607   6.077   2.304   1.450
12222TIP3   OH236608   4.846   3.325   3.238
12222TIP3    H136609   4.941   3.335   3.245
12222TIP3    H236610   4.833   3.267   3.163
12223TIP3   OH236611   4.624   6.614   6.722
12223TIP3    H136612   4.688   6.683   6.738
12223TIP3    H236613   4.615   6.569   6.806
12224TIP3   OH236614   5.907   6.442   1.909
12224TIP3    H136615   5.862   6.398   1.836
12224TIP3    H236616   5.988   6.475   1.871
12225TIP3   OH236617   8.019   5.535   0.605
12225TIP3    H136618   7.978   5.467   0.551
12225TIP3    H236619   8.111   5.509   0.611
12226TIP3   OH236620   0.698   3.918   1.421
12226TIP3    H136621   0.609   3.912   1.385
12226TIP3    H236622   0.685   3.952   1.510
12227TIP3   OH236623   8.048   0.888   5.115
12227TIP3    H136624   8.025   0.974   5.152
12227TIP3    H236625   8.067   0.834   5.192
12228TIP3   OH236626   1.112   6.298   1.522
12228TIP3    H136627   1.189   6.247   1.548
12228TIP3    H236628   1.149   6.379   1.486
12229TIP3   OH236629   1.763   3.641   4.260
12229TIP3    H136630   1.779   3.672   4.171
12229TIP3    H236631   1.739   3.549   4.249
12230TIP3   OH236632   2.780   0.279   0.182
12230TIP3    H136633   2.766   0.373   0.171
12230TIP3    H236634   2.692   0.242   0.187
12231TIP3   OH236635   6.487   0.106   6.291
12231TIP3    H136636   6.405   0.068   6.323
12231TIP3    H236637   6.519   0.043   6.226
12232TIP3   OH236638   4.232   2.686   0.794
12232TIP3    H136639   4.188   2.768   0.771
12232TIP3    H236640   4.201   2.623   0.729
12233TIP3   OH236641   8.236   3.936   2.648
12233TIP3    H136642   8.252   3.842   2.646
12233TIP3    H236643   8.258   3.966   2.559
12234TIP3   OH236644   1.300   0.544   5.307
12234TIP3    H136645   1.226   0.563   5.249
12234TIP3    H236646   1.361   0.494   5.252
12235TIP3   OH236647   4.994   6.050   6.682
12235TIP3    H136648   5.064   6.024   6.623
12235TIP3    H236649   4.967   5.969   6.725
12236TIP3   OH236650   5.463   6.427   0.921
12236TIP3    H136651   5.497   6.342   0.949
12236TIP3    H236652   5.530   6.490   0.947
12237TIP3   OH236653   7.669   3.159   0.302
12237TIP3    H136654   7.631   3.213   0.371
12237TIP3    H236655   7.763   3.176   0.307
12238TIP3   OH236656   7.929   0.261   2.955
12238TIP3    H136657   8.013   0.289   2.991
12238TIP3    H236658   7.871   0.337   2.967
12239TIP3   OH236659   4.731   5.627   0.267
12239TIP3    H136660   4.749   5.630   0.361
12239TIP3    H236661   4.734   5.534   0.245
12240TIP3   OH236662   3.822   3.233   6.046
12240TIP3    H136663   3.751   3.291   6.020
12240TIP3    H236664   3.899   3.268   6.000
12241TIP3   OH236665   0.167   4.474   4.381
12241TIP3    H136666   0.173   4.537   4.309
12241TIP3    H236667   0.257   4.444   4.394
12242TIP3   OH236668   7.827   0.667   5.425
12242TIP3    H136669   7.774   0.588   5.418
12242TIP3    H236670   7.916   0.637   5.407
12243TIP3   OH236671   7.651   2.365   5.167
12243TIP3    H136672   7.704   2.296   5.127
12243TIP3    H236673   7.590   2.391   5.097
12244TIP3   OH236674   7.006   5.752   4.172
12244TIP3    H136675   6.914   5.778   4.172
12244TIP3    H236676   7.004   5.658   4.188
12245TIP3   OH236677   1.205   7.076   5.350
12245TIP3    H136678   1.252   7.156   5.328
12245TIP3    H236679   1.115   7.105   5.370
12246TIP3   OH236680   7.435   3.695   2.511
12246TIP3    H136681   7.483   3.660   2.587
12246TIP3    H236682   7.463   3.641   2.438
12247TIP3   OH236683   3.043   5.573   5.973
12247TIP3    H136684   3.106   5.504   5.989
12247TIP3    H236685   2.976   5.561   6.041
12248TIP3   OH236686   6.496   3.346   6.396
12248TIP3    H136687   6.458   3.346   6.308
12248TIP3    H236688   6.420   3.343   6.455
12249TIP3   OH236689   7.819   3.672   3.140
12249TIP3    H136690   7.791   3.744   3.083
12249TIP3    H236691   7.741   3.617   3.150
12250TIP3   OH236692   5.157   5.584   5.678
12250TIP3    H136693   5.061   5.572   5.677
12250TIP3    H236694   5.171   5.670   5.638
12251TIP3   OH236695   2.916   2.560   5.335
12251TIP3    H136696   2.969   2.482   5.321
12251TIP3    H236697   2.902   2.563   5.429
12252TIP3   OH236698   0.265   3.173   1.067
12252TIP3    H136699   0.268   3.205   1.157
12252TIP3    H236700   0.353   3.189   1.032
12253TIP3   OH236701   6.523   3.752   6.545
12253TIP3    H136702   6.461   3.682   6.566
12253TIP3    H236703   6.486   3.830   6.587
12254TIP3   OH236704   3.190   7.684   4.514
12254TIP3    H136705   3.190   7.779   4.500
12254TIP3    H236706   3.259   7.651   4.457
12255TIP3   OH236707   6.050   6.479   0.209
12255TIP3    H136708   6.095   6.457   0.290
12255TIP3    H236709   5.961   6.502   0.236
12256TIP3   OH236710   5.407   3.949   1.350
12256TIP3    H136711   5.421   4.039   1.379
12256TIP3    H236712   5.451   3.895   1.416
12257TIP3   OH236713   2.182   0.125   1.060
12257TIP3    H136714   2.235   0.178   1.120
12257TIP3    H236715   2.105   0.180   1.042
12258TIP3   OH236716   0.669   5.601   1.928
12258TIP3    H136717   0.596   5.655   1.956
12258TIP3    H236718   0.676   5.532   1.994
12259TIP3   OH236719   2.495   7.466   1.864
12259TIP3    H136720   2.442   7.545   1.855
12259TIP3    H236721   2.545   7.480   1.945
12260TIP3   OH236722   6.571   3.992   1.659
12260TIP3    H136723   6.583   3.906   1.618
12260TIP3    H236724   6.515   4.039   1.597
12261TIP3   OH236725   6.082   0.659   4.685
12261TIP3    H136726   6.176   0.645   4.691
12261TIP3    H236727   6.054   0.679   4.774
12262TIP3   OH236728   5.579   0.782   3.172
12262TIP3    H136729   5.627   0.790   3.254
12262TIP3    H236730   5.496   0.827   3.188
12263TIP3   OH236731   6.675   7.077   2.521
12263TIP3    H136732   6.585   7.108   2.512
12263TIP3    H236733   6.726   7.156   2.538
12264TIP3   OH236734   4.611   6.991   6.035
12264TIP3    H136735   4.622   6.902   6.068
12264TIP3    H236736   4.523   7.016   6.064
12265TIP3   OH236737   7.199   7.062   2.149
12265TIP3    H136738   7.257   7.070   2.225
12265TIP3    H236739   7.141   7.138   2.156
12266TIP3   OH236740   4.044   0.606   0.315
12266TIP3    H136741   4.119   0.621   0.257
12266TIP3    H236742   4.063   0.659   0.392
12267TIP3   OH236743   7.165   6.036   2.719
12267TIP3    H136744   7.255   6.022   2.688
12267TIP3    H236745   7.157   5.981   2.797
12268TIP3   OH236746   0.389   2.705   0.593
12268TIP3    H136747   0.436   2.739   0.517
12268TIP3    H236748   0.342   2.780   0.628
12269TIP3   OH236749   7.889   4.840   6.524
12269TIP3    H136750   7.844   4.765   6.486
12269TIP3    H236751   7.832   4.915   6.504
12270TIP3   OH236752   1.454   1.554   4.250
12270TIP3    H136753   1.468   1.460   4.241
12270TIP3    H236754   1.502   1.593   4.177
12271TIP3   OH236755   1.599   2.235   5.859
12271TIP3    H136756   1.550   2.223   5.778
12271TIP3    H236757   1.634   2.149   5.879
12272TIP3   OH236758   7.154   7.007   5.793
12272TIP3    H136759   7.065   7.040   5.808
12272TIP3    H236760   7.141   6.924   5.747
12273TIP3   OH236761   5.853   6.232   2.977
12273TIP3    H136762   5.833   6.285   3.054
12273TIP3    H236763   5.855   6.142   3.009
12274TIP3   OH236764   0.994   3.226   3.340
12274TIP3    H136765   1.064   3.194   3.283
12274TIP3    H236766   1.006   3.178   3.422
12275TIP3   OH236767   8.204   2.688   6.025
12275TIP3    H136768   8.166   2.770   6.056
12275TIP3    H236769   8.155   2.620   6.071
12276TIP3   OH236770   4.118   1.354   2.258
12276TIP3    H136771   4.046   1.341   2.197
12276TIP3    H236772   4.171   1.274   2.251
12277TIP3   OH236773   3.025   7.115   4.220
12277TIP3    H136774   3.117   7.121   4.246
12277TIP3    H236775   2.979   7.085   4.298
12278TIP3   OH236776   4.032   5.782   6.262
12278TIP3    H136777   4.077   5.757   6.343
12278TIP3    H236778   4.101   5.781   6.195
12279TIP3   OH236779   6.002   2.186   2.911
12279TIP3    H136780   5.946   2.121   2.870
12279TIP3    H236781   5.956   2.209   2.993
12280TIP3   OH236782   0.747   7.381   4.459
12280TIP3    H136783   0.700   7.462   4.438
12280TIP3    H236784   0.689   7.334   4.518
12281TIP3   OH236785   1.186   3.873   1.452
12281TIP3    H136786   1.186   3.779   1.470
12281TIP3    H236787   1.106   3.905   1.494
12282TIP3   OH236788   6.414   1.552   4.224
12282TIP3    H136789   6.460   1.544   4.140
12282TIP3    H236790   6.448   1.634   4.262
12283TIP3   OH236791   0.091   5.566   1.307
12283TIP3    H136792   0.166   5.537   1.359
12283TIP3    H236793   0.127   5.634   1.249
12284TIP3   OH236794   1.850   0.642   5.769
12284TIP3    H136795   1.922   0.612   5.826
12284TIP3    H236796   1.773   0.597   5.803
12285TIP3   OH236797   4.103   7.523   4.397
12285TIP3    H136798   4.185   7.479   4.417
12285TIP3    H236799   4.098   7.594   4.461
12286TIP3   OH236800   6.595   7.497   0.135
12286TIP3    H136801   6.524   7.459   0.082
12286TIP3    H236802   6.551   7.555   0.196
12287TIP3   OH236803   4.585   4.683   2.783
12287TIP3    H136804   4.673   4.695   2.747
12287TIP3    H236805   4.561   4.769   2.818
12288TIP3   OH236806   7.384   2.464   3.157
12288TIP3    H136807   7.335   2.443   3.236
12288TIP3    H236808   7.433   2.543   3.179
12289TIP3   OH236809   1.856   1.701   2.400
12289TIP3    H136810   1.864   1.760   2.474
12289TIP3    H236811   1.875   1.615   2.435
12290TIP3   OH236812   6.402   5.134   6.022
12290TIP3    H136813   6.337   5.120   6.090
12290TIP3    H236814   6.486   5.130   6.068
12291TIP3   OH236815   0.466   6.985   0.245
12291TIP3    H136816   0.499   6.947   0.326
12291TIP3    H236817   0.545   7.004   0.193
12292TIP3   OH236818   4.875   6.808   6.191
12292TIP3    H136819   4.811   6.828   6.259
12292TIP3    H236820   4.954   6.784   6.240
12293TIP3   OH236821   4.450   1.601   6.149
12293TIP3    H136822   4.385   1.597   6.219
12293TIP3    H236823   4.526   1.554   6.184
12294TIP3   OH236824   4.197   0.211   2.605
12294TIP3    H136825   4.217   0.120   2.624
12294TIP3    H236826   4.203   0.218   2.510
12295TIP3   OH236827   4.657   0.162   5.389
12295TIP3    H136828   4.598   0.237   5.383
12295TIP3    H236829   4.713   0.182   5.464
12296TIP3   OH236830   4.034   0.302   1.261
12296TIP3    H136831   3.981   0.265   1.191
12296TIP3    H236832   4.061   0.388   1.227
12297TIP3   OH236833   6.667   4.244   1.669
12297TIP3    H136834   6.731   4.251   1.598
12297TIP3    H236835   6.638   4.153   1.666
12298TIP3   OH236836   1.719   7.119   6.480
12298TIP3    H136837   1.744   7.144   6.570
12298TIP3    H236838   1.636   7.073   6.490
12299TIP3   OH236839   2.900   6.056   5.506
12299TIP3    H136840   2.830   6.090   5.562
12299TIP3    H236841   2.966   6.023   5.567
12300TIP3   OH236842   8.233   2.391   4.034
12300TIP3    H136843   8.169   2.375   3.964
12300TIP3    H236844   8.290   2.314   4.032
12301TIP3   OH236845   2.750   5.904   1.747
12301TIP3    H136846   2.671   5.902   1.803
12301TIP3    H236847   2.738   5.832   1.686
12302TIP3   OH236848   1.085   4.761   4.969
12302TIP3    H136849   1.099   4.703   4.895
12302TIP3    H236850   1.101   4.706   5.046
12303TIP3   OH236851   3.845   2.988   3.042
12303TIP3    H136852   3.874   2.935   2.968
12303TIP3    H236853   3.756   3.015   3.019
12304TIP3   OH236854   2.953   5.177   5.767
12304TIP3    H136855   3.009   5.100   5.782
12304TIP3    H236856   2.877   5.162   5.824
12305TIP3   OH236857   0.918   1.416   4.654
12305TIP3    H136858   0.903   1.492   4.710
12305TIP3    H236859   1.011   1.397   4.665
12306TIP3   OH236860   3.426   0.766   3.506
12306TIP3    H136861   3.511   0.801   3.531
12306TIP3    H236862   3.392   0.725   3.586
12307TIP3   OH236863   0.259   6.902   4.778
12307TIP3    H136864   0.188   6.871   4.723
12307TIP3    H236865   0.220   6.911   4.865
12308TIP3   OH236866   1.273   4.979   5.046
12308TIP3    H136867   1.262   4.896   4.999
12308TIP3    H236868   1.350   5.020   5.007
12309TIP3   OH236869   7.133   7.616   1.646
12309TIP3    H136870   7.222   7.614   1.683
12309TIP3    H236871   7.097   7.530   1.667
12310TIP3   OH236872   6.945   1.939   2.424
12310TIP3    H136873   6.945   1.854   2.469
12310TIP3    H236874   7.035   1.949   2.391
12311TIP3   OH236875   3.126   2.802   4.086
12311TIP3    H136876   3.169   2.882   4.115
12311TIP3    H236877   3.100   2.758   4.167
12312TIP3   OH236878   5.345   4.293   5.658
12312TIP3    H136879   5.385   4.302   5.571
12312TIP3    H236880   5.362   4.202   5.683
12313TIP3   OH236881   4.118   1.529   1.901
12313TIP3    H136882   4.165   1.611   1.911
12313TIP3    H236883   4.177   1.462   1.936
12314TIP3   OH236884   0.227   0.846   0.126
12314TIP3    H136885   0.241   0.934   0.092
12314TIP3    H236886   0.264   0.847   0.214
12315TIP3   OH236887   0.873   1.600   6.179
12315TIP3    H136888   0.968   1.610   6.183
12315TIP3    H236889   0.858   1.508   6.203
12316TIP3   OH236890   6.532   0.755   3.914
12316TIP3    H136891   6.480   0.675   3.926
12316TIP3    H236892   6.478   0.809   3.855
12317TIP3   OH236893   0.504   0.535   4.317
12317TIP3    H136894   0.599   0.534   4.331
12317TIP3    H236895   0.481   0.443   4.302
12318TIP3   OH236896   6.541   4.496   1.254
12318TIP3    H136897   6.583   4.541   1.328
12318TIP3    H236898   6.447   4.499   1.275
12319TIP3   OH236899   0.633   5.953   0.784
12319TIP3    H136900   0.688   5.913   0.852
12319TIP3    H236901   0.547   5.915   0.797
12320TIP3   OH236902   1.098   1.162   5.392
12320TIP3    H136903   1.066   1.251   5.378
12320TIP3    H236904   1.188   1.164   5.363
12321TIP3   OH236905   1.169   6.447   3.406
12321TIP3    H136906   1.093   6.409   3.361
12321TIP3    H236907   1.222   6.485   3.335
12322TIP3   OH236908   0.249   3.789   1.761
12322TIP3    H136909   0.281   3.858   1.819
12322TIP3    H236910   0.216   3.721   1.820
12323TIP3   OH236911   6.427   5.786   5.535
12323TIP3    H136912   6.461   5.720   5.594
12323TIP3    H236913   6.366   5.739   5.478
12324TIP3   OH236914   3.723   5.503   6.207
12324TIP3    H136915   3.737   5.539   6.120
12324TIP3    H236916   3.713   5.409   6.193
12325TIP3   OH236917   7.917   5.461   0.129
12325TIP3    H136918   7.921   5.554   0.147
12325TIP3    H236919   7.926   5.419   0.214
12326TIP3   OH236920   5.384   3.029   5.496
12326TIP3    H136921   5.322   3.000   5.562
12326TIP3    H236922   5.334   3.027   5.414
12327TIP3   OH236923   8.078   1.423   6.116
12327TIP3    H136924   8.026   1.464   6.185
12327TIP3    H236925   8.016   1.406   6.046
12328TIP3   OH236926   7.123   4.787   1.141
12328TIP3    H136927   7.125   4.743   1.226
12328TIP3    H236928   7.062   4.736   1.088
12329TIP3   OH236929   6.933   2.336   2.703
12329TIP3    H136930   6.936   2.317   2.609
12329TIP3    H236931   6.942   2.250   2.744
12330TIP3   OH236932   3.099   7.249   3.988
12330TIP3    H136933   3.076   7.204   4.070
12330TIP3    H236934   3.100   7.179   3.922
12331TIP3   OH236935   2.082   4.177   3.823
12331TIP3    H136936   2.079   4.181   3.727
12331TIP3    H236937   1.990   4.181   3.850
12332TIP3   OH236938   4.096   1.084   4.733
12332TIP3    H136939   4.142   1.074   4.816
12332TIP3    H236940   4.140   1.158   4.690
12333TIP3   OH236941   1.951   0.816   6.374
12333TIP3    H136942   2.003   0.870   6.433
12333TIP3    H236943   1.892   0.878   6.330
12334TIP3   OH236944   0.341   3.716   2.477
12334TIP3    H136945   0.406   3.781   2.449
12334TIP3    H236946   0.393   3.649   2.522
12335TIP3   OH236947   3.128   5.879   4.493
12335TIP3    H136948   3.150   5.835   4.411
12335TIP3    H236949   3.098   5.966   4.466
12336TIP3   OH236950   1.471   4.614   6.145
12336TIP3    H136951   1.440   4.528   6.176
12336TIP3    H236952   1.498   4.660   6.224
12337TIP3   OH236953   0.429   5.999   3.167
12337TIP3    H136954   0.369   5.945   3.116
12337TIP3    H236955   0.396   6.088   3.158
12338TIP3   OH236956   2.579   2.127   2.990
12338TIP3    H136957   2.593   2.065   2.919
12338TIP3    H236958   2.484   2.131   3.000
12339TIP3   OH236959   4.791   7.325   1.188
12339TIP3    H136960   4.858   7.350   1.252
12339TIP3    H236961   4.834   7.334   1.103
12340TIP3   OH236962   1.777   7.729   5.928
12340TIP3    H136963   1.816   7.780   5.858
12340TIP3    H236964   1.843   7.727   5.997
12341TIP3   OH236965   5.878   0.577   3.386
12341TIP3    H136966   5.957   0.576   3.333
12341TIP3    H236967   5.812   0.533   3.331
12342TIP3   OH236968   2.293   6.663   2.447
12342TIP3    H136969   2.354   6.623   2.384
12342TIP3    H236970   2.347   6.678   2.525
12343TIP3   OH236971   1.142   4.584   2.419
12343TIP3    H136972   1.104   4.535   2.346
12343TIP3    H236973   1.109   4.539   2.497
12344TIP3   OH236974   8.159   4.839   6.531
12344TIP3    H136975   8.068   4.865   6.541
12344TIP3    H236976   8.156   4.745   6.514
12345TIP3   OH236977   2.229   4.982   2.476
12345TIP3    H136978   2.282   4.925   2.532
12345TIP3    H236979   2.234   5.068   2.517
12346TIP3   OH236980   6.824   4.311   2.273
12346TIP3    H136981   6.874   4.387   2.302
12346TIP3    H236982   6.760   4.346   2.211
12347TIP3   OH236983   7.841   0.698   6.245
12347TIP3    H136984   7.747   0.717   6.244
12347TIP3    H236985   7.876   0.745   6.170
12348TIP3   OH236986   6.479   6.767   0.267
12348TIP3    H136987   6.500   6.695   0.326
12348TIP3    H236988   6.387   6.752   0.244
12349TIP3   OH236989   4.050   1.818   0.815
12349TIP3    H136990   3.990   1.756   0.858
12349TIP3    H236991   4.112   1.843   0.883
12350TIP3   OH236992   1.924   5.287   0.526
12350TIP3    H136993   2.002   5.338   0.550
12350TIP3    H236994   1.866   5.351   0.485
12351TIP3   OH236995   2.172   2.729   3.030
12351TIP3    H136996   2.204   2.814   3.063
12351TIP3    H236997   2.157   2.744   2.937
12352TIP3   OH236998   7.445   3.785   3.688
12352TIP3    H136999   7.443   3.708   3.632
12352TIP3    H237000   7.374   3.772   3.750
12353TIP3   OH237001   3.990   5.508   1.181
12353TIP3    H137002   3.953   5.520   1.268
12353TIP3    H237003   4.069   5.455   1.196
12354TIP3   OH237004   5.680   2.805   2.723
12354TIP3    H137005   5.692   2.720   2.767
12354TIP3    H237006   5.626   2.856   2.783
12355TIP3   OH237007   0.125   6.715   3.312
12355TIP3    H137008   0.193   6.649   3.326
12355TIP3    H237009   0.133   6.774   3.388
12356TIP3   OH237010   7.947   1.508   5.115
12356TIP3    H137011   7.880   1.570   5.085
12356TIP3    H237012   7.897   1.430   5.141
12357TIP3   OH237013   3.563   3.466   6.382
12357TIP3    H137014   3.659   3.472   6.385
12357TIP3    H237015   3.546   3.378   6.349
12358TIP3   OH237016   5.359   2.833   6.000
12358TIP3    H137017   5.389   2.770   6.066
12358TIP3    H237018   5.271   2.856   6.029
12359TIP3   OH237019   1.458   6.348   3.915
12359TIP3    H137020   1.410   6.421   3.955
12359TIP3    H237021   1.501   6.386   3.838
12360TIP3   OH237022   2.866   6.522   6.167
12360TIP3    H137023   2.884   6.463   6.094
12360TIP3    H237024   2.921   6.489   6.238
12361TIP3   OH237025   7.896   6.248   0.108
12361TIP3    H137026   7.835   6.250   0.035
12361TIP3    H237027   7.971   6.199   0.075
12362TIP3   OH237028   5.167   4.911   1.289
12362TIP3    H137029   5.149   4.997   1.329
12362TIP3    H237030   5.175   4.930   1.196
12363TIP3   OH237031   4.994   4.539   3.938
12363TIP3    H137032   5.052   4.527   4.013
12363TIP3    H237033   4.983   4.634   3.932
12364TIP3   OH237034   0.543   3.378   6.320
12364TIP3    H137035   0.535   3.465   6.358
12364TIP3    H237036   0.635   3.372   6.293
12365TIP3   OH237037   7.208   0.760   0.379
12365TIP3    H137038   7.161   0.782   0.298
12365TIP3    H237039   7.209   0.664   0.381
12366TIP3   OH237040   6.446   5.082   3.499
12366TIP3    H137041   6.507   5.023   3.544
12366TIP3    H237042   6.373   5.025   3.473
12367TIP3   OH237043   0.205   5.091   2.834
12367TIP3    H137044   0.195   5.020   2.897
12367TIP3    H237045   0.117   5.107   2.801
12368TIP3   OH237046   3.657   5.072   2.511
12368TIP3    H137047   3.605   5.039   2.584
12368TIP3    H237048   3.717   5.135   2.552
12369TIP3   OH237049   0.331   6.195   5.874
12369TIP3    H137050   0.425   6.181   5.883
12369TIP3    H237051   0.308   6.252   5.947
12370TIP3   OH237052   0.908   1.392   5.872
12370TIP3    H137053   0.947   1.329   5.811
12370TIP3    H237054   0.840   1.342   5.917
12371TIP3   OH237055   2.605   0.702   5.164
12371TIP3    H137056   2.686   0.688   5.116
12371TIP3    H237057   2.559   0.769   5.114
12372TIP3   OH237058   4.454   5.417   5.805
12372TIP3    H137059   4.465   5.369   5.723
12372TIP3    H237060   4.461   5.509   5.781
12373TIP3   OH237061   7.395   5.971   5.361
12373TIP3    H137062   7.456   6.045   5.354
12373TIP3    H237063   7.381   5.961   5.455
12374TIP3   OH237064   4.893   5.151   4.498
12374TIP3    H137065   4.878   5.101   4.418
12374TIP3    H237066   4.858   5.095   4.568
12375TIP3   OH237067   5.855   2.703   3.222
12375TIP3    H137068   5.887   2.741   3.304
12375TIP3    H237069   5.903   2.750   3.154
12376TIP3   OH237070   0.806   1.946   0.958
12376TIP3    H137071   0.745   1.986   1.020
12376TIP3    H237072   0.825   1.860   0.995
12377TIP3   OH237073   6.839   6.892   5.079
12377TIP3    H137074   6.824   6.974   5.034
12377TIP3    H237075   6.881   6.917   5.161
12378TIP3   OH237076   6.424   2.480   3.416
12378TIP3    H137077   6.411   2.574   3.428
12378TIP3    H237078   6.362   2.440   3.477
12379TIP3   OH237079   0.698   7.590   6.167
12379TIP3    H137080   0.646   7.545   6.099
12379TIP3    H237081   0.788   7.566   6.147
12380TIP3   OH237082   2.424   4.947   3.310
12380TIP3    H137083   2.469   4.993   3.381
12380TIP3    H237084   2.488   4.945   3.239
12381TIP3   OH237085   8.338   6.874   4.586
12381TIP3    H137086   8.330   6.839   4.498
12381TIP3    H237087   8.286   6.816   4.641
12382TIP3   OH237088   4.758   5.358   1.609
12382TIP3    H137089   4.789   5.269   1.590
12382TIP3    H237090   4.670   5.362   1.571
12383TIP3   OH237091   4.418   1.659   1.473
12383TIP3    H137092   4.370   1.733   1.509
12383TIP3    H237093   4.501   1.657   1.522
12384TIP3   OH237094   1.327   3.985   5.355
12384TIP3    H137095   1.293   4.030   5.432
12384TIP3    H237096   1.248   3.957   5.308
12385TIP3   OH237097   2.817   4.527   5.195
12385TIP3    H137098   2.789   4.465   5.263
12385TIP3    H237099   2.778   4.494   5.114
12386TIP3   OH237100   2.780   1.267   0.294
12386TIP3    H137101   2.821   1.352   0.276
12386TIP3    H237102   2.697   1.289   0.335
12387TIP3   OH237103   4.816   1.281   6.397
12387TIP3    H137104   4.767   1.268   6.478
12387TIP3    H237105   4.848   1.194   6.373
12388TIP3   OH237106   3.822   2.384   5.814
12388TIP3    H137107   3.881   2.318   5.851
12388TIP3    H237108   3.742   2.377   5.866
12389TIP3   OH237109   1.600   5.727   5.986
12389TIP3    H137110   1.567   5.813   5.960
12389TIP3    H237111   1.534   5.666   5.954
12390TIP3   OH237112   6.708   6.412   4.644
12390TIP3    H137113   6.668   6.406   4.557
12390TIP3    H237114   6.742   6.501   4.648
12391TIP3   OH237115   3.961   2.597   3.000
12391TIP3    H137116   3.877   2.600   2.954
12391TIP3    H237117   3.968   2.507   3.032
12392TIP3   OH237118   8.287   4.167   1.327
12392TIP3    H137119   8.353   4.120   1.276
12392TIP3    H237120   8.273   4.114   1.405
12393TIP3   OH237121   3.265   6.581   1.506
12393TIP3    H137122   3.221   6.502   1.537
12393TIP3    H237123   3.229   6.651   1.559
12394TIP3   OH237124   1.966   2.005   3.321
12394TIP3    H137125   1.874   2.031   3.312
12394TIP3    H237126   1.962   1.913   3.347
12395TIP3   OH237127   7.472   1.295   5.042
12395TIP3    H137128   7.483   1.364   4.976
12395TIP3    H237129   7.439   1.220   4.992
12396TIP3   OH237130   6.980   0.107   5.162
12396TIP3    H137131   6.896   0.152   5.162
12396TIP3    H237132   7.042   0.172   5.130
12397TIP3   OH237133   7.629   3.301   2.295
12397TIP3    H137134   7.662   3.246   2.366
12397TIP3    H237135   7.618   3.240   2.221
12398TIP3   OH237136   5.802   7.623   6.063
12398TIP3    H137137   5.838   7.535   6.077
12398TIP3    H237138   5.751   7.615   5.982
12399TIP3   OH237139   2.277   5.249   0.003
12399TIP3    H137140   2.350   5.189  -0.009
12399TIP3    H237141   2.239   5.224   0.088
12400TIP3   OH237142   3.786   1.974   4.380
12400TIP3    H137143   3.829   1.889   4.370
12400TIP3    H237144   3.796   2.016   4.294
12401TIP3   OH237145   1.638   5.655   2.640
12401TIP3    H137146   1.652   5.738   2.593
12401TIP3    H237147   1.712   5.601   2.615
12402TIP3   OH237148   4.562   7.613   5.106
12402TIP3    H137149   4.567   7.521   5.079
12402TIP3    H237150   4.620   7.659   5.045
12403TIP3   OH237151   2.809   7.376   4.513
12403TIP3    H137152   2.858   7.458   4.501
12403TIP3    H237153   2.743   7.378   4.443
12404TIP3   OH237154   3.645   3.844   3.996
12404TIP3    H137155   3.666   3.831   3.903
12404TIP3    H237156   3.624   3.756   4.028
12405TIP3   OH237157   4.055   4.119   0.063
12405TIP3    H137158   4.067   4.066  -0.016
12405TIP3    H237159   4.033   4.055   0.131
12406TIP3   OH237160   2.353   3.642   3.217
12406TIP3    H137161   2.365   3.556   3.257
12406TIP3    H237162   2.332   3.624   3.125
12407TIP3   OH237163   1.669   6.515   4.046
12407TIP3    H137164   1.618   6.589   4.078
12407TIP3    H237165   1.637   6.440   4.097
12408TIP3   OH237166   0.926   7.060   1.936
12408TIP3    H137167   0.935   6.972   1.901
12408TIP3    H237168   0.876   7.049   2.017
12409TIP3   OH237169   0.055   5.665   2.569
12409TIP3    H137170   0.038   5.670   2.663
12409TIP3    H237171   0.015   5.744   2.534
12410TIP3   OH237172   3.264   4.509   6.777
12410TIP3    H137173   3.282   4.579   6.840
12410TIP3    H237174   3.224   4.554   6.702
12411TIP3   OH237175   8.278   2.287   2.044
12411TIP3    H137176   8.258   2.296   2.137
12411TIP3    H237177   8.364   2.326   2.033
12412TIP3   OH237178   2.859   7.577   3.163
12412TIP3    H137179   2.899   7.660   3.188
12412TIP3    H237180   2.925   7.534   3.109
12413TIP3   OH237181   0.100   2.577   4.884
12413TIP3    H137182   0.129   2.584   4.792
12413TIP3    H237183   0.123   2.662   4.922
12414TIP3   OH237184   1.443   7.472   2.449
12414TIP3    H137185   1.445   7.402   2.384
12414TIP3    H237186   1.483   7.433   2.527
12415TIP3   OH237187   7.401   2.614   3.432
12415TIP3    H137188   7.353   2.559   3.494
12415TIP3    H237189   7.371   2.703   3.451
12416TIP3   OH237190   6.774   0.334   2.089
12416TIP3    H137191   6.838   0.310   2.021
12416TIP3    H237192   6.828   0.362   2.163
12417TIP3   OH237193   6.944   4.815   4.477
12417TIP3    H137194   6.908   4.753   4.414
12417TIP3    H237195   6.883   4.812   4.551
12418TIP3   OH237196   3.894   1.984   0.675
12418TIP3    H137197   3.935   1.905   0.712
12418TIP3    H237198   3.933   1.991   0.587
12419TIP3   OH237199   4.753   3.160   5.824
12419TIP3    H137200   4.801   3.236   5.859
12419TIP3    H237201   4.676   3.152   5.881
12420TIP3   OH237202   7.843   4.997   4.798
12420TIP3    H137203   7.916   5.051   4.769
12420TIP3    H237204   7.864   4.909   4.766
12421TIP3   OH237205   6.564   6.602   4.266
12421TIP3    H137206   6.589   6.529   4.322
12421TIP3    H237207   6.639   6.616   4.209
12422TIP3   OH237208   4.892   7.275   3.341
12422TIP3    H137209   4.970   7.236   3.300
12422TIP3    H237210   4.921   7.361   3.370
12423TIP3   OH237211   1.404   5.153   3.392
12423TIP3    H137212   1.498   5.135   3.391
12423TIP3    H237213   1.369   5.106   3.316
12424TIP3   OH237214   2.669   6.104   3.990
12424TIP3    H137215   2.598   6.091   4.052
12424TIP3    H237216   2.723   6.172   4.030
12425TIP3   OH237217   0.592   0.630   5.817
12425TIP3    H137218   0.538   0.709   5.816
12425TIP3    H237219   0.654   0.642   5.746
12426TIP3   OH237220   2.741   1.357   5.899
12426TIP3    H137221   2.694   1.364   5.815
12426TIP3    H237222   2.754   1.448   5.926
12427TIP3   OH237223   3.687   0.420   3.146
12427TIP3    H137224   3.596   0.450   3.136
12427TIP3    H237225   3.698   0.411   3.241
12428TIP3   OH237226   3.012   4.810   6.536
12428TIP3    H137227   2.921   4.790   6.514
12428TIP3    H237228   3.062   4.737   6.500
12429TIP3   OH237229   5.087   6.279   6.808
12429TIP3    H137230   5.090   6.348   6.741
12429TIP3    H237231   5.083   6.197   6.759
12430TIP3   OH237232   2.089   5.888   6.004
12430TIP3    H137233   2.042   5.962   6.043
12430TIP3    H237234   2.165   5.928   5.962
12431TIP3   OH237235   6.298   2.685   5.632
12431TIP3    H137236   6.241   2.614   5.602
12431TIP3    H237237   6.242   2.763   5.631
12432TIP3   OH237238   1.956   5.609   1.562
12432TIP3    H137239   2.045   5.601   1.596
12432TIP3    H237240   1.957   5.561   1.479
12433TIP3   OH237241   5.447   3.057   2.597
12433TIP3    H137242   5.461   3.016   2.683
12433TIP3    H237243   5.444   2.983   2.536
12434TIP3   OH237244   4.303   1.809   1.705
12434TIP3    H137245   4.336   1.864   1.776
12434TIP3    H237246   4.214   1.840   1.691
12435TIP3   OH237247   3.230   0.896   3.960
12435TIP3    H137248   3.259   0.946   3.884
12435TIP3    H237249   3.307   0.891   4.016
12436TIP3   OH237250   3.142   2.055   4.167
12436TIP3    H137251   3.096   2.011   4.238
12436TIP3    H237252   3.207   2.110   4.211
12437TIP3   OH237253   3.856   3.048   3.307
12437TIP3    H137254   3.895   3.014   3.227
12437TIP3    H237255   3.768   3.076   3.281
12438TIP3   OH237256   5.425   2.214   4.585
12438TIP3    H137257   5.447   2.125   4.610
12438TIP3    H237258   5.384   2.206   4.500
12439TIP3   OH237259   6.847   3.698   4.140
12439TIP3    H137260   6.767   3.702   4.194
12439TIP3    H237261   6.918   3.708   4.203
12440TIP3   OH237262   3.621   7.092   5.524
12440TIP3    H137263   3.652   7.073   5.612
12440TIP3    H237264   3.674   7.166   5.495
12441TIP3   OH237265   2.839   2.401   4.219
12441TIP3    H137266   2.867   2.333   4.158
12441TIP3    H237267   2.797   2.467   4.164
12442TIP3   OH237268   7.451   0.101   4.476
12442TIP3    H137269   7.536   0.067   4.504
12442TIP3    H237270   7.387   0.040   4.514
12443TIP3   OH237271   2.797   2.946   0.552
12443TIP3    H137272   2.873   2.913   0.503
12443TIP3    H237273   2.765   2.871   0.601
12444TIP3   OH237274   4.006   4.846   1.699
12444TIP3    H137275   3.986   4.915   1.636
12444TIP3    H237276   4.102   4.844   1.702
12445TIP3   OH237277   2.860   3.486   2.366
12445TIP3    H137278   2.862   3.581   2.377
12445TIP3    H237279   2.772   3.467   2.333
12446TIP3   OH237280   2.376   2.719   4.174
12446TIP3    H137281   2.312   2.649   4.186
12446TIP3    H237282   2.431   2.690   4.101
12447TIP3   OH237283   6.923   0.372   2.821
12447TIP3    H137284   6.928   0.408   2.733
12447TIP3    H237285   6.872   0.437   2.871
12448TIP3   OH237286   8.195   6.211   1.145
12448TIP3    H137287   8.275   6.159   1.145
12448TIP3    H237288   8.164   6.208   1.236
12449TIP3   OH237289   1.228   6.510   1.352
12449TIP3    H137290   1.309   6.479   1.310
12449TIP3    H237291   1.180   6.554   1.282
12450TIP3   OH237292   8.123   7.605   0.535
12450TIP3    H137293   8.180   7.647   0.470
12450TIP3    H237294   8.043   7.657   0.533
12451TIP3   OH237295   3.585   3.730   0.641
12451TIP3    H137296   3.584   3.799   0.708
12451TIP3    H237297   3.493   3.709   0.627
12452TIP3   OH237298   0.668   0.509   3.456
12452TIP3    H137299   0.648   0.451   3.383
12452TIP3    H237300   0.720   0.580   3.417
12453TIP3   OH237301   0.600   6.516   5.629
12453TIP3    H137302   0.549   6.531   5.708
12453TIP3    H237303   0.580   6.426   5.604
12454TIP3   OH237304   8.051   3.151   6.201
12454TIP3    H137305   8.123   3.173   6.260
12454TIP3    H237306   7.987   3.220   6.215
12455TIP3   OH237307   5.783   3.398   0.190
12455TIP3    H137308   5.782   3.363   0.279
12455TIP3    H237309   5.712   3.353   0.145
12456TIP3   OH237310   2.756   1.649   6.015
12456TIP3    H137311   2.832   1.676   6.067
12456TIP3    H237312   2.684   1.647   6.078
12457TIP3   OH237313   5.782   1.957   6.226
12457TIP3    H137314   5.805   2.008   6.304
12457TIP3    H237315   5.816   2.009   6.153
12458TIP3   OH237316   4.658   4.008   3.385
12458TIP3    H137317   4.654   4.026   3.291
12458TIP3    H237318   4.608   3.927   3.396
12459TIP3   OH237319   3.171   0.932   1.790
12459TIP3    H137320   3.243   0.943   1.852
12459TIP3    H237321   3.102   0.889   1.841
12460TIP3   OH237322   2.434   1.949   0.935
12460TIP3    H137323   2.526   1.948   0.958
12460TIP3    H237324   2.432   1.974   0.843
12461TIP3   OH237325   4.970   7.552   2.772
12461TIP3    H137326   5.041   7.569   2.709
12461TIP3    H237327   4.913   7.629   2.766
12462TIP3   OH237328   2.535   5.971   2.226
12462TIP3    H137329   2.546   6.041   2.291
12462TIP3    H237330   2.618   5.923   2.229
12463TIP3   OH237331   3.647   7.199   6.571
12463TIP3    H137332   3.574   7.259   6.551
12463TIP3    H237333   3.721   7.257   6.588
12464TIP3   OH237334   5.874   2.858   1.504
12464TIP3    H137335   5.855   2.765   1.507
12464TIP3    H237336   5.858   2.883   1.413
12465TIP3   OH237337   4.625   0.244   4.517
12465TIP3    H137338   4.664   0.228   4.431
12465TIP3    H237339   4.531   0.233   4.502
12466TIP3   OH237340   2.104   7.149   1.034
12466TIP3    H137341   2.178   7.089   1.029
12466TIP3    H237342   2.134   7.227   0.986
12467TIP3   OH237343   0.074   5.366   3.514
12467TIP3    H137344   0.051   5.284   3.557
12467TIP3    H237345   0.167   5.379   3.536
12468TIP3   OH237346   4.587   6.193   2.748
12468TIP3    H137347   4.614   6.248   2.675
12468TIP3    H237348   4.530   6.249   2.800
12469TIP3   OH237349   0.675   5.977   4.069
12469TIP3    H137350   0.731   5.944   3.999
12469TIP3    H237351   0.691   6.071   4.071
12470TIP3   OH237352   7.289   1.993   3.553
12470TIP3    H137353   7.359   2.007   3.489
12470TIP3    H237354   7.311   2.050   3.626
12471TIP3   OH237355   6.789   7.569   0.389
12471TIP3    H137356   6.833   7.649   0.359
12471TIP3    H237357   6.789   7.512   0.313
12472TIP3   OH237358   4.730   4.475   6.099
12472TIP3    H137359   4.680   4.433   6.029
12472TIP3    H237360   4.673   4.470   6.176
12473TIP3   OH237361   1.485   4.226   4.936
12473TIP3    H137362   1.402   4.248   4.979
12473TIP3    H237363   1.549   4.287   4.975
12474TIP3   OH237364   3.959   1.598   0.984
12474TIP3    H137365   3.875   1.638   1.006
12474TIP3    H237366   3.982   1.547   1.061
12475TIP3   OH237367   5.504   6.773   2.937
12475TIP3    H137368   5.579   6.822   2.903
12475TIP3    H237369   5.438   6.840   2.956
12476TIP3   OH237370   1.450   7.499   6.573
12476TIP3    H137371   1.382   7.541   6.625
12476TIP3    H237372   1.532   7.538   6.603
12477TIP3   OH237373   2.498   7.238   4.594
12477TIP3    H137374   2.483   7.278   4.679
12477TIP3    H237375   2.592   7.245   4.580
12478TIP3   OH237376   1.633   0.882   3.336
12478TIP3    H137377   1.723   0.856   3.318
12478TIP3    H237378   1.631   0.902   3.429
12479TIP3   OH237379   4.844   6.033   0.481
12479TIP3    H137380   4.797   6.113   0.505
12479TIP3    H237381   4.776   5.976   0.444
12480TIP3   OH237382   2.047   4.686   0.104
12480TIP3    H137383   2.123   4.739   0.082
12480TIP3    H237384   2.074   4.596   0.086
12481TIP3   OH237385   6.427   4.471   4.801
12481TIP3    H137386   6.505   4.491   4.853
12481TIP3    H237387   6.357   4.459   4.866
12482TIP3   OH237388   8.243   1.696   4.343
12482TIP3    H137389   8.232   1.756   4.417
12482TIP3    H237390   8.317   1.732   4.294
12483TIP3   OH237391   5.457   5.867   0.171
12483TIP3    H137392   5.377   5.918   0.171
12483TIP3    H237393   5.478   5.855   0.078
12484TIP3   OH237394   3.144   3.453   1.042
12484TIP3    H137395   3.090   3.520   1.000
12484TIP3    H237396   3.165   3.392   0.971
12485TIP3   OH237397   1.006   4.158   1.176
12485TIP3    H137398   1.098   4.135   1.188
12485TIP3    H237399   0.973   4.174   1.264
12486TIP3   OH237400   3.385   1.224   2.888
12486TIP3    H137401   3.388   1.272   2.971
12486TIP3    H237402   3.469   1.244   2.846
12487TIP3   OH237403   6.005   3.986   6.762
12487TIP3    H137404   5.913   4.012   6.771
12487TIP3    H237405   6.000   3.902   6.716
12488TIP3   OH237406   2.700   5.824   6.424
12488TIP3    H137407   2.758   5.748   6.424
12488TIP3    H237408   2.670   5.832   6.515
12489TIP3   OH237409   5.393   4.240   4.927
12489TIP3    H137410   5.486   4.235   4.905
12489TIP3    H237411   5.348   4.207   4.850
12490TIP3   OH237412   7.735   7.290   4.980
12490TIP3    H137413   7.649   7.315   4.945
12490TIP3    H237414   7.792   7.363   4.958
12491TIP3   OH237415   7.992   5.472   1.654
12491TIP3    H137416   7.909   5.516   1.638
12491TIP3    H237417   8.049   5.502   1.584
12492TIP3   OH237418   2.268   2.055   1.761
12492TIP3    H137419   2.274   1.961   1.744
12492TIP3    H237420   2.348   2.076   1.809
12493TIP3   OH237421   1.979   0.803   0.841
12493TIP3    H137422   1.952   0.876   0.897
12493TIP3    H237423   2.015   0.738   0.901
12494TIP3   OH237424   8.022   1.750   2.547
12494TIP3    H137425   7.995   1.679   2.488
12494TIP3    H237426   7.971   1.825   2.517
12495TIP3   OH237427   3.038   2.654   0.775
12495TIP3    H137428   2.986   2.719   0.822
12495TIP3    H237429   3.014   2.664   0.683
12496TIP3   OH237430   0.538   4.198   4.556
12496TIP3    H137431   0.495   4.205   4.641
12496TIP3    H237432   0.604   4.129   4.567
12497TIP3   OH237433   4.184   6.887   5.406
12497TIP3    H137434   4.132   6.809   5.389
12497TIP3    H237435   4.227   6.870   5.489
12498TIP3   OH237436   3.314   3.665   0.591
12498TIP3    H137437   3.267   3.738   0.552
12498TIP3    H237438   3.263   3.642   0.669
12499TIP3   OH237439   3.494   0.296   6.095
12499TIP3    H137440   3.486   0.326   6.185
12499TIP3    H237441   3.580   0.327   6.067
12500TIP3   OH237442   3.670   3.075   2.124
12500TIP3    H137443   3.616   3.082   2.045
12500TIP3    H237444   3.716   2.991   2.114
12501TIP3   OH237445   2.685   6.954   5.490
12501TIP3    H137446   2.669   6.942   5.583
12501TIP3    H237447   2.644   7.038   5.469
12502TIP3   OH237448   7.050   6.112   6.340
12502TIP3    H137449   7.063   6.048   6.410
12502TIP3    H237450   6.955   6.125   6.337
12503TIP3   OH237451   1.362   7.577   0.690
12503TIP3    H137452   1.355   7.543   0.601
12503TIP3    H237453   1.316   7.661   0.687
12504TIP3   OH237454   6.583   3.723   3.192
12504TIP3    H137455   6.621   3.699   3.108
12504TIP3    H237456   6.652   3.771   3.238
12505TIP3   OH237457   2.672   5.559   4.175
12505TIP3    H137458   2.757   5.578   4.214
12505TIP3    H237459   2.611   5.555   4.249
12506TIP3   OH237460   5.568   1.022   0.450
12506TIP3    H137461   5.473   1.021   0.434
12506TIP3    H237462   5.599   1.101   0.407
12507TIP3   OH237463   3.578   3.429   0.557
12507TIP3    H137464   3.657   3.377   0.570
12507TIP3    H237465   3.607   3.520   0.568
12508TIP3   OH237466   1.855   5.708   6.496
12508TIP3    H137467   1.872   5.668   6.410
12508TIP3    H237468   1.941   5.710   6.538
12509TIP3   OH237469   4.935   0.962   5.887
12509TIP3    H137470   4.840   0.977   5.887
12509TIP3    H237471   4.965   1.005   5.807
12510TIP3   OH237472   0.550   1.232   0.435
12510TIP3    H137473   0.535   1.305   0.374
12510TIP3    H237474   0.510   1.157   0.392
12511TIP3   OH237475   4.701   5.941   2.874
12511TIP3    H137476   4.771   5.989   2.918
12511TIP3    H237477   4.647   6.008   2.834
12512TIP3   OH237478   6.915   2.204   5.693
12512TIP3    H137479   6.835   2.255   5.681
12512TIP3    H237480   6.933   2.209   5.787
12513TIP3   OH237481   1.969   6.819   2.965
12513TIP3    H137482   1.984   6.728   2.990
12513TIP3    H237483   1.882   6.839   2.997
12514TIP3   OH237484   3.049   3.108   3.315
12514TIP3    H137485   2.976   3.055   3.345
12514TIP3    H237486   3.124   3.076   3.364
12515TIP3   OH237487   7.530   7.396   6.583
12515TIP3    H137488   7.602   7.416   6.642
12515TIP3    H237489   7.518   7.476   6.532
12516TIP3   OH237490   7.202   0.770   0.028
12516TIP3    H137491   7.205   0.807  -0.060
12516TIP3    H237492   7.130   0.708   0.025
12517TIP3   OH237493   6.469   6.918   3.202
12517TIP3    H137494   6.538   6.870   3.249
12517TIP3    H237495   6.510   6.945   3.119
12518TIP3   OH237496   3.216   0.717   3.056
12518TIP3    H137497   3.268   0.779   3.005
12518TIP3    H237498   3.270   0.699   3.133
12519TIP3   OH237499   7.079   2.513   2.900
12519TIP3    H137500   6.999   2.490   2.853
12519TIP3    H237501   7.084   2.608   2.893
12520TIP3   OH237502   5.719   2.910   1.808
12520TIP3    H137503   5.683   2.923   1.896
12520TIP3    H237504   5.646   2.874   1.757
12521TIP3   OH237505   0.403   5.124   6.172
12521TIP3    H137506   0.308   5.115   6.166
12521TIP3    H237507   0.438   5.036   6.157
12522TIP3   OH237508   0.291   4.160   4.220
12522TIP3    H137509   0.364   4.097   4.224
12522TIP3    H237510   0.270   4.166   4.126
12523TIP3   OH237511   7.899   4.030   6.550
12523TIP3    H137512   7.899   3.945   6.506
12523TIP3    H237513   7.934   4.012   6.637
12524TIP3   OH237514   2.226   5.207   1.118
12524TIP3    H137515   2.195   5.185   1.030
12524TIP3    H237516   2.157   5.178   1.176
12525TIP3   OH237517   1.290   2.006   3.925
12525TIP3    H137518   1.309   2.024   4.017
12525TIP3    H237519   1.301   1.911   3.917
12526TIP3   OH237520   2.881   1.143   5.078
12526TIP3    H137521   2.873   1.097   5.161
12526TIP3    H237522   2.795   1.136   5.037
12527TIP3   OH237523   6.824   0.294   0.119
12527TIP3    H137524   6.771   0.218   0.142
12527TIP3    H237525   6.776   0.369   0.155
12528TIP3   OH237526   0.282   7.507   4.319
12528TIP3    H137527   0.286   7.528   4.226
12528TIP3    H237528   0.255   7.588   4.362
12529TIP3   OH237529   0.376   5.946   5.934
12529TIP3    H137530   0.466   5.975   5.922
12529TIP3    H237531   0.323   6.019   5.902
12530TIP3   OH237532   4.788   2.051   5.424
12530TIP3    H137533   4.876   2.027   5.452
12530TIP3    H237534   4.752   1.970   5.386
12531TIP3   OH237535   2.602   4.864   4.121
12531TIP3    H137536   2.629   4.793   4.178
12531TIP3    H237537   2.576   4.821   4.039
12532TIP3   OH237538   6.854   0.966   1.244
12532TIP3    H137539   6.772   0.990   1.287
12532TIP3    H237540   6.914   0.946   1.316
12533TIP3   OH237541   0.896   6.401   3.286
12533TIP3    H137542   0.804   6.374   3.288
12533TIP3    H237543   0.936   6.344   3.220
12534TIP3   OH237544   7.576   5.936   6.257
12534TIP3    H137545   7.490   5.979   6.256
12534TIP3    H237546   7.634   5.999   6.214
12535TIP3   OH237547   6.320   4.639   2.605
12535TIP3    H137548   6.275   4.718   2.632
12535TIP3    H237549   6.293   4.572   2.668
12536TIP3   OH237550   2.467   3.134   2.602
12536TIP3    H137551   2.435   3.202   2.661
12536TIP3    H237552   2.461   3.053   2.653
12537TIP3   OH237553   3.431   3.127   2.601
12537TIP3    H137554   3.391   3.045   2.632
12537TIP3    H237555   3.435   3.118   2.506
12538TIP3   OH237556   1.302   5.091   1.322
12538TIP3    H137557   1.220   5.048   1.297
12538TIP3    H237558   1.357   5.083   1.245
12539TIP3   OH237559   6.685   6.259   3.822
12539TIP3    H137560   6.665   6.191   3.758
12539TIP3    H237561   6.599   6.291   3.850
12540TIP3   OH237562   7.297   3.329   5.167
12540TIP3    H137563   7.327   3.302   5.080
12540TIP3    H237564   7.317   3.422   5.172
12541TIP3   OH237565   8.206   0.222   1.071
12541TIP3    H137566   8.148   0.229   1.147
12541TIP3    H237567   8.260   0.145   1.090
12542TIP3   OH237568   6.079   5.534   5.032
12542TIP3    H137569   6.033   5.614   5.005
12542TIP3    H237570   6.107   5.552   5.122
12543TIP3   OH237571   1.579   4.738   1.102
12543TIP3    H137572   1.539   4.653   1.084
12543TIP3    H237573   1.622   4.726   1.187
12544TIP3   OH237574   7.982   0.550   5.947
12544TIP3    H137575   7.955   0.642   5.939
12544TIP3    H237576   8.033   0.547   6.028
12545TIP3   OH237577   6.182   6.859   2.651
12545TIP3    H137578   6.265   6.814   2.666
12545TIP3    H237579   6.159   6.837   2.561
12546TIP3   OH237580   4.386   4.152   5.983
12546TIP3    H137581   4.478   4.125   5.982
12546TIP3    H237582   4.376   4.212   5.910
12547TIP3   OH237583   1.778   4.615   3.818
12547TIP3    H137584   1.753   4.676   3.749
12547TIP3    H237585   1.830   4.548   3.774
12548TIP3   OH237586   6.825   4.229   4.166
12548TIP3    H137587   6.911   4.204   4.131
12548TIP3    H237588   6.764   4.170   4.121
12549TIP3   OH237589   7.689   1.072   4.657
12549TIP3    H137590   7.627   1.115   4.598
12549TIP3    H237591   7.756   1.036   4.599
12550TIP3   OH237592   8.049   5.346   6.723
12550TIP3    H137593   8.134   5.309   6.748
12550TIP3    H237594   8.006   5.366   6.806
12551TIP3   OH237595   4.631   1.689   0.314
12551TIP3    H137596   4.662   1.726   0.397
12551TIP3    H237597   4.679   1.738   0.247
12552TIP3   OH237598   1.989   4.503   2.028
12552TIP3    H137599   1.992   4.482   2.122
12552TIP3    H237600   2.077   4.483   1.996
12553TIP3   OH237601   3.584   5.513   0.865
12553TIP3    H137602   3.627   5.559   0.794
12553TIP3    H237603   3.590   5.420   0.842
12554TIP3   OH237604   6.364   4.786   6.501
12554TIP3    H137605   6.431   4.853   6.513
12554TIP3    H237606   6.390   4.715   6.559
12555TIP3   OH237607   1.829   0.137   2.638
12555TIP3    H137608   1.766   0.112   2.571
12555TIP3    H237609   1.874   0.214   2.602
12556TIP3   OH237610   7.919   7.097   2.615
12556TIP3    H137611   7.859   7.154   2.663
12556TIP3    H237612   8.002   7.145   2.613
12557TIP3   OH237613   1.910   4.480   4.753
12557TIP3    H137614   1.943   4.401   4.796
12557TIP3    H237615   1.864   4.527   4.823
12558TIP3   OH237616   0.766   7.245   4.229
12558TIP3    H137617   0.804   7.274   4.312
12558TIP3    H237618   0.671   7.254   4.242
12559TIP3   OH237619   3.035   0.403   0.027
12559TIP3    H137620   2.944   0.432   0.026
12559TIP3    H237621   3.038   0.330  -0.035
12560TIP3   OH237622   7.278   0.951   2.166
12560TIP3    H137623   7.323   1.002   2.098
12560TIP3    H237624   7.186   0.974   2.156
12561TIP3   OH237625   5.052   5.372   0.445
12561TIP3    H137626   5.025   5.362   0.536
12561TIP3    H237627   5.102   5.455   0.444
12562TIP3   OH237628   0.214   6.992   1.434
12562TIP3    H137629   0.230   7.087   1.430
12562TIP3    H237630   0.302   6.953   1.437
12563TIP3   OH237631   4.703   7.728   1.810
12563TIP3    H137632   4.746   7.654   1.852
12563TIP3    H237633   4.612   7.701   1.799
12564TIP3   OH237634   0.401   6.886   3.694
12564TIP3    H137635   0.493   6.868   3.674
12564TIP3    H237636   0.359   6.800   3.686
12565TIP3   OH237637   3.293   6.141   1.615
12565TIP3    H137638   3.254   6.222   1.584
12565TIP3    H237639   3.225   6.075   1.602
12566TIP3   OH237640   3.011   1.413   6.196
12566TIP3    H137641   2.954   1.388   6.123
12566TIP3    H237642   3.013   1.509   6.193
12567TIP3   OH237643   2.683   6.966   6.613
12567TIP3    H137644   2.711   6.898   6.675
12567TIP3    H237645   2.587   6.958   6.612
12568TIP3   OH237646   7.820   0.844   5.637
12568TIP3    H137647   7.855   0.933   5.629
12568TIP3    H237648   7.815   0.812   5.548
12569TIP3   OH237649   5.939   4.087   0.392
12569TIP3    H137650   5.949   4.175   0.429
12569TIP3    H237651   5.906   4.102   0.304
12570TIP3   OH237652   0.161   4.683   5.328
12570TIP3    H137653   0.208   4.730   5.259
12570TIP3    H237654   0.075   4.725   5.333
12571TIP3   OH237655   8.140   5.878   2.202
12571TIP3    H137656   8.157   5.933   2.126
12571TIP3    H237657   8.192   5.799   2.187
12572TIP3   OH237658   7.437   5.455   5.671
12572TIP3    H137659   7.521   5.448   5.716
12572TIP3    H237660   7.455   5.510   5.594
12573TIP3   OH237661   0.807   0.921   5.277
12573TIP3    H137662   0.747   0.870   5.221
12573TIP3    H237663   0.749   0.970   5.336
12574TIP3   OH237664   1.968   3.466   1.074
12574TIP3    H137665   1.911   3.414   1.132
12574TIP3    H237666   2.055   3.429   1.086
12575TIP3   OH237667   4.532   5.280   3.256
12575TIP3    H137668   4.627   5.283   3.256
12575TIP3    H237669   4.509   5.259   3.347
12576TIP3   OH237670   7.241   5.818   4.299
12576TIP3    H137671   7.153   5.821   4.262
12576TIP3    H237672   7.245   5.734   4.344
12577TIP3   OH237673   6.391   2.481   1.304
12577TIP3    H137674   6.321   2.501   1.366
12577TIP3    H237675   6.347   2.439   1.230
12578TIP3   OH237676   4.418   7.430   3.295
12578TIP3    H137677   4.419   7.378   3.215
12578TIP3    H237678   4.452   7.371   3.363
12579TIP3   OH237679   4.440   7.716   0.407
12579TIP3    H137680   4.354   7.701   0.368
12579TIP3    H237681   4.501   7.676   0.345
12580TIP3   OH237682   0.653   5.328   6.419
12580TIP3    H137683   0.698   5.273   6.354
12580TIP3    H237684   0.567   5.287   6.428
12581TIP3   OH237685   1.860   2.947   0.753
12581TIP3    H137686   1.776   2.910   0.726
12581TIP3    H237687   1.914   2.943   0.675
12582TIP3   OH237688   3.988   3.545   2.331
12582TIP3    H137689   3.908   3.574   2.286
12582TIP3    H237690   4.054   3.610   2.308
12583TIP3   OH237691   5.282   7.371   5.936
12583TIP3    H137692   5.284   7.276   5.933
12583TIP3    H237693   5.213   7.391   6.001
12584TIP3   OH237694   2.331   6.603   0.862
12584TIP3    H137695   2.347   6.660   0.787
12584TIP3    H237696   2.274   6.654   0.919
12585TIP3   OH237697   0.593   3.869   6.341
12585TIP3    H137698   0.596   3.841   6.432
12585TIP3    H237699   0.566   3.960   6.344
12586TIP3   OH237700   2.197   2.813   3.819
12586TIP3    H137701   2.252   2.891   3.821
12586TIP3    H237702   2.233   2.760   3.749
12587TIP3   OH237703   4.625   5.649   5.159
12587TIP3    H137704   4.564   5.594   5.109
12587TIP3    H237705   4.588   5.737   5.153
12588TIP3   OH237706   7.645   2.001   0.052
12588TIP3    H137707   7.599   2.050  -0.015
12588TIP3    H237708   7.577   1.954   0.100
12589TIP3   OH237709   5.001   3.529   4.813
12589TIP3    H137710   5.021   3.623   4.820
12589TIP3    H237711   4.906   3.525   4.814
12590TIP3   OH237712   5.729   4.648   1.986
12590TIP3    H137713   5.698   4.720   1.931
12590TIP3    H237714   5.739   4.687   2.073
12591TIP3   OH237715   4.905   2.643   5.563
12591TIP3    H137716   4.959   2.655   5.641
12591TIP3    H237717   4.907   2.549   5.547
12592TIP3   OH237718   6.520   4.265   2.277
12592TIP3    H137719   6.544   4.337   2.335
12592TIP3    H237720   6.516   4.305   2.190
12593TIP3   OH237721   7.368   6.543   4.375
12593TIP3    H137722   7.289   6.520   4.326
12593TIP3    H237723   7.395   6.627   4.339
12594TIP3   OH237724   3.408   2.244   6.591
12594TIP3    H137725   3.349   2.319   6.580
12594TIP3    H237726   3.432   2.245   6.683
12595TIP3   OH237727   8.003   5.019   6.823
12595TIP3    H137728   8.057   4.940   6.830
12595TIP3    H237729   8.038   5.064   6.745
12596TIP3   OH237730   5.225   1.889   4.162
12596TIP3    H137731   5.143   1.864   4.120
12596TIP3    H237732   5.290   1.829   4.125
12597TIP3   OH237733   5.007   1.804   4.001
12597TIP3    H137734   5.067   1.755   3.945
12597TIP3    H237735   4.956   1.857   3.940
12598TIP3   OH237736   3.355   0.905   2.468
12598TIP3    H137737   3.300   0.899   2.390
12598TIP3    H237738   3.414   0.978   2.451
12599TIP3   OH237739   5.960   4.105   6.143
12599TIP3    H137740   5.912   4.125   6.223
12599TIP3    H237741   5.908   4.146   6.073
12600TIP3   OH237742   2.304   5.623   4.412
12600TIP3    H137743   2.286   5.666   4.495
12600TIP3    H237744   2.238   5.554   4.406
12601TIP3   OH237745   5.328   2.578   6.405
12601TIP3    H137746   5.236   2.585   6.383
12601TIP3    H237747   5.368   2.656   6.365
12602TIP3   OH237748   6.522   1.525   3.700
12602TIP3    H137749   6.570   1.449   3.668
12602TIP3    H237750   6.445   1.530   3.643
12603TIP3   OH237751   1.951   2.277   0.344
12603TIP3    H137752   1.902   2.203   0.380
12603TIP3    H237753   1.934   2.273   0.250
12604TIP3   OH237754   6.468   3.745   1.255
12604TIP3    H137755   6.443   3.837   1.260
12604TIP3    H237756   6.541   3.743   1.194
12605TIP3   OH237757   6.472   0.350   5.673
12605TIP3    H137758   6.428   0.293   5.736
12605TIP3    H237759   6.407   0.365   5.604
12606TIP3   OH237760   7.766   1.246   3.376
12606TIP3    H137761   7.798   1.335   3.391
12606TIP3    H237762   7.843   1.198   3.346
12607TIP3   OH237763   3.166   0.234   6.668
12607TIP3    H137764   3.252   0.214   6.705
12607TIP3    H237765   3.182   0.243   6.574
12608TIP3   OH237766   1.815   0.076   0.916
12608TIP3    H137767   1.870   0.122   0.979
12608TIP3    H237768   1.834  -0.017   0.930
12609TIP3   OH237769   0.968   5.998   3.229
12609TIP3    H137770   1.000   6.088   3.218
12609TIP3    H237771   0.897   5.990   3.167
12610TIP3   OH237772   5.694   7.476   2.382
12610TIP3    H137773   5.600   7.480   2.402
12610TIP3    H237774   5.704   7.394   2.334
12611TIP3   OH237775   0.066   0.098   2.522
12611TIP3    H137776   0.032   0.057   2.442
12611TIP3    H237777   0.001   0.164   2.545
12612TIP3   OH237778   5.117   6.526   2.339
12612TIP3    H137779   5.088   6.536   2.430
12612TIP3    H237780   5.211   6.511   2.346
12613TIP3   OH237781   5.724   7.126   5.633
12613TIP3    H137782   5.699   7.036   5.612
12613TIP3    H237783   5.764   7.121   5.720
12614TIP3   OH237784   6.070   4.452   0.053
12614TIP3    H137785   6.110   4.406  -0.020
12614TIP3    H237786   5.976   4.450   0.035
12615TIP3   OH237787   6.943   0.676   6.689
12615TIP3    H137788   6.978   0.588   6.679
12615TIP3    H237789   6.917   0.681   6.782
12616TIP3   OH237790   7.559   0.325   0.851
12616TIP3    H137791   7.641   0.325   0.801
12616TIP3    H237792   7.522   0.412   0.834
12617TIP3   OH237793   3.308   1.579   2.293
12617TIP3    H137794   3.281   1.487   2.302
12617TIP3    H237795   3.403   1.577   2.304
12618TIP3   OH237796   7.527   0.251   5.018
12618TIP3    H137797   7.489   0.216   5.099
12618TIP3    H237798   7.544   0.343   5.038
12619TIP3   OH237799   1.113   0.342   4.861
12619TIP3    H137800   1.148   0.298   4.938
12619TIP3    H237801   1.020   0.355   4.880
12620TIP3   OH237802   7.220   0.477   0.521
12620TIP3    H137803   7.241   0.465   0.429
12620TIP3    H237804   7.247   0.395   0.563
12621TIP3   OH237805   3.094   6.992   6.770
12621TIP3    H137806   3.170   7.018   6.718
12621TIP3    H237807   3.127   6.980   6.858
12622TIP3   OH237808   3.890   4.852   6.476
12622TIP3    H137809   3.829   4.779   6.468
12622TIP3    H237810   3.892   4.872   6.570
12623TIP3   OH237811   4.906   4.591   5.877
12623TIP3    H137812   4.828   4.640   5.853
12623TIP3    H237813   4.872   4.513   5.921
12624TIP3   OH237814   5.276   3.569   6.709
12624TIP3    H137815   5.243   3.655   6.684
12624TIP3    H237816   5.354   3.586   6.762
12625TIP3   OH237817   1.833   6.391   6.266
12625TIP3    H137818   1.772   6.421   6.333
12625TIP3    H237819   1.873   6.471   6.232
12626TIP3   OH237820   1.801   0.080   6.407
12626TIP3    H137821   1.793   0.084   6.312
12626TIP3    H237822   1.861   0.152   6.429
12627TIP3   OH237823   6.902   0.749   3.261
12627TIP3    H137824   6.865   0.730   3.175
12627TIP3    H237825   6.980   0.801   3.243
12628TIP3   OH237826   4.965   0.776   1.031
12628TIP3    H137827   4.891   0.733   1.074
12628TIP3    H237828   4.946   0.869   1.038
12629TIP3   OH237829   6.454   5.079   5.718
12629TIP3    H137830   6.507   5.058   5.642
12629TIP3    H237831   6.482   5.017   5.785
12630TIP3   OH237832   6.004   3.610   2.938
12630TIP3    H137833   6.004   3.586   2.845
12630TIP3    H237834   6.033   3.531   2.983
12631TIP3   OH237835   4.501   3.847   4.533
12631TIP3    H137836   4.508   3.897   4.614
12631TIP3    H237837   4.573   3.878   4.479
12632TIP3   OH237838   2.602   1.970   3.861
12632TIP3    H137839   2.638   2.049   3.900
12632TIP3    H237840   2.507   1.984   3.861
12633TIP3   OH237841   3.454   4.708   6.444
12633TIP3    H137842   3.516   4.689   6.373
12633TIP3    H237843   3.505   4.695   6.524
12634TIP3   OH237844   2.786   6.996   0.724
12634TIP3    H137845   2.812   7.057   0.655
12634TIP3    H237846   2.868   6.974   0.769
12635TIP3   OH237847   3.312   7.515   3.884
12635TIP3    H137848   3.308   7.536   3.977
12635TIP3    H237849   3.392   7.556   3.853
12636TIP3   OH237850   1.066   2.107   1.335
12636TIP3    H137851   0.980   2.064   1.336
12636TIP3    H237852   1.109   2.076   1.414
12637TIP3   OH237853   7.206   2.997   0.223
12637TIP3    H137854   7.186   2.903   0.228
12637TIP3    H237855   7.277   3.002   0.159
12638TIP3   OH237856   6.748   0.366   6.664
12638TIP3    H137857   6.832   0.412   6.668
12638TIP3    H237858   6.732   0.353   6.571
12639TIP3   OH237859   2.869   6.249   3.059
12639TIP3    H137860   2.938   6.226   3.121
12639TIP3    H237861   2.814   6.171   3.055
12640TIP3   OH237862   3.647   0.687   4.365
12640TIP3    H137863   3.626   0.651   4.279
12640TIP3    H237864   3.687   0.772   4.346
12641TIP3   OH237865   4.788   2.399   1.144
12641TIP3    H137866   4.876   2.382   1.109
12641TIP3    H237867   4.775   2.331   1.210
12642TIP3   OH237868   5.217   6.391   0.335
12642TIP3    H137869   5.252   6.302   0.322
12642TIP3    H237870   5.210   6.427   0.246
12643TIP3   OH237871   8.055   1.808   5.628
12643TIP3    H137872   8.100   1.803   5.544
12643TIP3    H237873   7.967   1.839   5.606
12644TIP3   OH237874   4.645   0.854   4.475
12644TIP3    H137875   4.716   0.818   4.421
12644TIP3    H237876   4.595   0.777   4.503
12645TIP3   OH237877   2.427   6.238   0.004
12645TIP3    H137878   2.468   6.225   0.089
12645TIP3    H237879   2.460   6.165  -0.049
12646TIP3   OH237880   7.716   0.247   2.441
12646TIP3    H137881   7.643   0.188   2.460
12646TIP3    H237882   7.770   0.244   2.520
12647TIP3   OH237883   5.505   7.159   3.195
12647TIP3    H137884   5.455   7.241   3.199
12647TIP3    H237885   5.478   7.110   3.272
12648TIP3   OH237886   6.368   3.006   5.164
12648TIP3    H137887   6.386   2.957   5.244
12648TIP3    H237888   6.444   3.062   5.152
12649TIP3   OH237889   4.312   0.043   5.919
12649TIP3    H137890   4.222   0.017   5.938
12649TIP3    H237891   4.362  -0.038   5.929
12650TIP3   OH237892   2.786   7.459   2.539
12650TIP3    H137893   2.701   7.458   2.496
12650TIP3    H237894   2.768   7.436   2.630
12651TIP3   OH237895   7.134   1.451   6.536
12651TIP3    H137896   7.188   1.378   6.565
12651TIP3    H237897   7.106   1.427   6.447
12652TIP3   OH237898   7.236   7.847   1.489
12652TIP3    H137899   7.213   7.754   1.490
12652TIP3    H237900   7.331   7.848   1.497
12653TIP3   OH237901   7.708   7.633   0.425
12653TIP3    H137902   7.754   7.627   0.509
12653TIP3    H237903   7.644   7.703   0.438
12654TIP3   OH237904   2.733   1.980   6.683
12654TIP3    H137905   2.639   2.000   6.685
12654TIP3    H237906   2.772   2.055   6.637
12655TIP3   OH237907   5.773   6.070   3.696
12655TIP3    H137908   5.713   6.001   3.723
12655TIP3    H237909   5.718   6.130   3.644
12656TIP3   OH237910   6.900   0.774   1.928
12656TIP3    H137911   6.990   0.745   1.913
12656TIP3    H237912   6.846   0.712   1.879
12657TIP3   OH237913   1.792   3.507   0.402
12657TIP3    H137914   1.857   3.482   0.337
12657TIP3    H237915   1.828   3.478   0.485
12658TIP3   OH237916   6.342   2.762   3.094
12658TIP3    H137917   6.329   2.675   3.131
12658TIP3    H237918   6.406   2.749   3.024
12659TIP3   OH237919   3.886   7.266   5.248
12659TIP3    H137920   3.871   7.173   5.262
12659TIP3    H237921   3.800   7.301   5.226
12660TIP3   OH237922   5.449   1.899   4.872
12660TIP3    H137923   5.490   1.920   4.788
12660TIP3    H237924   5.472   1.808   4.888
12661TIP3   OH237925   1.662   0.873   4.037
12661TIP3    H137926   1.653   0.784   4.069
12661TIP3    H237927   1.578   0.914   4.056
12662TIP3   OH237928   1.691   5.115   6.719
12662TIP3    H137929   1.771   5.072   6.686
12662TIP3    H237930   1.719   5.158   6.800
12663TIP3   OH237931   6.745   4.281   4.459
12663TIP3    H137932   6.806   4.347   4.492
12663TIP3    H237933   6.774   4.264   4.369
12664TIP3   OH237934   4.698   4.764   0.650
12664TIP3    H137935   4.759   4.691   0.639
12664TIP3    H237936   4.615   4.732   0.614
12665TIP3   OH237937   7.691   7.448   3.151
12665TIP3    H137938   7.734   7.472   3.069
12665TIP3    H237939   7.731   7.505   3.217
12666TIP3   OH237940   3.854   0.603   6.750
12666TIP3    H137941   3.948   0.605   6.734
12666TIP3    H237942   3.834   0.690   6.785
12667TIP3   OH237943   7.806   3.160   2.476
12667TIP3    H137944   7.846   3.216   2.542
12667TIP3    H237945   7.739   3.110   2.523
12668TIP3   OH237946   6.420   6.650   1.831
12668TIP3    H137947   6.437   6.692   1.747
12668TIP3    H237948   6.495   6.675   1.885
12669TIP3   OH237949   2.093   2.989   5.552
12669TIP3    H137950   2.077   3.063   5.493
12669TIP3    H237951   2.159   3.022   5.613
12670TIP3   OH237952   7.832   3.776   5.238
12670TIP3    H137953   7.851   3.860   5.280
12670TIP3    H237954   7.846   3.793   5.144
12671TIP3   OH237955   0.473   3.082   5.374
12671TIP3    H137956   0.532   3.083   5.298
12671TIP3    H237957   0.387   3.103   5.337
12672TIP3   OH237958   7.170   5.469   0.979
12672TIP3    H137959   7.078   5.478   0.952
12672TIP3    H237960   7.220   5.503   0.904
12673TIP3   OH237961   5.231   7.721   6.065
12673TIP3    H137962   5.316   7.699   6.104
12673TIP3    H237963   5.242   7.699   5.972
12674TIP3   OH237964   2.174   6.012   5.333
12674TIP3    H137965   2.190   6.047   5.421
12674TIP3    H237966   2.078   6.012   5.325
12675TIP3   OH237967   0.762   4.063   5.582
12675TIP3    H137968   0.770   3.971   5.607
12675TIP3    H237969   0.674   4.088   5.611
12676TIP3   OH237970   6.812   6.891   1.117
12676TIP3    H137971   6.818   6.821   1.182
12676TIP3    H237972   6.739   6.866   1.061
12677TIP3   OH237973   7.116   6.289   2.648
12677TIP3    H137974   7.028   6.287   2.610
12677TIP3    H237975   7.128   6.202   2.687
12678TIP3   OH237976   0.063   5.955   0.663
12678TIP3    H137977   0.065   6.047   0.634
12678TIP3    H237978   0.010   5.955   0.742
12679TIP3   OH237979   1.957   7.211   3.674
12679TIP3    H137980   1.989   7.157   3.602
12679TIP3    H237981   1.867   7.231   3.650
12680TIP3   OH237982   3.488   0.910   0.111
12680TIP3    H137983   3.482   0.924   0.017
12680TIP3    H237984   3.455   0.821   0.124
12681TIP3   OH237985   5.943   5.788   2.118
12681TIP3    H137986   5.878   5.756   2.180
12681TIP3    H237987   5.984   5.862   2.162
12682TIP3   OH237988   3.494   6.348   0.184
12682TIP3    H137989   3.457   6.383   0.264
12682TIP3    H237990   3.585   6.378   0.184
12683TIP3   OH237991   3.543   3.679   2.689
12683TIP3    H137992   3.631   3.682   2.725
12683TIP3    H237993   3.494   3.623   2.749
12684TIP3   OH237994   6.989   2.993   3.840
12684TIP3    H137995   7.069   2.973   3.791
12684TIP3    H237996   6.918   2.979   3.777
12685TIP3   OH237997   4.256   3.042   3.321
12685TIP3    H137998   4.338   3.017   3.278
12685TIP3    H237999   4.188   2.994   3.274
12686TIP3   OH238000   3.907   0.840   4.756
12686TIP3    H138001   3.909   0.755   4.713
12686TIP3    H238002   3.984   0.887   4.722
12687TIP3   OH238003   6.478   4.077   2.476
12687TIP3    H138004   6.465   4.139   2.404
12687TIP3    H238005   6.473   3.991   2.434
12688TIP3   OH238006   4.409   5.701   3.759
12688TIP3    H138007   4.470   5.683   3.687
12688TIP3    H238008   4.357   5.775   3.728
12689TIP3   OH238009   4.483   0.862   1.265
12689TIP3    H138010   4.458   0.849   1.357
12689TIP3    H238011   4.417   0.814   1.215
12690TIP3   OH238012   6.462   3.325   5.840
12690TIP3    H138013   6.542   3.289   5.802
12690TIP3    H238014   6.394   3.259   5.821
12691TIP3   OH238015   3.508   5.088   0.949
12691TIP3    H138016   3.593   5.080   0.992
12691TIP3    H238017   3.508   5.019   0.882
12692TIP3   OH238018   2.377   5.978   2.855
12692TIP3    H138019   2.397   5.925   2.778
12692TIP3    H238020   2.323   5.921   2.910
12693TIP3   OH238021   3.045   4.283   4.038
12693TIP3    H138022   3.085   4.286   4.125
12693TIP3    H238023   3.100   4.222   3.989
12694TIP3   OH238024   2.995   7.578   1.246
12694TIP3    H138025   3.050   7.556   1.170
12694TIP3    H238026   3.006   7.505   1.306
12695TIP3   OH238027   0.577   7.308   4.703
12695TIP3    H138028   0.527   7.230   4.729
12695TIP3    H238029   0.567   7.368   4.777
12696TIP3   OH238030   5.884   2.255   5.010
12696TIP3    H138031   5.896   2.270   4.916
12696TIP3    H238032   5.790   2.267   5.025
12697TIP3   OH238033   5.000   3.057   5.761
12697TIP3    H138034   4.920   3.107   5.775
12697TIP3    H238035   4.990   2.981   5.818
12698TIP3   OH238036   2.149   2.500   4.164
12698TIP3    H138037   2.145   2.476   4.257
12698TIP3    H238038   2.163   2.417   4.119
12699TIP3   OH238039   2.507   1.570   6.684
12699TIP3    H138040   2.563   1.495   6.664
12699TIP3    H238041   2.437   1.534   6.739
12700TIP3   OH238042   6.238   2.069   0.675
12700TIP3    H138043   6.166   2.037   0.620
12700TIP3    H238044   6.222   2.163   0.683
12701TIP3   OH238045   1.403   1.671   5.641
12701TIP3    H138046   1.498   1.671   5.650
12701TIP3    H238047   1.386   1.735   5.571
12702TIP3   OH238048   7.702   6.923   5.266
12702TIP3    H138049   7.795   6.932   5.287
12702TIP3    H238050   7.658   6.985   5.323
12703TIP3   OH238051   5.940   6.114   2.510
12703TIP3    H138052   6.032   6.139   2.515
12703TIP3    H238053   5.895   6.176   2.568
12704TIP3   OH238054   6.451   3.474   1.704
12704TIP3    H138055   6.424   3.386   1.680
12704TIP3    H238056   6.412   3.530   1.637
12705TIP3   OH238057   7.506   2.129   3.375
12705TIP3    H138058   7.547   2.103   3.292
12705TIP3    H238059   7.575   2.177   3.421
12706TIP3   OH238060   7.761   1.688   6.571
12706TIP3    H138061   7.837   1.695   6.629
12706TIP3    H238062   7.750   1.594   6.557
12707TIP3   OH238063   7.082   2.365   3.825
12707TIP3    H138064   7.161   2.353   3.878
12707TIP3    H238065   7.067   2.280   3.784
12708TIP3   OH238066   0.030   3.873   0.522
12708TIP3    H138067   0.035   3.947   0.462
12708TIP3    H238068   0.089   3.897   0.594
12709TIP3   OH238069   1.251   0.192   1.650
12709TIP3    H138070   1.335   0.194   1.605
12709TIP3    H238071   1.189   0.226   1.586
12710TIP3   OH238072   0.972   4.260   2.750
12710TIP3    H138073   0.942   4.193   2.689
12710TIP3    H238074   0.896   4.318   2.759
12711TIP3   OH238075   7.102   4.568   5.902
12711TIP3    H138076   7.073   4.489   5.856
12711TIP3    H238077   7.058   4.640   5.857
12712TIP3   OH238078   2.957   1.262   5.457
12712TIP3    H138079   2.998   1.331   5.404
12712TIP3    H238080   3.030   1.204   5.481
12713TIP3   OH238081   0.903   4.546   0.966
12713TIP3    H138082   0.913   4.641   0.975
12713TIP3    H238083   0.890   4.532   0.873
12714TIP3   OH238084   1.361   6.626   2.653
12714TIP3    H138085   1.409   6.603   2.733
12714TIP3    H238086   1.307   6.549   2.635
12715TIP3   OH238087   8.216   1.358   5.859
12715TIP3    H138088   8.159   1.381   5.932
12715TIP3    H238089   8.170   1.389   5.782
12716TIP3   OH238090   1.283   0.507   5.591
12716TIP3    H138091   1.316   0.478   5.506
12716TIP3    H238092   1.244   0.593   5.574
12717TIP3   OH238093   4.087   0.778   5.962
12717TIP3    H138094   4.091   0.857   5.908
12717TIP3    H238095   4.076   0.707   5.900
12718TIP3   OH238096   1.291   5.655   2.471
12718TIP3    H138097   1.332   5.606   2.542
12718TIP3    H238098   1.333   5.741   2.473
12719TIP3   OH238099   6.965   6.780   6.139
12719TIP3    H138100   6.885   6.832   6.143
12719TIP3    H238101   6.976   6.747   6.228
12720TIP3   OH238102   1.411   2.660   4.762
12720TIP3    H138103   1.418   2.567   4.742
12720TIP3    H238104   1.501   2.693   4.758
12721TIP3   OH238105   1.929   1.502   3.488
12721TIP3    H138106   1.966   1.468   3.570
12721TIP3    H238107   1.919   1.424   3.433
12722TIP3   OH238108   2.051   3.251   2.791
12722TIP3    H138109   1.980   3.310   2.768
12722TIP3    H238110   2.014   3.194   2.858
12723TIP3   OH238111   1.056   6.714   0.332
12723TIP3    H138112   1.022   6.723   0.243
12723TIP3    H238113   1.041   6.622   0.354
12724TIP3   OH238114   0.771   7.796   0.283
12724TIP3    H138115   0.773   7.761   0.194
12724TIP3    H238116   0.861   7.786   0.314
12725TIP3   OH238117   3.186   4.060   3.928
12725TIP3    H138118   3.174   3.967   3.950
12725TIP3    H238119   3.279   4.067   3.907
12726TIP3   OH238120   7.512   3.653   6.568
12726TIP3    H138121   7.575   3.687   6.632
12726TIP3    H238122   7.473   3.731   6.529
12727TIP3   OH238123   7.886   7.654   2.442
12727TIP3    H138124   7.965   7.640   2.494
12727TIP3    H238125   7.918   7.686   2.358
12728TIP3   OH238126   6.052   7.771   6.603
12728TIP3    H138127   6.029   7.766   6.510
12728TIP3    H238128   6.138   7.814   6.605
12729TIP3   OH238129   1.817   5.098   2.769
12729TIP3    H138130   1.787   5.096   2.860
12729TIP3    H238131   1.897   5.045   2.769
12730TIP3   OH238132   3.327   5.243   3.766
12730TIP3    H138133   3.270   5.245   3.842
12730TIP3    H238134   3.320   5.330   3.728
12731TIP3   OH238135   3.759   1.533   2.895
12731TIP3    H138136   3.794   1.457   2.940
12731TIP3    H238137   3.711   1.581   2.963
12732TIP3   OH238138   1.970   6.799   3.571
12732TIP3    H138139   1.959   6.873   3.511
12732TIP3    H238140   2.060   6.806   3.603
12733TIP3   OH238141   1.323   6.608   3.732
12733TIP3    H138142   1.253   6.544   3.749
12733TIP3    H238143   1.293   6.688   3.775
12734TIP3   OH238144   0.437   6.196   2.408
12734TIP3    H138145   0.512   6.178   2.352
12734TIP3    H238146   0.369   6.137   2.377
12735TIP3   OH238147   5.544   4.607   2.320
12735TIP3    H138148   5.542   4.623   2.414
12735TIP3    H238149   5.636   4.592   2.300
12736TIP3   OH238150   7.538   7.740   3.308
12736TIP3    H138151   7.630   7.762   3.296
12736TIP3    H238152   7.490   7.807   3.260
12737TIP3   OH238153   6.400   5.713   5.971
12737TIP3    H138154   6.354   5.717   5.888
12737TIP3    H238155   6.475   5.655   5.955
12738TIP3   OH238156   2.422   6.332   4.271
12738TIP3    H138157   2.428   6.250   4.321
12738TIP3    H238158   2.508   6.341   4.230
12739TIP3   OH238159   1.764   5.935   3.647
12739TIP3    H138160   1.784   6.026   3.624
12739TIP3    H238161   1.685   5.914   3.598
12740TIP3   OH238162   1.854   2.454   5.364
12740TIP3    H138163   1.870   2.399   5.441
12740TIP3    H238164   1.936   2.503   5.353
12741TIP3   OH238165   6.457   6.293   6.459
12741TIP3    H138166   6.529   6.344   6.421
12741TIP3    H238167   6.436   6.227   6.393
12742TIP3   OH238168   2.146   7.385   2.398
12742TIP3    H138169   2.153   7.392   2.493
12742TIP3    H238170   2.206   7.314   2.375
12743TIP3   OH238171   1.264   4.113   1.301
12743TIP3    H138172   1.280   4.164   1.381
12743TIP3    H238173   1.229   4.030   1.332
12744TIP3   OH238174   1.493   6.933   0.168
12744TIP3    H138175   1.536   6.849   0.181
12744TIP3    H238176   1.401   6.911   0.158
12745TIP3   OH238177   0.952   5.059   0.855
12745TIP3    H138178   0.886   5.127   0.844
12745TIP3    H238179   0.936   4.997   0.784
12746TIP3   OH238180   0.980   7.195   5.568
12746TIP3    H138181   0.922   7.122   5.550
12746TIP3    H238182   1.054   7.156   5.615
12747TIP3   OH238183   2.003   0.259   6.476
12747TIP3    H138184   1.975   0.298   6.559
12747TIP3    H238185   2.084   0.214   6.497
12748TIP3   OH238186   6.634   1.355   1.756
12748TIP3    H138187   6.649   1.327   1.666
12748TIP3    H238188   6.576   1.289   1.793
12749TIP3   OH238189   4.490   2.150   6.428
12749TIP3    H138190   4.518   2.142   6.520
12749TIP3    H238191   4.567   2.126   6.377
12750TIP3   OH238192   3.580   1.500   5.353
12750TIP3    H138193   3.604   1.590   5.373
12750TIP3    H238194   3.643   1.472   5.287
12751TIP3   OH238195   2.782   2.952   1.550
12751TIP3    H138196   2.754   2.981   1.637
12751TIP3    H238197   2.822   3.030   1.511
12752TIP3   OH238198   0.422   4.873   0.548
12752TIP3    H138199   0.517   4.874   0.553
12752TIP3    H238200   0.397   4.965   0.553
12753TIP3   OH238201   0.282   0.839   3.227
12753TIP3    H138202   0.319   0.925   3.249
12753TIP3    H238203   0.224   0.857   3.153
12754TIP3   OH238204   2.089   6.181   1.678
12754TIP3    H138205   2.121   6.248   1.739
12754TIP3    H238206   2.000   6.209   1.656
12755TIP3   OH238207   4.229   4.519   0.683
12755TIP3    H138208   4.138   4.547   0.676
12755TIP3    H238209   4.227   4.443   0.741
12756TIP3   OH238210   1.330   3.378   2.641
12756TIP3    H138211   1.387   3.455   2.637
12756TIP3    H238212   1.387   3.307   2.668
12757TIP3   OH238213   0.654   7.777   2.788
12757TIP3    H138214   0.639   7.871   2.804
12757TIP3    H238215   0.748   7.770   2.773
12758TIP3   OH238216   6.011   0.384   4.126
12758TIP3    H138217   6.049   0.405   4.212
12758TIP3    H238218   5.993   0.469   4.087
12759TIP3   OH238219   4.524   6.544   6.442
12759TIP3    H138220   4.510   6.606   6.514
12759TIP3    H238221   4.469   6.578   6.371
12760TIP3   OH238222   1.870   1.392   6.732
12760TIP3    H138223   1.924   1.372   6.656
12760TIP3    H238224   1.835   1.479   6.715
12761TIP3   OH238225   3.918   4.925   5.498
12761TIP3    H138226   3.884   4.992   5.557
12761TIP3    H238227   3.867   4.846   5.519
12762TIP3   OH238228   3.206   4.952   2.112
12762TIP3    H138229   3.285   5.004   2.099
12762TIP3    H238230   3.142   4.990   2.052
12763TIP3   OH238231   0.295   4.268   3.212
12763TIP3    H138232   0.383   4.229   3.207
12763TIP3    H238233   0.293   4.329   3.139
12764TIP3   OH238234   7.813   5.786   2.381
12764TIP3    H138235   7.848   5.754   2.298
12764TIP3    H238236   7.811   5.882   2.371
12765TIP3   OH238237   5.427   2.900   2.372
12765TIP3    H138238   5.466   2.831   2.426
12765TIP3    H238239   5.492   2.917   2.304
12766TIP3   OH238240   1.163   1.225   4.426
12766TIP3    H138241   1.201   1.312   4.425
12766TIP3    H238242   1.071   1.238   4.402
12767TIP3   OH238243   4.910   5.991   1.043
12767TIP3    H138244   4.905   6.079   1.079
12767TIP3    H238245   4.989   5.991   0.989
12768TIP3   OH238246   1.996   6.333   3.345
12768TIP3    H138247   2.067   6.298   3.291
12768TIP3    H238248   2.039   6.391   3.408
12769TIP3   OH238249   2.382   4.669   5.804
12769TIP3    H138250   2.383   4.732   5.733
12769TIP3    H238251   2.327   4.709   5.871
12770TIP3   OH238252   5.916   4.349   4.117
12770TIP3    H138253   5.881   4.400   4.043
12770TIP3    H238254   5.991   4.303   4.080
12771TIP3   OH238255   4.318   7.738   0.027
12771TIP3    H138256   4.258   7.743   0.102
12771TIP3    H238257   4.384   7.675   0.054
12772TIP3   OH238258   3.637   1.295   6.484
12772TIP3    H138259   3.608   1.385   6.501
12772TIP3    H238260   3.722   1.305   6.441
12773TIP3   OH238261   7.351   7.584   5.540
12773TIP3    H138262   7.339   7.664   5.489
12773TIP3    H238263   7.278   7.528   5.515
12774TIP3   OH238264   4.751   2.418   3.253
12774TIP3    H138265   4.837   2.432   3.213
12774TIP3    H238266   4.699   2.375   3.185
12775TIP3   OH238267   2.980   4.767   4.432
12775TIP3    H138268   2.984   4.841   4.371
12775TIP3    H238269   3.064   4.722   4.420
12776TIP3   OH238270   5.515   5.244   5.448
12776TIP3    H138271   5.479   5.296   5.377
12776TIP3    H238272   5.517   5.304   5.523
12777TIP3   OH238273   7.348   4.351   4.613
12777TIP3    H138274   7.394   4.270   4.593
12777TIP3    H238275   7.278   4.357   4.548
12778TIP3   OH238276   0.160   0.287   0.394
12778TIP3    H138277   0.146   0.381   0.379
12778TIP3    H238278   0.091   0.245   0.344
12779TIP3   OH238279   3.736   0.291   5.740
12779TIP3    H138280   3.666   0.340   5.697
12779TIP3    H238281   3.739   0.327   5.828
12780TIP3   OH238282   2.912   0.011   4.713
12780TIP3    H138283   2.875   0.097   4.693
12780TIP3    H238284   2.920   0.010   4.808
12781TIP3   OH238285   4.319   2.049   5.076
12781TIP3    H138286   4.311   1.998   5.157
12781TIP3    H238287   4.230   2.076   5.056
12782TIP3   OH238288   2.910   5.790   3.163
12782TIP3    H138289   2.939   5.708   3.203
12782TIP3    H238290   2.823   5.770   3.129
12783TIP3   OH238291   1.091   1.814   1.081
12783TIP3    H138292   1.109   1.896   1.126
12783TIP3    H238293   0.998   1.798   1.098
12784TIP3   OH238294   6.585   7.100   0.161
12784TIP3    H138295   6.508   7.141   0.201
12784TIP3    H238296   6.559   7.009   0.149
12785TIP3   OH238297   8.215   4.629   0.299
12785TIP3    H138298   8.121   4.649   0.297
12785TIP3    H238299   8.253   4.690   0.236
12786TIP3   OH238300   0.519   7.190   1.435
12786TIP3    H138301   0.509   7.102   1.471
12786TIP3    H238302   0.536   7.177   1.342
12787TIP3   OH238303   7.795   1.173   2.506
12787TIP3    H138304   7.846   1.144   2.581
12787TIP3    H238305   7.732   1.103   2.490
12788TIP3   OH238306   6.810   1.992   5.059
12788TIP3    H138307   6.722   1.973   5.029
12788TIP3    H238308   6.821   1.938   5.137
12789TIP3   OH238309   3.439   1.279   3.793
12789TIP3    H138310   3.438   1.244   3.704
12789TIP3    H238311   3.424   1.203   3.849
12790TIP3   OH238312   5.710   4.817   5.181
12790TIP3    H138313   5.652   4.741   5.178
12790TIP3    H238314   5.766   4.802   5.258
12791TIP3   OH238315   8.191   4.440   3.436
12791TIP3    H138316   8.261   4.441   3.371
12791TIP3    H238317   8.175   4.347   3.452
12792TIP3   OH238318   2.868   1.422   2.193
12792TIP3    H138319   2.837   1.443   2.281
12792TIP3    H238320   2.820   1.343   2.168
12793TIP3   OH238321   5.439   3.658   0.650
12793TIP3    H138322   5.402   3.588   0.704
12793TIP3    H238323   5.365   3.693   0.602
12794TIP3   OH238324   1.806   6.121   1.437
12794TIP3    H138325   1.854   6.128   1.354
12794TIP3    H238326   1.843   6.045   1.480
12795TIP3   OH238327   0.383   0.167   1.091
12795TIP3    H138328   0.453   0.175   1.027
12795TIP3    H238329   0.311   0.220   1.055
12796TIP3   OH238330   7.746   1.042   2.154
12796TIP3    H138331   7.732   0.973   2.220
12796TIP3    H238332   7.767   0.995   2.074
12797TIP3   OH238333   0.027   2.124   4.493
12797TIP3    H138334  -0.007   2.197   4.545
12797TIP3    H238335   0.117   2.113   4.524
12798TIP3   OH238336   4.441   3.928   5.627
12798TIP3    H138337   4.421   3.873   5.702
12798TIP3    H238338   4.524   3.971   5.650
12799TIP3   OH238339   0.678   1.224   4.883
12799TIP3    H138340   0.643   1.312   4.868
12799TIP3    H238341   0.622   1.167   4.831
12800TIP3   OH238342   6.180   6.100   5.087
12800TIP3    H138343   6.162   6.177   5.142
12800TIP3    H238344   6.201   6.136   5.001
12801TIP3   OH238345   1.866   7.550   0.244
12801TIP3    H138346   1.776   7.582   0.243
12801TIP3    H238347   1.880   7.515   0.156
12802TIP3   OH238348   7.221   7.148   4.442
12802TIP3    H138349   7.145   7.143   4.500
12802TIP3    H238350   7.187   7.187   4.361
12803TIP3   OH238351   3.205   4.609   6.477
12803TIP3    H138352   3.289   4.641   6.444
12803TIP3    H238353   3.167   4.563   6.402
12804TIP3   OH238354   2.459   5.812   6.282
12804TIP3    H138355   2.551   5.820   6.305
12804TIP3    H238356   2.417   5.887   6.325
12805TIP3   OH238357   6.238   0.669   0.489
12805TIP3    H138358   6.281   0.643   0.570
12805TIP3    H238359   6.298   0.640   0.420
12806TIP3   OH238360   2.738   4.757   6.438
12806TIP3    H138361   2.720   4.851   6.442
12806TIP3    H238362   2.710   4.724   6.524
12807TIP3   OH238363   5.320   7.665   4.151
12807TIP3    H138364   5.282   7.627   4.230
12807TIP3    H238365   5.413   7.676   4.170
12808TIP3   OH238366   4.500   5.951   3.137
12808TIP3    H138367   4.537   5.901   3.063
12808TIP3    H238368   4.445   6.017   3.096
12809TIP3   OH238369   6.637   2.901   4.505
12809TIP3    H138370   6.680   2.912   4.420
12809TIP3    H238371   6.686   2.831   4.548
12810TIP3   OH238372   2.148   2.756   4.416
12810TIP3    H138373   2.228   2.766   4.469
12810TIP3    H238374   2.169   2.800   4.334
12811TIP3   OH238375   2.260   4.174   4.887
12811TIP3    H138376   2.251   4.238   4.816
12811TIP3    H238377   2.244   4.090   4.845
12812TIP3   OH238378   1.913   6.782   0.902
12812TIP3    H138379   1.983   6.846   0.889
12812TIP3    H238380   1.951   6.717   0.962
12813TIP3   OH238381   4.509   5.997   0.461
12813TIP3    H138382   4.443   5.957   0.517
12813TIP3    H238383   4.535   5.927   0.401
12814TIP3   OH238384   3.163   2.727   2.422
12814TIP3    H138385   3.204   2.777   2.492
12814TIP3    H238386   3.131   2.793   2.361
12815TIP3   OH238387   1.300   1.695   2.065
12815TIP3    H138388   1.335   1.784   2.066
12815TIP3    H238389   1.350   1.651   1.996
12816TIP3   OH238390   7.712   2.292   3.822
12816TIP3    H138391   7.725   2.342   3.741
12816TIP3    H238392   7.727   2.201   3.797
12817TIP3   OH238393   6.430   2.293   4.901
12817TIP3    H138394   6.418   2.211   4.949
12817TIP3    H238395   6.525   2.303   4.894
12818TIP3   OH238396   4.216   7.384   1.838
12818TIP3    H138397   4.277   7.416   1.771
12818TIP3    H238398   4.252   7.418   1.920
12819TIP3   OH238399   0.836   6.670   3.416
12819TIP3    H138400   0.914   6.725   3.408
12819TIP3    H238401   0.869   6.581   3.406
12820TIP3   OH238402   8.152   5.868   4.367
12820TIP3    H138403   8.133   5.799   4.429
12820TIP3    H238404   8.138   5.949   4.416
12821TIP3   OH238405   3.878   7.809   6.096
12821TIP3    H138406   3.887   7.877   6.029
12821TIP3    H238407   3.956   7.754   6.084
12822TIP3   OH238408   7.923   3.594   4.780
12822TIP3    H138409   7.959   3.531   4.718
12822TIP3    H238410   7.983   3.593   4.854
12823TIP3   OH238411   7.904   3.821   1.762
12823TIP3    H138412   7.832   3.816   1.825
12823TIP3    H238413   7.982   3.839   1.815
12824TIP3   OH238414   6.802   4.923   4.705
12824TIP3    H138415   6.846   4.986   4.763
12824TIP3    H238416   6.743   4.874   4.763
12825TIP3   OH238417   0.554   1.681   2.829
12825TIP3    H138418   0.534   1.606   2.886
12825TIP3    H238419   0.632   1.654   2.781
12826TIP3   OH238420   7.137   7.239   0.875
12826TIP3    H138421   7.065   7.301   0.885
12826TIP3    H238422   7.126   7.177   0.947
12827TIP3   OH238423   7.583   1.287   2.164
12827TIP3    H138424   7.658   1.230   2.179
12827TIP3    H238425   7.577   1.296   2.069
12828TIP3   OH238426   2.480   1.548   4.693
12828TIP3    H138427   2.393   1.586   4.683
12828TIP3    H238428   2.540   1.616   4.661
12829TIP3   OH238429   3.236   3.123   5.941
12829TIP3    H138430   3.248   3.124   6.036
12829TIP3    H238431   3.307   3.179   5.907
12830TIP3   OH238432   1.789   7.142   5.919
12830TIP3    H138433   1.790   7.142   6.015
12830TIP3    H238434   1.786   7.234   5.895
12831TIP3   OH238435   6.214   3.645   0.910
12831TIP3    H138436   6.256   3.640   0.995
12831TIP3    H238437   6.278   3.689   0.853
12832TIP3   OH238438   7.785   5.802   0.202
12832TIP3    H138439   7.877   5.780   0.221
12832TIP3    H238440   7.789   5.858   0.124
12833TIP3   OH238441   6.840   0.282   5.372
12833TIP3    H138442   6.784   0.216   5.332
12833TIP3    H238443   6.887   0.322   5.299
12834TIP3   OH238444   5.109   6.899   4.094
12834TIP3    H138445   5.094   6.934   4.182
12834TIP3    H238446   5.113   6.804   4.106
12835TIP3   OH238447   6.939   2.662   2.290
12835TIP3    H138448   6.951   2.689   2.199
12835TIP3    H238449   6.863   2.712   2.320
12836TIP3   OH238450   2.867   2.637   2.340
12836TIP3    H138451   2.881   2.672   2.252
12836TIP3    H238452   2.953   2.639   2.381
12837TIP3   OH238453   8.217   4.276   1.862
12837TIP3    H138454   8.278   4.339   1.901
12837TIP3    H238455   8.251   4.191   1.886
12838TIP3   OH238456   4.863   2.373   5.536
12838TIP3    H138457   4.872   2.346   5.627
12838TIP3    H238458   4.785   2.327   5.505
12839TIP3   OH238459   7.444   7.287   1.697
12839TIP3    H138460   7.495   7.220   1.651
12839TIP3    H238461   7.397   7.240   1.765
12840TIP3   OH238462   7.691   5.630   4.627
12840TIP3    H138463   7.721   5.649   4.538
12840TIP3    H238464   7.710   5.537   4.639
12841TIP3   OH238465   7.156   2.714   0.252
12841TIP3    H138466   7.211   2.662   0.310
12841TIP3    H238467   7.157   2.668   0.168
12842TIP3   OH238468   0.741   4.328   2.904
12842TIP3    H138469   0.735   4.382   2.825
12842TIP3    H238470   0.684   4.253   2.886
12843TIP3   OH238471   1.567   5.672   2.212
12843TIP3    H138472   1.482   5.707   2.183
12843TIP3    H238473   1.629   5.742   2.192
12844TIP3   OH238474   1.869   3.039   2.978
12844TIP3    H138475   1.910   3.042   3.064
12844TIP3    H238476   1.776   3.054   2.995
12845TIP3   OH238477   2.241   5.000   4.312
12845TIP3    H138478   2.204   4.937   4.374
12845TIP3    H238479   2.335   4.993   4.324
12846TIP3   OH238480   8.075   2.761   1.681
12846TIP3    H138481   8.030   2.694   1.630
12846TIP3    H238482   8.033   2.843   1.656
12847TIP3   OH238483   1.124   5.638   0.654
12847TIP3    H138484   1.126   5.545   0.631
12847TIP3    H238485   1.183   5.680   0.592
12848TIP3   OH238486   3.410   1.054   6.018
12848TIP3    H138487   3.419   1.005   6.100
12848TIP3    H238488   3.381   1.141   6.045
12849TIP3   OH238489   5.328   3.087   5.854
12849TIP3    H138490   5.303   3.034   5.779
12849TIP3    H238491   5.364   3.024   5.917
12850TIP3   OH238492   4.692   4.935   0.959
12850TIP3    H138493   4.688   4.876   1.034
12850TIP3    H238494   4.620   4.907   0.902
12851TIP3   OH238495   5.163   0.101   0.043
12851TIP3    H138496   5.150   0.139   0.130
12851TIP3    H238497   5.136   0.010   0.052
12852TIP3   OH238498   8.010   1.602   1.669
12852TIP3    H138499   8.041   1.535   1.608
12852TIP3    H238500   8.060   1.587   1.749
12853TIP3   OH238501   6.677   4.972   0.440
12853TIP3    H138502   6.725   4.891   0.423
12853TIP3    H238503   6.587   4.944   0.454
12854TIP3   OH238504   3.494   6.595   4.256
12854TIP3    H138505   3.495   6.680   4.212
12854TIP3    H238506   3.429   6.605   4.326
12855TIP3   OH238507   0.846   1.707   4.374
12855TIP3    H138508   0.832   1.685   4.466
12855TIP3    H238509   0.813   1.630   4.326
12856TIP3   OH238510   5.254   1.981   4.426
12856TIP3    H138511   5.321   1.914   4.413
12856TIP3    H238512   5.258   2.035   4.347
12857TIP3   OH238513   5.169   5.507   4.297
12857TIP3    H138514   5.215   5.556   4.228
12857TIP3    H238515   5.211   5.535   4.378
12858TIP3   OH238516   5.672   4.080   3.611
12858TIP3    H138517   5.654   3.989   3.586
12858TIP3    H238518   5.669   4.079   3.707
12859TIP3   OH238519   7.676   5.364   4.630
12859TIP3    H138520   7.752   5.312   4.656
12859TIP3    H238521   7.658   5.337   4.540
12860TIP3   OH238522   0.845   5.094   2.998
12860TIP3    H138523   0.833   5.171   2.942
12860TIP3    H238524   0.923   5.113   3.050
12861TIP3   OH238525   1.195   1.066   1.049
12861TIP3    H138526   1.270   1.079   1.107
12861TIP3    H238527   1.233   1.056   0.962
12862TIP3   OH238528   1.852   7.516   4.404
12862TIP3    H138529   1.922   7.516   4.339
12862TIP3    H238530   1.837   7.609   4.423
12863TIP3   OH238531   1.293   1.341   0.672
12863TIP3    H138532   1.351   1.417   0.669
12863TIP3    H238533   1.273   1.322   0.580
12864TIP3   OH238534   0.578   2.661   0.800
12864TIP3    H138535   0.499   2.653   0.746
12864TIP3    H238536   0.649   2.628   0.744
12865TIP3   OH238537   3.306   4.313   2.312
12865TIP3    H138538   3.249   4.335   2.239
12865TIP3    H238539   3.351   4.233   2.285
12866TIP3   OH238540   4.288   4.469   1.237
12866TIP3    H138541   4.213   4.519   1.205
12866TIP3    H238542   4.295   4.494   1.329
12867TIP3   OH238543   0.779   3.584   1.674
12867TIP3    H138544   0.716   3.522   1.636
12867TIP3    H238545   0.726   3.639   1.732
12868TIP3   OH238546   3.599   3.156   5.278
12868TIP3    H138547   3.627   3.142   5.188
12868TIP3    H238548   3.506   3.136   5.278
12869TIP3   OH238549   6.632   5.391   5.606
12869TIP3    H138550   6.582   5.432   5.678
12869TIP3    H238551   6.632   5.457   5.537
12870TIP3   OH238552   3.002   1.358   4.172
12870TIP3    H138553   3.074   1.301   4.200
12870TIP3    H238554   3.007   1.358   4.076
12871TIP3   OH238555   7.915   4.913   3.048
12871TIP3    H138556   7.952   4.839   3.096
12871TIP3    H238557   7.919   4.986   3.109
12872TIP3   OH238558   3.194   7.497   3.412
12872TIP3    H138559   3.150   7.507   3.496
12872TIP3    H238560   3.286   7.489   3.434
12873TIP3   OH238561   4.806   4.408   1.556
12873TIP3    H138562   4.747   4.341   1.522
12873TIP3    H238563   4.790   4.407   1.651
12874TIP3   OH238564   3.261   2.441   6.046
12874TIP3    H138565   3.182   2.492   6.030
12874TIP3    H238566   3.333   2.504   6.039
12875TIP3   OH238567   4.752   2.381   6.549
12875TIP3    H138568   4.682   2.387   6.484
12875TIP3    H238569   4.738   2.456   6.606
12876TIP3   OH238570   7.677   6.918   3.541
12876TIP3    H138571   7.599   6.876   3.579
12876TIP3    H238572   7.650   6.943   3.453
12877TIP3   OH238573   2.750   0.594   2.136
12877TIP3    H138574   2.675   0.541   2.162
12877TIP3    H238575   2.797   0.610   2.217
12878TIP3   OH238576   6.195   4.033   5.271
12878TIP3    H138577   6.144   4.088   5.330
12878TIP3    H238578   6.258   3.988   5.328
12879TIP3   OH238579   3.618   3.852   1.885
12879TIP3    H138580   3.578   3.929   1.845
12879TIP3    H238581   3.667   3.887   1.960
12880TIP3   OH238582   6.521   1.714   2.988
12880TIP3    H138583   6.470   1.768   3.048
12880TIP3    H238584   6.575   1.776   2.940
12881TIP3   OH238585   0.288   6.558   6.632
12881TIP3    H138586   0.245   6.516   6.707
12881TIP3    H238587   0.318   6.643   6.666
12882TIP3   OH238588   4.601   3.874   6.502
12882TIP3    H138589   4.543   3.797   6.509
12882TIP3    H238590   4.689   3.838   6.507
12883TIP3   OH238591   1.866   1.295   5.733
12883TIP3    H138592   1.923   1.325   5.804
12883TIP3    H238593   1.846   1.204   5.754
12884TIP3   OH238594   3.087   0.372   4.866
12884TIP3    H138595   3.050   0.304   4.921
12884TIP3    H238596   3.154   0.327   4.814
12885TIP3   OH238597  -0.010   1.088   3.921
12885TIP3    H138598   0.073   1.127   3.949
12885TIP3    H238599  -0.017   1.007   3.972
12886TIP3   OH238600   3.656   1.942   3.429
12886TIP3    H138601   3.632   1.910   3.516
12886TIP3    H238602   3.622   1.876   3.369
12887TIP3   OH238603   6.048   4.429   6.108
12887TIP3    H138604   5.969   4.439   6.054
12887TIP3    H238605   6.026   4.360   6.170
12888TIP3   OH238606   0.584   4.430   5.043
12888TIP3    H138607   0.549   4.353   5.087
12888TIP3    H238608   0.581   4.408   4.950
12889TIP3   OH238609   0.780   0.101   0.088
12889TIP3    H138610   0.735   0.175   0.128
12889TIP3    H238611   0.711   0.037   0.071
12890TIP3   OH238612   0.581   7.588   3.012
12890TIP3    H138613   0.487   7.578   2.996
12890TIP3    H238614   0.604   7.669   2.968
12891TIP3   OH238615   3.281   2.748   6.139
12891TIP3    H138616   3.214   2.811   6.114
12891TIP3    H238617   3.233   2.677   6.180
12892TIP3   OH238618   4.256   0.288   5.834
12892TIP3    H138619   4.331   0.347   5.843
12892TIP3    H238620   4.286   0.204   5.868
12893TIP3   OH238621   7.335   2.535   2.642
12893TIP3    H138622   7.383   2.550   2.561
12893TIP3    H238623   7.266   2.473   2.617
12894TIP3   OH238624   4.867   7.803   0.286
12894TIP3    H138625   4.894   7.894   0.271
12894TIP3    H238626   4.841   7.771   0.200
12895TIP3   OH238627   6.305   6.350   0.439
12895TIP3    H138628   6.248   6.272   0.436
12895TIP3    H238629   6.371   6.328   0.505
12896TIP3   OH238630   2.852   2.765   5.183
12896TIP3    H138631   2.886   2.684   5.221
12896TIP3    H238632   2.892   2.769   5.096
12897TIP3   OH238633   6.411   2.770   3.583
12897TIP3    H138634   6.329   2.818   3.589
12897TIP3    H238635   6.397   2.692   3.637
12898TIP3   OH238636   0.263   5.553   0.167
12898TIP3    H138637   0.343   5.596   0.138
12898TIP3    H238638   0.247   5.485   0.101
12899TIP3   OH238639   0.737   4.904   4.886
12899TIP3    H138640   0.815   4.848   4.882
12899TIP3    H238641   0.741   4.944   4.973
12900TIP3   OH238642   5.993   5.550   5.295
12900TIP3    H138643   5.909   5.582   5.260
12900TIP3    H238644   5.986   5.455   5.290
12901TIP3   OH238645   0.718   1.441   6.587
12901TIP3    H138646   0.759   1.399   6.663
12901TIP3    H238647   0.786   1.444   6.520
12902TIP3   OH238648   6.771   2.657   0.526
12902TIP3    H138649   6.782   2.655   0.621
12902TIP3    H238650   6.848   2.612   0.492
12903TIP3   OH238651   6.319   0.193   2.139
12903TIP3    H138652   6.370   0.226   2.065
12903TIP3    H238653   6.269   0.268   2.169
12904TIP3   OH238654   1.100   6.784   6.031
12904TIP3    H138655   1.056   6.784   5.946
12904TIP3    H238656   1.183   6.738   6.015
12905TIP3   OH238657   5.829   1.105   2.290
12905TIP3    H138658   5.828   1.050   2.368
12905TIP3    H238659   5.901   1.072   2.238
12906TIP3   OH238660   8.008   7.317   1.813
12906TIP3    H138661   8.092   7.364   1.812
12906TIP3    H238662   7.943   7.383   1.788
12907TIP3   OH238663   6.199   4.310   3.351
12907TIP3    H138664   6.111   4.273   3.353
12907TIP3    H238665   6.208   4.354   3.436
12908TIP3   OH238666   1.882   5.548   5.250
12908TIP3    H138667   1.833   5.618   5.206
12908TIP3    H238668   1.969   5.551   5.210
12909TIP3   OH238669   1.892   0.692   1.419
12909TIP3    H138670   1.829   0.630   1.384
12909TIP3    H238671   1.966   0.638   1.447
12910TIP3   OH238672   3.551   2.597   3.496
12910TIP3    H138673   3.637   2.554   3.494
12910TIP3    H238674   3.493   2.536   3.450
12911TIP3   OH238675   0.788   7.576   1.469
12911TIP3    H138676   0.711   7.630   1.486
12911TIP3    H238677   0.844   7.632   1.415
12912TIP3   OH238678   5.659   5.377   1.528
12912TIP3    H138679   5.632   5.285   1.523
12912TIP3    H238680   5.745   5.379   1.485
12913TIP3   OH238681   1.013   7.772   0.453
12913TIP3    H138682   1.031   7.865   0.443
12913TIP3    H238683   1.000   7.760   0.547
12914TIP3   OH238684   5.890   5.895   0.305
12914TIP3    H138685   5.872   5.963   0.240
12914TIP3    H238686   5.985   5.883   0.301
12915TIP3   OH238687   1.376   3.287   4.283
12915TIP3    H138688   1.331   3.302   4.200
12915TIP3    H238689   1.401   3.195   4.281
12916TIP3   OH238690   4.160   0.753   0.529
12916TIP3    H138691   4.233   0.695   0.505
12916TIP3    H238692   4.190   0.841   0.506
12917TIP3   OH238693   6.149   2.475   6.705
12917TIP3    H138694   6.136   2.428   6.788
12917TIP3    H238695   6.060   2.492   6.673
12918TIP3   OH238696   1.200   5.037   2.420
12918TIP3    H138697   1.207   4.978   2.495
12918TIP3    H238698   1.117   5.083   2.435
12919TIP3   OH238699   3.512   3.381   4.494
12919TIP3    H138700   3.470   3.461   4.527
12919TIP3    H238701   3.534   3.402   4.404
12920TIP3   OH238702   5.413   4.950   4.377
12920TIP3    H138703   5.347   4.961   4.446
12920TIP3    H238704   5.433   5.040   4.349
12921TIP3   OH238705   6.041   6.810   1.576
12921TIP3    H138706   5.946   6.797   1.578
12921TIP3    H238707   6.060   6.865   1.652
12922TIP3   OH238708   7.948   6.703   3.014
12922TIP3    H138709   7.913   6.734   3.097
12922TIP3    H238710   8.043   6.718   3.021
12923TIP3   OH238711   4.617   2.908   3.838
12923TIP3    H138712   4.571   2.838   3.793
12923TIP3    H238713   4.709   2.894   3.819
12924TIP3   OH238714   6.381   6.495   5.202
12924TIP3    H138715   6.385   6.587   5.228
12924TIP3    H238716   6.461   6.456   5.238
12925TIP3   OH238717   3.354   7.316   2.836
12925TIP3    H138718   3.380   7.338   2.926
12925TIP3    H238719   3.267   7.356   2.827
12926TIP3   OH238720   5.022   2.999   1.223
12926TIP3    H138721   5.006   3.007   1.317
12926TIP3    H238722   5.009   2.906   1.205
12927TIP3   OH238723   5.697   0.683   2.936
12927TIP3    H138724   5.786   0.683   2.970
12927TIP3    H238725   5.645   0.728   3.003
12928TIP3   OH238726   6.901   3.593   2.762
12928TIP3    H138727   6.954   3.672   2.776
12928TIP3    H238728   6.854   3.610   2.681
12929TIP3   OH238729   7.386   5.703   1.230
12929TIP3    H138730   7.365   5.741   1.316
12929TIP3    H238731   7.311   5.726   1.175
12930TIP3   OH238732   7.390   5.988   6.762
12930TIP3    H138733   7.318   6.051   6.757
12930TIP3    H238734   7.465   6.034   6.724
12931TIP3   OH238735   6.769   2.605   0.794
12931TIP3    H138736   6.701   2.565   0.740
12931TIP3    H238737   6.765   2.557   0.877
12932TIP3   OH238738   5.657   7.626   2.130
12932TIP3    H138739   5.584   7.564   2.136
12932TIP3    H238740   5.693   7.629   2.218
12933TIP3   OH238741   8.038   3.401   4.366
12933TIP3    H138742   8.117   3.443   4.331
12933TIP3    H238743   8.047   3.309   4.341
12934TIP3   OH238744   6.540   1.460   3.997
12934TIP3    H138745   6.549   1.518   3.922
12934TIP3    H238746   6.508   1.377   3.959
12935TIP3   OH238747   4.501   6.085   6.596
12935TIP3    H138748   4.559   6.160   6.582
12935TIP3    H238749   4.547   6.030   6.659
12936TIP3   OH238750   6.842   5.761   1.247
12936TIP3    H138751   6.846   5.740   1.154
12936TIP3    H238752   6.774   5.829   1.254
12937TIP3   OH238753   0.237   2.478   3.154
12937TIP3    H138754   0.252   2.572   3.140
12937TIP3    H238755   0.317   2.447   3.196
12938TIP3   OH238756   7.214   2.758   2.754
12938TIP3    H138757   7.249   2.680   2.711
12938TIP3    H238758   7.149   2.792   2.693
12939TIP3   OH238759   2.982   1.028   0.172
12939TIP3    H138760   2.934   0.998   0.248
12939TIP3    H238761   3.007   1.118   0.193
12940TIP3   OH238762   2.715   4.167   1.319
12940TIP3    H138763   2.742   4.103   1.385
12940TIP3    H238764   2.769   4.244   1.336
12941TIP3   OH238765   2.048   6.468   5.195
12941TIP3    H138766   2.061   6.375   5.178
12941TIP3    H238767   2.085   6.513   5.119
12942TIP3   OH238768   1.834   4.786   6.206
12942TIP3    H138769   1.755   4.756   6.251
12942TIP3    H238770   1.807   4.801   6.116
12943TIP3   OH238771   8.157   6.672   6.009
12943TIP3    H138772   8.209   6.597   5.979
12943TIP3    H238773   8.143   6.724   5.930
12944TIP3   OH238774   4.940   6.938   5.004
12944TIP3    H138775   4.990   6.859   5.021
12944TIP3    H238776   4.916   6.932   4.911
12945TIP3   OH238777   3.452   1.329   2.080
12945TIP3    H138778   3.402   1.297   2.154
12945TIP3    H238779   3.543   1.330   2.110
12946TIP3   OH238780   2.115   1.507   6.567
12946TIP3    H138781   2.112   1.602   6.574
12946TIP3    H238782   2.151   1.490   6.480
12947TIP3   OH238783   0.518   3.184   4.625
12947TIP3    H138784   0.526   3.171   4.719
12947TIP3    H238785   0.429   3.219   4.613
12948TIP3   OH238786   8.040   0.678   3.604
12948TIP3    H138787   8.029   0.672   3.509
12948TIP3    H238788   8.125   0.637   3.621
12949TIP3   OH238789   5.219   2.925   5.667
12949TIP3    H138790   5.153   2.992   5.686
12949TIP3    H238791   5.174   2.842   5.681
12950TIP3   OH238792   4.364   1.640   5.910
12950TIP3    H138793   4.270   1.656   5.919
12950TIP3    H238794   4.398   1.647   6.000
12951TIP3   OH238795   7.651   7.704   4.154
12951TIP3    H138796   7.601   7.636   4.109
12951TIP3    H238797   7.667   7.770   4.087
12952TIP3   OH238798   3.540   5.837   3.406
12952TIP3    H138799   3.507   5.925   3.422
12952TIP3    H238800   3.532   5.825   3.311
12953TIP3   OH238801   6.032   7.738   1.047
12953TIP3    H138802   5.980   7.810   1.084
12953TIP3    H238803   6.117   7.745   1.090
12954TIP3   OH238804   5.653   1.967   1.162
12954TIP3    H138805   5.604   1.957   1.080
12954TIP3    H238806   5.585   1.971   1.230
12955TIP3   OH238807   2.865   3.845   4.513
12955TIP3    H138808   2.793   3.875   4.457
12955TIP3    H238809   2.924   3.921   4.518
12956TIP3   OH238810   3.192   5.556   4.357
12956TIP3    H138811   3.231   5.527   4.439
12956TIP3    H238812   3.217   5.647   4.348
12957TIP3   OH238813   4.453   6.843   6.509
12957TIP3    H138814   4.367   6.885   6.496
12957TIP3    H238815   4.461   6.833   6.604
12958TIP3   OH238816   1.080   0.310   1.441
12958TIP3    H138817   1.056   0.354   1.360
12958TIP3    H238818   1.009   0.247   1.456
12959TIP3   OH238819   7.106   5.675   6.409
12959TIP3    H138820   7.099   5.581   6.389
12959TIP3    H238821   7.071   5.682   6.498
12960TIP3   OH238822   1.453   5.021   1.088
12960TIP3    H138823   1.436   5.055   1.000
12960TIP3    H238824   1.457   4.926   1.077
12961TIP3   OH238825   5.703   6.538   2.050
12961TIP3    H138826   5.690   6.458   2.100
12961TIP3    H238827   5.783   6.523   2.000
12962TIP3   OH238828   4.872   1.963   6.722
12962TIP3    H138829   4.899   1.878   6.685
12962TIP3    H238830   4.937   2.025   6.690
12963TIP3   OH238831   7.764   2.553   6.615
12963TIP3    H138832   7.857   2.571   6.620
12963TIP3    H238833   7.752   2.472   6.665
12964TIP3   OH238834   1.696   1.377   3.660
12964TIP3    H138835   1.668   1.448   3.602
12964TIP3    H238836   1.770   1.413   3.709
12965TIP3   OH238837   4.814   7.294   5.118
12965TIP3    H138838   4.840   7.339   5.199
12965TIP3    H238839   4.879   7.225   5.107
12966TIP3   OH238840   7.672   7.630   2.056
12966TIP3    H138841   7.762   7.635   2.025
12966TIP3    H238842   7.671   7.684   2.135
12967TIP3   OH238843   6.995   2.847   1.887
12967TIP3    H138844   6.995   2.942   1.900
12967TIP3    H238845   6.917   2.817   1.933
12968TIP3   OH238846   3.234   7.624   4.178
12968TIP3    H138847   3.175   7.585   4.243
12968TIP3    H238848   3.193   7.708   4.156
12969TIP3   OH238849   0.242   4.385  -0.049
12969TIP3    H138850   0.218   4.477  -0.062
12969TIP3    H238851   0.159   4.337  -0.055
12970TIP3   OH238852   2.004   0.983   1.708
12970TIP3    H138853   2.066   1.011   1.641
12970TIP3    H238854   2.055   0.984   1.789
12971TIP3   OH238855   2.189   3.493   0.370
12971TIP3    H138856   2.129   3.555   0.411
12971TIP3    H238857   2.176   3.412   0.419
12972TIP3   OH238858   7.716   6.517   6.193
12972TIP3    H138859   7.621   6.508   6.189
12972TIP3    H238860   7.731   6.612   6.189
12973TIP3   OH238861   0.369   5.405   5.195
12973TIP3    H138862   0.464   5.400   5.184
12973TIP3    H238863   0.355   5.471   5.262
12974TIP3   OH238864   5.036   3.411   4.400
12974TIP3    H138865   5.096   3.416   4.325
12974TIP3    H238866   5.056   3.326   4.441
12975TIP3   OH238867   3.324   6.008   4.071
12975TIP3    H138868   3.410   6.008   4.112
12975TIP3    H238869   3.281   6.086   4.106
12976TIP3   OH238870   4.032   1.567   3.201
12976TIP3    H138871   3.954   1.522   3.234
12976TIP3    H238872   4.086   1.496   3.164
12977TIP3   OH238873   1.710   4.566   5.453
12977TIP3    H138874   1.754   4.621   5.387
12977TIP3    H238875   1.648   4.625   5.495
12978TIP3   OH238876   7.009   5.146   6.241
12978TIP3    H138877   7.007   5.115   6.332
12978TIP3    H238878   6.919   5.135   6.210
12979TIP3   OH238879   4.637   1.875   1.652
12979TIP3    H138880   4.580   1.807   1.688
12979TIP3    H238881   4.666   1.924   1.729
12980TIP3   OH238882   4.402   2.101   5.669
12980TIP3    H138883   4.322   2.069   5.628
12980TIP3    H238884   4.418   2.185   5.627
12981TIP3   OH238885   4.345   6.078   5.415
12981TIP3    H138886   4.414   6.138   5.387
12981TIP3    H238887   4.273   6.134   5.441
12982TIP3   OH238888   7.869   7.011   5.898
12982TIP3    H138889   7.902   7.041   5.813
12982TIP3    H238890   7.814   6.936   5.878
12983TIP3   OH238891   5.483   3.383   1.474
12983TIP3    H138892   5.518   3.318   1.535
12983TIP3    H238893   5.409   3.340   1.431
12984TIP3   OH238894   4.693   4.489   2.437
12984TIP3    H138895   4.781   4.489   2.398
12984TIP3    H238896   4.647   4.560   2.394
12985TIP3   OH238897   2.328   7.736   1.112
12985TIP3    H138898   2.348   7.684   1.033
12985TIP3    H238899   2.263   7.800   1.083
12986TIP3   OH238900   5.275   6.230   0.685
12986TIP3    H138901   5.315   6.180   0.613
12986TIP3    H238902   5.309   6.318   0.673
12987TIP3   OH238903   5.399   5.292   2.230
12987TIP3    H138904   5.436   5.371   2.192
12987TIP3    H238905   5.380   5.235   2.156
12988TIP3   OH238906   3.245   4.716   1.924
12988TIP3    H138907   3.290   4.674   1.997
12988TIP3    H238908   3.204   4.794   1.962
12989TIP3   OH238909   1.259   2.377   0.867
12989TIP3    H138910   1.247   2.285   0.890
12989TIP3    H238911   1.251   2.379   0.772
12990TIP3   OH238912   7.569   7.311   6.324
12990TIP3    H138913   7.536   7.223   6.346
12990TIP3    H238914   7.584   7.352   6.409
12991TIP3   OH238915   7.918   0.080   6.539
12991TIP3    H138916   7.900  -0.011   6.564
12991TIP3    H238917   7.894   0.084   6.446
12992TIP3   OH238918   1.049   0.766   0.176
12992TIP3    H138919   1.040   0.706   0.250
12992TIP3    H238920   0.959   0.779   0.145
12993TIP3   OH238921   0.204   2.906   0.629
12993TIP3    H138922   0.176   2.899   0.537
12993TIP3    H238923   0.124   2.891   0.679
12994TIP3   OH238924   5.987   1.389   1.590
12994TIP3    H138925   5.998   1.358   1.680
12994TIP3    H238926   6.076   1.387   1.553
12995TIP3   OH238927   8.198   5.679   3.187
12995TIP3    H138928   8.196   5.726   3.270
12995TIP3    H238929   8.250   5.600   3.204
12996TIP3   OH238930   0.662   7.306   5.907
12996TIP3    H138931   0.728   7.363   5.946
12996TIP3    H238932   0.670   7.224   5.954
12997TIP3   OH238933   4.654   2.120   3.631
12997TIP3    H138934   4.745   2.127   3.602
12997TIP3    H238935   4.635   2.205   3.670
12998TIP3   OH238936   1.967   4.179   0.536
12998TIP3    H138937   1.960   4.221   0.621
12998TIP3    H238938   1.904   4.107   0.540
12999TIP3   OH238939   8.026   3.122   3.004
12999TIP3    H138940   7.956   3.186   3.014
12999TIP3    H238941   8.066   3.117   3.091
13000TIP3   OH238942   7.416   4.741   3.051
13000TIP3    H138943   7.418   4.745   3.147
13000TIP3    H238944   7.470   4.815   3.023
13001TIP3   OH238945   2.494   5.714   1.861
13001TIP3    H138946   2.424   5.665   1.904
13001TIP3    H238947   2.502   5.674   1.774
13002TIP3   OH238948   3.346   6.725   4.529
13002TIP3    H138949   3.332   6.725   4.624
13002TIP3    H238950   3.386   6.810   4.510
13003TIP3   OH238951   5.802   3.706   2.268
13003TIP3    H138952   5.856   3.784   2.256
13003TIP3    H238953   5.842   3.660   2.342
13004TIP3   OH238954   0.927   1.075   2.465
13004TIP3    H138955   1.018   1.057   2.440
13004TIP3    H238956   0.905   1.156   2.419
13005TIP3   OH238957   8.130   7.811   5.352
13005TIP3    H138958   8.116   7.851   5.438
13005TIP3    H238959   8.222   7.787   5.352
13006TIP3   OH238960   2.695   1.747   0.643
13006TIP3    H138961   2.668   1.724   0.732
13006TIP3    H238962   2.613   1.748   0.593
13007TIP3   OH238963   4.299   6.976   4.420
13007TIP3    H138964   4.270   6.946   4.333
13007TIP3    H238965   4.291   6.898   4.475
13008TIP3   OH238966   3.665   1.594   1.619
13008TIP3    H138967   3.743   1.602   1.563
13008TIP3    H238968   3.653   1.500   1.632
13009TIP3   OH238969   3.737   1.818   1.018
13009TIP3    H138970   3.677   1.855   1.082
13009TIP3    H238971   3.684   1.807   0.939
13010TIP3   OH238972   2.479   4.581   0.085
13010TIP3    H138973   2.390   4.568   0.055
13010TIP3    H238974   2.524   4.499   0.063
13011TIP3   OH238975   2.697   7.450   4.773
13011TIP3    H138976   2.702   7.535   4.816
13011TIP3    H238977   2.747   7.460   4.692
13012TIP3   OH238978   7.800   7.610   2.950
13012TIP3    H138979   7.840   7.590   2.865
13012TIP3    H238980   7.720   7.658   2.929
13013TIP3   OH238981   6.329   2.533   3.707
13013TIP3    H138982   6.404   2.487   3.746
13013TIP3    H238983   6.292   2.469   3.645
13014TIP3   OH238984   4.428   7.162   4.275
13014TIP3    H138985   4.403   7.099   4.342
13014TIP3    H238986   4.520   7.142   4.256
13015TIP3   OH238987   5.132   5.649   4.874
13015TIP3    H138988   5.191   5.669   4.947
13015TIP3    H238989   5.046   5.681   4.903
13016TIP3   OH238990   6.882   1.570   2.968
13016TIP3    H138991   6.821   1.555   3.040
13016TIP3    H238992   6.886   1.665   2.959
13017TIP3   OH238993   6.739   2.241   3.867
13017TIP3    H138994   6.678   2.179   3.827
13017TIP3    H238995   6.788   2.189   3.930
13018TIP3   OH238996   7.395   3.688   5.713
13018TIP3    H138997   7.346   3.657   5.790
13018TIP3    H238998   7.357   3.641   5.639
13019TIP3   OH238999   1.012   0.647   0.968
13019TIP3    H139000   0.992   0.736   0.940
13019TIP3    H239001   1.103   0.650   0.997
13020TIP3   OH239002   5.938   1.096   4.999
13020TIP3    H139003   5.904   1.028   4.942
13020TIP3    H239004   5.866   1.158   5.009
13021TIP3   OH239005   0.290   4.673   5.837
13021TIP3    H139006   0.291   4.674   5.742
13021TIP3    H239007   0.228   4.604   5.860
13022TIP3   OH239008   1.470   6.827   1.448
13022TIP3    H139009   1.448   6.749   1.500
13022TIP3    H239010   1.483   6.896   1.513
13023TIP3   OH239011   0.885   2.497   6.128
13023TIP3    H139012   0.950   2.541   6.073
13023TIP3    H239013   0.825   2.566   6.155
13024TIP3   OH239014   0.207   1.135   3.136
13024TIP3    H139015   0.285   1.114   3.187
13024TIP3    H239016   0.185   1.225   3.161
13025TIP3   OH239017   1.224   5.689   4.400
13025TIP3    H139018   1.154   5.727   4.453
13025TIP3    H239019   1.250   5.611   4.447
13026TIP3   OH239020   3.965   0.132   3.233
13026TIP3    H139021   3.914   0.153   3.154
13026TIP3    H239022   3.949   0.206   3.292
13027TIP3   OH239023   3.078   1.565   0.801
13027TIP3    H139024   3.095   1.493   0.740
13027TIP3    H239025   3.134   1.548   0.876
13028TIP3   OH239026   0.957   0.191   4.285
13028TIP3    H139027   1.018   0.265   4.284
13028TIP3    H239028   0.929   0.183   4.194
13029TIP3   OH239029   6.451   1.242   3.869
13029TIP3    H139030   6.364   1.202   3.860
13029TIP3    H239031   6.510   1.182   3.822
13030TIP3   OH239032   0.607   0.198   0.419
13030TIP3    H139033   0.562   0.265   0.470
13030TIP3    H239034   0.571   0.115   0.450
13031TIP3   OH239035   4.091   1.821   3.760
13031TIP3    H139036   4.034   1.744   3.765
13031TIP3    H239037   4.051   1.876   3.693
13032TIP3   OH239038   3.519   5.649   2.440
13032TIP3    H139039   3.604   5.628   2.477
13032TIP3    H239040   3.458   5.589   2.485
13033TIP3   OH239041   7.955   5.671   4.967
13033TIP3    H139042   7.934   5.679   4.875
13033TIP3    H239043   8.047   5.699   4.974
13034TIP3   OH239044   7.242   2.877   1.510
13034TIP3    H139045   7.276   2.877   1.599
13034TIP3    H239046   7.146   2.874   1.520
13035TIP3   OH239047   2.345   2.364   0.756
13035TIP3    H139048   2.439   2.361   0.735
13035TIP3    H239049   2.328   2.455   0.777
13036TIP3   OH239050   1.186   6.628   0.997
13036TIP3    H139051   1.259   6.567   0.997
13036TIP3    H239052   1.108   6.573   0.989
13037TIP3   OH239053   2.974   0.099   0.095
13037TIP3    H139054   2.903   0.140   0.143
13037TIP3    H239055   3.052   0.111   0.149
13038TIP3   OH239056   7.553   3.592   3.231
13038TIP3    H139057   7.520   3.590   3.142
13038TIP3    H239058   7.529   3.507   3.268
13039TIP3   OH239059   5.003   0.576   0.863
13039TIP3    H139060   5.005   0.599   0.770
13039TIP3    H239061   4.966   0.653   0.906
13040TIP3   OH239062   1.436   3.059   5.731
13040TIP3    H139063   1.372   3.063   5.660
13040TIP3    H239064   1.384   3.053   5.811
13041TIP3   OH239065   4.700   1.272   4.154
13041TIP3    H139066   4.768   1.339   4.148
13041TIP3    H239067   4.643   1.301   4.225
13042TIP3   OH239068   8.051   5.447   6.418
13042TIP3    H139069   7.976   5.505   6.433
13042TIP3    H239070   8.078   5.419   6.505
13043TIP3   OH239071   7.173   3.206   3.876
13043TIP3    H139072   7.107   3.137   3.872
13043TIP3    H239073   7.215   3.194   3.961
13044TIP3   OH239074   6.983   4.039   4.521
13044TIP3    H139075   6.976   4.066   4.612
13044TIP3    H239076   7.055   4.092   4.486
13045TIP3   OH239077   0.814   0.343   3.656
13045TIP3    H139078   0.742   0.367   3.598
13045TIP3    H239079   0.886   0.322   3.597
13046TIP3   OH239080   3.211   5.892   6.169
13046TIP3    H139081   3.257   5.940   6.100
13046TIP3    H239082   3.274   5.825   6.197
13047TIP3   OH239083   0.519   2.259   3.012
13047TIP3    H139084   0.586   2.260   3.080
13047TIP3    H239085   0.543   2.184   2.956
13048TIP3   OH239086   6.435   1.762   5.997
13048TIP3    H139087   6.515   1.809   5.974
13048TIP3    H239088   6.379   1.828   6.037
13049TIP3   OH239089   2.008   2.933   0.522
13049TIP3    H139090   2.015   2.872   0.448
13049TIP3    H239091   1.981   3.016   0.483
13050TIP3   OH239092   6.034   4.980   3.191
13050TIP3    H139093   5.942   4.953   3.180
13050TIP3    H239094   6.074   4.963   3.106
13051TIP3   OH239095   1.141   0.766   5.508
13051TIP3    H139096   1.139   0.797   5.417
13051TIP3    H239097   1.072   0.817   5.551
13052TIP3   OH239098   5.762   4.532   5.668
13052TIP3    H139099   5.670   4.527   5.695
13052TIP3    H239100   5.763   4.596   5.597
13053TIP3   OH239101   0.929   7.793   2.768
13053TIP3    H139102   1.021   7.786   2.742
13053TIP3    H239103   0.919   7.728   2.838
13054TIP3   OH239104   4.678   3.122   0.255
13054TIP3    H139105   4.709   3.197   0.205
13054TIP3    H239106   4.669   3.154   0.345
13055TIP3   OH239107   0.573   0.065   1.759
13055TIP3    H139108   0.595  -0.024   1.733
13055TIP3    H239109   0.533   0.055   1.845
13056TIP3   OH239110   4.186   7.798   5.681
13056TIP3    H139111   4.129   7.868   5.648
13056TIP3    H239112   4.141   7.717   5.656
13057TIP3   OH239113   8.272   6.920   1.942
13057TIP3    H139114   8.285   6.927   2.037
13057TIP3    H239115   8.310   6.836   1.918
13058TIP3   OH239116   5.500   2.293   0.940
13058TIP3    H139117   5.487   2.254   0.854
13058TIP3    H239118   5.450   2.237   0.999
13059TIP3   OH239119   3.735   6.645   5.406
13059TIP3    H139120   3.724   6.711   5.474
13059TIP3    H239121   3.670   6.578   5.426
13060TIP3   OH239122   3.727   2.963   3.943
13060TIP3    H139123   3.789   2.898   3.977
13060TIP3    H239124   3.724   3.031   4.010
13061TIP3   OH239125   4.211   1.099   1.862
13061TIP3    H139126   4.184   1.075   1.951
13061TIP3    H239127   4.131   1.093   1.810
13062TIP3   OH239128   5.696   5.055   5.023
13062TIP3    H139129   5.711   4.981   5.082
13062TIP3    H239130   5.655   5.121   5.079
13063TIP3   OH239131   4.676   2.680   0.897
13063TIP3    H139132   4.771   2.683   0.884
13063TIP3    H239133   4.665   2.694   0.991
13064TIP3   OH239134   5.779   5.582   2.558
13064TIP3    H139135   5.866   5.620   2.572
13064TIP3    H239136   5.774   5.510   2.621
13065TIP3   OH239137   5.875   4.211   2.891
13065TIP3    H139138   5.906   4.211   2.801
13065TIP3    H239139   5.898   4.298   2.925
13066TIP3   OH239140   6.952   7.800   4.071
13066TIP3    H139141   6.883   7.812   4.006
13066TIP3    H239142   7.025   7.762   4.022
13067TIP3   OH239143   5.622   5.167   5.931
13067TIP3    H139144   5.552   5.158   5.995
13067TIP3    H239145   5.590   5.234   5.870
13068TIP3   OH239146   3.699   1.278   0.091
13068TIP3    H139147   3.787   1.241   0.103
13068TIP3    H239148   3.664   1.233   0.015
13069TIP3   OH239149   0.636   4.875   3.021
13069TIP3    H139150   0.590   4.886   3.104
13069TIP3    H239151   0.692   4.952   3.014
13070TIP3   OH239152   8.217   0.775   5.386
13070TIP3    H139153   8.285   0.709   5.397
13070TIP3    H239154   8.135   0.726   5.379
13071TIP3   OH239155   7.132   0.012   3.679
13071TIP3    H139156   7.083   0.013   3.761
13071TIP3    H239157   7.163  -0.078   3.670
13072TIP3   OH239158   0.894   6.837   2.320
13072TIP3    H139159   0.975   6.787   2.308
13072TIP3    H239160   0.834   6.775   2.363
13073TIP3   OH239161   3.235   1.800   0.622
13073TIP3    H139162   3.209   1.872   0.565
13073TIP3    H239163   3.172   1.730   0.602
13074TIP3   OH239164   4.220   7.398   5.665
13074TIP3    H139165   4.146   7.406   5.604
13074TIP3    H239166   4.294   7.372   5.611
13075TIP3   OH239167   7.013   3.617   2.387
13075TIP3    H139168   6.918   3.627   2.379
13075TIP3    H239169   7.041   3.695   2.434
13076TIP3   OH239170   2.421   1.169   5.468
13076TIP3    H139171   2.398   1.252   5.510
13076TIP3    H239172   2.384   1.176   5.379
13077TIP3   OH239173   6.299   3.570   6.327
13077TIP3    H139174   6.276   3.650   6.279
13077TIP3    H239175   6.394   3.574   6.337
13078TIP3   OH239176   3.406   4.584   1.561
13078TIP3    H139177   3.480   4.616   1.613
13078TIP3    H239178   3.434   4.498   1.530
13079TIP3   OH239179   1.461   6.751   3.089
13079TIP3    H139180   1.398   6.810   3.047
13079TIP3    H239181   1.545   6.795   3.079
13080TIP3   OH239182   3.157   5.582   2.521
13080TIP3    H139183   3.201   5.652   2.570
13080TIP3    H239184   3.176   5.601   2.429
13081TIP3   OH239185   1.728   3.759   0.481
13081TIP3    H139186   1.710   3.686   0.539
13081TIP3    H239187   1.723   3.722   0.393
13082TIP3   OH239188   4.059   7.772   0.884
13082TIP3    H139189   3.984   7.824   0.856
13082TIP3    H239190   4.033   7.681   0.870
13083TIP3   OH239191   3.821   3.266   1.804
13083TIP3    H139192   3.888   3.223   1.858
13083TIP3    H239193   3.764   3.195   1.777
13084TIP3   OH239194   6.088   1.704   0.393
13084TIP3    H139195   6.079   1.622   0.441
13084TIP3    H239196   6.029   1.695   0.318
13085TIP3   OH239197   3.640   4.371   0.132
13085TIP3    H139198   3.697   4.384   0.208
13085TIP3    H239199   3.551   4.383   0.167
13086TIP3   OH239200   4.280   2.374   4.881
13086TIP3    H139201   4.233   2.325   4.814
13086TIP3    H239202   4.278   2.465   4.851
13087TIP3   OH239203   5.230   2.945   6.376
13087TIP3    H139204   5.163   3.011   6.393
13087TIP3    H239205   5.203   2.903   6.294
13088TIP3   OH239206   1.051   0.782   3.945
13088TIP3    H139207   0.976   0.812   3.894
13088TIP3    H239208   1.034   0.815   4.033
13089TIP3   OH239209   2.428   6.839   5.292
13089TIP3    H139210   2.481   6.760   5.280
13089TIP3    H239211   2.343   6.817   5.253
13090TIP3   OH239212   7.052   5.528   2.465
13090TIP3    H139213   6.963   5.541   2.433
13090TIP3    H239214   7.079   5.445   2.426
13091TIP3   OH239215   3.176   1.142   1.603
13091TIP3    H139216   3.170   1.076   1.672
13091TIP3    H239217   3.266   1.173   1.607
13092TIP3   OH239218   6.435   6.738   2.238
13092TIP3    H139219   6.519   6.752   2.282
13092TIP3    H239220   6.405   6.825   2.212
13093TIP3   OH239221   2.778   1.064   6.250
13093TIP3    H139222   2.710   1.099   6.193
13093TIP3    H239223   2.804   0.981   6.210
13094TIP3   OH239224   5.335   7.701   0.528
13094TIP3    H139225   5.275   7.768   0.496
13094TIP3    H239226   5.422   7.742   0.523
13095TIP3   OH239227   1.639   7.512   4.050
13095TIP3    H139228   1.730   7.525   4.078
13095TIP3    H239229   1.646   7.474   3.963
13096TIP3   OH239230   4.296   6.794   2.547
13096TIP3    H139231   4.212   6.764   2.584
13096TIP3    H239232   4.349   6.714   2.544
13097TIP3   OH239233   5.639   6.614   5.645
13097TIP3    H139234   5.604   6.559   5.575
13097TIP3    H239235   5.734   6.603   5.638
13098TIP3   OH239236   5.245   3.841   3.438
13098TIP3    H139237   5.257   3.924   3.393
13098TIP3    H239238   5.156   3.846   3.474
13099TIP3   OH239239   5.737   0.631   1.360
13099TIP3    H139240   5.709   0.542   1.383
13099TIP3    H239241   5.712   0.642   1.269
13100TIP3   OH239242   0.982   4.220   4.785
13100TIP3    H139243   1.024   4.137   4.809
13100TIP3    H239244   0.946   4.253   4.867
13101TIP3   OH239245   0.942   5.028   5.360
13101TIP3    H139246   1.004   5.003   5.428
13101TIP3    H239247   0.877   5.082   5.405
13102TIP3   OH239248   2.200   2.326   2.490
13102TIP3    H139249   2.229   2.286   2.408
13102TIP3    H239250   2.210   2.257   2.555
13103TIP3   OH239251   5.240   1.851   2.614
13103TIP3    H139252   5.156   1.875   2.574
13103TIP3    H239253   5.247   1.756   2.602
13104TIP3   OH239254   0.769   4.069   3.169
13104TIP3    H139255   0.773   4.075   3.073
13104TIP3    H239256   0.743   3.978   3.186
13105TIP3   OH239257   4.701   0.551   5.714
13105TIP3    H139258   4.620   0.522   5.756
13105TIP3    H239259   4.758   0.576   5.787
13106TIP3   OH239260   3.995   0.890   6.498
13106TIP3    H139261   4.049   0.969   6.496
13106TIP3    H239262   3.984   0.871   6.591
13107TIP3   OH239263   2.814   4.104   4.230
13107TIP3    H139264   2.822   4.019   4.188
13107TIP3    H239265   2.882   4.104   4.298
13108TIP3   OH239266   6.239   2.517   1.541
13108TIP3    H139267   6.159   2.465   1.550
13108TIP3    H239268   6.272   2.526   1.631
13109TIP3   OH239269   6.233   1.365   4.597
13109TIP3    H139270   6.203   1.282   4.634
13109TIP3    H239271   6.288   1.339   4.523
13110TIP3   OH239272   8.134   1.118   1.736
13110TIP3    H139273   8.195   1.150   1.802
13110TIP3    H239274   8.048   1.125   1.778
13111TIP3   OH239275   6.473   7.614   0.784
13111TIP3    H139276   6.467   7.597   0.690
13111TIP3    H239277   6.558   7.655   0.796
13112TIP3   OH239278   4.168   5.149   5.030
13112TIP3    H139279   4.113   5.179   4.957
13112TIP3    H239280   4.257   5.149   4.995
13113TIP3   OH239281   2.400   6.991   6.649
13113TIP3    H139282   2.369   7.025   6.733
13113TIP3    H239283   2.418   6.899   6.666
13114TIP3   OH239284   2.443   1.215   1.671
13114TIP3    H139285   2.527   1.186   1.708
13114TIP3    H239286   2.436   1.168   1.588
13115TIP3   OH239287   4.485   3.390   5.328
13115TIP3    H139288   4.456   3.434   5.408
13115TIP3    H239289   4.517   3.305   5.357
13116TIP3   OH239290   5.971   7.366   3.258
13116TIP3    H139291   5.949   7.280   3.221
13116TIP3    H239292   6.063   7.358   3.283
13117TIP3   OH239293   4.662   1.539   1.569
13117TIP3    H139294   4.592   1.552   1.633
13117TIP3    H239295   4.657   1.446   1.546
13118TIP3   OH239296   6.224   5.779   3.796
13118TIP3    H139297   6.172   5.764   3.716
13118TIP3    H239298   6.315   5.775   3.767
13119TIP3   OH239299   4.856   0.350   0.582
13119TIP3    H139300   4.946   0.356   0.553
13119TIP3    H239301   4.814   0.290   0.520
13120TIP3   OH239302   7.001   2.205   3.177
13120TIP3    H139303   6.941   2.154   3.231
13120TIP3    H239304   7.086   2.165   3.190
13121TIP3   OH239305   3.723   2.705   6.622
13121TIP3    H139306   3.641   2.660   6.643
13121TIP3    H239307   3.774   2.701   6.702
13122TIP3   OH239308   0.837   0.588   1.240
13122TIP3    H139309   0.849   0.661   1.180
13122TIP3    H239310   0.758   0.544   1.209
13123TIP3   OH239311   7.034   5.931   6.552
13123TIP3    H139312   7.039   5.839   6.580
13123TIP3    H239313   6.940   5.948   6.544
13124TIP3   OH239314   2.381   6.459   6.168
13124TIP3    H139315   2.413   6.446   6.258
13124TIP3    H239316   2.456   6.491   6.120
13125TIP3   OH239317   5.573   3.359   5.253
13125TIP3    H139318   5.513   3.333   5.184
13125TIP3    H239319   5.657   3.321   5.227
13126TIP3   OH239320   7.973   1.976   4.238
13126TIP3    H139321   8.008   1.953   4.325
13126TIP3    H239322   8.048   1.968   4.180
13127TIP3   OH239323   1.533   6.650   4.614
13127TIP3    H139324   1.537   6.602   4.697
13127TIP3    H239325   1.577   6.733   4.633
13128TIP3   OH239326   4.815   0.970   0.406
13128TIP3    H139327   4.866   1.016   0.340
13128TIP3    H239328   4.735   0.944   0.361
13129TIP3   OH239329   1.085   6.134   2.813
13129TIP3    H139330   1.034   6.075   2.758
13129TIP3    H239331   1.036   6.216   2.811
13130TIP3   OH239332   7.630   3.883   1.522
13130TIP3    H139333   7.560   3.948   1.516
13130TIP3    H239334   7.708   3.934   1.546
13131TIP3   OH239335   4.729   0.783   6.389
13131TIP3    H139336   4.677   0.723   6.442
13131TIP3    H239337   4.803   0.806   6.446
13132TIP3   OH239338   4.515   4.274   4.878
13132TIP3    H139339   4.607   4.250   4.877
13132TIP3    H239340   4.500   4.316   4.793
13133TIP3   OH239341   2.609   3.714   6.149
13133TIP3    H139342   2.601   3.752   6.062
13133TIP3    H239343   2.693   3.667   6.147
13134TIP3   OH239344   7.421   0.964   2.715
13134TIP3    H139345   7.419   1.007   2.800
13134TIP3    H239346   7.375   1.025   2.657
13135TIP3   OH239347   7.970   6.711   2.320
13135TIP3    H139348   8.041   6.691   2.382
13135TIP3    H239349   7.929   6.789   2.355
13136TIP3   OH239350   0.930   2.269   1.015
13136TIP3    H139351   1.004   2.264   1.075
13136TIP3    H239352   0.954   2.210   0.942
13137TIP3   OH239353   7.358   6.154   4.863
13137TIP3    H139354   7.374   6.097   4.938
13137TIP3    H239355   7.287   6.212   4.891
13138TIP3   OH239356   4.935   5.823   3.874
13138TIP3    H139357   4.852   5.842   3.919
13138TIP3    H239358   4.924   5.863   3.787
13139TIP3   OH239359   3.631   2.799   2.036
13139TIP3    H139360   3.541   2.799   2.002
13139TIP3    H239361   3.682   2.755   1.968
13140TIP3   OH239362   5.112   4.554   4.401
13140TIP3    H139363   5.077   4.617   4.465
13140TIP3    H239364   5.093   4.594   4.316
13141TIP3   OH239365   1.407   5.580   3.070
13141TIP3    H139366   1.328   5.635   3.066
13141TIP3    H239367   1.475   5.633   3.028
13142TIP3   OH239368   0.231   6.390   1.821
13142TIP3    H139369   0.264   6.474   1.787
13142TIP3    H239370   0.298   6.327   1.795
13143TIP3   OH239371   3.220   3.252   3.606
13143TIP3    H139372   3.278   3.242   3.682
13143TIP3    H239373   3.238   3.175   3.552
13144TIP3   OH239374   0.108   4.423   5.778
13144TIP3    H139375   0.037   4.487   5.776
13144TIP3    H239376   0.066   4.340   5.801
13145TIP3   OH239377   2.222   7.090   3.473
13145TIP3    H139378   2.270   7.154   3.420
13145TIP3    H239379   2.284   7.064   3.541
13146TIP3   OH239380   4.817   0.283   5.949
13146TIP3    H139381   4.881   0.227   5.906
13146TIP3    H239382   4.851   0.372   5.937
13147TIP3   OH239383   3.798   7.516   3.545
13147TIP3    H139384   3.890   7.495   3.561
13147TIP3    H239385   3.772   7.570   3.619
13148TIP3   OH239386   4.834   5.552   1.185
13148TIP3    H139387   4.826   5.592   1.098
13148TIP3    H239388   4.769   5.596   1.238
13149TIP3   OH239389   3.412   7.835   5.968
13149TIP3    H139390   3.348   7.845   6.039
13149TIP3    H239391   3.473   7.769   6.002
13150TIP3   OH239392   1.538   6.649   0.307
13150TIP3    H139393   1.476   6.598   0.256
13150TIP3    H239394   1.620   6.600   0.301
13151TIP3   OH239395   3.986   2.645   4.525
13151TIP3    H139396   3.933   2.618   4.450
13151TIP3    H239397   3.995   2.740   4.515
13152TIP3   OH239398   1.607   5.627   3.907
13152TIP3    H139399   1.561   5.709   3.895
13152TIP3    H239400   1.670   5.645   3.976
13153TIP3   OH239401   4.727   2.877   2.852
13153TIP3    H139402   4.640   2.840   2.867
13153TIP3    H239403   4.714   2.972   2.853
13154TIP3   OH239404   7.655   4.348   2.383
13154TIP3    H139405   7.709   4.281   2.341
13154TIP3    H239406   7.670   4.427   2.331
13155TIP3   OH239407   0.979   7.530   4.431
13155TIP3    H139408   0.982   7.562   4.341
13155TIP3    H239409   0.902   7.473   4.434
13156TIP3   OH239410   7.874   0.615   6.494
13156TIP3    H139411   7.944   0.550   6.491
13156TIP3    H239412   7.861   0.641   6.403
13157TIP3   OH239413   5.736   2.101   3.532
13157TIP3    H139414   5.690   2.082   3.614
13157TIP3    H239415   5.816   2.049   3.537
13158TIP3   OH239416   5.106   0.273   6.094
13158TIP3    H139417   5.074   0.256   6.005
13158TIP3    H239418   5.121   0.368   6.096
13159TIP3   OH239419   7.323   0.010   1.027
13159TIP3    H139420   7.272   0.009   0.946
13159TIP3    H239421   7.408   0.046   1.002
13160TIP3   OH239422   3.659   4.629   2.476
13160TIP3    H139423   3.750   4.658   2.488
13160TIP3    H239424   3.650   4.555   2.536
13161TIP3   OH239425   4.557   6.648   2.864
13161TIP3    H139426   4.493   6.712   2.893
13161TIP3    H239427   4.536   6.635   2.771
13162TIP3   OH239428   1.783   6.770   6.159
13162TIP3    H139429   1.787   6.783   6.254
13162TIP3    H239430   1.793   6.858   6.123
13163TIP3   OH239431   7.784   4.926   3.636
13163TIP3    H139432   7.808   4.834   3.646
13163TIP3    H239433   7.865   4.974   3.654
13164TIP3   OH239434   3.303   4.372   0.153
13164TIP3    H139435   3.330   4.460   0.178
13164TIP3    H239436   3.217   4.360   0.193
13165TIP3   OH239437   1.722   6.865   3.141
13165TIP3    H139438   1.733   6.948   3.186
13165TIP3    H239439   1.740   6.799   3.208
13166TIP3   OH239440   1.856   6.845   5.843
13166TIP3    H139441   1.800   6.921   5.859
13166TIP3    H239442   1.875   6.849   5.749
13167TIP3   OH239443   4.191   4.518   2.381
13167TIP3    H139444   4.135   4.463   2.325
13167TIP3    H239445   4.178   4.483   2.469
13168TIP3   OH239446   1.564   4.001   4.706
13168TIP3    H139447   1.638   4.062   4.713
13168TIP3    H239448   1.534   4.009   4.616
13169TIP3   OH239449   6.091   3.925   1.879
13169TIP3    H139450   6.055   3.932   1.967
13169TIP3    H239451   6.183   3.951   1.888
13170TIP3   OH239452   4.352   3.582   2.684
13170TIP3    H139453   4.328   3.668   2.719
13170TIP3    H239454   4.289   3.566   2.614
13171TIP3   OH239455   2.681   5.387   3.930
13171TIP3    H139456   2.640   5.400   4.015
13171TIP3    H239457   2.658   5.465   3.879
13172TIP3   OH239458   0.509   7.306   4.140
13172TIP3    H139459   0.464   7.302   4.224
13172TIP3    H239460   0.467   7.237   4.088
13173TIP3   OH239461   0.727   6.880   6.426
13173TIP3    H139462   0.818   6.851   6.415
13173TIP3    H239463   0.734   6.960   6.477
13174TIP3   OH239464   6.454   7.701   0.268
13174TIP3    H139465   6.459   7.788   0.307
13174TIP3    H239466   6.367   7.699   0.226
13175TIP3   OH239467   3.439   2.546   2.929
13175TIP3    H139468   3.404   2.457   2.919
13175TIP3    H239469   3.398   2.578   3.010
13176TIP3   OH239470   3.333   6.075   0.197
13176TIP3    H139471   3.366   6.163   0.218
13176TIP3    H239472   3.380   6.050   0.118
13177TIP3   OH239473   6.376   1.242   1.298
13177TIP3    H139474   6.347   1.198   1.379
13177TIP3    H239475   6.372   1.335   1.319
13178TIP3   OH239476   2.679   1.320   2.982
13178TIP3    H139477   2.754   1.282   3.028
13178TIP3    H239478   2.612   1.252   2.985
13179TIP3   OH239479   7.859   6.582   5.108
13179TIP3    H139480   7.924   6.548   5.047
13179TIP3    H239481   7.802   6.636   5.055
13180TIP3   OH239482   4.306   4.575   4.432
13180TIP3    H139483   4.226   4.623   4.409
13180TIP3    H239484   4.377   4.631   4.400
13181TIP3   OH239485   0.554   0.219   5.388
13181TIP3    H139486   0.553   0.135   5.342
13181TIP3    H239487   0.613   0.204   5.463
13182TIP3   OH239488   6.207   6.185   2.529
13182TIP3    H139489   6.274   6.218   2.588
13182TIP3    H239490   6.254   6.158   2.450
13183TIP3   OH239491   3.031   7.494   4.312
13183TIP3    H139492   2.965   7.476   4.245
13183TIP3    H239493   2.990   7.555   4.371
13184TIP3   OH239494   2.149   6.901   0.523
13184TIP3    H139495   2.068   6.887   0.476
13184TIP3    H239496   2.191   6.975   0.479
13185TIP3   OH239497   2.865   6.782   0.319
13185TIP3    H139498   2.834   6.759   0.231
13185TIP3    H239499   2.881   6.876   0.315
13186TIP3   OH239500   7.578   0.819   6.204
13186TIP3    H139501   7.539   0.906   6.211
13186TIP3    H239502   7.569   0.796   6.111
13187TIP3   OH239503   2.459   2.340   4.134
13187TIP3    H139504   2.529   2.351   4.069
13187TIP3    H239505   2.378   2.359   4.087
13188TIP3   OH239506   2.626   7.482   3.963
13188TIP3    H139507   2.565   7.408   3.971
13188TIP3    H239508   2.685   7.472   4.037
13189TIP3   OH239509   0.864   7.431   4.040
13189TIP3    H139510   0.791   7.395   4.091
13189TIP3    H239511   0.890   7.360   3.981
13190TIP3   OH239512   3.386   5.434   1.865
13190TIP3    H139513   3.465   5.423   1.812
13190TIP3    H239514   3.410   5.398   1.950
13191TIP3   OH239515   0.093   5.117   3.207
13191TIP3    H139516   0.004   5.112   3.171
13191TIP3    H239517   0.139   5.042   3.169
13192TIP3   OH239518   0.832   6.015   2.647
13192TIP3    H139519   0.759   6.076   2.641
13192TIP3    H239520   0.835   5.973   2.561
13193TIP3   OH239521   3.067   1.290   3.922
13193TIP3    H139522   3.000   1.234   3.883
13193TIP3    H239523   3.129   1.230   3.963
13194TIP3   OH239524   6.824   6.354   2.951
13194TIP3    H139525   6.902   6.409   2.960
13194TIP3    H239526   6.803   6.327   3.041
13195TIP3   OH239527   1.750   5.644   6.802
13195TIP3    H139528   1.662   5.674   6.822
13195TIP3    H239529   1.739   5.584   6.729
13196TIP3   OH239530   0.118   6.702   5.521
13196TIP3    H139531   0.042   6.708   5.463
13196TIP3    H239532   0.083   6.719   5.608
13197TIP3   OH239533   0.130   6.388   3.357
13197TIP3    H139534   0.186   6.352   3.426
13197TIP3    H239535   0.113   6.315   3.298
13198TIP3   OH239536   0.345   2.120   4.278
13198TIP3    H139537   0.390   2.039   4.303
13198TIP3    H239538   0.416   2.182   4.259
13199TIP3   OH239539   1.347   5.354   1.323
13199TIP3    H139540   1.345   5.260   1.311
13199TIP3    H239541   1.439   5.374   1.342
13200TIP3   OH239542   3.828   3.633   2.757
13200TIP3    H139543   3.850   3.720   2.788
13200TIP3    H239544   3.827   3.579   2.836
13201TIP3   OH239545   2.300   6.733   4.237
13201TIP3    H139546   2.277   6.691   4.320
13201TIP3    H239547   2.221   6.779   4.210
13202TIP3   OH239548   4.550   4.631   0.906
13202TIP3    H139549   4.545   4.558   0.844
13202TIP3    H239550   4.563   4.588   0.991
13203TIP3   OH239551   7.461   5.632   5.026
13203TIP3    H139552   7.413   5.615   5.107
13203TIP3    H239553   7.553   5.617   5.048
13204TIP3   OH239554   2.676   2.697   4.808
13204TIP3    H139555   2.641   2.607   4.803
13204TIP3    H239556   2.751   2.697   4.748
13205TIP3   OH239557   1.989   5.140   3.612
13205TIP3    H139558   1.977   5.227   3.574
13205TIP3    H239559   1.939   5.142   3.693
13206TIP3   OH239560   2.916   5.523   3.249
13206TIP3    H139561   2.892   5.443   3.202
13206TIP3    H239562   2.864   5.520   3.330
13207TIP3   OH239563   4.576   2.691   4.925
13207TIP3    H139564   4.636   2.616   4.931
13207TIP3    H239565   4.610   2.742   4.852
13208TIP3   OH239566   2.056   0.008   2.959
13208TIP3    H139567   2.060   0.049   2.872
13208TIP3    H239568   2.017   0.075   3.015
13209TIP3   OH239569   7.349   1.661   0.648
13209TIP3    H139570   7.345   1.739   0.703
13209TIP3    H239571   7.267   1.615   0.666
13210TIP3   OH239572   1.658   3.351   4.233
13210TIP3    H139573   1.693   3.322   4.317
13210TIP3    H239574   1.602   3.279   4.204
13211TIP3   OH239575   4.119   1.452   5.941
13211TIP3    H139576   4.068   1.506   5.880
13211TIP3    H239577   4.130   1.369   5.894
13212TIP3   OH239578   7.517   3.571   4.255
13212TIP3    H139579   7.545   3.652   4.214
13212TIP3    H239580   7.487   3.597   4.342
13213TIP3   OH239581   1.969   0.560   2.837
13213TIP3    H139582   1.883   0.598   2.822
13213TIP3    H239583   1.952   0.468   2.857
13214TIP3   OH239584   4.137   6.583   1.117
13214TIP3    H139585   4.176   6.522   1.180
13214TIP3    H239586   4.110   6.528   1.044
13215TIP3   OH239587   2.490   0.412   6.462
13215TIP3    H139588   2.419   0.458   6.417
13215TIP3    H239589   2.567   0.429   6.408
13216TIP3   OH239590   6.957   5.962   0.595
13216TIP3    H139591   6.985   6.042   0.640
13216TIP3    H239592   7.033   5.938   0.541
13217TIP3   OH239593   6.135   4.184   1.002
13217TIP3    H139594   6.152   4.149   0.915
13217TIP3    H239595   6.049   4.150   1.025
13218TIP3   OH239596   5.926   3.012   4.265
13218TIP3    H139597   5.931   3.070   4.189
13218TIP3    H239598   5.982   3.054   4.330
13219TIP3   OH239599   4.115   4.513   2.901
13219TIP3    H139600   4.063   4.518   2.821
13219TIP3    H239601   4.156   4.426   2.898
13220TIP3   OH239602   6.072   4.135   5.590
13220TIP3    H139603   6.044   4.202   5.528
13220TIP3    H239604   5.991   4.091   5.616
13221TIP3   OH239605   5.967   0.270   6.641
13221TIP3    H139606   6.041   0.326   6.617
13221TIP3    H239607   5.895   0.331   6.656
13222TIP3   OH239608   5.181   5.691   3.834
13222TIP3    H139609   5.207   5.663   3.921
13222TIP3    H239610   5.094   5.729   3.846
13223TIP3   OH239611   5.277   7.643   4.903
13223TIP3    H139612   5.352   7.584   4.891
13223TIP3    H239613   5.278   7.699   4.825
13224TIP3   OH239614   3.652   0.029   5.272
13224TIP3    H139615   3.672   0.057   5.362
13224TIP3    H239616   3.691   0.097   5.217
13225TIP3   OH239617   8.112   4.415   5.931
13225TIP3    H139618   8.041   4.378   5.983
13225TIP3    H239619   8.167   4.340   5.909
13226TIP3   OH239620   5.865   6.259   5.048
13226TIP3    H139621   5.933   6.327   5.054
13226TIP3    H239622   5.791   6.294   5.098
13227TIP3   OH239623   3.109   6.749   0.482
13227TIP3    H139624   3.045   6.758   0.413
13227TIP3    H239625   3.080   6.673   0.533
13228TIP3   OH239626   1.247   4.070   6.547
13228TIP3    H139627   1.229   4.022   6.628
13228TIP3    H239628   1.236   4.005   6.478
13229TIP3   OH239629   6.344   0.073   1.070
13229TIP3    H139630   6.354   0.105   0.980
13229TIP3    H239631   6.421   0.017   1.083
13230TIP3   OH239632   4.343   6.721   3.329
13230TIP3    H139633   4.302   6.709   3.415
13230TIP3    H239634   4.298   6.797   3.292
13231TIP3   OH239635   3.186   2.075   6.749
13231TIP3    H139636   3.175   2.167   6.772
13231TIP3    H239637   3.131   2.063   6.671
13232TIP3   OH239638   5.213   2.725   3.834
13232TIP3    H139639   5.277   2.671   3.881
13232TIP3    H239640   5.199   2.800   3.890
13233TIP3   OH239641   8.023   5.538   2.034
13233TIP3    H139642   8.094   5.573   2.088
13233TIP3    H239643   8.066   5.479   1.973
13234TIP3   OH239644   0.890   4.311   6.408
13234TIP3    H139645   0.842   4.370   6.466
13234TIP3    H239646   0.844   4.228   6.415
13235TIP3   OH239647   2.967   7.366   6.681
13235TIP3    H139648   2.946   7.458   6.696
13235TIP3    H239649   3.028   7.343   6.751
13236TIP3   OH239650   6.230   2.073   2.120
13236TIP3    H139651   6.157   2.016   2.146
13236TIP3    H239652   6.309   2.024   2.145
13237TIP3   OH239653   2.116   4.036   6.156
13237TIP3    H139654   2.048   4.007   6.094
13237TIP3    H239655   2.187   3.974   6.145
13238TIP3   OH239656   8.180   4.587   6.453
13238TIP3    H139657   8.181   4.553   6.363
13238TIP3    H239658   8.167   4.510   6.508
13239TIP3   OH239659   6.361   0.482   3.223
13239TIP3    H139660   6.396   0.543   3.288
13239TIP3    H239661   6.415   0.404   3.232
13240TIP3   OH239662   0.490   6.092   3.404
13240TIP3    H139663   0.478   6.033   3.330
13240TIP3    H239664   0.545   6.043   3.465
13241TIP3   OH239665   5.209   1.245   3.849
13241TIP3    H139666   5.165   1.204   3.774
13241TIP3    H239667   5.165   1.208   3.926
13242TIP3   OH239668   4.303   0.161   6.242
13242TIP3    H139669   4.290   0.070   6.270
13242TIP3    H239670   4.341   0.153   6.154
13243TIP3   OH239671   0.637   0.346   4.118
13243TIP3    H139672   0.643   0.276   4.183
13243TIP3    H239673   0.672   0.308   4.037
13244TIP3   OH239674   4.679   1.565   2.334
13244TIP3    H139675   4.722   1.492   2.290
13244TIP3    H239676   4.658   1.532   2.422
13245TIP3   OH239677   2.584   4.853   1.043
13245TIP3    H139678   2.527   4.909   1.094
13245TIP3    H239679   2.543   4.766   1.048
13246TIP3   OH239680   5.776   7.048   6.282
13246TIP3    H139681   5.778   7.035   6.377
13246TIP3    H239682   5.749   7.139   6.271
13247TIP3   OH239683   0.702   5.545   0.094
13247TIP3    H139684   0.747   5.581   0.018
13247TIP3    H239685   0.623   5.598   0.103
13248TIP3   OH239686   7.056   3.701   0.217
13248TIP3    H139687   7.019   3.630   0.164
13248TIP3    H239688   7.122   3.741   0.161
13249TIP3   OH239689   6.213   5.732   4.073
13249TIP3    H139690   6.200   5.719   3.979
13249TIP3    H239691   6.125   5.746   4.108
13250TIP3   OH239692   7.702   7.597   5.278
13250TIP3    H139693   7.701   7.599   5.374
13250TIP3    H239694   7.772   7.657   5.253
13251TIP3   OH239695   5.813   7.474   1.944
13251TIP3    H139696   5.873   7.438   2.010
13251TIP3    H239697   5.766   7.543   1.989
13252TIP3   OH239698   7.498   0.151   5.267
13252TIP3    H139699   7.454   0.104   5.337
13252TIP3    H239700   7.591   0.131   5.280
13253TIP3   OH239701   0.696   1.769   2.040
13253TIP3    H139702   0.610   1.741   2.009
13253TIP3    H239703   0.758   1.711   1.996
13254TIP3   OH239704   4.939   5.149   5.135
13254TIP3    H139705   4.873   5.131   5.069
13254TIP3    H239706   4.954   5.064   5.178
13255TIP3   OH239707   3.134   0.375   0.818
13255TIP3    H139708   3.190   0.300   0.798
13255TIP3    H239709   3.150   0.436   0.745
13256TIP3   OH239710   3.491   0.667   2.417
13256TIP3    H139711   3.505   0.637   2.507
13256TIP3    H239712   3.422   0.732   2.424
13257TIP3   OH239713   1.053   0.620   6.532
13257TIP3    H139714   1.094   0.565   6.465
13257TIP3    H239715   1.124   0.674   6.565
13258TIP3   OH239716   2.723   2.676   3.557
13258TIP3    H139717   2.666   2.627   3.498
13258TIP3    H239718   2.776   2.610   3.601
13259TIP3   OH239719   2.535   6.292   6.635
13259TIP3    H139720   2.461   6.235   6.615
13259TIP3    H239721   2.537   6.355   6.562
13260TIP3   OH239722   3.362   1.987   4.553
13260TIP3    H139723   3.334   1.923   4.488
13260TIP3    H239724   3.411   2.052   4.503
13261TIP3   OH239725   1.117   1.695   0.561
13261TIP3    H139726   1.143   1.783   0.536
13261TIP3    H239727   1.119   1.696   0.657
13262TIP3   OH239728   1.362   7.125   4.962
13262TIP3    H139729   1.310   7.144   4.884
13262TIP3    H239730   1.439   7.079   4.929
13263TIP3   OH239731   4.853   4.956   4.712
13263TIP3    H139732   4.926   4.954   4.773
13263TIP3    H239733   4.797   4.882   4.738
13264TIP3   OH239734   2.124   4.772   6.720
13264TIP3    H139735   2.184   4.761   6.646
13264TIP3    H239736   2.106   4.683   6.750
13265TIP3   OH239737   5.078   2.830   3.301
13265TIP3    H139738   5.073   2.735   3.307
13265TIP3    H239739   5.171   2.851   3.308
13266TIP3   OH239740   1.314   5.361   2.878
13266TIP3    H139741   1.281   5.291   2.822
13266TIP3    H239742   1.330   5.434   2.819
13267TIP3   OH239743   7.530   7.018   1.593
13267TIP3    H139744   7.603   6.975   1.639
13267TIP3    H239745   7.452   6.987   1.639
13268TIP3   OH239746   2.173   0.634   2.652
13268TIP3    H139747   2.104   0.597   2.708
13268TIP3    H239748   2.135   0.634   2.564
13269TIP3   OH239749   1.939   7.078   4.101
13269TIP3    H139750   2.018   7.079   4.156
13269TIP3    H239751   1.959   7.139   4.030
13270TIP3   OH239752   8.267   2.251   2.617
13270TIP3    H139753   8.230   2.339   2.607
13270TIP3    H239754   8.362   2.264   2.604
13271TIP3   OH239755   6.824   6.812   4.751
13271TIP3    H139756   6.839   6.748   4.681
13271TIP3    H239757   6.903   6.809   4.804
13272TIP3   OH239758   7.152   4.329   2.876
13272TIP3    H139759   7.221   4.292   2.821
13272TIP3    H239760   7.072   4.285   2.847
13273TIP3   OH239761   5.835   5.389   5.543
13273TIP3    H139762   5.771   5.455   5.515
13273TIP3    H239763   5.884   5.368   5.464
13274TIP3   OH239764   3.581   7.345   1.266
13274TIP3    H139765   3.613   7.299   1.188
13274TIP3    H239766   3.512   7.289   1.301
13275TIP3   OH239767   5.763   7.300   1.219
13275TIP3    H139768   5.792   7.319   1.130
13275TIP3    H239769   5.819   7.229   1.249
13276TIP3   OH239770   2.834   4.562   3.026
13276TIP3    H139771   2.915   4.564   3.077
13276TIP3    H239772   2.778   4.500   3.073
13277TIP3   OH239773   1.514   0.565   2.718
13277TIP3    H139774   1.477   0.497   2.661
13277TIP3    H239775   1.539   0.635   2.658
13278TIP3   OH239776   2.024   4.211   1.166
13278TIP3    H139777   1.957   4.244   1.105
13278TIP3    H239778   2.056   4.131   1.125
13279TIP3   OH239779   5.243   5.866   3.122
13279TIP3    H139780   5.190   5.919   3.061
13279TIP3    H239781   5.282   5.798   3.067
13280TIP3   OH239782   0.826   0.447   2.848
13280TIP3    H139783   0.832   0.426   2.754
13280TIP3    H239784   0.798   0.539   2.850
13281TIP3   OH239785   6.455   1.433   3.090
13281TIP3    H139786   6.420   1.364   3.034
13281TIP3    H239787   6.503   1.490   3.029
13282TIP3   OH239788   7.049   3.571   3.149
13282TIP3    H139789   7.068   3.486   3.188
13282TIP3    H239790   7.094   3.634   3.206
13283TIP3   OH239791   1.661   5.330   2.138
13283TIP3    H139792   1.652   5.236   2.122
13283TIP3    H239793   1.603   5.370   2.073
13284TIP3   OH239794   0.213   0.787   3.845
13284TIP3    H139795   0.213   0.691   3.838
13284TIP3    H239796   0.153   0.805   3.917
13285TIP3   OH239797   6.687   5.180   2.751
13285TIP3    H139798   6.717   5.171   2.841
13285TIP3    H239799   6.662   5.091   2.725
13286TIP3   OH239800   2.500   7.108   4.236
13286TIP3    H139801   2.468   7.038   4.179
13286TIP3    H239802   2.441   7.107   4.311
13287TIP3   OH239803   1.826   6.414   5.784
13287TIP3    H139804   1.916   6.441   5.802
13287TIP3    H239805   1.835   6.336   5.730
13288TIP3   OH239806   2.170   7.595   5.822
13288TIP3    H139807   2.193   7.512   5.863
13288TIP3    H239808   2.253   7.642   5.813
13289TIP3   OH239809   1.870   0.057   2.296
13289TIP3    H139810   1.840  -0.022   2.343
13289TIP3    H239811   1.846   0.041   2.205
13290TIP3   OH239812   1.981   0.404   2.035
13290TIP3    H139813   1.916   0.394   2.104
13290TIP3    H239814   2.051   0.456   2.075
13291TIP3   OH239815   3.703   0.043   1.500
13291TIP3    H139816   3.773   0.108   1.511
13291TIP3    H239817   3.698  -0.001   1.585
13292TIP3   OH239818   0.816   6.306   3.581
13292TIP3    H139819   0.834   6.214   3.598
13292TIP3    H239820   0.890   6.335   3.527
13293TIP3   OH239821   5.622   3.303   1.114
13293TIP3    H139822   5.718   3.302   1.111
13293TIP3    H239823   5.596   3.242   1.045
13294TIP3   OH239824   0.888   0.107   5.372
13294TIP3    H139825   0.970   0.140   5.337
13294TIP3    H239826   0.831   0.098   5.296
13295TIP3   OH239827   2.461   5.521   0.363
13295TIP3    H139828   2.544   5.503   0.320
13295TIP3    H239829   2.443   5.613   0.344
13296TIP3   OH239830   0.712   6.303   1.668
13296TIP3    H139831   0.622   6.270   1.667
13296TIP3    H239832   0.735   6.312   1.576
13297TIP3   OH239833   3.223   5.368   0.443
13297TIP3    H139834   3.234   5.309   0.369
13297TIP3    H239835   3.189   5.449   0.406
13298TIP3   OH239836   3.534   7.193   5.965
13298TIP3    H139837   3.514   7.190   5.871
13298TIP3    H239838   3.529   7.286   5.988
13299TIP3   OH239839   1.654   0.267   5.312
13299TIP3    H139840   1.749   0.271   5.328
13299TIP3    H239841   1.616   0.258   5.400
13300TIP3   OH239842   2.986   4.185   5.669
13300TIP3    H139843   3.029   4.214   5.750
13300TIP3    H239844   2.990   4.261   5.611
13301TIP3   OH239845   2.796   4.575   0.008
13301TIP3    H139846   2.751   4.630   0.072
13301TIP3    H239847   2.739   4.499  -0.004
13302TIP3   OH239848   5.551   2.030   0.654
13302TIP3    H139849   5.471   2.055   0.607
13302TIP3    H239850   5.602   2.111   0.661
13303TIP3   OH239851   0.343   2.901   2.286
13303TIP3    H139852   0.406   2.849   2.337
13303TIP3    H239853   0.318   2.843   2.214
13304TIP3   OH239854   0.909   4.329   2.447
13304TIP3    H139855   0.993   4.294   2.475
13304TIP3    H239856   0.882   4.272   2.375
13305TIP3   OH239857   1.584   0.059   2.452
13305TIP3    H139858   1.586   0.155   2.461
13305TIP3    H239859   1.542   0.044   2.367
13306TIP3   OH239860   0.605   3.083   4.255
13306TIP3    H139861   0.537   3.021   4.231
13306TIP3    H239862   0.672   3.030   4.299
13307TIP3   OH239863   0.259   2.449   1.644
13307TIP3    H139864   0.167   2.424   1.645
13307TIP3    H239865   0.265   2.518   1.577
13308TIP3   OH239866   4.246   4.910   1.201
13308TIP3    H139867   4.332   4.947   1.183
13308TIP3    H239868   4.193   4.986   1.225
13309TIP3   OH239869   0.094   1.030   4.296
13309TIP3    H139870   0.027   0.981   4.247
13309TIP3    H239871   0.064   1.026   4.387
13310TIP3   OH239872   3.214   4.863   3.642
13310TIP3    H139873   3.228   4.925   3.713
13310TIP3    H239874   3.210   4.778   3.685
13311TIP3   OH239875   6.928   5.150   5.644
13311TIP3    H139876   6.995   5.090   5.611
13311TIP3    H239877   6.951   5.235   5.605
13312TIP3   OH239878   7.685   3.396   4.519
13312TIP3    H139879   7.606   3.347   4.542
13312TIP3    H239880   7.656   3.487   4.514
13313TIP3   OH239881   0.481   5.833   4.408
13313TIP3    H139882   0.473   5.917   4.364
13313TIP3    H239883   0.526   5.776   4.345
13314TIP3   OH239884   5.192   1.497   0.190
13314TIP3    H139885   5.257   1.531   0.252
13314TIP3    H239886   5.109   1.537   0.217
13315TIP3   OH239887   1.230   0.954   4.336
13315TIP3    H139888   1.224   1.047   4.359
13315TIP3    H239889   1.141   0.921   4.346
13316TIP3   OH239890   1.750   3.799   3.297
13316TIP3    H139891   1.781   3.727   3.351
13316TIP3    H239892   1.665   3.769   3.263
13317TIP3   OH239893   7.367   3.531   3.511
13317TIP3    H139894   7.424   3.483   3.452
13317TIP3    H239895   7.317   3.590   3.453
13318TIP3   OH239896   7.540   3.381   1.977
13318TIP3    H139897   7.506   3.466   1.949
13318TIP3    H239898   7.556   3.333   1.896
13319TIP3   OH239899   1.756   1.983   6.722
13319TIP3    H139900   1.700   2.033   6.663
13319TIP3    H239901   1.818   2.048   6.757
13320TIP3   OH239902   4.990   7.018   3.492
13320TIP3    H139903   5.058   7.082   3.513
13320TIP3    H239904   4.993   6.955   3.564
13321TIP3   OH239905   4.771   5.762   2.551
13321TIP3    H139906   4.800   5.853   2.555
13321TIP3    H239907   4.748   5.748   2.459
13322TIP3   OH239908   2.610   7.065   2.391
13322TIP3    H139909   2.639   7.044   2.480
13322TIP3    H239910   2.684   7.112   2.353
13323TIP3   OH239911   6.481   6.941   1.237
13323TIP3    H139912   6.527   6.860   1.258
13323TIP3    H239913   6.549   7.001   1.208
13324TIP3   OH239914   5.210   6.002   4.946
13324TIP3    H139915   5.223   6.001   4.851
13324TIP3    H239916   5.294   5.977   4.983
13325TIP3   OH239917   1.818   7.145   3.189
13325TIP3    H139918   1.733   7.182   3.164
13325TIP3    H239919   1.857   7.118   3.106
13326TIP3   OH239920   0.861   6.984   2.831
13326TIP3    H139921   0.908   7.050   2.780
13326TIP3    H239922   0.826   7.033   2.906
13327TIP3   OH239923   2.819   0.268   5.173
13327TIP3    H139924   2.854   0.213   5.243
13327TIP3    H239925   2.863   0.352   5.184
13328TIP3   OH239926   0.871   1.449   1.115
13328TIP3    H139927   0.894   1.362   1.084
13328TIP3    H239928   0.945   1.476   1.169
13329TIP3   OH239929   8.101   7.504   6.163
13329TIP3    H139930   8.044   7.575   6.191
13329TIP3    H239931   8.168   7.499   6.231
13330TIP3   OH239932   7.715   6.728   5.643
13330TIP3    H139933   7.631   6.689   5.668
13330TIP3    H239934   7.733   6.693   5.556
13331TIP3   OH239935   1.580   5.497   0.180
13331TIP3    H139936   1.495   5.459   0.202
13331TIP3    H239937   1.574   5.588   0.210
13332TIP3   OH239938   1.688   1.916   3.569
13332TIP3    H139939   1.652   1.992   3.523
13332TIP3    H239940   1.638   1.911   3.650
13333TIP3   OH239941   3.511   4.500   4.324
13333TIP3    H139942   3.501   4.490   4.229
13333TIP3    H239943   3.590   4.451   4.345
13334TIP3   OH239944   1.660   1.782   5.301
13334TIP3    H139945   1.721   1.850   5.271
13334TIP3    H239946   1.582   1.795   5.248
13335TIP3   OH239947   0.101   5.767   0.442
13335TIP3    H139948   0.065   5.818   0.515
13335TIP3    H239949   0.144   5.831   0.386
13336TIP3   OH239950   6.295   3.824   5.707
13336TIP3    H139951   6.387   3.801   5.722
13336TIP3    H239952   6.252   3.740   5.691
13337TIP3   OH239953   7.944   2.989   4.513
13337TIP3    H139954   7.855   3.023   4.506
13337TIP3    H239955   7.999   3.056   4.473
13338TIP3   OH239956   3.424   2.653   0.994
13338TIP3    H139957   3.362   2.584   1.016
13338TIP3    H239958   3.446   2.694   1.077
13339TIP3   OH239959   4.742   7.638   5.764
13339TIP3    H139960   4.732   7.575   5.835
13339TIP3    H239961   4.704   7.594   5.688
13340TIP3   OH239962   6.781   4.539   3.758
13340TIP3    H139963   6.846   4.545   3.688
13340TIP3    H239964   6.830   4.506   3.834
13341TIP3   OH239965   4.813   7.555   0.432
13341TIP3    H139966   4.822   7.489   0.363
13341TIP3    H239967   4.812   7.639   0.384
13342TIP3   OH239968   4.990   5.480   3.584
13342TIP3    H139969   4.898   5.474   3.609
13342TIP3    H239970   5.034   5.412   3.634
13343TIP3   OH239971   1.134   3.310   4.808
13343TIP3    H139972   1.185   3.372   4.756
13343TIP3    H239973   1.130   3.231   4.755
13344TIP3   OH239974   6.656   2.218   1.405
13344TIP3    H139975   6.584   2.243   1.463
13344TIP3    H239976   6.733   2.213   1.462
13345TIP3   OH239977   7.262   0.594   2.124
13345TIP3    H139978   7.352   0.618   2.148
13345TIP3    H239979   7.211   0.612   2.202
13346TIP3   OH239980   2.182   5.316   0.670
13346TIP3    H139981   2.159   5.257   0.742
13346TIP3    H239982   2.139   5.399   0.691
13347TIP3   OH239983   7.687   3.797   2.257
13347TIP3    H139984   7.634   3.718   2.255
13347TIP3    H239985   7.700   3.819   2.164
13348TIP3   OH239986   0.055   0.858   1.327
13348TIP3    H139987  -0.004   0.862   1.252
13348TIP3    H239988   0.071   0.765   1.340
13349TIP3   OH239989   4.879   1.100   0.634
13349TIP3    H139990   4.843   1.057   0.557
13349TIP3    H239991   4.971   1.074   0.635
13350TIP3   OH239992   5.045   3.768   5.095
13350TIP3    H139993   4.960   3.743   5.129
13350TIP3    H239994   5.099   3.784   5.172
13351TIP3   OH239995   4.495   2.452   1.581
13351TIP3    H139996   4.556   2.507   1.532
13351TIP3    H239997   4.445   2.406   1.513
13352TIP3   OH239998   0.240   5.266   0.507
13352TIP3    H139999   0.159   5.220   0.482
13352TIP3    H240000   0.220   5.359   0.493
13353TIP3   OH240001   7.156   0.491   0.932
13353TIP3    H140002   7.203   0.539   0.865
13353TIP3    H240003   7.114   0.558   0.985
13354TIP3   OH240004   0.915   1.105   0.435
13354TIP3    H140005   1.002   1.076   0.463
13354TIP3    H240006   0.896   1.181   0.491
13355TIP3   OH240007   6.340   3.200   3.302
13355TIP3    H140008   6.247   3.183   3.289
13355TIP3    H240009   6.346   3.234   3.392
13356TIP3   OH240010   3.725   6.923   0.781
13356TIP3    H140011   3.716   7.013   0.812
13356TIP3    H240012   3.685   6.924   0.694
13357TIP3   OH240013   3.997   6.042   6.675
13357TIP3    H140014   3.996   5.972   6.740
13357TIP3    H240015   3.908   6.076   6.675
13358TIP3   OH240016   6.142   2.943   0.877
13358TIP3    H140017   6.175   2.984   0.957
13358TIP3    H240018   6.047   2.954   0.882
13359TIP3   OH240019   2.397   3.793   3.661
13359TIP3    H140020   2.331   3.846   3.616
13359TIP3    H240021   2.442   3.746   3.591
13360TIP3   OH240022   5.768   0.361   1.418
13360TIP3    H140023   5.804   0.307   1.348
13360TIP3    H240024   5.717   0.300   1.472
13361TIP3   OH240025   5.235   0.438   0.809
13361TIP3    H140026   5.288   0.427   0.888
13361TIP3    H240027   5.150   0.468   0.841
13362TIP3   OH240028   5.558   6.258   1.562
13362TIP3    H140029   5.535   6.196   1.493
13362TIP3    H240030   5.535   6.344   1.526
13363TIP3   OH240031   4.384   5.465   0.239
13363TIP3    H140032   4.354   5.393   0.183
13363TIP3    H240033   4.446   5.424   0.299
13364TIP3   OH240034   7.494   5.756   4.176
13364TIP3    H140035   7.437   5.815   4.225
13364TIP3    H240036   7.436   5.686   4.146
13365TIP3   OH240037   8.298   3.081   4.687
13365TIP3    H140038   8.313   2.991   4.657
13365TIP3    H240039   8.293   3.133   4.606
13366TIP3   OH240040   0.230   0.635   2.921
13366TIP3    H140041   0.268   0.717   2.952
13366TIP3    H240042   0.269   0.623   2.834
13367TIP3   OH240043   0.655   5.958   1.917
13367TIP3    H140044   0.577   5.984   1.869
13367TIP3    H240045   0.720   5.939   1.849
13368TIP3   OH240046   3.279   6.467   3.604
13368TIP3    H140047   3.359   6.416   3.594
13368TIP3    H240048   3.309   6.555   3.629
13369TIP3   OH240049   2.661   3.569   4.855
13369TIP3    H140050   2.626   3.657   4.865
13369TIP3    H240051   2.686   3.564   4.763
13370TIP3   OH240052   5.871   7.349   0.933
13370TIP3    H140053   5.911   7.424   0.889
13370TIP3    H240054   5.785   7.339   0.890
13371TIP3   OH240055   4.245   3.791   6.131
13371TIP3    H140056   4.311   3.830   6.189
13371TIP3    H240057   4.290   3.716   6.092
13372TIP3   OH240058   4.032   4.414   3.376
13372TIP3    H140059   3.983   4.385   3.453
13372TIP3    H240060   4.073   4.496   3.403
13373TIP3   OH240061   6.768   0.737   6.501
13373TIP3    H140062   6.847   0.724   6.553
13373TIP3    H240063   6.781   0.686   6.422
13374TIP3   OH240064   1.575   7.177   0.240
13374TIP3    H140065   1.543   7.089   0.220
13374TIP3    H240066   1.501   7.220   0.284
13375TIP3   OH240067   3.414   4.364   1.108
13375TIP3    H140068   3.325   4.328   1.102
13375TIP3    H240069   3.453   4.346   1.023
13376TIP3   OH240070   8.139   3.387   1.485
13376TIP3    H140071   8.137   3.295   1.511
13376TIP3    H240072   8.193   3.388   1.406
13377TIP3   OH240073   6.462   5.833   4.087
13377TIP3    H140074   6.375   5.801   4.063
13377TIP3    H240075   6.494   5.878   4.008
13378TIP3   OH240076   7.725   6.611   6.743
13378TIP3    H140077   7.808   6.578   6.709
13378TIP3    H240078   7.730   6.706   6.731
13379TIP3   OH240079   4.552   2.034   2.405
13379TIP3    H140080   4.557   2.102   2.472
13379TIP3    H240081   4.463   1.999   2.412
13380TIP3   OH240082   1.445   5.827   5.545
13380TIP3    H140083   1.536   5.798   5.551
13380TIP3    H240084   1.439   5.868   5.459
13381TIP3   OH240085   1.433   1.812   6.468
13381TIP3    H140086   1.364   1.746   6.466
13381TIP3    H240087   1.408   1.872   6.539
13382TIP3   OH240088   3.125   1.759   6.545
13382TIP3    H140089   3.200   1.819   6.543
13382TIP3    H240090   3.094   1.763   6.636
13383TIP3   OH240091   5.166   1.490   4.284
13383TIP3    H140092   5.232   1.516   4.220
13383TIP3    H240093   5.201   1.517   4.369
13384TIP3   OH240094   2.548   3.823   4.962
13384TIP3    H140095   2.459   3.849   4.941
13384TIP3    H240096   2.552   3.827   5.058
13385TIP3   OH240097   7.952   3.341   4.601
13385TIP3    H140098   7.979   3.379   4.517
13385TIP3    H240099   7.857   3.342   4.599
13386TIP3   OH240100   4.759   2.331   6.145
13386TIP3    H140101   4.744   2.243   6.181
13386TIP3    H240102   4.830   2.367   6.197
13387TIP3   OH240103   3.315   3.466   6.575
13387TIP3    H140104   3.323   3.372   6.585
13387TIP3    H240105   3.386   3.489   6.514
13388TIP3   OH240106   4.018   2.384   1.370
13388TIP3    H140107   3.997   2.296   1.340
13388TIP3    H240108   4.064   2.424   1.295
13389TIP3   OH240109   6.279   2.786   6.504
13389TIP3    H140110   6.319   2.844   6.439
13389TIP3    H240111   6.187   2.781   6.477
13390TIP3   OH240112   3.605   4.173   4.368
13390TIP3    H140113   3.680   4.214   4.325
13390TIP3    H240114   3.554   4.135   4.297
13391TIP3   OH240115   5.584   7.010   5.919
13391TIP3    H140116   5.525   7.019   5.843
13391TIP3    H240117   5.560   6.927   5.958
13392TIP3   OH240118   1.414   1.509   0.040
13392TIP3    H140119   1.509   1.495   0.044
13392TIP3    H240120   1.404   1.603   0.029
13393TIP3   OH240121   4.986   7.455   3.907
13393TIP3    H140122   5.022   7.435   3.821
13393TIP3    H240123   5.047   7.416   3.969
13394TIP3   OH240124   7.608   4.229   4.200
13394TIP3    H140125   7.612   4.137   4.175
13394TIP3    H240126   7.642   4.276   4.124
13395TIP3   OH240127   2.765   3.925   1.453
13395TIP3    H140128   2.805   3.838   1.450
13395TIP3    H240129   2.706   3.922   1.529
13396TIP3   OH240130   3.333   7.137   6.162
13396TIP3    H140131   3.268   7.202   6.133
13396TIP3    H240132   3.405   7.145   6.098
13397TIP3   OH240133   5.842   5.332   0.175
13397TIP3    H140134   5.789   5.266   0.219
13397TIP3    H240135   5.800   5.415   0.198
13398TIP3   OH240136   7.648   0.468   3.310
13398TIP3    H140137   7.675   0.391   3.361
13398TIP3    H240138   7.662   0.542   3.370
13399TIP3   OH240139   1.459   6.418   6.528
13399TIP3    H140140   1.480   6.345   6.470
13399TIP3    H240141   1.381   6.457   6.489
13400TIP3   OH240142   1.047   3.969   4.133
13400TIP3    H140143   1.100   3.961   4.212
13400TIP3    H240144   1.067   3.890   4.082
13401TIP3   OH240145   8.303   1.826   0.480
13401TIP3    H140146   8.329   1.909   0.520
13401TIP3    H240147   8.218   1.843   0.440
13402TIP3   OH240148   6.277   1.038   2.311
13402TIP3    H140149   6.238   1.125   2.297
13402TIP3    H240150   6.203   0.978   2.300
13403TIP3   OH240151   4.440   2.362   3.747
13403TIP3    H140152   4.449   2.445   3.794
13403TIP3    H240153   4.473   2.381   3.659
13404TIP3   OH240154   2.132   1.942   2.815
13404TIP3    H140155   2.178   1.861   2.837
13404TIP3    H240156   2.056   1.914   2.765
13405TIP3   OH240157   3.728   0.941   0.583
13405TIP3    H140158   3.822   0.923   0.592
13405TIP3    H240159   3.705   0.984   0.665
13406TIP3   OH240160   0.617   2.578   1.488
13406TIP3    H140161   0.597   2.499   1.438
13406TIP3    H240162   0.603   2.552   1.579
13407TIP3   OH240163   3.583   2.629   0.639
13407TIP3    H140164   3.649   2.595   0.578
13407TIP3    H240165   3.517   2.560   0.643
13408TIP3   OH240166   5.239   6.034   2.193
13408TIP3    H140167   5.286   5.959   2.156
13408TIP3    H240168   5.160   5.995   2.232
13409TIP3   OH240169   6.408   3.205   1.658
13409TIP3    H140170   6.503   3.211   1.645
13409TIP3    H240171   6.387   3.113   1.642
13410TIP3   OH240172   2.363   0.412   2.636
13410TIP3    H140173   2.332   0.500   2.656
13410TIP3    H240174   2.438   0.398   2.694
13411TIP3   OH240175   6.124   6.608   3.746
13411TIP3    H140176   6.097   6.516   3.750
13411TIP3    H240177   6.159   6.619   3.657
13412TIP3   OH240178   6.326   5.365   6.700
13412TIP3    H140179   6.383   5.294   6.730
13412TIP3    H240180   6.287   5.331   6.620
13413TIP3   OH240181   0.983   1.934   5.132
13413TIP3    H140182   0.906   1.901   5.178
13413TIP3    H240183   0.962   2.026   5.114
13414TIP3   OH240184   5.612   4.646   4.657
13414TIP3    H140185   5.537   4.671   4.603
13414TIP3    H240186   5.619   4.551   4.647
13415TIP3   OH240187   5.538   6.895   0.210
13415TIP3    H140188   5.445   6.917   0.214
13415TIP3    H240189   5.567   6.931   0.126
13416TIP3   OH240190   4.474   6.128   1.961
13416TIP3    H140191   4.439   6.057   2.016
13416TIP3    H240192   4.403   6.192   1.957
13417TIP3   OH240193   0.472   5.138   0.609
13417TIP3    H140194   0.406   5.189   0.563
13417TIP3    H240195   0.551   5.145   0.555
13418TIP3   OH240196   4.099   1.943   2.462
13418TIP3    H140197   4.051   2.020   2.492
13418TIP3    H240198   4.107   1.888   2.539
13419TIP3   OH240199   1.780   0.535   3.550
13419TIP3    H140200   1.793   0.594   3.476
13419TIP3    H240201   1.775   0.593   3.626
13420TIP3   OH240202   7.059   5.499   2.945
13420TIP3    H140203   7.147   5.536   2.939
13420TIP3    H240204   7.056   5.433   2.875
13421TIP3   OH240205   7.962   3.257   5.421
13421TIP3    H140206   7.898   3.296   5.362
13421TIP3    H240207   8.045   3.297   5.395
13422TIP3   OH240208   7.973   3.414   2.547
13422TIP3    H140209   7.919   3.418   2.626
13422TIP3    H240210   8.040   3.348   2.567
13423TIP3   OH240211   5.300   1.198   4.725
13423TIP3    H140212   5.356   1.123   4.710
13423TIP3    H240213   5.221   1.162   4.766
13424TIP3   OH240214   2.111   4.155   2.776
13424TIP3    H140215   2.093   4.081   2.834
13424TIP3    H240216   2.145   4.115   2.696
13425TIP3   OH240217   2.081   5.920   1.779
13425TIP3    H140218   2.074   6.016   1.778
13425TIP3    H240219   2.156   5.901   1.722
13426TIP3   OH240220   1.809   2.428   3.079
13426TIP3    H140221   1.824   2.421   3.174
13426TIP3    H240222   1.849   2.511   3.055
13427TIP3   OH240223   3.474   6.421   0.443
13427TIP3    H140224   3.487   6.509   0.478
13427TIP3    H240225   3.391   6.392   0.481
13428TIP3   OH240226   1.940   0.826   5.575
13428TIP3    H140227   2.015   0.875   5.609
13428TIP3    H240228   1.899   0.787   5.652
13429TIP3   OH240229   6.607   6.472   3.406
13429TIP3    H140230   6.663   6.468   3.484
13429TIP3    H240231   6.583   6.381   3.390
13430TIP3   OH240232   3.343   4.448   5.598
13430TIP3    H140233   3.384   4.478   5.679
13430TIP3    H240234   3.399   4.483   5.528
13431TIP3   OH240235   7.540   6.170   5.065
13431TIP3    H140236   7.477   6.243   5.066
13431TIP3    H240237   7.555   6.151   5.158
13432TIP3   OH240238   7.956   2.520   1.575
13432TIP3    H140239   7.945   2.453   1.507
13432TIP3    H240240   7.875   2.518   1.625
13433TIP3   OH240241   0.061   4.147   3.330
13433TIP3    H140242   0.131   4.163   3.267
13433TIP3    H240243  -0.018   4.178   3.286
13434TIP3   OH240244   5.411   0.927   2.557
13434TIP3    H140245   5.436   0.861   2.492
13434TIP3    H240246   5.474   0.914   2.629
13435TIP3   OH240247   0.463   4.141   5.598
13435TIP3    H140248   0.459   4.204   5.527
13435TIP3    H240249   0.441   4.191   5.677
13436TIP3   OH240250   7.562   1.958   2.897
13436TIP3    H140251   7.623   1.990   2.830
13436TIP3    H240252   7.477   1.957   2.853
13437TIP3   OH240253   5.479   7.090   1.211
13437TIP3    H140254   5.408   7.143   1.173
13437TIP3    H240255   5.518   7.147   1.277
13438TIP3   OH240256   6.308   6.524   6.550
13438TIP3    H140257   6.348   6.438   6.532
13438TIP3    H240258   6.264   6.547   6.469
13439TIP3   OH240259   3.302   4.126   3.041
13439TIP3    H140260   3.371   4.191   3.050
13439TIP3    H240261   3.343   4.053   2.996
13440TIP3   OH240262   1.728   1.010   1.771
13440TIP3    H140263   1.814   1.018   1.730
13440TIP3    H240264   1.689   0.932   1.731
13441TIP3   OH240265   4.079   3.954   2.984
13441TIP3    H140266   4.101   4.028   3.040
13441TIP3    H240267   4.069   3.880   3.043
13442TIP3   OH240268   5.103   3.912   2.373
13442TIP3    H140269   5.074   3.911   2.282
13442TIP3    H240270   5.178   3.971   2.374
13443TIP3   OH240271   3.169   3.508   2.686
13443TIP3    H140272   3.202   3.457   2.760
13443TIP3    H240273   3.112   3.574   2.725
13444TIP3   OH240274   8.294   7.348   0.811
13444TIP3    H140275   8.385   7.346   0.779
13444TIP3    H240276   8.273   7.257   0.829
13445TIP3   OH240277   3.485   2.313   5.418
13445TIP3    H140278   3.403   2.354   5.393
13445TIP3    H240279   3.527   2.289   5.335
13446TIP3   OH240280   0.107   0.877   3.040
13446TIP3    H140281   0.095   0.852   2.948
13446TIP3    H240282   0.117   0.972   3.038
13447TIP3   OH240283   5.308   4.441   2.702
13447TIP3    H140284   5.244   4.375   2.729
13447TIP3    H240285   5.314   4.431   2.607
13448TIP3   OH240286   4.778   5.293   5.838
13448TIP3    H140287   4.712   5.226   5.820
13448TIP3    H240288   4.775   5.306   5.933
13449TIP3   OH240289   5.624   3.420   2.468
13449TIP3    H140290   5.542   3.389   2.505
13449TIP3    H240291   5.691   3.391   2.530
13450TIP3   OH240292   0.265   7.135   3.787
13450TIP3    H140293   0.211   7.093   3.853
13450TIP3    H240294   0.313   7.063   3.746
13451TIP3   OH240295   6.678   4.837   1.795
13451TIP3    H140296   6.760   4.850   1.843
13451TIP3    H240297   6.650   4.749   1.818
13452TIP3   OH240298   3.916   2.971   1.590
13452TIP3    H140299   3.923   2.947   1.498
13452TIP3    H240300   3.906   2.888   1.636
13453TIP3   OH240301   3.712   7.692   1.532
13453TIP3    H140302   3.647   7.712   1.465
13453TIP3    H240303   3.685   7.607   1.567
13454TIP3   OH240304   4.319   0.801   6.451
13454TIP3    H140305   4.405   0.761   6.464
13454TIP3    H240306   4.331   0.893   6.476
13455TIP3   OH240307   0.502   3.188   3.983
13455TIP3    H140308   0.449   3.135   4.043
13455TIP3    H240309   0.536   3.125   3.919
13456TIP3   OH240310   0.209   6.145   0.859
13456TIP3    H140311   0.182   6.092   0.934
13456TIP3    H240312   0.213   6.083   0.786
13457TIP3   OH240313   2.768   4.505   1.321
13457TIP3    H140314   2.837   4.554   1.277
13457TIP3    H240315   2.807   4.476   1.403
13458TIP3   OH240316   5.191   2.737   1.852
13458TIP3    H140317   5.162   2.739   1.761
13458TIP3    H240318   5.287   2.732   1.847
13459TIP3   OH240319   8.107   4.659   4.380
13459TIP3    H140320   8.163   4.730   4.413
13459TIP3    H240321   8.030   4.662   4.438
13460TIP3   OH240322   2.009   0.779   0.100
13460TIP3    H140323   1.954   0.702   0.099
13460TIP3    H240324   2.085   0.754   0.152
13461TIP3   OH240325   0.850   4.386   3.148
13461TIP3    H140326   0.813   4.363   3.063
13461TIP3    H240327   0.830   4.311   3.204
13462TIP3   OH240328   7.039   5.183   3.452
13462TIP3    H140329   7.072   5.100   3.416
13462TIP3    H240330   6.944   5.171   3.457
13463TIP3   OH240331   6.060   6.934   0.319
13463TIP3    H140332   6.019   6.912   0.403
13463TIP3    H240333   6.077   7.028   0.324
13464TIP3   OH240334   8.062   2.887   3.233
13464TIP3    H140335   8.013   2.885   3.315
13464TIP3    H240336   8.084   2.979   3.221
13465TIP3   OH240337   7.962   2.319   6.024
13465TIP3    H140338   8.029   2.324   6.092
13465TIP3    H240339   7.948   2.410   5.997
13466TIP3   OH240340   1.725   6.998   5.401
13466TIP3    H140341   1.643   6.953   5.419
13466TIP3    H240342   1.720   7.079   5.451
13467TIP3   OH240343   5.213   7.481   0.662
13467TIP3    H140344   5.232   7.410   0.602
13467TIP3    H240345   5.251   7.558   0.621
13468TIP3   OH240346   8.042   5.433   2.746
13468TIP3    H140347   8.034   5.484   2.827
13468TIP3    H240348   7.979   5.474   2.687
13469TIP3   OH240349   0.558   1.568   1.152
13469TIP3    H140350   0.625   1.516   1.107
13469TIP3    H240351   0.477   1.516   1.143
13470TIP3   OH240352   0.082   2.266   3.648
13470TIP3    H140353   0.107   2.356   3.667
13470TIP3    H240354  -0.008   2.259   3.680
13471TIP3   OH240355   4.572   0.280   3.318
13471TIP3    H140356   4.497   0.297   3.374
13471TIP3    H240357   4.544   0.309   3.231
13472TIP3   OH240358   0.235   7.216   6.516
13472TIP3    H140359   0.320   7.200   6.558
13472TIP3    H240360   0.255   7.220   6.423
13473TIP3   OH240361   3.066   1.578   0.499
13473TIP3    H140362   3.159   1.564   0.481
13473TIP3    H240363   3.041   1.504   0.554
13474TIP3   OH240364   7.209   1.951   0.317
13474TIP3    H140365   7.292   1.938   0.272
13474TIP3    H240366   7.179   1.863   0.338
13475TIP3   OH240367   6.274   5.023   1.594
13475TIP3    H140368   6.363   5.029   1.628
13475TIP3    H240369   6.222   4.993   1.668
13476TIP3   OH240370   2.186   3.322   3.262
13476TIP3    H140371   2.248   3.332   3.334
13476TIP3    H240372   2.240   3.293   3.188
13477TIP3   OH240373   6.960   5.976   5.762
13477TIP3    H140374   6.915   5.973   5.847
13477TIP3    H240375   6.891   5.958   5.698
13478TIP3   OH240376   4.954   2.560   5.186
13478TIP3    H140377   4.921   2.487   5.132
13478TIP3    H240378   4.885   2.626   5.181
13479TIP3   OH240379   0.559   2.928   0.870
13479TIP3    H140380   0.571   2.847   0.819
13479TIP3    H240381   0.480   2.912   0.921
13480TIP3   OH240382   0.347   2.318   4.772
13480TIP3    H140383   0.424   2.311   4.716
13480TIP3    H240384   0.291   2.381   4.728
13481TIP3   OH240385   5.316   5.372   1.223
13481TIP3    H140386   5.229   5.412   1.222
13481TIP3    H240387   5.362   5.413   1.150
13482TIP3   OH240388   1.179   0.873   6.113
13482TIP3    H140389   1.152   0.907   6.028
13482TIP3    H240390   1.172   0.949   6.172
13483TIP3   OH240391   1.097   3.851   1.080
13483TIP3    H140392   1.021   3.875   1.134
13483TIP3    H240393   1.082   3.760   1.056
13484TIP3   OH240394   2.070   3.541   6.510
13484TIP3    H140395   2.121   3.614   6.476
13484TIP3    H240396   2.118   3.463   6.484
13485TIP3   OH240397   8.281   2.933   1.361
13485TIP3    H140398   8.279   2.889   1.276
13485TIP3    H240399   8.229   3.013   1.348
13486TIP3   OH240400   0.312   4.170   6.480
13486TIP3    H140401   0.260   4.244   6.514
13486TIP3    H240402   0.396   4.178   6.524
13487TIP3   OH240403   3.933   5.646   2.316
13487TIP3    H140404   3.884   5.710   2.265
13487TIP3    H240405   3.906   5.662   2.407
13488TIP3   OH240406   4.107   3.131   5.814
13488TIP3    H140407   4.113   3.052   5.868
13488TIP3    H240408   4.041   3.109   5.747
13489TIP3   OH240409   7.363   0.998   6.776
13489TIP3    H140410   7.456   1.020   6.778
13489TIP3    H240411   7.358   0.920   6.720
13490TIP3   OH240412   2.014   1.206   3.115
13490TIP3    H140413   2.099   1.248   3.128
13490TIP3    H240414   2.031   1.113   3.128
13491TIP3   OH240415   4.839   2.542   0.311
13491TIP3    H140416   4.865   2.631   0.333
13491TIP3    H240417   4.758   2.527   0.360
13492TIP3   OH240418   6.775   3.278   6.384
13492TIP3    H140419   6.783   3.251   6.293
13492TIP3    H240420   6.682   3.296   6.396
13493TIP3   OH240421   1.876   0.643   4.846
13493TIP3    H140422   1.867   0.702   4.921
13493TIP3    H240423   1.964   0.607   4.854
13494TIP3   OH240424   3.800   3.660   5.041
13494TIP3    H140425   3.858   3.736   5.036
13494TIP3    H240426   3.753   3.671   5.123
13495TIP3   OH240427   0.868   0.777   6.093
13495TIP3    H140428   0.924   0.835   6.041
13495TIP3    H240429   0.893   0.689   6.064
13496TIP3   OH240430   4.918   2.971   1.712
13496TIP3    H140431   4.901   3.065   1.705
13496TIP3    H240432   4.968   2.962   1.793
13497TIP3   OH240433   3.010   5.177   1.315
13497TIP3    H140434   3.064   5.222   1.250
13497TIP3    H240435   2.992   5.092   1.276
13498TIP3   OH240436   0.843   0.722   2.729
13498TIP3    H140437   0.772   0.731   2.792
13498TIP3    H240438   0.803   0.747   2.645
13499TIP3   OH240439   8.095   5.977   3.030
13499TIP3    H140440   8.089   5.905   2.968
13499TIP3    H240441   8.017   6.030   3.012
13500TIP3   OH240442   3.158   6.587   0.812
13500TIP3    H140443   3.135   6.678   0.830
13500TIP3    H240444   3.111   6.537   0.879
13501TIP3   OH240445   5.620   2.052   5.209
13501TIP3    H140446   5.548   2.067   5.271
13501TIP3    H240447   5.633   1.957   5.211
13502TIP3   OH240448   6.711   1.258   2.965
13502TIP3    H140449   6.644   1.202   2.926
13502TIP3    H240450   6.673   1.346   2.963
13503TIP3   OH240451   1.294   2.110   2.760
13503TIP3    H140452   1.372   2.162   2.743
13503TIP3    H240453   1.247   2.108   2.677
13504TIP3   OH240454   1.439   5.244   0.513
13504TIP3    H140455   1.506   5.185   0.478
13504TIP3    H240456   1.477   5.276   0.596
13505TIP3   OH240457   2.850   1.338   0.629
13505TIP3    H140458   2.812   1.254   0.602
13505TIP3    H240459   2.802   1.362   0.708
13506TIP3   OH240460   3.168   4.309   3.671
13506TIP3    H140461   3.234   4.326   3.739
13506TIP3    H240462   3.211   4.247   3.612
13507TIP3   OH240463   1.436   0.745   0.570
13507TIP3    H140464   1.391   0.667   0.602
13507TIP3    H240465   1.529   0.724   0.576
13508TIP3   OH240466   2.227   0.867   3.450
13508TIP3    H140467   2.284   0.800   3.414
13508TIP3    H240468   2.173   0.821   3.515
13509TIP3   OH240469   2.606   0.228   5.613
13509TIP3    H140470   2.590   0.263   5.525
13509TIP3    H240471   2.691   0.265   5.638
13510TIP3   OH240472   6.951   6.882   4.020
13510TIP3    H140473   7.033   6.832   4.022
13510TIP3    H240474   6.921   6.875   3.930
13511TIP3   OH240475   6.804   1.397   3.425
13511TIP3    H140476   6.738   1.328   3.429
13511TIP3    H240477   6.884   1.353   3.397
13512TIP3   OH240478   5.885   4.694   0.298
13512TIP3    H140479   5.847   4.651   0.374
13512TIP3    H240480   5.911   4.622   0.240
13513TIP3   OH240481   2.992   2.419   0.403
13513TIP3    H140482   2.900   2.409   0.382
13513TIP3    H240483   3.025   2.484   0.342
13514TIP3   OH240484   3.758   6.619   0.444
13514TIP3    H140485   3.673   6.601   0.485
13514TIP3    H240486   3.821   6.612   0.515
13515TIP3   OH240487   6.235   5.094   4.972
13515TIP3    H140488   6.202   5.030   5.035
13515TIP3    H240489   6.166   5.160   4.966
13516TIP3   OH240490   6.769   7.285   5.986
13516TIP3    H140491   6.707   7.238   5.930
13516TIP3    H240492   6.846   7.228   5.988
13517TIP3   OH240493   3.260   1.947   3.618
13517TIP3    H140494   3.279   1.863   3.659
13517TIP3    H240495   3.175   1.974   3.653
13518TIP3   OH240496   3.574   7.782   2.478
13518TIP3    H140497   3.528   7.745   2.402
13518TIP3    H240498   3.575   7.711   2.542
13519TIP3   OH240499   5.920   4.213   2.613
13519TIP3    H140500   5.970   4.277   2.562
13519TIP3    H240501   5.952   4.128   2.582
13520TIP3   OH240502   1.152   5.690   1.860
13520TIP3    H140503   1.130   5.757   1.925
13520TIP3    H240504   1.069   5.648   1.840
13521TIP3   OH240505   4.908   0.929   4.865
13521TIP3    H140506   4.880   0.846   4.902
13521TIP3    H240507   4.828   0.966   4.827
13522TIP3   OH240508   1.492   4.942   3.218
13522TIP3    H140509   1.444   4.887   3.155
13522TIP3    H240510   1.569   4.972   3.169
13523TIP3   OH240511   6.781   4.751   0.874
13523TIP3    H140512   6.716   4.687   0.904
13523TIP3    H240513   6.799   4.805   0.951
13524TIP3   OH240514   1.822   4.893   0.409
13524TIP3    H140515   1.911   4.892   0.374
13524TIP3    H240516   1.767   4.912   0.333
13525TIP3   OH240517   2.371   3.647   3.953
13525TIP3    H140518   2.451   3.600   3.930
13525TIP3    H240519   2.340   3.604   4.033
13526TIP3   OH240520   6.842   5.102   0.684
13526TIP3    H140521   6.835   5.064   0.597
13526TIP3    H240522   6.760   5.080   0.727
13527TIP3   OH240523   3.658   4.890   3.654
13527TIP3    H140524   3.723   4.941   3.604
13527TIP3    H240525   3.606   4.845   3.588
13528TIP3   OH240526   8.246   4.043   6.579
13528TIP3    H140527   8.232   4.138   6.575
13528TIP3    H240528   8.187   4.007   6.513
13529TIP3   OH240529   2.631   1.367   5.652
13529TIP3    H140530   2.669   1.393   5.568
13529TIP3    H240531   2.563   1.433   5.669
13530TIP3   OH240532   0.485   5.422   1.584
13530TIP3    H140533   0.497   5.348   1.644
13530TIP3    H240534   0.535   5.493   1.623
13531TIP3   OH240535   0.012   5.674   2.849
13531TIP3    H140536   0.103   5.678   2.879
13531TIP3    H240537  -0.035   5.632   2.921
13532TIP3   OH240538   6.592   5.254   4.782
13532TIP3    H140539   6.647   5.260   4.860
13532TIP3    H240540   6.543   5.336   4.780
13533TIP3   OH240541   1.494   0.882   4.416
13533TIP3    H140542   1.511   0.796   4.379
13533TIP3    H240543   1.401   0.898   4.398
13534TIP3   OH240544   4.298   2.570   3.988
13534TIP3    H140545   4.379   2.520   3.997
13534TIP3    H240546   4.251   2.556   4.070
13535TIP3   OH240547   0.194   3.347   4.974
13535TIP3    H140548   0.195   3.420   4.912
13535TIP3    H240549   0.212   3.388   5.059
13536TIP3   OH240550   6.213   4.374   2.891
13536TIP3    H140551   6.200   4.299   2.833
13536TIP3    H240552   6.282   4.346   2.952
13537TIP3   OH240553   5.630   5.546   3.747
13537TIP3    H140554   5.620   5.516   3.837
13537TIP3    H240555   5.540   5.556   3.715
13538TIP3   OH240556   7.326   3.579   0.588
13538TIP3    H140557   7.337   3.572   0.683
13538TIP3    H240558   7.249   3.635   0.577
13539TIP3   OH240559   7.998   7.163   0.554
13539TIP3    H140560   8.061   7.092   0.540
13539TIP3    H240561   7.968   7.186   0.466
13540TIP3   OH240562   6.223   6.548  -0.005
13540TIP3    H140563   6.161   6.494   0.045
13540TIP3    H240564   6.241   6.623   0.052
13541TIP3   OH240565   4.796   3.649   0.743
13541TIP3    H140566   4.885   3.615   0.757
13541TIP3    H240567   4.794   3.732   0.791
13542TIP3   OH240568   2.979   1.949   2.893
13542TIP3    H140569   2.935   1.968   2.810
13542TIP3    H240570   2.977   2.032   2.941
13543TIP3   OH240571   0.453   0.703   4.544
13543TIP3    H140572   0.447   0.643   4.470
13543TIP3    H240573   0.499   0.653   4.611
13544TIP3   OH240574   1.947   3.388   2.515
13544TIP3    H140575   1.866   3.402   2.564
13544TIP3    H240576   1.929   3.313   2.458
13545TIP3   OH240577   3.625   0.280   4.685
13545TIP3    H140578   3.714   0.276   4.720
13545TIP3    H240579   3.604   0.188   4.665
13546TIP3   OH240580   7.467   5.615   5.417
13546TIP3    H140581   7.485   5.708   5.402
13546TIP3    H240582   7.553   5.573   5.417
13547TIP3   OH240583   1.954   7.741   2.709
13547TIP3    H140584   1.921   7.678   2.773
13547TIP3    H240585   1.904   7.722   2.629
13548TIP3   OH240586   2.188   6.580   2.011
13548TIP3    H140587   2.230   6.527   2.079
13548TIP3    H240588   2.101   6.600   2.045
13549TIP3   OH240589   0.762   0.231   5.562
13549TIP3    H140590   0.835   0.274   5.606
13549TIP3    H240591   0.804   0.167   5.503
13550TIP3   OH240592   1.267   6.406   4.470
13550TIP3    H140593   1.230   6.318   4.469
13550TIP3    H240594   1.341   6.400   4.531
13551TIP3   OH240595   6.234   6.212   0.080
13551TIP3    H140596   6.315   6.254   0.109
13551TIP3    H240597   6.166   6.246   0.138
13552TIP3   OH240598   7.143   5.365   6.389
13552TIP3    H140599   7.229   5.355   6.349
13552TIP3    H240600   7.083   5.321   6.329
13553TIP3   OH240601   3.335   1.644   6.417
13553TIP3    H140602   3.366   1.733   6.399
13553TIP3    H240603   3.254   1.657   6.467
13554TIP3   OH240604   3.927   1.472   2.486
13554TIP3    H140605   3.897   1.538   2.548
13554TIP3    H240606   3.955   1.522   2.409
13555TIP3   OH240607   6.479   7.044   1.900
13555TIP3    H140608   6.564   7.044   1.856
13555TIP3    H240609   6.418   7.012   1.834
13556TIP3   OH240610   2.288   1.735   6.180
13556TIP3    H140611   2.265   1.665   6.241
13556TIP3    H240612   2.222   1.728   6.111
13557TIP3   OH240613   2.003   3.040   6.049
13557TIP3    H140614   1.956   3.059   5.968
13557TIP3    H240615   1.966   3.100   6.113
13558TIP3   OH240616   7.756   7.021   4.256
13558TIP3    H140617   7.773   6.970   4.335
13558TIP3    H240618   7.679   7.073   4.277
13559TIP3   OH240619   7.417   3.325   2.542
13559TIP3    H140620   7.404   3.230   2.535
13559TIP3    H240621   7.429   3.354   2.452
13560TIP3   OH240622   8.185   2.491   2.494
13560TIP3    H140623   8.245   2.548   2.542
13560TIP3    H240624   8.228   2.477   2.410
13561TIP3   OH240625   2.104   0.945   3.127
13561TIP3    H140626   2.018   0.902   3.130
13561TIP3    H240627   2.166   0.875   3.109
13562TIP3   OH240628   1.210   7.690   2.468
13562TIP3    H140629   1.305   7.679   2.464
13562TIP3    H240630   1.196   7.754   2.538
13563TIP3   OH240631   6.769   0.968   6.014
13563TIP3    H140632   6.691   1.013   5.980
13563TIP3    H240633   6.736   0.916   6.087
13564TIP3   OH240634   4.032   6.439   2.630
13564TIP3    H140635   3.959   6.426   2.570
13564TIP3    H240636   3.990   6.449   2.716
13565TIP3   OH240637   3.676   5.432   3.375
13565TIP3    H140638   3.697   5.431   3.282
13565TIP3    H240639   3.728   5.504   3.410
13566TIP3   OH240640   7.337   3.372   6.497
13566TIP3    H140641   7.374   3.417   6.573
13566TIP3    H240642   7.293   3.440   6.447
13567TIP3   OH240643   4.932   7.724   3.575
13567TIP3    H140644   4.873   7.781   3.525
13567TIP3    H240645   4.876   7.688   3.644
13568TIP3   OH240646   6.536   4.483   2.482
13568TIP3    H140647   6.466   4.547   2.497
13568TIP3    H240648   6.544   4.436   2.564
13569TIP3   OH240649   5.354   6.697   5.681
13569TIP3    H140650   5.348   6.746   5.763
13569TIP3    H240651   5.443   6.664   5.680
13570TIP3   OH240652   0.252   1.265   2.131
13570TIP3    H140653   0.178   1.306   2.176
13570TIP3    H240654   0.259   1.312   2.048
13571TIP3   OH240655   2.205   4.787   5.375
13571TIP3    H140656   2.269   4.816   5.439
13571TIP3    H240657   2.256   4.738   5.310
13572TIP3   OH240658   1.851   6.256   2.026
13572TIP3    H140659   1.902   6.305   2.090
13572TIP3    H240660   1.911   6.241   1.953
13573TIP3   OH240661   0.640   6.774   0.941
13573TIP3    H140662   0.579   6.711   0.902
13573TIP3    H240663   0.602   6.860   0.923
13574TIP3   OH240664   1.684   1.815   2.597
13574TIP3    H140665   1.678   1.724   2.569
13574TIP3    H240666   1.594   1.839   2.621
13575TIP3   OH240667   2.577   0.693   2.455
13575TIP3    H140668   2.507   0.697   2.390
13575TIP3    H240669   2.532   0.706   2.539
13576TIP3   OH240670   6.334   0.268   2.883
13576TIP3    H140671   6.373   0.237   2.801
13576TIP3    H240672   6.396   0.334   2.915
13577TIP3   OH240673   2.412   2.854   3.353
13577TIP3    H140674   2.417   2.899   3.269
13577TIP3    H240675   2.345   2.787   3.340
13578TIP3   OH240676   2.203   7.457   3.447
13578TIP3    H140677   2.122   7.445   3.397
13578TIP3    H240678   2.270   7.471   3.380
13579TIP3   OH240679   4.123   0.914   1.411
13579TIP3    H140680   4.051   0.922   1.348
13579TIP3    H240681   4.131   1.002   1.449
13580TIP3   OH240682   0.066   1.597   5.810
13580TIP3    H140683  -0.015   1.555   5.838
13580TIP3    H240684   0.054   1.613   5.717
13581TIP3   OH240685   1.220   7.160   6.264
13581TIP3    H140686   1.168   7.226   6.310
13581TIP3    H240687   1.164   7.082   6.264
13582TIP3   OH240688   3.907   3.491   1.147
13582TIP3    H140689   3.857   3.418   1.108
13582TIP3    H240690   3.934   3.459   1.232
13583TIP3   OH240691   6.202   5.887   2.934
13583TIP3    H140692   6.228   5.808   2.981
13583TIP3    H240693   6.167   5.855   2.850
13584TIP3   OH240694   2.249   5.100   1.595
13584TIP3    H140695   2.213   5.016   1.568
13584TIP3    H240696   2.285   5.084   1.682
13585TIP3   OH240697   3.103   5.171   3.070
13585TIP3    H140698   3.106   5.159   2.975
13585TIP3    H240699   3.021   5.218   3.086
13586TIP3   OH240700   5.900   5.784   5.474
13586TIP3    H140701   5.925   5.697   5.443
13586TIP3    H240702   5.960   5.843   5.429
13587TIP3   OH240703   5.464   5.438   1.822
13587TIP3    H140704   5.470   5.370   1.755
13587TIP3    H240705   5.488   5.518   1.777
13588TIP3   OH240706   4.386   1.322   5.363
13588TIP3    H140707   4.382   1.379   5.439
13588TIP3    H240708   4.320   1.254   5.379
13589TIP3   OH240709   4.504   6.219   0.898
13589TIP3    H140710   4.538   6.132   0.918
13589TIP3    H240711   4.495   6.220   0.803
13590TIP3   OH240712   0.418   7.448   4.912
13590TIP3    H140713   0.424   7.375   4.974
13590TIP3    H240714   0.373   7.517   4.961
13591TIP3   OH240715   0.638   5.424   5.123
13591TIP3    H140716   0.722   5.380   5.130
13591TIP3    H240717   0.660   5.513   5.096
13592TIP3   OH240718   0.211   0.370   0.001
13592TIP3    H140719   0.291   0.356   0.051
13592TIP3    H240720   0.192   0.463   0.013
13593TIP3   OH240721   3.173   0.004   1.384
13593TIP3    H140722   3.232  -0.016   1.457
13593TIP3    H240723   3.087  -0.028   1.413
13594TIP3   OH240724   7.222   2.801   3.405
13594TIP3    H140725   7.193   2.889   3.383
13594TIP3    H240726   7.217   2.753   3.323
13595TIP3   OH240727   1.124   7.122   6.628
13595TIP3    H140728   1.068   7.189   6.667
13595TIP3    H240729   1.168   7.166   6.556
13596TIP3   OH240730   2.986   3.430   1.297
13596TIP3    H140731   3.063   3.462   1.251
13596TIP3    H240732   2.912   3.458   1.243
13597TIP3   OH240733   3.570   4.853   5.822
13597TIP3    H140734   3.494   4.888   5.775
13597TIP3    H240735   3.536   4.831   5.909
13598TIP3   OH240736   4.898   6.840   5.902
13598TIP3    H140737   4.881   6.830   5.995
13598TIP3    H240738   4.812   6.839   5.861
13599TIP3   OH240739   5.109   2.863   6.148
13599TIP3    H140740   5.033   2.921   6.158
13599TIP3    H240741   5.077   2.791   6.094
13600TIP3   OH240742   4.791   2.718   0.587
13600TIP3    H140743   4.735   2.667   0.645
13600TIP3    H240744   4.731   2.763   0.528
13601TIP3   OH240745   4.475   6.574   2.623
13601TIP3    H140746   4.497   6.551   2.533
13601TIP3    H240747   4.486   6.493   2.672
13602TIP3   OH240748   3.034   0.845   5.469
13602TIP3    H140749   2.990   0.869   5.550
13602TIP3    H240750   3.049   0.751   5.476
13603TIP3   OH240751   0.600   7.507   0.326
13603TIP3    H140752   0.638   7.590   0.354
13603TIP3    H240753   0.652   7.481   0.250
13604TIP3   OH240754   0.349   0.904   5.340
13604TIP3    H140755   0.359   0.962   5.415
13604TIP3    H240756   0.305   0.956   5.274
13605TIP3   OH240757   2.593   1.733   1.591
13605TIP3    H140758   2.617   1.646   1.623
13605TIP3    H240759   2.500   1.741   1.610
13606TIP3   OH240760   4.230   6.717   3.568
13606TIP3    H140761   4.142   6.752   3.578
13606TIP3    H240762   4.286   6.794   3.559
13607TIP3   OH240763   7.545   5.175   0.273
13607TIP3    H140764   7.462   5.223   0.268
13607TIP3    H240765   7.611   5.243   0.290
13608TIP3   OH240766   1.686   2.967   6.610
13608TIP3    H140767   1.726   2.896   6.561
13608TIP3    H240768   1.715   2.953   6.701
13609TIP3   OH240769   7.710   4.735   0.183
13609TIP3    H140770   7.785   4.708   0.236
13609TIP3    H240771   7.636   4.731   0.243
13610TIP3   OH240772   7.849   4.698   3.983
13610TIP3    H140773   7.940   4.698   4.013
13610TIP3    H240774   7.855   4.689   3.888
13611TIP3   OH240775   7.936   2.450   3.577
13611TIP3    H140776   7.969   2.402   3.653
13611TIP3    H240777   7.957   2.395   3.502
13612TIP3   OH240778   4.268   6.086   4.634
13612TIP3    H140779   4.349   6.100   4.584
13612TIP3    H240780   4.269   6.153   4.701
13613TIP3   OH240781   4.138   5.127   4.165
13613TIP3    H140782   4.080   5.057   4.135
13613TIP3    H240783   4.224   5.102   4.131
13614TIP3   OH240784   5.971   3.516   0.029
13614TIP3    H140785   5.900   3.467   0.070
13614TIP3    H240786   6.022   3.551   0.102
13615TIP3   OH240787   4.365   2.320   1.396
13615TIP3    H140788   4.316   2.285   1.470
13615TIP3    H240789   4.382   2.244   1.340
13616TIP3   OH240790   4.287   6.551   1.798
13616TIP3    H140791   4.198   6.585   1.790
13616TIP3    H240792   4.343   6.619   1.760
13617TIP3   OH240793   0.078   2.517   3.720
13617TIP3    H140794  -0.004   2.545   3.679
13617TIP3    H240795   0.131   2.597   3.725
13618TIP3   OH240796   0.194   7.783   6.180
13618TIP3    H140797   0.243   7.732   6.245
13618TIP3    H240798   0.238   7.764   6.097
13619TIP3   OH240799   8.205   6.490   1.276
13619TIP3    H140800   8.265   6.422   1.309
13619TIP3    H240801   8.147   6.509   1.349
13620TIP3   OH240802   6.121   0.931   6.564
13620TIP3    H140803   6.144   0.950   6.473
13620TIP3    H240804   6.204   0.927   6.610
13621TIP3   OH240805   0.427   0.852   5.859
13621TIP3    H140806   0.477   0.930   5.884
13621TIP3    H240807   0.370   0.834   5.934
13622TIP3   OH240808   7.532   4.732   1.953
13622TIP3    H140809   7.569   4.721   1.866
13622TIP3    H240810   7.447   4.687   1.949
13623TIP3   OH240811   6.875   7.022   5.809
13623TIP3    H140812   6.879   6.957   5.738
13623TIP3    H240813   6.782   7.029   5.830
13624TIP3   OH240814   7.502   5.190   0.784
13624TIP3    H140815   7.572   5.131   0.812
13624TIP3    H240816   7.479   5.159   0.696
13625TIP3   OH240817   0.859   6.845   3.865
13625TIP3    H140818   0.835   6.873   3.953
13625TIP3    H240819   0.784   6.793   3.835
13626TIP3   OH240820   3.294   5.599   5.600
13626TIP3    H140821   3.208   5.559   5.604
13626TIP3    H240822   3.284   5.673   5.541
13627TIP3   OH240823   7.177   2.350   6.470
13627TIP3    H140824   7.139   2.413   6.531
13627TIP3    H240825   7.127   2.269   6.485
13628TIP3   OH240826   7.726   6.872   1.752
13628TIP3    H140827   7.717   6.778   1.732
13628TIP3    H240828   7.806   6.898   1.707
13629TIP3   OH240829   2.924   4.530   6.413
13629TIP3    H140830   3.000   4.538   6.355
13629TIP3    H240831   2.863   4.597   6.382
13630TIP3   OH240832   6.431   2.424   0.934
13630TIP3    H140833   6.337   2.415   0.951
13630TIP3    H240834   6.440   2.512   0.898
13631TIP3   OH240835   7.777   3.766   6.461
13631TIP3    H140836   7.686   3.787   6.439
13631TIP3    H240837   7.811   3.725   6.382
13632TIP3   OH240838   7.369   2.357   4.359
13632TIP3    H140839   7.419   2.314   4.428
13632TIP3    H240840   7.430   2.365   4.286
13633TIP3   OH240841   6.308   4.716   2.940
13633TIP3    H140842   6.257   4.673   2.872
13633TIP3    H240843   6.399   4.710   2.910
13634TIP3   OH240844   6.126   4.596   3.198
13634TIP3    H140845   6.211   4.638   3.182
13634TIP3    H240846   6.149   4.514   3.243
13635TIP3   OH240847   0.955   1.247   3.875
13635TIP3    H140848   0.953   1.326   3.929
13635TIP3    H240849   0.996   1.181   3.931
13636TIP3   OH240850   6.161   5.224   6.195
13636TIP3    H140851   6.147   5.242   6.288
13636TIP3    H240852   6.125   5.136   6.182
13637TIP3   OH240853   1.470   2.602   0.710
13637TIP3    H140854   1.450   2.508   0.710
13637TIP3    H240855   1.388   2.644   0.686
13638TIP3   OH240856   1.831   1.091   6.552
13638TIP3    H140857   1.820   1.086   6.457
13638TIP3    H240858   1.914   1.136   6.564
13639TIP3   OH240859   4.743   7.636   0.849
13639TIP3    H140860   4.799   7.621   0.773
13639TIP3    H240861   4.654   7.628   0.816
13640TIP3   OH240862   0.972   6.367   2.828
13640TIP3    H140863   1.017   6.425   2.889
13640TIP3    H240864   0.881   6.395   2.830
13641TIP3   OH240865   0.614   2.316   2.638
13641TIP3    H140866   0.566   2.366   2.572
13641TIP3    H240867   0.698   2.362   2.645
13642TIP3   OH240868   0.323   7.167   1.734
13642TIP3    H140869   0.349   7.256   1.709
13642TIP3    H240870   0.227   7.170   1.736
13643TIP3   OH240871   7.796   3.682   0.868
13643TIP3    H140872   7.872   3.734   0.895
13643TIP3    H240873   7.736   3.687   0.942
13644TIP3   OH240874   5.589   1.459   5.417
13644TIP3    H140875   5.517   1.398   5.432
13644TIP3    H240876   5.564   1.538   5.466
13645TIP3   OH240877   8.047   4.121   0.681
13645TIP3    H140878   8.060   4.070   0.601
13645TIP3    H240879   8.123   4.100   0.735
13646TIP3   OH240880   3.349   2.838   0.717
13646TIP3    H140881   3.267   2.823   0.763
13646TIP3    H240882   3.398   2.756   0.729
13647TIP3   OH240883   6.103   3.273   1.645
13647TIP3    H140884   6.052   3.353   1.661
13647TIP3    H240885   6.041   3.202   1.659
13648TIP3   OH240886   4.910   3.034   6.220
13648TIP3    H140887   4.940   3.069   6.304
13648TIP3    H240888   4.818   3.011   6.235
13649TIP3   OH240889   7.751   6.181   1.489
13649TIP3    H140890   7.797   6.264   1.502
13649TIP3    H240891   7.743   6.144   1.577
13650TIP3   OH240892   2.385   1.411   3.076
13650TIP3    H140893   2.465   1.445   3.114
13650TIP3    H240894   2.329   1.392   3.151
13651TIP3   OH240895   1.741   4.886   5.613
13651TIP3    H140896   1.717   4.977   5.597
13651TIP3    H240897   1.823   4.874   5.565
13652TIP3   OH240898   8.031   0.258   5.323
13652TIP3    H140899   7.950   0.258   5.272
13652TIP3    H240900   8.092   0.205   5.271
13653TIP3   OH240901   6.206   6.562   2.155
13653TIP3    H140902   6.279   6.620   2.176
13653TIP3    H240903   6.178   6.589   2.067
13654TIP3   OH240904   2.904   2.431   2.766
13654TIP3    H140905   2.968   2.360   2.772
13654TIP3    H240906   2.834   2.395   2.711
13655TIP3   OH240907   6.313   6.836   6.029
13655TIP3    H140908   6.317   6.932   6.027
13655TIP3    H240909   6.353   6.809   5.947
13656TIP3   OH240910   7.770   6.322   4.013
13656TIP3    H140911   7.785   6.305   4.106
13656TIP3    H240912   7.839   6.383   3.988
13657TIP3   OH240913   5.916   4.794   6.320
13657TIP3    H140914   5.971   4.716   6.319
13657TIP3    H240915   5.830   4.762   6.350
13658TIP3   OH240916   5.423   2.328   4.874
13658TIP3    H140917   5.447   2.353   4.785
13658TIP3    H240918   5.376   2.245   4.865
13659TIP3   OH240919   4.562   4.599   0.353
13659TIP3    H140920   4.495   4.599   0.422
13659TIP3    H240921   4.591   4.690   0.349
13660TIP3   OH240922   6.157   2.463   0.956
13660TIP3    H140923   6.161   2.543   1.008
13660TIP3    H240924   6.075   2.422   0.982
13661TIP3   OH240925   7.204   7.568   3.940
13661TIP3    H140926   7.132   7.515   3.905
13661TIP3    H240927   7.188   7.570   4.034
13662TIP3   OH240928   4.388   3.941   5.358
13662TIP3    H140929   4.336   4.019   5.376
13662TIP3    H240930   4.416   3.911   5.445
13663TIP3   OH240931   3.017   6.924   4.728
13663TIP3    H140932   2.983   7.012   4.712
13663TIP3    H240933   3.023   6.917   4.823
13664TIP3   OH240934   7.093   0.886   1.136
13664TIP3    H140935   7.068   0.845   1.054
13664TIP3    H240936   7.012   0.923   1.171
13665TIP3   OH240937   1.631   3.097   3.378
13665TIP3    H140938   1.677   3.097   3.462
13665TIP3    H240939   1.619   3.189   3.357
13666TIP3   OH240940   3.539   4.200   0.432
13666TIP3    H140941   3.619   4.233   0.391
13666TIP3    H240942   3.534   4.108   0.405
13667TIP3   OH240943   0.322   7.462   6.246
13667TIP3    H140944   0.337   7.540   6.299
13667TIP3    H240945   0.370   7.478   6.165
13668TIP3   OH240946   6.034   5.265   5.033
13668TIP3    H140947   6.064   5.354   5.013
13668TIP3    H240948   5.992   5.272   5.119
13669TIP3   OH240949   1.705   3.334   2.346
13669TIP3    H140950   1.764   3.405   2.321
13669TIP3    H240951   1.621   3.359   2.308
13670TIP3   OH240952   7.373   7.763   4.860
13670TIP3    H140953   7.444   7.759   4.925
13670TIP3    H240954   7.408   7.716   4.784
13671TIP3   OH240955   4.390   0.404   4.681
13671TIP3    H140956   4.389   0.344   4.755
13671TIP3    H240957   4.308   0.388   4.635
13672TIP3   OH240958   2.171   3.201   0.757
13672TIP3    H140959   2.168   3.189   0.851
13672TIP3    H240960   2.213   3.122   0.723
13673TIP3   OH240961   5.088   1.217   1.509
13673TIP3    H140962   5.021   1.275   1.472
13673TIP3    H240963   5.039   1.146   1.550
13674TIP3   OH240964   1.941   3.949   4.227
13674TIP3    H140965   1.978   3.891   4.162
13674TIP3    H240966   1.863   3.986   4.186
13675TIP3   OH240967   2.184   0.630   0.253
13675TIP3    H140968   2.133   0.553   0.278
13675TIP3    H240969   2.269   0.595   0.226
13676TIP3   OH240970   0.010   5.473   3.903
13676TIP3    H140971   0.005   5.379   3.887
13676TIP3    H240972   0.044   5.509   3.822
13677TIP3   OH240973   6.514   1.325   6.444
13677TIP3    H140974   6.431   1.281   6.426
13677TIP3    H240975   6.491   1.416   6.461
13678TIP3   OH240976   2.070   0.576   5.926
13678TIP3    H140977   2.153   0.589   5.881
13678TIP3    H240978   2.072   0.639   5.999
13679TIP3   OH240979   4.179   2.748   0.299
13679TIP3    H140980   4.172   2.661   0.261
13679TIP3    H240981   4.269   2.753   0.333
13680TIP3   OH240982   7.107   6.769   0.428
13680TIP3    H140983   7.033   6.818   0.465
13680TIP3    H240984   7.166   6.756   0.502
13681TIP3   OH240985   6.620   4.788   5.332
13681TIP3    H140986   6.620   4.843   5.254
13681TIP3    H240987   6.698   4.815   5.381
13682TIP3   OH240988   2.869   0.771   0.337
13682TIP3    H140989   2.883   0.709   0.409
13682TIP3    H240990   2.775   0.774   0.325
13683TIP3   OH240991   7.137   1.976   4.723
13683TIP3    H140992   7.073   2.008   4.659
13683TIP3    H240993   7.092   1.904   4.767
13684TIP3   OH240994   6.491   1.964   0.630
13684TIP3    H140995   6.403   1.993   0.653
13684TIP3    H240996   6.477   1.898   0.561
13685TIP3   OH240997   1.268   6.933   3.020
13685TIP3    H140998   1.175   6.955   3.024
13685TIP3    H240999   1.299   6.975   2.939
13686TIP3   OH241000   1.999   1.644   0.926
13686TIP3    H141001   2.079   1.628   0.975
13686TIP3    H241002   1.959   1.557   0.916
13687TIP3   OH241003   2.952   3.301   2.140
13687TIP3    H141004   3.044   3.275   2.136
13687TIP3    H241005   2.938   3.330   2.230
13688TIP3   OH241006   2.644   4.457   3.737
13688TIP3    H141007   2.580   4.410   3.791
13688TIP3    H241008   2.726   4.451   3.787
13689TIP3   OH241009   8.075   6.179   2.324
13689TIP3    H141010   7.998   6.212   2.278
13689TIP3    H241011   8.058   6.085   2.334
13690TIP3   OH241012   7.122   4.577   2.784
13690TIP3    H141013   7.149   4.508   2.844
13690TIP3    H241014   7.048   4.619   2.828
13691TIP3   OH241015   4.934   6.458   1.482
13691TIP3    H141016   4.915   6.549   1.458
13691TIP3    H241017   4.994   6.465   1.556
13692TIP3   OH241018   6.085   1.888   2.280
13692TIP3    H141019   6.102   1.820   2.345
13692TIP3    H241020   6.045   1.959   2.330
13693TIP3   OH241021   7.651   4.592   3.517
13693TIP3    H141022   7.609   4.573   3.432
13693TIP3    H241023   7.742   4.566   3.505
13694TIP3   OH241024   0.332   1.754   6.393
13694TIP3    H141025   0.416   1.724   6.428
13694TIP3    H241026   0.354   1.810   6.319
13695TIP3   OH241027   5.475   1.046   1.509
13695TIP3    H141028   5.539   1.057   1.580
13695TIP3    H241029   5.461   0.952   1.504
13696TIP3   OH241030   0.269   7.793   2.870
13696TIP3    H141031   0.277   7.823   2.961
13696TIP3    H241032   0.309   7.706   2.871
13697TIP3   OH241033   4.301   3.163   1.733
13697TIP3    H141034   4.319   3.176   1.640
13697TIP3    H241035   4.207   3.176   1.741
13698TIP3   OH241036   7.193   0.920   5.298
13698TIP3    H141037   7.114   0.955   5.338
13698TIP3    H241038   7.172   0.917   5.204
13699TIP3   OH241039   5.231   6.663   4.356
13699TIP3    H141040   5.202   6.754   4.365
13699TIP3    H241041   5.290   6.665   4.280
13700TIP3   OH241042   6.764   2.945   3.671
13700TIP3    H141043   6.765   2.852   3.693
13700TIP3    H241044   6.777   2.948   3.576
13701TIP3   OH241045   7.749   1.834   3.439
13701TIP3    H141046   7.783   1.819   3.527
13701TIP3    H241047   7.663   1.791   3.439
13702TIP3   OH241048   2.504   4.406   1.370
13702TIP3    H141049   2.583   4.457   1.349
13702TIP3    H241050   2.495   4.345   1.297
13703TIP3   OH241051   4.765   1.936   4.619
13703TIP3    H141052   4.738   1.860   4.669
13703TIP3    H241053   4.848   1.910   4.578
13704TIP3   OH241054   2.593   3.929   2.493
13704TIP3    H141055   2.578   3.989   2.565
13704TIP3    H241056   2.553   3.972   2.417
13705TIP3   OH241057   7.710   2.895   5.528
13705TIP3    H141058   7.802   2.874   5.544
13705TIP3    H241059   7.671   2.898   5.615
13706TIP3   OH241060   6.734   6.117   2.159
13706TIP3    H141061   6.664   6.145   2.218
13706TIP3    H241062   6.815   6.136   2.207
13707TIP3   OH241063   1.248   6.208   5.841
13707TIP3    H141064   1.343   6.223   5.841
13707TIP3    H241065   1.211   6.290   5.874
13708TIP3   OH241066   2.995   6.244   5.306
13708TIP3    H141067   2.995   6.179   5.377
13708TIP3    H241068   2.904   6.274   5.301
13709TIP3   OH241069   1.271   3.402   6.237
13709TIP3    H141070   1.300   3.437   6.321
13709TIP3    H241071   1.349   3.406   6.181
13710TIP3   OH241072   6.895   7.145   5.488
13710TIP3    H141073   6.988   7.164   5.491
13710TIP3    H241074   6.883   7.072   5.549
13711TIP3   OH241075   6.441   4.851   0.537
13711TIP3    H141076   6.419   4.760   0.517
13711TIP3    H241077   6.385   4.875   0.610
13712TIP3   OH241078   6.931   4.999   3.845
13712TIP3    H141079   6.894   5.023   3.931
13712TIP3    H241080   6.983   5.075   3.820
13713TIP3   OH241081   7.080   2.662   1.062
13713TIP3    H141082   6.996   2.705   1.049
13713TIP3    H241083   7.060   2.586   1.117
13714TIP3   OH241084   2.576   6.295   1.767
13714TIP3    H141085   2.584   6.212   1.721
13714TIP3    H241086   2.529   6.352   1.705
13715TIP3   OH241087   4.448   3.395   0.367
13715TIP3    H141088   4.401   3.363   0.290
13715TIP3    H241089   4.539   3.402   0.338
13716TIP3   OH241090   5.708   4.017   5.461
13716TIP3    H141091   5.708   4.095   5.517
13716TIP3    H241092   5.637   4.033   5.398
13717TIP3   OH241093   3.040   3.577   6.283
13717TIP3    H141094   3.021   3.663   6.322
13717TIP3    H241095   3.136   3.572   6.282
13718TIP3   OH241096   3.305   1.530   2.775
13718TIP3    H141097   3.328   1.562   2.862
13718TIP3    H241098   3.387   1.530   2.727
13719TIP3   OH241099   0.334   3.237   1.313
13719TIP3    H141100   0.343   3.316   1.365
13719TIP3    H241101   0.408   3.182   1.340
13720TIP3   OH241102   7.321   1.400   1.720
13720TIP3    H141103   7.333   1.465   1.788
13720TIP3    H241104   7.395   1.413   1.661
13721TIP3   OH241105   8.082   6.342   3.156
13721TIP3    H141106   7.994   6.317   3.184
13721TIP3    H241107   8.071   6.373   3.067
13722TIP3   OH241108   4.790   7.191   2.886
13722TIP3    H141109   4.843   7.146   2.822
13722TIP3    H241110   4.851   7.215   2.956
13723TIP3   OH241111   7.601   1.848   5.857
13723TIP3    H141112   7.641   1.770   5.895
13723TIP3    H241113   7.546   1.884   5.927
13724TIP3   OH241114   1.601   3.655   5.212
13724TIP3    H141115   1.682   3.614   5.184
13724TIP3    H241116   1.538   3.583   5.218
13725TIP3   OH241117   1.000   6.639   4.889
13725TIP3    H141118   1.031   6.702   4.825
13725TIP3    H241119   0.994   6.688   4.971
13726TIP3   OH241120   3.045   0.824   4.172
13726TIP3    H141121   3.092   0.857   4.096
13726TIP3    H241122   2.998   0.747   4.141
13727TIP3   OH241123   2.233   6.684   2.843
13727TIP3    H141124   2.153   6.680   2.791
13727TIP3    H241125   2.261   6.593   2.852
13728TIP3   OH241126   7.254   3.175   4.150
13728TIP3    H141127   7.286   3.098   4.197
13728TIP3    H241128   7.283   3.249   4.203
13729TIP3   OH241129   4.099   6.173   3.682
13729TIP3    H141130   4.053   6.176   3.598
13729TIP3    H241131   4.182   6.218   3.665
13730TIP3   OH241132   2.749   2.680   4.148
13730TIP3    H141133   2.722   2.674   4.240
13730TIP3    H241134   2.722   2.768   4.121
13731TIP3   OH241135   6.334   4.794   6.132
13731TIP3    H141136   6.360   4.874   6.085
13731TIP3    H241137   6.244   4.779   6.105
13732TIP3   OH241138   3.304   4.762   3.406
13732TIP3    H141139   3.289   4.672   3.377
13732TIP3    H241140   3.395   4.781   3.383
13733TIP3   OH241141   2.182   6.112   0.889
13733TIP3    H141142   2.170   6.205   0.870
13733TIP3    H241143   2.266   6.108   0.937
13734TIP3   OH241144   6.050   2.728   5.421
13734TIP3    H141145   6.049   2.821   5.398
13734TIP3    H241146   6.054   2.683   5.337
13735TIP3   OH241147   1.546   2.318   1.537
13735TIP3    H141148   1.636   2.333   1.566
13735TIP3    H241149   1.533   2.224   1.547
13736TIP3   OH241150   0.543   3.748   0.855
13736TIP3    H141151   0.578   3.682   0.796
13736TIP3    H241152   0.549   3.830   0.807
13737TIP3   OH241153   6.253   2.315   3.549
13737TIP3    H141154   6.173   2.318   3.497
13737TIP3    H241155   6.265   2.223   3.570
13738TIP3   OH241156   0.333   2.672   4.213
13738TIP3    H141157   0.409   2.639   4.165
13738TIP3    H241158   0.341   2.767   4.209
13739TIP3   OH241159   1.964   5.095   4.248
13739TIP3    H141160   1.905   5.025   4.277
13739TIP3    H241161   2.052   5.062   4.267
13740TIP3   OH241162   3.261   3.233   0.183
13740TIP3    H141163   3.349   3.268   0.170
13740TIP3    H241164   3.210   3.307   0.218
13741TIP3   OH241165   7.938   7.313   0.325
13741TIP3    H141166   7.989   7.390   0.350
13741TIP3    H241167   7.978   7.284   0.242
13742TIP3   OH241168   0.914   0.436   6.633
13742TIP3    H141169   0.965   0.507   6.594
13742TIP3    H241170   0.928   0.444   6.727
13743TIP3   OH241171   1.556   2.948   1.372
13743TIP3    H141172   1.491   2.901   1.424
13743TIP3    H241173   1.517   2.952   1.284
13744TIP3   OH241174   8.228   3.548   4.566
13744TIP3    H141175   8.285   3.591   4.630
13744TIP3    H241176   8.214   3.460   4.601
13745TIP3   OH241177   6.024   7.292   6.296
13745TIP3    H141178   6.105   7.331   6.328
13745TIP3    H241179   5.965   7.294   6.371
13746TIP3   OH241180   2.317   4.239   1.477
13746TIP3    H141181   2.229   4.275   1.462
13746TIP3    H241182   2.376   4.307   1.447
13747TIP3   OH241183   3.669   5.987   6.248
13747TIP3    H141184   3.693   5.904   6.290
13747TIP3    H241185   3.712   6.053   6.302
13748TIP3   OH241186   2.470   5.524   4.682
13748TIP3    H141187   2.433   5.535   4.770
13748TIP3    H241188   2.486   5.430   4.675
13749TIP3   OH241189   3.167   2.432   2.480
13749TIP3    H141190   3.174   2.523   2.453
13749TIP3    H241191   3.212   2.428   2.565
13750TIP3   OH241192   3.375   5.225   4.693
13750TIP3    H141193   3.386   5.257   4.603
13750TIP3    H241194   3.318   5.149   4.684
13751TIP3   OH241195   6.376   7.625   4.581
13751TIP3    H141196   6.336   7.578   4.508
13751TIP3    H241197   6.401   7.557   4.643
13752TIP3   OH241198   1.904   5.954   6.634
13752TIP3    H141199   1.886   5.866   6.600
13752TIP3    H241200   1.825   6.004   6.614
13753TIP3   OH241201   0.527   1.788   4.757
13753TIP3    H141202   0.555   1.878   4.743
13753TIP3    H241203   0.476   1.766   4.679
13754TIP3   OH241204   0.237   1.257   4.844
13754TIP3    H141205   0.264   1.246   4.935
13754TIP3    H241206   0.142   1.252   4.846
13755TIP3   OH241207   2.913   5.978   3.378
13755TIP3    H141208   2.970   5.943   3.447
13755TIP3    H241209   2.899   5.904   3.319
13756TIP3   OH241210   5.571   4.244   5.843
13756TIP3    H141211   5.504   4.195   5.890
13756TIP3    H241212   5.534   4.332   5.833
13757TIP3   OH241213   4.572   6.932   0.562
13757TIP3    H141214   4.604   6.895   0.644
13757TIP3    H241215   4.596   6.868   0.496
13758TIP3   OH241216   1.012   7.819   4.445
13758TIP3    H141217   0.988   7.765   4.521
13758TIP3    H241218   0.965   7.779   4.372
13759TIP3   OH241219   4.882   5.526   4.391
13759TIP3    H141220   4.961   5.566   4.355
13759TIP3    H241221   4.908   5.494   4.477
13760TIP3   OH241222   5.529   5.255   5.080
13760TIP3    H141223   5.516   5.290   5.169
13760TIP3    H241224   5.478   5.313   5.024
13761TIP3   OH241225   0.641   0.273   6.627
13761TIP3    H141226   0.652   0.228   6.711
13761TIP3    H241227   0.705   0.344   6.630
13762TIP3   OH241228   5.356   1.788   2.952
13762TIP3    H141229   5.388   1.751   3.034
13762TIP3    H241230   5.405   1.869   2.940
13763TIP3   OH241231   1.499   2.770   5.031
13763TIP3    H141232   1.491   2.680   4.998
13763TIP3    H241233   1.575   2.768   5.089
13764TIP3   OH241234   8.090   7.517   5.678
13764TIP3    H141235   8.062   7.473   5.598
13764TIP3    H241236   8.079   7.452   5.747
13765TIP3   OH241237   7.508   2.530   1.849
13765TIP3    H141238   7.434   2.471   1.835
13765TIP3    H241239   7.564   2.516   1.773
13766TIP3   OH241240   7.155   0.237   6.124
13766TIP3    H141241   7.211   0.295   6.073
13766TIP3    H241242   7.094   0.201   6.060
13767TIP3   OH241243   2.003   3.808   5.584
13767TIP3    H141244   2.065   3.735   5.579
13767TIP3    H241245   1.973   3.808   5.675
13768TIP3   OH241246   3.468   4.109   2.196
13768TIP3    H141247   3.529   4.147   2.134
13768TIP3    H241248   3.408   4.056   2.143
13769TIP3   OH241249   7.356   4.636   5.518
13769TIP3    H141250   7.326   4.716   5.476
13769TIP3    H241251   7.391   4.664   5.602
13770TIP3   OH241252   2.053   3.777   6.812
13770TIP3    H141253   2.047   3.847   6.747
13770TIP3    H241254   2.136   3.734   6.792
13771TIP3   OH241255   7.807   2.774   1.839
13771TIP3    H141256   7.823   2.681   1.856
13771TIP3    H241257   7.860   2.820   1.905
13772TIP3   OH241258   4.866   7.344   0.237
13772TIP3    H141259   4.914   7.289   0.175
13772TIP3    H241260   4.787   7.294   0.257
13773TIP3   OH241261   6.718   4.906   5.055
13773TIP3    H141262   6.705   4.995   5.024
13773TIP3    H241263   6.812   4.899   5.071
13774TIP3   OH241264   4.947   7.422   5.997
13774TIP3    H141265   4.853   7.438   5.988
13774TIP3    H241266   4.955   7.327   5.999
13775TIP3   OH241267   2.577   1.341   0.962
13775TIP3    H141268   2.662   1.373   0.931
13775TIP3    H241269   2.598   1.263   1.013
13776TIP3   OH241270   5.085   1.630   6.240
13776TIP3    H141271   5.138   1.572   6.185
13776TIP3    H241272   5.141   1.705   6.257
13777TIP3   OH241273   2.822   7.711   0.530
13777TIP3    H141274   2.909   7.736   0.559
13777TIP3    H241275   2.764   7.778   0.565
13778TIP3   OH241276   1.562   1.182   4.499
13778TIP3    H141277   1.553   1.211   4.409
13778TIP3    H241278   1.575   1.262   4.550
13779TIP3   OH241279   6.783   2.001   1.800
13779TIP3    H141280   6.796   1.918   1.754
13779TIP3    H241281   6.850   2.001   1.869
13780TIP3   OH241282   2.478   0.321   4.209
13780TIP3    H141283   2.483   0.395   4.270
13780TIP3    H241284   2.403   0.341   4.153
13781TIP3   OH241285   6.296   7.217   0.878
13781TIP3    H141286   6.305   7.312   0.873
13781TIP3    H241287   6.206   7.200   0.852
13782TIP3   OH241288   6.431   5.291   5.035
13782TIP3    H141289   6.378   5.212   5.025
13782TIP3    H241290   6.510   5.260   5.079
13783TIP3   OH241291   1.536   0.091   3.536
13783TIP3    H141292   1.535   0.176   3.581
13783TIP3    H241293   1.629   0.067   3.533
13784TIP3   OH241294   7.878   5.000   2.164
13784TIP3    H141295   7.841   4.928   2.114
13784TIP3    H241296   7.802   5.043   2.203
13785TIP3   OH241297   6.015   5.652   1.906
13785TIP3    H141298   5.982   5.701   1.982
13785TIP3    H241299   6.088   5.601   1.941
13786TIP3   OH241300   7.518   5.415   0.498
13786TIP3    H141301   7.465   5.463   0.561
13786TIP3    H241302   7.463   5.411   0.419
13787TIP3   OH241303   6.022   2.750   4.614
13787TIP3    H141304   6.042   2.834   4.655
13787TIP3    H241305   6.023   2.687   4.686
13788TIP3   OH241306   7.070   2.111   3.725
13788TIP3    H141307   7.098   2.064   3.648
13788TIP3    H241308   6.980   2.082   3.740
13789TIP3   OH241309   4.830   3.104   2.518
13789TIP3    H141310   4.798   3.193   2.535
13789TIP3    H241311   4.754   3.058   2.482
13790TIP3   OH241312   4.551   7.216   1.825
13790TIP3    H141313   4.566   7.256   1.739
13790TIP3    H241314   4.615   7.146   1.830
13791TIP3   OH241315   1.404   6.035   0.790
13791TIP3    H141316   1.499   6.028   0.799
13791TIP3    H241317   1.370   6.003   0.873
13792TIP3   OH241318   0.603   2.026   6.402
13792TIP3    H141319   0.558   2.008   6.485
13792TIP3    H241320   0.568   2.111   6.375
13793TIP3   OH241321   4.042   2.228   4.416
13793TIP3    H141322   4.103   2.248   4.344
13793TIP3    H241323   4.072   2.143   4.449
13794TIP3   OH241324   2.813   7.507   0.846
13794TIP3    H141325   2.854   7.575   0.793
13794TIP3    H241326   2.777   7.445   0.782
13795TIP3   OH241327   4.251   6.008   6.517
13795TIP3    H141328   4.338   6.042   6.539
13795TIP3    H241329   4.195   6.040   6.588
13796TIP3   OH241330   2.300   2.776   1.322
13796TIP3    H141331   2.304   2.692   1.276
13796TIP3    H241332   2.251   2.758   1.402
13797TIP3   OH241333   2.974   6.354   5.997
13797TIP3    H141334   3.000   6.301   5.922
13797TIP3    H241335   3.057   6.384   6.035
13798TIP3   OH241336   2.196   6.097   5.860
13798TIP3    H141337   2.260   6.164   5.885
13798TIP3    H241338   2.118   6.118   5.911
13799TIP3   OH241339   3.640   2.023   0.580
13799TIP3    H141340   3.722   1.991   0.618
13799TIP3    H241341   3.640   1.988   0.491
13800TIP3   OH241342   3.148   0.367   3.696
13800TIP3    H141343   3.243   0.375   3.690
13800TIP3    H241344   3.134   0.283   3.739
13801TIP3   OH241345   5.550   7.005   4.026
13801TIP3    H141346   5.456   7.009   4.008
13801TIP3    H241347   5.559   7.041   4.114
13802TIP3   OH241348   7.707   1.696   5.097
13802TIP3    H141349   7.643   1.697   5.026
13802TIP3    H241350   7.655   1.710   5.177
13803TIP3   OH241351   0.500   4.216   2.317
13803TIP3    H141352   0.468   4.293   2.270
13803TIP3    H241353   0.593   4.210   2.295
13804TIP3   OH241354   4.564   6.007   3.827
13804TIP3    H141355   4.609   5.972   3.904
13804TIP3    H241356   4.472   5.982   3.839
13805TIP3   OH241357   0.261   3.316   4.631
13805TIP3    H141358   0.176   3.286   4.599
13805TIP3    H241359   0.240   3.388   4.691
13806TIP3   OH241360   2.416   2.574   0.307
13806TIP3    H141361   2.345   2.543   0.252
13806TIP3    H241362   2.490   2.584   0.248
13807TIP3   OH241363   0.967   2.116   3.923
13807TIP3    H141364   1.003   2.144   3.839
13807TIP3    H241365   1.013   2.034   3.942
13808TIP3   OH241366   1.578   7.770   0.668
13808TIP3    H141367   1.531   7.853   0.677
13808TIP3    H241368   1.511   7.702   0.678
13809TIP3   OH241369   0.918   2.855   6.216
13809TIP3    H141370   0.910   2.936   6.167
13809TIP3    H241371   0.922   2.786   6.150
13810TIP3   OH241372   1.679   7.391   3.253
13810TIP3    H141373   1.640   7.476   3.271
13810TIP3    H241374   1.663   7.340   3.332
13811TIP3   OH241375   5.984   3.988   2.473
13811TIP3    H141376   6.010   3.925   2.541
13811TIP3    H241377   6.003   3.943   2.390
13812TIP3   OH241378   1.588   7.390   2.713
13812TIP3    H141379   1.600   7.432   2.798
13812TIP3    H241380   1.558   7.302   2.734
13813TIP3   OH241381   3.230   6.127   2.365
13813TIP3    H141382   3.174   6.088   2.433
13813TIP3    H241383   3.246   6.055   2.304
13814TIP3   OH241384   7.410   1.862   4.795
13814TIP3    H141385   7.431   1.802   4.723
13814TIP3    H241386   7.315   1.864   4.798
13815TIP3   OH241387   3.120   5.310   3.954
13815TIP3    H141388   3.041   5.290   4.003
13815TIP3    H241389   3.187   5.327   4.020
13816TIP3   OH241390   3.047   4.673   0.128
13816TIP3    H141391   3.113   4.700   0.064
13816TIP3    H241392   2.968   4.658   0.077
13817TIP3   OH241393   1.684   5.100   3.429
13817TIP3    H141394   1.706   5.008   3.441
13817TIP3    H241395   1.683   5.136   3.517
13818TIP3   OH241396   1.999   1.681   3.819
13818TIP3    H141397   2.002   1.702   3.726
13818TIP3    H241398   1.974   1.764   3.861
13819TIP3   OH241399   3.617   1.962   3.105
13819TIP3    H141400   3.628   2.040   3.160
13819TIP3    H241401   3.551   1.987   3.040
13820TIP3   OH241402   2.281   6.796   4.575
13820TIP3    H141403   2.302   6.706   4.601
13820TIP3    H241404   2.312   6.850   4.647
13821TIP3   OH241405   4.741   7.386   0.641
13821TIP3    H141406   4.769   7.449   0.575
13821TIP3    H241407   4.753   7.301   0.599
13822TIP3   OH241408   1.650   6.021   3.028
13822TIP3    H141409   1.666   6.112   3.002
13822TIP3    H241410   1.693   5.970   2.960
13823TIP3   OH241411   5.561   0.466   4.357
13823TIP3    H141412   5.466   0.455   4.348
13823TIP3    H241413   5.598   0.406   4.291
13824TIP3   OH241414   4.436   1.411   0.934
13824TIP3    H141415   4.470   1.341   0.879
13824TIP3    H241416   4.417   1.482   0.873
13825TIP3   OH241417   1.611   1.759   3.296
13825TIP3    H141418   1.553   1.742   3.371
13825TIP3    H241419   1.690   1.797   3.335
13826TIP3   OH241420   6.173   6.463   4.144
13826TIP3    H141421   6.091   6.420   4.118
13826TIP3    H241422   6.181   6.444   4.237
13827TIP3   OH241423   5.412   1.602   4.185
13827TIP3    H141424   5.420   1.624   4.092
13827TIP3    H241425   5.465   1.523   4.196
13828TIP3   OH241426   1.939   3.854   5.871
13828TIP3    H141427   1.980   3.777   5.911
13828TIP3    H241428   1.873   3.882   5.934
13829TIP3   OH241429   3.640   3.241   2.757
13829TIP3    H141430   3.561   3.200   2.721
13829TIP3    H241431   3.682   3.283   2.682
13830TIP3   OH241432   1.190   5.562   2.217
13830TIP3    H141433   1.196   5.610   2.300
13830TIP3    H241434   1.187   5.470   2.242
13831TIP3   OH241435   1.946   7.746   5.233
13831TIP3    H141436   1.985   7.698   5.306
13831TIP3    H241437   1.939   7.836   5.264
13832TIP3   OH241438   0.828   3.489   3.926
13832TIP3    H141439   0.844   3.439   3.846
13832TIP3    H241440   0.748   3.451   3.962
13833TIP3   OH241441   1.594   5.184   5.275
13833TIP3    H141442   1.571   5.117   5.210
13833TIP3    H241443   1.517   5.188   5.332
13834TIP3   OH241444   7.203   3.720   3.338
13834TIP3    H141445   7.209   3.801   3.288
13834TIP3    H241446   7.178   3.747   3.426
13835TIP3   OH241447   6.767   1.386   2.140
13835TIP3    H141448   6.743   1.297   2.114
13835TIP3    H241449   6.751   1.439   2.062
13836TIP3   OH241450   6.653   2.269   0.062
13836TIP3    H141451   6.648   2.281  -0.033
13836TIP3    H241452   6.666   2.175   0.074
13837TIP3   OH241453   1.961   6.709   0.147
13837TIP3    H141454   1.895   6.681   0.084
13837TIP3    H241455   2.039   6.658   0.123
13838TIP3   OH241456   7.781   1.512   1.420
13838TIP3    H141457   7.826   1.585   1.377
13838TIP3    H241458   7.799   1.437   1.364
13839TIP3   OH241459   3.105   7.504   6.280
13839TIP3    H141460   3.117   7.447   6.357
13839TIP3    H241461   3.135   7.451   6.206
13840TIP3   OH241462   7.485   6.087   5.890
13840TIP3    H141463   7.551   6.039   5.839
13840TIP3    H241464   7.435   6.018   5.934
13841TIP3   OH241465   3.916   1.079   4.509
13841TIP3    H141466   3.936   1.170   4.488
13841TIP3    H241467   3.964   1.063   4.591
13842TIP3   OH241468   7.047   2.260   5.335
13842TIP3    H141469   7.026   2.328   5.399
13842TIP3    H241470   6.995   2.283   5.258
13843TIP3   OH241471   0.883   5.555   0.864
13843TIP3    H141472   0.838   5.475   0.836
13843TIP3    H241473   0.909   5.598   0.783
13844TIP3   OH241474   4.198   3.526   4.384
13844TIP3    H141475   4.153   3.475   4.451
13844TIP3    H241476   4.276   3.560   4.428
13845TIP3   OH241477   1.397   4.729   3.714
13845TIP3    H141478   1.431   4.756   3.628
13845TIP3    H241479   1.455   4.771   3.777
13846TIP3   OH241480   5.139   0.820   6.005
13846TIP3    H141481   5.209   0.885   5.997
13846TIP3    H241482   5.061   0.866   5.973
13847TIP3   OH241483   7.696   3.575   3.864
13847TIP3    H141484   7.764   3.605   3.803
13847TIP3    H241485   7.693   3.643   3.932
13848TIP3   OH241486   4.600   0.999   1.561
13848TIP3    H141487   4.557   0.916   1.541
13848TIP3    H241488   4.538   1.047   1.615
13849TIP3   OH241489   4.555   3.241   1.488
13849TIP3    H141490   4.643   3.277   1.500
13849TIP3    H241491   4.569   3.148   1.471
13850TIP3   OH241492   7.258   5.070   5.013
13850TIP3    H141493   7.260   5.158   5.052
13850TIP3    H241494   7.347   5.037   5.024
13851TIP3   OH241495   7.821   7.497   5.910
13851TIP3    H141496   7.747   7.469   5.964
13851TIP3    H241497   7.879   7.421   5.908
13852TIP3   OH241498   5.352   4.993   1.044
13852TIP3    H141499   5.426   5.040   1.006
13852TIP3    H241500   5.277   5.017   0.989
13853TIP3   OH241501   2.422   7.598   4.747
13853TIP3    H141502   2.454   7.658   4.814
13853TIP3    H241503   2.342   7.561   4.785
13854TIP3   OH241504   0.098   2.750   5.324
13854TIP3    H141505   0.003   2.749   5.310
13854TIP3    H241506   0.128   2.663   5.297
13855TIP3   OH241507   6.513   0.188   2.373
13855TIP3    H141508   6.467   0.173   2.290
13855TIP3    H241509   6.462   0.140   2.437
13856TIP3   OH241510   5.557   6.593   2.616
13856TIP3    H141511   5.609   6.514   2.603
13856TIP3    H241512   5.532   6.589   2.708
13857TIP3   OH241513   7.319   2.077   1.050
13857TIP3    H141514   7.293   2.042   1.135
13857TIP3    H241515   7.250   2.139   1.026
13858TIP3   OH241516   1.706   2.116   1.726
13858TIP3    H141517   1.669   2.197   1.762
13858TIP3    H241518   1.753   2.078   1.800
13859TIP3   OH241519   3.425   5.340   3.064
13859TIP3    H141520   3.401   5.262   3.015
13859TIP3    H241521   3.349   5.358   3.120
13860TIP3   OH241522   0.570   5.156   3.116
13860TIP3    H141523   0.527   5.174   3.033
13860TIP3    H241524   0.660   5.134   3.093
13861TIP3   OH241525   6.438   4.808   1.050
13861TIP3    H141526   6.403   4.755   1.122
13861TIP3    H241527   6.439   4.749   0.974
13862TIP3   OH241528   2.231   1.871   4.446
13862TIP3    H141529   2.288   1.939   4.411
13862TIP3    H241530   2.193   1.910   4.525
13863TIP3   OH241531   5.452   1.607   4.691
13863TIP3    H141532   5.458   1.690   4.644
13863TIP3    H241533   5.543   1.587   4.716
13864TIP3   OH241534   0.006   0.649   4.367
13864TIP3    H141535   0.063   0.678   4.295
13864TIP3    H241536   0.064   0.604   4.428
13865TIP3   OH241537   2.528   3.164   0.059
13865TIP3    H141538   2.621   3.171   0.080
13865TIP3    H241539   2.499   3.084   0.103
13866TIP3   OH241540   3.864   6.416   5.594
13866TIP3    H141541   3.905   6.455   5.671
13866TIP3    H241542   3.837   6.329   5.622
13867TIP3   OH241543   6.384   6.018   6.357
13867TIP3    H141544   6.310   6.079   6.356
13867TIP3    H241545   6.359   5.949   6.296
13868TIP3   OH241546   0.846   1.196   2.937
13868TIP3    H141547   0.907   1.258   2.977
13868TIP3    H241548   0.893   1.161   2.862
13869TIP3   OH241549   6.734   1.722   3.557
13869TIP3    H141550   6.729   1.736   3.463
13869TIP3    H241551   6.745   1.627   3.567
13870TIP3   OH241552   3.875   4.872   2.343
13870TIP3    H141553   3.909   4.803   2.400
13870TIP3    H241554   3.863   4.947   2.400
13871TIP3   OH241555   2.222   1.350   3.330
13871TIP3    H141556   2.288   1.333   3.398
13871TIP3    H241557   2.158   1.280   3.341
13872TIP3   OH241558   3.728   2.718   0.836
13872TIP3    H141559   3.656   2.681   0.785
13872TIP3    H241560   3.792   2.648   0.841
13873TIP3   OH241561   2.145   3.506   4.357
13873TIP3    H141562   2.170   3.545   4.440
13873TIP3    H241563   2.085   3.435   4.381
13874TIP3   OH241564   6.457   4.375   4.566
13874TIP3    H141565   6.551   4.354   4.571
13874TIP3    H241566   6.435   4.406   4.653
13875TIP3   OH241567   1.092   5.871   4.772
13875TIP3    H141568   1.068   5.918   4.852
13875TIP3    H241569   1.025   5.896   4.709
13876TIP3   OH241570   7.808   5.936   4.456
13876TIP3    H141571   7.816   5.980   4.372
13876TIP3    H241572   7.754   5.859   4.438
13877TIP3   OH241573   2.524   7.776   0.387
13877TIP3    H141574   2.603   7.828   0.372
13877TIP3    H241575   2.452   7.835   0.363
13878TIP3   OH241576   1.206   3.069   4.711
13878TIP3    H141577   1.186   3.025   4.629
13878TIP3    H241578   1.264   3.008   4.757
13879TIP3   OH241579   3.695   3.938   4.514
13879TIP3    H141580   3.671   3.856   4.471
13879TIP3    H241581   3.643   4.005   4.469
13880TIP3   OH241582   8.083   2.918   3.704
13880TIP3    H141583   8.176   2.895   3.705
13880TIP3    H241584   8.067   2.959   3.789
13881TIP3   OH241585   5.520   4.530   4.045
13881TIP3    H141586   5.487   4.617   4.069
13881TIP3    H241587   5.445   4.472   4.056
13882TIP3   OH241588   2.283   7.552   1.583
13882TIP3    H141589   2.288   7.579   1.674
13882TIP3    H241590   2.374   7.539   1.556
13883TIP3   OH241591   6.645   1.912   5.986
13883TIP3    H141592   6.734   1.878   5.978
13883TIP3    H241593   6.653   2.004   5.959
13884TIP3   OH241594   4.147   2.679   2.695
13884TIP3    H141595   4.123   2.711   2.782
13884TIP3    H241596   4.145   2.757   2.639
13885TIP3   OH241597   7.220   6.050   6.112
13885TIP3    H141598   7.255   5.986   6.174
13885TIP3    H241599   7.160   6.103   6.164
13886TIP3   OH241600   0.783   1.627   3.264
13886TIP3    H141601   0.860   1.679   3.287
13886TIP3    H241602   0.709   1.681   3.291
13887TIP3   OH241603   6.064   6.986   2.863
13887TIP3    H141604   6.089   7.078   2.854
13887TIP3    H241605   6.098   6.944   2.783
13888TIP3   OH241606   0.540   2.729   2.467
13888TIP3    H141607   0.520   2.699   2.555
13888TIP3    H241608   0.545   2.824   2.475
13889TIP3   OH241609   1.562   7.713   5.215
13889TIP3    H141610   1.504   7.718   5.291
13889TIP3    H241611   1.644   7.752   5.244
13890TIP3   OH241612   1.846   6.280   1.672
13890TIP3    H141613   1.785   6.245   1.607
13890TIP3    H241614   1.789   6.326   1.734
13891TIP3   OH241615   2.291   3.842   1.905
13891TIP3    H141616   2.201   3.817   1.922
13891TIP3    H241617   2.343   3.765   1.928
13892TIP3   OH241618   5.851   3.589   1.277
13892TIP3    H141619   5.756   3.599   1.282
13892TIP3    H241620   5.870   3.579   1.184
13893TIP3   OH241621   2.713   7.112   0.999
13893TIP3    H141622   2.797   7.074   0.975
13893TIP3    H241623   2.736   7.179   1.064
13894TIP3   OH241624   4.855   0.976   6.147
13894TIP3    H141625   4.890   0.977   6.058
13894TIP3    H241626   4.837   0.884   6.165
13895TIP3   OH241627   3.388   7.586   6.293
13895TIP3    H141628   3.293   7.583   6.306
13895TIP3    H241629   3.405   7.675   6.263
13896TIP3   OH241630   0.899   0.598   5.035
13896TIP3    H141631   0.821   0.636   5.076
13896TIP3    H241632   0.918   0.521   5.087
13897TIP3   OH241633   0.539   3.605   2.627
13897TIP3    H141634   0.599   3.588   2.554
13897TIP3    H241635   0.523   3.519   2.665
13898TIP3   OH241636   8.251   5.862   4.072
13898TIP3    H141637   8.194   5.844   4.147
13898TIP3    H241638   8.234   5.790   4.011
13899TIP3   OH241639   3.444   3.950   5.187
13899TIP3    H141640   3.397   3.936   5.105
13899TIP3    H241641   3.531   3.979   5.160
13900TIP3   OH241642   5.204   5.133   2.735
13900TIP3    H141643   5.299   5.127   2.720
13900TIP3    H241644   5.177   5.212   2.688
13901TIP3   OH241645   2.343   0.371   6.091
13901TIP3    H141646   2.257   0.371   6.132
13901TIP3    H241647   2.343   0.294   6.034
13902TIP3   OH241648   1.199   4.681   2.891
13902TIP3    H141649   1.196   4.697   2.797
13902TIP3    H241650   1.112   4.646   2.913
13903TIP3   OH241651   0.753   5.411   2.702
13903TIP3    H141652   0.780   5.440   2.789
13903TIP3    H241653   0.781   5.319   2.698
13904TIP3   OH241654   1.237   7.338   2.127
13904TIP3    H141655   1.154   7.319   2.170
13904TIP3    H241656   1.234   7.289   2.045
13905TIP3   OH241657   5.542   6.627   4.778
13905TIP3    H141658   5.592   6.701   4.743
13905TIP3    H241659   5.488   6.598   4.705
13906TIP3   OH241660   4.558   4.236   1.558
13906TIP3    H141661   4.613   4.178   1.610
13906TIP3    H241662   4.503   4.177   1.507
13907TIP3   OH241663   2.046   0.914   2.621
13907TIP3    H141664   2.027   0.944   2.710
13907TIP3    H241665   2.082   0.826   2.633
13908TIP3   OH241666   5.006   6.833   0.801
13908TIP3    H141667   4.991   6.926   0.812
13908TIP3    H241668   4.961   6.792   0.875
13909TIP3   OH241669   2.184   1.104   4.952
13909TIP3    H141670   2.201   1.010   4.964
13909TIP3    H241671   2.120   1.125   5.021
13910TIP3   OH241672   1.346   6.812   3.389
13910TIP3    H141673   1.427   6.773   3.422
13910TIP3    H241674   1.351   6.801   3.294
13911TIP3   OH241675   0.872   0.411   3.229
13911TIP3    H141676   0.966   0.428   3.228
13911TIP3    H241677   0.833   0.496   3.209
13912TIP3   OH241678   2.354   3.202   3.065
13912TIP3    H141679   2.369   3.278   3.008
13912TIP3    H241680   2.442   3.176   3.093
13913TIP3   OH241681   4.218   4.435   6.613
13913TIP3    H141682   4.170   4.391   6.683
13913TIP3    H241683   4.162   4.425   6.536
13914TIP3   OH241684   4.887   4.723   2.774
13914TIP3    H141685   4.956   4.691   2.716
13914TIP3    H241686   4.880   4.816   2.754
13915TIP3   OH241687   1.379   1.274   2.010
13915TIP3    H141688   1.449   1.211   1.992
13915TIP3    H241689   1.411   1.356   1.971
13916TIP3   OH241690   5.436   5.432   5.267
13916TIP3    H141691   5.481   5.516   5.258
13916TIP3    H241692   5.344   5.454   5.282
13917TIP3   OH241693   5.832   4.166   6.582
13917TIP3    H141694   5.819   4.087   6.530
13917TIP3    H241695   5.910   4.207   6.544
13918TIP3   OH241696   6.498   0.174   0.277
13918TIP3    H141697   6.423   0.119   0.255
13918TIP3    H241698   6.574   0.124   0.249
13919TIP3   OH241699   1.065   6.825   6.505
13919TIP3    H141700   1.048   6.757   6.570
13919TIP3    H241701   1.072   6.906   6.556
13920TIP3   OH241702   2.844   6.251   5.728
13920TIP3    H141703   2.884   6.187   5.787
13920TIP3    H241704   2.917   6.285   5.676
13921TIP3   OH241705   6.099   5.236   1.788
13921TIP3    H141706   6.023   5.261   1.840
13921TIP3    H241707   6.103   5.141   1.795
13922TIP3   OH241708   1.476   0.569   1.460
13922TIP3    H141709   1.549   0.528   1.415
13922TIP3    H241710   1.399   0.543   1.409
13923TIP3   OH241711   1.161   1.673   0.058
13923TIP3    H141712   1.206   1.607   0.006
13923TIP3    H241713   1.153   1.634   0.145
13924TIP3   OH241714   0.438   0.392   5.778
13924TIP3    H141715   0.480   0.461   5.829
13924TIP3    H241716   0.501   0.320   5.777
13925TIP3   OH241717   1.300   7.777   1.895
13925TIP3    H141718   1.272   7.863   1.926
13925TIP3    H241719   1.348   7.740   1.969
13926TIP3   OH241720   6.499   2.184   6.027
13926TIP3    H141721   6.519   2.240   6.102
13926TIP3    H241722   6.432   2.124   6.058
13927TIP3   OH241723   4.510   4.945   2.374
13927TIP3    H141724   4.523   4.854   2.346
13927TIP3    H241725   4.511   4.941   2.470
13928TIP3   OH241726   6.948   5.085   4.857
13928TIP3    H141727   7.011   5.156   4.858
13928TIP3    H241728   6.964   5.037   4.938
13929TIP3   OH241729   5.133   4.316   2.217
13929TIP3    H141730   5.073   4.322   2.142
13929TIP3    H241731   5.204   4.376   2.196
13930TIP3   OH241732   7.234   4.857   5.341
13930TIP3    H141733   7.292   4.904   5.280
13930TIP3    H241734   7.213   4.922   5.408
13931TIP3   OH241735   2.986   0.748   2.912
13931TIP3    H141736   3.022   0.821   2.963
13931TIP3    H241737   3.057   0.684   2.907
13932TIP3   OH241738   4.851   0.798   3.286
13932TIP3    H141739   4.776   0.740   3.302
13932TIP3    H241740   4.915   0.742   3.243
13933TIP3   OH241741   7.206   6.341   6.207
13933TIP3    H141742   7.139   6.331   6.274
13933TIP3    H241743   7.171   6.294   6.131
13934TIP3   OH241744   7.592   4.852   3.822
13934TIP3    H141745   7.656   4.892   3.764
13934TIP3    H241746   7.546   4.926   3.862
13935TIP3   OH241747   2.411   0.449   5.551
13935TIP3    H141748   2.431   0.422   5.641
13935TIP3    H241749   2.476   0.516   5.530
13936TIP3   OH241750   2.697   6.282   3.774
13936TIP3    H141751   2.669   6.217   3.839
13936TIP3    H241752   2.623   6.342   3.766
13937TIP3   OH241753   1.861   1.733   0.106
13937TIP3    H141754   1.852   1.755   0.199
13937TIP3    H241755   1.831   1.811   0.060
13938TIP3   OH241756   0.565   7.774   1.598
13938TIP3    H141757   0.513   7.828   1.657
13938TIP3    H241758   0.655   7.804   1.611
13939TIP3   OH241759   7.253   3.152   0.718
13939TIP3    H141760   7.223   3.082   0.777
13939TIP3    H241761   7.255   3.230   0.772
13940TIP3   OH241762   2.280   5.038   2.783
13940TIP3    H141763   2.375   5.031   2.778
13940TIP3    H241764   2.258   5.105   2.719
13941TIP3   OH241765   2.957   0.239   3.529
13941TIP3    H141766   2.956   0.237   3.434
13941TIP3    H241767   3.047   0.260   3.552
13942TIP3   OH241768   6.523   4.922   4.263
13942TIP3    H141769   6.440   4.883   4.293
13942TIP3    H241770   6.590   4.868   4.304
13943TIP3   OH241771   6.735   2.942   1.511
13943TIP3    H141772   6.667   2.914   1.572
13943TIP3    H241773   6.795   2.868   1.506
13944TIP3   OH241774   1.395   5.608   2.773
13944TIP3    H141775   1.483   5.642   2.759
13944TIP3    H241776   1.350   5.678   2.820
13945TIP3   OH241777   2.679   3.241   0.326
13945TIP3    H141778   2.644   3.153   0.331
13945TIP3    H241779   2.704   3.263   0.416
13946TIP3   OH241780   0.868   5.013   4.189
13946TIP3    H141781   0.808   4.948   4.152
13946TIP3    H241782   0.848   5.093   4.142
13947TIP3   OH241783   3.637   6.239   0.561
13947TIP3    H141784   3.599   6.312   0.513
13947TIP3    H241785   3.651   6.171   0.495
13948TIP3   OH241786   0.363   0.302   0.227
13948TIP3    H141787   0.439   0.259   0.266
13948TIP3    H241788   0.291   0.287   0.288
13949TIP3   OH241789   8.246   5.766   5.028
13949TIP3    H141790   8.280   5.678   5.043
13949TIP3    H241791   8.269   5.814   5.108
13950TIP3   OH241792   7.706   5.923   3.080
13950TIP3    H141793   7.651   6.000   3.071
13950TIP3    H241794   7.779   5.952   3.135
13951TIP3   OH241795   8.083   6.572   2.030
13951TIP3    H141796   8.102   6.621   2.110
13951TIP3    H241797   8.001   6.609   1.998
13952TIP3   OH241798   1.678   2.794   0.659
13952TIP3    H141799   1.701   2.762   0.572
13952TIP3    H241800   1.598   2.747   0.682
13953TIP3   OH241801   3.448   2.523   4.703
13953TIP3    H141802   3.440   2.534   4.609
13953TIP3    H241803   3.538   2.548   4.723
13954TIP3   OH241804   6.692   1.002   6.543
13954TIP3    H141805   6.711   0.910   6.529
13954TIP3    H241806   6.737   1.024   6.625
13955TIP3   OH241807   3.880   2.847   2.364
13955TIP3    H141808   3.920   2.922   2.321
13955TIP3    H241809   3.791   2.875   2.384
13956TIP3   OH241810   4.088   5.589   2.789
13956TIP3    H141811   4.004   5.554   2.816
13956TIP3    H241812   4.071   5.682   2.774
13957TIP3   OH241813   0.898   7.859   0.944
13957TIP3    H141814   0.901   7.764   0.958
13957TIP3    H241815   0.812   7.885   0.976
13958TIP3   OH241816   7.548   3.879   4.280
13958TIP3    H141817   7.634   3.888   4.240
13958TIP3    H241818   7.491   3.935   4.227
13959TIP3   OH241819   3.426   4.836   1.452
13959TIP3    H141820   3.430   4.740   1.446
13959TIP3    H241821   3.363   4.852   1.522
13960TIP3   OH241822   0.378   5.648   4.065
13960TIP3    H141823   0.284   5.627   4.063
13960TIP3    H241824   0.414   5.601   3.990
13961TIP3   OH241825   0.487   5.730   0.094
13961TIP3    H141826   0.480   5.770   0.007
13961TIP3    H241827   0.472   5.802   0.155
13962TIP3   OH241828   2.781   5.991   0.090
13962TIP3    H141829   2.764   6.037   0.008
13962TIP3    H241830   2.837   5.917   0.066
13963TIP3   OH241831   0.887   6.275   5.060
13963TIP3    H141832   0.823   6.339   5.031
13963TIP3    H241833   0.840   6.220   5.122
13964TIP3   OH241834   6.316   2.309   6.367
13964TIP3    H141835   6.318   2.397   6.329
13964TIP3    H241836   6.231   2.273   6.339
13965TIP3   OH241837   6.052   3.521   4.382
13965TIP3    H141838   6.129   3.545   4.433
13965TIP3    H241839   6.013   3.447   4.430
13966TIP3   OH241840   4.396   4.258   5.737
13966TIP3    H141841   4.315   4.208   5.731
13966TIP3    H241842   4.417   4.280   5.647
13967TIP3   OH241843   1.448   1.126   2.655
13967TIP3    H141844   1.377   1.064   2.672
13967TIP3    H241845   1.404   1.210   2.643
13968TIP3   OH241846   1.282   3.929   4.342
13968TIP3    H141847   1.279   3.843   4.300
13968TIP3    H241848   1.202   3.933   4.394
13969TIP3   OH241849   4.292   6.363   2.199
13969TIP3    H141850   4.281   6.347   2.105
13969TIP3    H241851   4.387   6.360   2.212
13970TIP3   OH241852   1.425   2.151   2.267
13970TIP3    H141853   1.481   2.191   2.333
13970TIP3    H241854   1.486   2.125   2.197
13971TIP3   OH241855   7.237   1.175   2.612
13971TIP3    H141856   7.156   1.161   2.564
13971TIP3    H241857   7.211   1.174   2.704
13972TIP3   OH241858   3.038   7.161   2.591
13972TIP3    H141859   2.975   7.224   2.557
13972TIP3    H241860   3.014   7.079   2.547
13973TIP3   OH241861   6.287   1.387   6.750
13973TIP3    H141862   6.377   1.410   6.727
13973TIP3    H241863   6.257   1.459   6.805
13974TIP3   OH241864   0.061   4.552   0.949
13974TIP3    H141865   0.027   4.536   1.037
13974TIP3    H241866   0.142   4.600   0.963
13975TIP3   OH241867   4.933   4.023   4.882
13975TIP3    H141868   4.872   4.096   4.877
13975TIP3    H241869   4.967   4.026   4.971
13976TIP3   OH241870   4.692   0.607   4.813
13976TIP3    H141871   4.665   0.630   4.724
13976TIP3    H241872   4.647   0.671   4.869
13977TIP3   OH241873   1.379   5.741   6.653
13977TIP3    H141874   1.435   5.683   6.600
13977TIP3    H241875   1.416   5.737   6.741
13978TIP3   OH241876   1.806   7.132   6.732
13978TIP3    H141877   1.895   7.102   6.751
13978TIP3    H241878   1.780   7.182   6.809
13979TIP3   OH241879   5.564   2.186   0.288
13979TIP3    H141880   5.633   2.121   0.298
13979TIP3    H241881   5.527   2.168   0.201
13980TIP3   OH241882   4.610   0.680   3.913
13980TIP3    H141883   4.627   0.662   3.820
13980TIP3    H241884   4.656   0.610   3.959
13981TIP3   OH241885   3.217   4.345   4.243
13981TIP3    H141886   3.292   4.317   4.296
13981TIP3    H241887   3.242   4.432   4.211
13982TIP3   OH241888   6.811   3.098   4.713
13982TIP3    H141889   6.862   3.054   4.645
13982TIP3    H241890   6.768   3.170   4.666
13983TIP3   OH241891   5.719   6.527   0.593
13983TIP3    H141892   5.765   6.461   0.645
13983TIP3    H241893   5.688   6.591   0.658
13984TIP3   OH241894   1.133   2.840   6.371
13984TIP3    H141895   1.051   2.848   6.324
13984TIP3    H241896   1.191   2.793   6.311
13985TIP3   OH241897   0.483   3.360   3.750
13985TIP3    H141898   0.461   3.334   3.839
13985TIP3    H241899   0.578   3.349   3.744
13986TIP3   OH241900   1.474   2.251   4.210
13986TIP3    H141901   1.465   2.331   4.159
13986TIP3    H241902   1.439   2.273   4.296
13987TIP3   OH241903   1.663   1.703   5.731
13987TIP3    H141904   1.692   1.650   5.806
13987TIP3    H241905   1.668   1.793   5.763
13988TIP3   OH241906   5.265   6.921   0.154
13988TIP3    H141907   5.202   6.987   0.125
13988TIP3    H241908   5.214   6.859   0.206
13989TIP3   OH241909   0.343   6.054   1.502
13989TIP3    H141910   0.409   5.985   1.506
13989TIP3    H241911   0.260   6.008   1.495
13990TIP3   OH241912   5.534   3.029   1.267
13990TIP3    H141913   5.501   3.104   1.219
13990TIP3    H241914   5.495   2.953   1.223
13991TIP3   OH241915   1.127   2.920   0.903
13991TIP3    H141916   1.131   2.995   0.961
13991TIP3    H241917   1.033   2.902   0.894
13992TIP3   OH241918   5.366   1.477   0.617
13992TIP3    H141919   5.450   1.445   0.651
13992TIP3    H241920   5.309   1.400   0.617
13993TIP3   OH241921   0.690   6.811   4.784
13993TIP3    H141922   0.731   6.825   4.869
13993TIP3    H241923   0.603   6.775   4.805
13994TIP3   OH241924   7.906   1.926   3.933
13994TIP3    H141925   7.851   1.982   3.987
13994TIP3    H241926   7.946   1.864   3.994
13995TIP3   OH241927   4.607   0.268   0.378
13995TIP3    H141928   4.571   0.186   0.413
13995TIP3    H241929   4.535   0.307   0.329
13996TIP3   OH241930   6.170   0.933   3.514
13996TIP3    H141931   6.206   0.935   3.602
13996TIP3    H241932   6.140   0.843   3.502
13997TIP3   OH241933   2.323   2.090   3.080
13997TIP3    H141934   2.322   2.103   3.175
13997TIP3    H241935   2.266   2.014   3.066
13998TIP3   OH241936   0.536   0.578   6.091
13998TIP3    H141937   0.561   0.608   6.003
13998TIP3    H241938   0.446   0.609   6.102
13999TIP3   OH241939   0.239   6.456   5.524
13999TIP3    H141940   0.219   6.550   5.528
13999TIP3    H241941   0.184   6.416   5.591
14000TIP3   OH241942   2.865   0.372   0.778
14000TIP3    H141943   2.959   0.376   0.797
14000TIP3    H241944   2.825   0.421   0.850
14001TIP3   OH241945   1.380   4.831   6.683
14001TIP3    H141946   1.467   4.815   6.646
14001TIP3    H241947   1.352   4.913   6.641
14002TIP3   OH241948   1.353   0.844   0.183
14002TIP3    H141949   1.360   0.889   0.267
14002TIP3    H241950   1.270   0.875   0.146
14003TIP3   OH241951   2.572   3.343   0.965
14003TIP3    H141952   2.490   3.388   0.947
14003TIP3    H241953   2.546   3.268   1.018
14004TIP3   OH241954   5.032   6.286   3.130
14004TIP3    H141955   5.004   6.352   3.067
14004TIP3    H241956   4.969   6.214   3.120
14005TIP3   OH241957   5.113   0.938   3.417
14005TIP3    H141958   5.090   1.008   3.356
14005TIP3    H241959   5.157   0.872   3.362
14006TIP3   OH241960   1.212   2.244   4.084
14006TIP3    H141961   1.184   2.186   4.013
14006TIP3    H241962   1.249   2.185   4.150
14007TIP3   OH241963   3.393   7.146   4.459
14007TIP3    H141964   3.372   7.230   4.498
14007TIP3    H241965   3.335   7.139   4.383
14008TIP3   OH241966   1.328   7.289   3.086
14008TIP3    H141967   1.242   7.263   3.118
14008TIP3    H241968   1.335   7.382   3.108
14009TIP3   OH241969   5.531   2.087   5.824
14009TIP3    H141970   5.533   2.037   5.743
14009TIP3    H241971   5.507   2.024   5.891
14010TIP3   OH241972   4.089   6.509   3.408
14010TIP3    H141973   4.161   6.479   3.352
14010TIP3    H241974   4.131   6.568   3.471
14011TIP3   OH241975   6.146   4.885   2.670
14011TIP3    H141976   6.181   4.954   2.725
14011TIP3    H241977   6.106   4.823   2.731
14012TIP3   OH241978   6.266   2.311   2.274
14012TIP3    H141979   6.251   2.246   2.205
14012TIP3    H241980   6.318   2.379   2.231
14013TIP3   OH241981   2.058   2.071   0.787
14013TIP3    H141982   2.100   2.017   0.720
14013TIP3    H241983   2.072   2.023   0.869
14014TIP3   OH241984   3.766   1.374   4.336
14014TIP3    H141985   3.824   1.355   4.410
14014TIP3    H241986   3.823   1.414   4.271
14015TIP3   OH241987   1.647   1.102   2.162
14015TIP3    H141988   1.654   1.172   2.097
14015TIP3    H241989   1.705   1.033   2.129
14016TIP3   OH241990   0.471   6.525   2.045
14016TIP3    H141991   0.466   6.429   2.038
14016TIP3    H241992   0.559   6.546   2.015
14017TIP3   OH241993   2.745   3.169   4.603
14017TIP3    H141994   2.776   3.258   4.621
14017TIP3    H241995   2.825   3.118   4.588
14018TIP3   OH241996   4.266   0.372   2.873
14018TIP3    H141997   4.261   0.366   2.778
14018TIP3    H241998   4.187   0.327   2.904
14019TIP3   OH241999   2.813   5.342   6.488
14019TIP3    H142000   2.866   5.285   6.544
14019TIP3    H242001   2.796   5.419   6.542
14020TIP3   OH242002   7.217   5.966   5.829
14020TIP3    H142003   7.128   5.977   5.796
14020TIP3    H242004   7.215   6.004   5.917
14021TIP3   OH242005   1.337   5.379   1.647
14021TIP3    H142006   1.405   5.351   1.586
14021TIP3    H242007   1.261   5.397   1.591
14022TIP3   OH242008   0.082   0.046   6.148
14022TIP3    H142009   0.095   0.032   6.054
14022TIP3    H242010   0.171   0.042   6.184
14023TIP3   OH242011   3.987   3.725   3.456
14023TIP3    H142012   3.894   3.717   3.437
14023TIP3    H242013   4.004   3.658   3.523
14024TIP3   OH242014   5.140   3.519   1.576
14024TIP3    H142015   5.235   3.506   1.569
14024TIP3    H242016   5.126   3.545   1.667
14025TIP3   OH242017   4.217   2.100   0.132
14025TIP3    H142018   4.152   2.074   0.066
14025TIP3    H242019   4.258   2.017   0.157
14026TIP3   OH242020   5.897   7.622   3.254
14026TIP3    H142021   5.941   7.537   3.257
14026TIP3    H242022   5.852   7.628   3.338
14027TIP3   OH242023   1.301   3.667   6.184
14027TIP3    H142024   1.247   3.596   6.219
14027TIP3    H242025   1.379   3.623   6.152
14028TIP3   OH242026   5.229   4.090   5.078
14028TIP3    H142027   5.168   4.163   5.075
14028TIP3    H242028   5.306   4.120   5.030
14029TIP3   OH242029   7.637   4.913   3.076
14029TIP3    H142030   7.637   4.981   3.144
14029TIP3    H242031   7.728   4.909   3.046
14030TIP3   OH242032   7.098   0.290   3.014
14030TIP3    H142033   7.104   0.355   3.083
14030TIP3    H242034   7.050   0.334   2.944
14031TIP3   OH242035   1.819   1.167   3.482
14031TIP3    H142036   1.783   1.234   3.541
14031TIP3    H242037   1.749   1.103   3.473
14032TIP3   OH242038   8.223   5.511   5.600
14032TIP3    H142039   8.266   5.433   5.565
14032TIP3    H242040   8.173   5.480   5.674
14033TIP3   OH242041   7.516   3.225   0.538
14033TIP3    H142042   7.423   3.213   0.520
14033TIP3    H242043   7.518   3.289   0.609
14034TIP3   OH242044   6.079   6.774   6.170
14034TIP3    H142045   6.162   6.808   6.138
14034TIP3    H242046   6.014   6.809   6.108
14035TIP3   OH242047   5.251   6.929   4.440
14035TIP3    H142048   5.335   6.897   4.406
14035TIP3    H242049   5.275   6.995   4.505
14036TIP3   OH242050   0.875   1.883   0.410
14036TIP3    H142051   0.881   1.970   0.449
14036TIP3    H242052   0.814   1.894   0.336
14037TIP3   OH242053   4.664   6.381   2.584
14037TIP3    H142054   4.731   6.445   2.610
14037TIP3    H242055   4.701   6.339   2.507
14038TIP3   OH242056   1.739   3.407   5.770
14038TIP3    H142057   1.694   3.491   5.761
14038TIP3    H242058   1.810   3.425   5.832
14039TIP3   OH242059   8.147   0.791   6.178
14039TIP3    H142060   8.088   0.828   6.244
14039TIP3    H242061   8.204   0.864   6.153
14040TIP3   OH242062   8.300   0.021   3.536
14040TIP3    H142063   8.291   0.071   3.618
14040TIP3    H242064   8.214  -0.018   3.522
14041TIP3   OH242065   0.106   2.991   6.540
14041TIP3    H142066   0.071   2.922   6.597
14041TIP3    H242067   0.190   2.956   6.509
14042TIP3   OH242068   1.433   2.703   1.719
14042TIP3    H142069   1.505   2.763   1.699
14042TIP3    H242070   1.432   2.642   1.645
14043TIP3   OH242071   5.554   6.606   3.172
14043TIP3    H142072   5.528   6.655   3.094
14043TIP3    H242073   5.536   6.666   3.245
14044TIP3   OH242074   0.061   3.611   0.437
14044TIP3    H142075   0.059   3.700   0.474
14044TIP3    H242076   0.006   3.617   0.359
14045TIP3   OH242077   7.976   1.119   5.254
14045TIP3    H142078   7.884   1.097   5.268
14045TIP3    H242079   7.994   1.187   5.318
14046TIP3   OH242080   6.565   3.787   3.544
14046TIP3    H142081   6.491   3.749   3.496
14046TIP3    H242082   6.528   3.815   3.628
14047TIP3   OH242083   5.935   1.820   1.800
14047TIP3    H142084   6.015   1.768   1.798
14047TIP3    H242085   5.956   1.899   1.751
14048TIP3   OH242086   6.922   5.735   1.530
14048TIP3    H142087   6.889   5.776   1.450
14048TIP3    H242088   6.920   5.805   1.596
14049TIP3   OH242089   0.754   5.704   4.699
14049TIP3    H142090   0.804   5.624   4.684
14049TIP3    H242091   0.691   5.681   4.768
14050TIP3   OH242092   2.020   7.572   6.096
14050TIP3    H142093   1.975   7.548   6.177
14050TIP3    H242094   2.043   7.488   6.055
14051TIP3   OH242095   4.494   3.282   6.342
14051TIP3    H142096   4.425   3.340   6.371
14051TIP3    H242097   4.570   3.339   6.328
14052TIP3   OH242098   6.312   5.436   4.442
14052TIP3    H142099   6.236   5.489   4.417
14052TIP3    H242100   6.307   5.359   4.385
14053TIP3   OH242101   2.433   0.803   2.037
14053TIP3    H142102   2.484   0.871   1.994
14053TIP3    H242103   2.432   0.730   1.974
14054TIP3   OH242104   2.426   2.406   4.643
14054TIP3    H142105   2.382   2.487   4.617
14054TIP3    H242106   2.460   2.369   4.562
14055TIP3   OH242107   4.991   3.758   4.425
14055TIP3    H142108   4.937   3.695   4.474
14055TIP3    H242109   5.079   3.721   4.428
14056TIP3   OH242110   4.925   3.968   5.602
14056TIP3    H142111   4.835   3.978   5.633
14056TIP3    H242112   4.977   4.024   5.660
14057TIP3   OH242113   5.603   6.687   3.932
14057TIP3    H142114   5.655   6.753   3.978
14057TIP3    H242115   5.599   6.718   3.841
14058TIP3   OH242116   1.019   1.617   3.476
14058TIP3    H142117   1.090   1.612   3.541
14058TIP3    H242118   1.034   1.542   3.419
14059TIP3   OH242119   2.888   0.227   5.676
14059TIP3    H142120   2.973   0.272   5.680
14059TIP3    H242121   2.856   0.229   5.766
14060TIP3   OH242122   3.226   2.846   5.858
14060TIP3    H142123   3.131   2.845   5.845
14060TIP3    H242124   3.246   2.935   5.884
14061TIP3   OH242125   6.731   0.780   0.872
14061TIP3    H142126   6.709   0.763   0.964
14061TIP3    H242127   6.691   0.864   0.853
14062TIP3   OH242128   0.594   2.129   5.637
14062TIP3    H142129   0.553   2.047   5.608
14062TIP3    H242130   0.601   2.182   5.557
14063TIP3   OH242131   5.807   3.079   5.415
14063TIP3    H142132   5.751   3.015   5.457
14063TIP3    H242133   5.881   3.028   5.381
14064TIP3   OH242134   4.656   5.408   2.662
14064TIP3    H142135   4.684   5.379   2.575
14064TIP3    H242136   4.725   5.377   2.720
14065TIP3   OH242137   4.643   2.743   4.376
14065TIP3    H142138   4.671   2.824   4.335
14065TIP3    H242139   4.684   2.744   4.462
14066TIP3   OH242140   3.536   1.759   4.798
14066TIP3    H142141   3.445   1.790   4.792
14066TIP3    H242142   3.528   1.669   4.830
14067TIP3   OH242143   5.062   7.194   5.066
14067TIP3    H142144   5.141   7.210   5.015
14067TIP3    H242145   5.024   7.114   5.028
14068TIP3   OH242146   2.219   7.186   5.414
14068TIP3    H142147   2.124   7.188   5.423
14068TIP3    H242148   2.252   7.236   5.488
14069TIP3   OH242149   2.134   3.916   2.965
14069TIP3    H142150   2.107   3.825   2.974
14069TIP3    H242151   2.158   3.943   3.054
14070TIP3   OH242152   1.287   7.659   5.736
14070TIP3    H142153   1.280   7.753   5.749
14070TIP3    H242154   1.207   7.636   5.688
14071TIP3   OH242155   2.382   6.884   4.813
14071TIP3    H142156   2.467   6.908   4.776
14071TIP3    H242157   2.364   6.953   4.877
14072TIP3   OH242158   4.815   6.074   3.206
14072TIP3    H142159   4.725   6.057   3.180
14072TIP3    H242160   4.807   6.136   3.279
14073TIP3   OH242161   4.955   2.603   1.331
14073TIP3    H142162   5.031   2.566   1.375
14073TIP3    H242163   4.991   2.649   1.255
14074TIP3   OH242164   4.722   7.515   3.666
14074TIP3    H142165   4.709   7.596   3.715
14074TIP3    H242166   4.696   7.537   3.577
14075TIP3   OH242167   3.679   7.052   4.839
14075TIP3    H142168   3.723   7.047   4.924
14075TIP3    H242169   3.746   7.086   4.779
14076TIP3   OH242170   4.806   5.146   0.263
14076TIP3    H142171   4.893   5.111   0.245
14076TIP3    H242172   4.809   5.173   0.354
14077TIP3   OH242173   1.190   0.186   4.654
14077TIP3    H142174   1.249   0.228   4.592
14077TIP3    H242175   1.169   0.255   4.717
14078TIP3   OH242176   6.211   2.756   0.675
14078TIP3    H142177   6.164   2.819   0.731
14078TIP3    H242178   6.214   2.676   0.727
14079TIP3   OH242179   4.436   1.415   3.889
14079TIP3    H142180   4.406   1.379   3.805
14079TIP3    H242181   4.532   1.416   3.881
14080TIP3   OH242182   4.273   1.492   0.587
14080TIP3    H142183   4.306   1.534   0.667
14080TIP3    H242184   4.343   1.507   0.523
14081TIP3   OH242185   3.001   3.988   2.654
14081TIP3    H142186   3.054   3.976   2.576
14081TIP3    H242187   3.040   4.063   2.699
14082TIP3   OH242188   3.979   1.333   3.529
14082TIP3    H142189   4.073   1.350   3.535
14082TIP3    H242190   3.964   1.258   3.587
14083TIP3   OH242191   3.545   3.399   5.393
14083TIP3    H142192   3.454   3.405   5.367
14083TIP3    H242193   3.577   3.319   5.351
14084TIP3   OH242194   0.607   0.390   1.242
14084TIP3    H142195   0.634   0.306   1.205
14084TIP3    H242196   0.527   0.412   1.194
14085TIP3   OH242197   0.073   1.764   0.104
14085TIP3    H142198   0.068   1.694   0.170
14085TIP3    H242199   0.032   1.840   0.146
14086TIP3   OH242200   3.557   0.179   3.090
14086TIP3    H142201   3.606   0.122   3.149
14086TIP3    H242202   3.624   0.220   3.036
14087TIP3   OH242203   2.577   2.295   2.546
14087TIP3    H142204   2.646   2.229   2.543
14087TIP3    H242205   2.547   2.302   2.456
14088TIP3   OH242206   0.576   6.201   6.333
14088TIP3    H142207   0.653   6.254   6.313
14088TIP3    H242208   0.609   6.111   6.337
14089TIP3   OH242209   3.790   3.844   0.020
14089TIP3    H142210   3.863   3.848   0.082
14089TIP3    H242211   3.756   3.933   0.016
14090TIP3   OH242212   2.657   3.030   3.183
14090TIP3    H142213   2.645   3.061   3.094
14090TIP3    H242214   2.674   2.936   3.174
14091TIP3   OH242215   2.310   1.576   0.066
14091TIP3    H142216   2.394   1.540   0.093
14091TIP3    H242217   2.290   1.644   0.130
14092TIP3   OH242218   6.245   1.428   1.517
14092TIP3    H142219   6.319   1.474   1.479
14092TIP3    H242220   6.247   1.451   1.609
14093TIP3   OH242221   6.639   7.539   1.056
14093TIP3    H142222   6.643   7.605   0.987
14093TIP3    H242223   6.549   7.505   1.052
14094TIP3   OH242224   7.853   2.698   6.271
14094TIP3    H142225   7.765   2.735   6.267
14094TIP3    H242226   7.841   2.609   6.304
14095TIP3   OH242227   1.746   2.278   4.251
14095TIP3    H142228   1.651   2.263   4.247
14095TIP3    H242229   1.755   2.373   4.258
14096TIP3   OH242230   3.015   7.072   0.343
14096TIP3    H142231   2.987   7.111   0.260
14096TIP3    H242232   2.948   7.097   0.406
14097TIP3   OH242233   4.813   6.049   2.616
14097TIP3    H142234   4.776   6.091   2.693
14097TIP3    H242235   4.908   6.051   2.631
14098TIP3   OH242236   0.884   2.458   3.127
14098TIP3    H142237   0.890   2.475   3.033
14098TIP3    H242238   0.920   2.536   3.168
14099TIP3   OH242239   1.295   0.716   1.638
14099TIP3    H142240   1.342   0.683   1.561
14099TIP3    H242241   1.349   0.691   1.712
14100TIP3   OH242242   0.877   3.147   0.747
14100TIP3    H142243   0.887   3.095   0.827
14100TIP3    H242244   0.959   3.135   0.700
14101TIP3   OH242245   0.944   5.484   6.303
14101TIP3    H142246   1.035   5.458   6.318
14101TIP3    H242247   0.897   5.455   6.382
14102TIP3   OH242248   3.006   0.046   0.565
14102TIP3    H142249   3.027   0.108   0.494
14102TIP3    H242250   2.914   0.062   0.584
14103TIP3   OH242251   2.012   0.718   0.464
14103TIP3    H142252   2.076   0.733   0.534
14103TIP3    H242253   2.047   0.644   0.414
14104TIP3   OH242254   2.989   5.101   4.523
14104TIP3    H142255   3.027   5.161   4.587
14104TIP3    H242256   3.058   5.089   4.457
14105TIP3   OH242257   0.993   6.266   0.808
14105TIP3    H142258   0.965   6.176   0.793
14105TIP3    H242259   1.010   6.301   0.720
14106TIP3   OH242260   3.467   2.257   1.290
14106TIP3    H142261   3.546   2.302   1.260
14106TIP3    H242262   3.399   2.285   1.229
14107TIP3   OH242263   8.024   7.085   4.344
14107TIP3    H142264   7.929   7.069   4.351
14107TIP3    H242265   8.030   7.178   4.323
14108TIP3   OH242266   7.768   4.489   5.842
14108TIP3    H142267   7.830   4.550   5.802
14108TIP3    H242268   7.737   4.534   5.921
14109TIP3   OH242269   0.797   6.872   5.012
14109TIP3    H142270   0.786   6.870   5.107
14109TIP3    H242271   0.828   6.960   4.993
14110TIP3   OH242272   5.342   2.456   6.642
14110TIP3    H142273   5.357   2.533   6.698
14110TIP3    H242274   5.354   2.489   6.553
14111TIP3   OH242275   1.160   6.143   6.396
14111TIP3    H142276   1.234   6.117   6.450
14111TIP3    H242277   1.089   6.160   6.459
14112TIP3   OH242278   4.148   1.442   4.867
14112TIP3    H142279   4.234   1.414   4.836
14112TIP3    H242280   4.129   1.383   4.941
14113TIP3   OH242281   7.936   7.679   6.275
14113TIP3    H142282   7.851   7.659   6.235
14113TIP3    H242283   7.932   7.773   6.294
14114TIP3   OH242284   1.250   3.455   0.295
14114TIP3    H142285   1.262   3.362   0.311
14114TIP3    H242286   1.166   3.476   0.337
14115TIP3   OH242287   7.523   0.929   1.869
14115TIP3    H142288   7.514   1.003   1.809
14115TIP3    H242289   7.440   0.926   1.916
14116TIP3   OH242290   4.914   4.936   0.574
14116TIP3    H142291   4.851   4.908   0.641
14116TIP3    H242292   5.000   4.919   0.613
14117TIP3   OH242293   6.733   1.234   5.118
14117TIP3    H142294   6.809   1.290   5.136
14117TIP3    H242295   6.765   1.145   5.131
14118TIP3   OH242296   4.122   4.941   4.701
14118TIP3    H142297   4.104   4.972   4.612
14118TIP3    H242298   4.103   5.016   4.757
14119TIP3   OH242299   7.804   6.499   0.162
14119TIP3    H142300   7.711   6.487   0.182
14119TIP3    H242301   7.838   6.410   0.150
14120TIP3   OH242302   0.974   5.643   3.326
14120TIP3    H142303   1.052   5.624   3.275
14120TIP3    H242304   0.918   5.566   3.314
14121TIP3   OH242305   6.490   5.903   1.808
14121TIP3    H142306   6.573   5.873   1.847
14121TIP3    H242307   6.431   5.828   1.819
14122TIP3   OH242308   7.581   6.258   1.301
14122TIP3    H142309   7.632   6.224   1.374
14122TIP3    H242310   7.603   6.351   1.297
14123TIP3   OH242311   8.237   3.262   4.880
14123TIP3    H142312   8.233   3.182   4.827
14123TIP3    H242313   8.330   3.274   4.897
14124TIP3   OH242314   7.879   5.246   0.646
14124TIP3    H142315   7.855   5.156   0.668
14124TIP3    H242316   7.874   5.293   0.729
14125TIP3   OH242317   3.203   0.306   2.458
14125TIP3    H142318   3.294   0.315   2.430
14125TIP3    H242319   3.187   0.211   2.458
14126TIP3   OH242320   4.007   0.095   5.737
14126TIP3    H142321   3.928   0.147   5.724
14126TIP3    H242322   4.074   0.158   5.762
14127TIP3   OH242323   3.899   2.861   6.475
14127TIP3    H142324   3.881   2.813   6.556
14127TIP3    H242325   3.979   2.911   6.493
14128TIP3   OH242326   0.928   3.544   1.436
14128TIP3    H142327   0.898   3.462   1.476
14128TIP3    H242328   0.910   3.611   1.502
14129TIP3   OH242329   2.444   4.353   0.291
14129TIP3    H142330   2.366   4.336   0.344
14129TIP3    H242331   2.416   4.417   0.227
14130TIP3   OH242332   2.930   1.898   2.096
14130TIP3    H142333   2.857   1.847   2.060
14130TIP3    H242334   3.007   1.867   2.049
14131TIP3   OH242335   5.546   3.128   0.650
14131TIP3    H142336   5.566   3.173   0.568
14131TIP3    H242337   5.550   3.035   0.628
14132TIP3   OH242338   4.098   7.730   2.030
14132TIP3    H142339   4.088   7.825   2.017
14132TIP3    H242340   4.025   7.706   2.088
14133TIP3   OH242341   7.940   1.446   3.964
14133TIP3    H142342   7.957   1.360   3.926
14133TIP3    H242343   7.845   1.453   3.967
14134TIP3   OH242344   5.457   7.465   2.206
14134TIP3    H142345   5.363   7.456   2.223
14134TIP3    H242346   5.491   7.376   2.208
14135TIP3   OH242347   5.656   2.354   3.492
14135TIP3    H142348   5.681   2.262   3.500
14135TIP3    H242349   5.683   2.379   3.404
14136TIP3   OH242350   1.917   5.354   4.620
14136TIP3    H142351   2.004   5.355   4.658
14136TIP3    H242352   1.904   5.265   4.588
14137TIP3   OH242353   7.888   3.646   3.675
14137TIP3    H142354   7.926   3.712   3.733
14137TIP3    H242355   7.860   3.695   3.598
14138TIP3   OH242356   4.675   5.868   0.670
14138TIP3    H142357   4.640   5.890   0.756
14138TIP3    H242358   4.611   5.904   0.608
14139TIP3   OH242359   4.051   1.844   1.243
14139TIP3    H142360   4.063   1.939   1.244
14139TIP3    H242361   3.959   1.832   1.218
14140TIP3   OH242362   1.062   7.411   5.835
14140TIP3    H142363   0.994   7.458   5.788
14140TIP3    H242364   1.049   7.319   5.810
14141TIP3   OH242365   5.734   4.707   4.885
14141TIP3    H142366   5.685   4.652   4.823
14141TIP3    H242367   5.712   4.797   4.859
14142TIP3   OH242368   2.367   5.451   1.175
14142TIP3    H142369   2.325   5.372   1.141
14142TIP3    H242370   2.383   5.505   1.098
14143TIP3   OH242371   3.547   7.182   0.199
14143TIP3    H142372   3.539   7.125   0.122
14143TIP3    H242373   3.546   7.271   0.164
14144TIP3   OH242374   7.013   0.421   6.592
14144TIP3    H142375   7.079   0.408   6.660
14144TIP3    H242376   7.037   0.359   6.523
14145TIP3   OH242377   4.274   4.510   6.267
14145TIP3    H142378   4.339   4.556   6.320
14145TIP3    H242379   4.190   4.539   6.301
14146TIP3   OH242380   7.967   7.226   4.020
14146TIP3    H142381   8.016   7.287   3.965
14146TIP3    H242382   7.933   7.279   4.091
14147TIP3   OH242383   0.291   0.572   3.398
14147TIP3    H142384   0.370   0.615   3.365
14147TIP3    H242385   0.219   0.629   3.370
14148TIP3   OH242386   4.034   1.247   6.146
14148TIP3    H142387   4.030   1.152   6.139
14148TIP3    H242388   4.063   1.276   6.060
14149TIP3   OH242389   2.468   1.702   1.114
14149TIP3    H142390   2.382   1.662   1.127
14149TIP3    H242391   2.449   1.795   1.100
14150TIP3   OH242392   0.185   4.672   4.565
14150TIP3    H142393   0.258   4.731   4.545
14150TIP3    H242394   0.165   4.630   4.482
14151TIP3   OH242395   3.010   2.543   5.926
14151TIP3    H142396   2.979   2.620   5.880
14151TIP3    H242397   3.023   2.572   6.016
14152TIP3   OH242398   7.263   5.268   4.236
14152TIP3    H142399   7.277   5.176   4.257
14152TIP3    H242400   7.200   5.266   4.164
14153TIP3   OH242401   1.789   5.233   1.380
14153TIP3    H142402   1.772   5.169   1.310
14153TIP3    H242403   1.815   5.180   1.455
14154TIP3   OH242404   7.852   4.354   3.353
14154TIP3    H142405   7.771   4.303   3.354
14154TIP3    H242406   7.916   4.296   3.394
14155TIP3   OH242407   3.683   2.473   3.879
14155TIP3    H142408   3.698   2.385   3.846
14155TIP3    H242409   3.752   2.526   3.838
14156TIP3   OH242410   5.219   6.086   0.965
14156TIP3    H142411   5.263   6.159   0.921
14156TIP3    H242412   5.219   6.015   0.900
14157TIP3   OH242413   0.777   0.740   0.154
14157TIP3    H142414   0.770   0.788   0.237
14157TIP3    H242415   0.717   0.786   0.095
14158TIP3   OH242416   0.609   5.028   5.868
14158TIP3    H142417   0.679   5.064   5.923
14158TIP3    H242418   0.650   4.956   5.820
14159TIP3   OH242419   2.323   0.395   3.197
14159TIP3    H142420   2.389   0.416   3.132
14159TIP3    H242421   2.254   0.350   3.148
14160TIP3   OH242422   7.752   2.850   2.351
14160TIP3    H142423   7.699   2.924   2.379
14160TIP3    H242424   7.733   2.781   2.415
14161TIP3   OH242425   3.414   3.118   4.458
14161TIP3    H142426   3.507   3.096   4.454
14161TIP3    H242427   3.411   3.202   4.503
14162TIP3   OH242428   5.304   0.810   3.903
14162TIP3    H142429   5.271   0.819   3.993
14162TIP3    H242430   5.269   0.727   3.872
14163TIP3   OH242431   1.751   5.086   3.094
14163TIP3    H142432   1.819   5.147   3.068
14163TIP3    H242433   1.789   5.037   3.167
14164TIP3   OH242434   2.342   4.122   4.551
14164TIP3    H142435   2.288   4.066   4.496
14164TIP3    H242436   2.403   4.063   4.595
14165TIP3   OH242437   3.496   2.747   4.173
14165TIP3    H142438   3.579   2.795   4.166
14165TIP3    H242439   3.431   2.806   4.134
14166TIP3   OH242440   2.909   1.388   1.548
14166TIP3    H142441   2.960   1.365   1.625
14166TIP3    H242442   2.974   1.408   1.481
14167TIP3   OH242443   1.014   7.326   3.012
14167TIP3    H142444   1.033   7.362   3.099
14167TIP3    H242445   0.930   7.281   3.022
14168TIP3   OH242446   3.727   1.314   2.106
14168TIP3    H142447   3.761   1.395   2.068
14168TIP3    H242448   3.733   1.250   2.035
14169TIP3   OH242449   2.071   6.653   1.315
14169TIP3    H142450   2.124   6.579   1.345
14169TIP3    H242451   2.105   6.728   1.364
14170TIP3   OH242452   4.791   1.972   2.890
14170TIP3    H142453   4.855   1.978   2.820
14170TIP3    H242454   4.804   1.885   2.927
14171TIP3   OH242455   2.399   2.252   1.032
14171TIP3    H142456   2.358   2.229   0.949
14171TIP3    H242457   2.484   2.208   1.030
14172TIP3   OH242458   1.341   4.552   1.222
14172TIP3    H142459   1.246   4.556   1.206
14172TIP3    H242460   1.359   4.459   1.234
14173TIP3   OH242461   3.608   7.330   4.696
14173TIP3    H142462   3.537   7.372   4.745
14173TIP3    H242463   3.627   7.250   4.744
14174TIP3   OH242464   4.479   4.432   4.638
14174TIP3    H142465   4.389   4.401   4.627
14174TIP3    H242466   4.471   4.528   4.638
14175TIP3   OH242467   2.967   1.197   5.858
14175TIP3    H142468   3.009   1.203   5.772
14175TIP3    H242469   2.903   1.268   5.858
14176TIP3   OH242470   4.360   2.061   0.718
14176TIP3    H142471   4.275   2.104   0.729
14176TIP3    H242472   4.387   2.039   0.807
14177TIP3   OH242473   2.091   4.521   3.936
14177TIP3    H142474   2.169   4.567   3.908
14177TIP3    H242475   2.035   4.519   3.859
14178TIP3   OH242476   1.236   5.658   4.895
14178TIP3    H142477   1.176   5.688   4.827
14178TIP3    H242478   1.182   5.606   4.954
14179TIP3   OH242479   4.644   3.994   2.520
14179TIP3    H142480   4.659   3.979   2.614
14179TIP3    H242481   4.717   4.049   2.494
14180TIP3   OH242482   5.266   4.737   6.524
14180TIP3    H142483   5.215   4.727   6.444
14180TIP3    H242484   5.296   4.828   6.523
14181TIP3   OH242485   5.948   0.428   1.652
14181TIP3    H142486   5.903   0.405   1.571
14181TIP3    H242487   6.041   0.418   1.632
14182TIP3   OH242488   6.495   5.061   2.052
14182TIP3    H142489   6.456   5.005   2.120
14182TIP3    H242490   6.452   5.034   1.971
14183TIP3   OH242491   3.182   4.106   0.771
14183TIP3    H142492   3.106   4.056   0.801
14183TIP3    H242493   3.146   4.167   0.706
14184TIP3   OH242494   2.140   0.950   1.965
14184TIP3    H142495   2.192   0.872   1.979
14184TIP3    H242496   2.203   1.016   1.934
14185TIP3   OH242497   5.717   7.745   0.756
14185TIP3    H142498   5.750   7.811   0.695
14185TIP3    H242499   5.656   7.692   0.704
14186TIP3   OH242500   7.672   2.225   6.801
14186TIP3    H142501   7.754   2.256   6.839
14186TIP3    H242502   7.693   2.208   6.709
14187TIP3   OH242503   2.580   2.345   6.189
14187TIP3    H142504   2.593   2.255   6.220
14187TIP3    H242505   2.493   2.369   6.222
14188TIP3   OH242506   2.390   7.591   5.612
14188TIP3    H142507   2.385   7.497   5.596
14188TIP3    H242508   2.421   7.598   5.702
14189TIP3   OH242509   3.373   7.082   4.977
14189TIP3    H142510   3.352   7.097   4.885
14189TIP3    H242511   3.287   7.077   5.020
14190TIP3   OH242512   3.948   3.417   1.493
14190TIP3    H142513   4.010   3.375   1.433
14190TIP3    H242514   3.865   3.374   1.476
14191TIP3   OH242515   7.448   1.862   0.189
14191TIP3    H142516   7.387   1.816   0.130
14191TIP3    H242517   7.467   1.798   0.258
14192TIP3   OH242518   0.645   5.595   6.464
14192TIP3    H142519   0.665   5.597   6.558
14192TIP3    H242520   0.642   5.502   6.441
14193TIP3   OH242521   4.383   0.576   2.117
14193TIP3    H142522   4.359   0.641   2.051
14193TIP3    H242523   4.342   0.607   2.198
14194TIP3   OH242524   4.463   2.710   0.634
14194TIP3    H142525   4.443   2.791   0.587
14194TIP3    H242526   4.396   2.705   0.703
14195TIP3   OH242527   6.933   3.922   4.903
14195TIP3    H142528   6.847   3.885   4.882
14195TIP3    H242529   6.916   3.983   4.974
14196TIP3   OH242530   2.993   3.699   2.708
14196TIP3    H142531   2.901   3.676   2.698
14196TIP3    H242532   2.995   3.794   2.705
14197TIP3   OH242533   5.248   0.071   4.705
14197TIP3    H142534   5.162   0.109   4.724
14197TIP3    H242535   5.308   0.121   4.760
14198TIP3   OH242536   5.194   5.484   2.847
14198TIP3    H142537   5.184   5.495   2.941
14198TIP3    H242538   5.107   5.459   2.816
14199TIP3   OH242539   1.726   4.233   4.675
14199TIP3    H142540   1.694   4.320   4.654
14199TIP3    H242541   1.819   4.236   4.654
14200TIP3   OH242542   7.476   4.599   2.469
14200TIP3    H142543   7.530   4.646   2.533
14200TIP3    H242544   7.465   4.512   2.506
14201TIP3   OH242545   7.956   7.287   3.436
14201TIP3    H142546   7.927   7.243   3.356
14201TIP3    H242547   8.045   7.317   3.417
14202TIP3   OH242548   2.680   6.353   4.123
14202TIP3    H142549   2.745   6.346   4.193
14202TIP3    H242550   2.689   6.442   4.091
14203TIP3   OH242551   5.367   5.729   2.795
14203TIP3    H142552   5.331   5.643   2.815
14203TIP3    H242553   5.291   5.786   2.791
14204TIP3   OH242554   6.274   4.856   3.300
14204TIP3    H142555   6.359   4.849   3.255
14204TIP3    H242556   6.271   4.779   3.356
14205TIP3   OH242557   7.663   2.310   0.282
14205TIP3    H142558   7.738   2.318   0.223
14205TIP3    H242559   7.607   2.384   0.260
14206TIP3   OH242560   1.923   6.740   4.365
14206TIP3    H142561   1.846   6.797   4.367
14206TIP3    H242562   1.979   6.778   4.296
14207TIP3   OH242563   3.344   3.012   1.664
14207TIP3    H142564   3.311   3.091   1.620
14207TIP3    H242565   3.411   2.978   1.605
14208TIP3   OH242566   4.192   3.858   3.342
14208TIP3    H142567   4.121   3.800   3.369
14208TIP3    H242568   4.185   3.934   3.400
14209TIP3   OH242569   1.926   4.289   6.222
14209TIP3    H142570   1.910   4.225   6.292
14209TIP3    H242571   1.841   4.331   6.208
14210TIP3   OH242572   3.213   1.688   5.095
14210TIP3    H142573   3.258   1.626   5.153
14210TIP3    H242574   3.121   1.679   5.116
14211TIP3   OH242575   8.186   3.577   6.323
14211TIP3    H142576   8.279   3.599   6.330
14211TIP3    H242577   8.168   3.578   6.229
14212TIP3   OH242578   0.178   7.424   5.370
14212TIP3    H142579   0.229   7.344   5.381
14212TIP3    H242580   0.088   7.394   5.357
14213TIP3   OH242581   1.502   0.987   1.089
14213TIP3    H142582   1.548   0.971   1.007
14213TIP3    H242583   1.491   0.901   1.129
14214TIP3   OH242584   0.218   0.075   3.975
14214TIP3    H142585   0.150   0.108   4.033
14214TIP3    H242586   0.172   0.021   3.911
14215TIP3   OH242587   7.774   7.059   4.671
14215TIP3    H142588   7.744   7.135   4.620
14215TIP3    H242589   7.697   7.031   4.720
14216TIP3   OH242590   2.647   7.328   5.080
14216TIP3    H142591   2.652   7.424   5.072
14216TIP3    H242592   2.667   7.312   5.172
14217TIP3   OH242593   3.604   3.193   0.286
14217TIP3    H142594   3.535   3.258   0.300
14217TIP3    H242595   3.583   3.122   0.347
14218TIP3   OH242596   2.432   2.562   3.074
14218TIP3    H142597   2.351   2.612   3.084
14218TIP3    H242598   2.464   2.584   2.987
14219TIP3   OH242599   3.694   5.857   3.127
14219TIP3    H142600   3.615   5.895   3.090
14219TIP3    H242601   3.757   5.929   3.129
14220TIP3   OH242602   3.307   2.301   0.680
14220TIP3    H142603   3.398   2.290   0.653
14220TIP3    H242604   3.255   2.273   0.604
14221TIP3   OH242605   0.932   3.154   4.586
14221TIP3    H142606   0.985   3.230   4.564
14221TIP3    H242607   0.984   3.079   4.558
14222TIP3   OH242608   6.332   0.455   4.909
14222TIP3    H142609   6.255   0.424   4.957
14222TIP3    H242610   6.329   0.550   4.917
14223TIP3   OH242611   6.074   1.181   1.188
14223TIP3    H142612   6.049   1.273   1.183
14223TIP3    H242613   6.116   1.163   1.104
14224TIP3   OH242614   2.441   2.288   2.282
14224TIP3    H142615   2.358   2.246   2.262
14224TIP3    H242616   2.506   2.240   2.230
14225TIP3   OH242617  -0.041   0.824   0.248
14225TIP3    H142618   0.040   0.873   0.235
14225TIP3    H242619  -0.110   0.890   0.248
14226TIP3   OH242620   3.414   6.079   1.007
14226TIP3    H142621   3.341   6.110   1.060
14226TIP3    H242622   3.416   6.138   0.932
14227TIP3   OH242623   1.183   3.710   4.154
14227TIP3    H142624   1.165   3.677   4.066
14227TIP3    H242625   1.251   3.653   4.189
14228TIP3   OH242626   7.415   5.689   4.595
14228TIP3    H142627   7.510   5.680   4.602
14228TIP3    H242628   7.389   5.618   4.536
14229TIP3   OH242629   8.164   5.597   1.451
14229TIP3    H142630   8.239   5.578   1.393
14229TIP3    H242631   8.203   5.644   1.525
14230TIP3   OH242632   1.394   1.948   3.052
14230TIP3    H142633   1.421   1.860   3.026
14230TIP3    H242634   1.303   1.955   3.022
14231TIP3   OH242635   8.003   3.559   0.707
14231TIP3    H142636   8.021   3.650   0.683
14231TIP3    H242637   7.914   3.560   0.742
14232TIP3   OH242638   1.005   7.474   3.258
14232TIP3    H142639   1.029   7.561   3.289
14232TIP3    H242640   0.909   7.477   3.252
14233TIP3   OH242641   3.200   6.693   3.015
14233TIP3    H142642   3.159   6.624   3.067
14233TIP3    H242643   3.232   6.648   2.937
14234TIP3   OH242644   2.138   5.471   6.328
14234TIP3    H142645   2.186   5.474   6.245
14234TIP3    H242646   2.176   5.542   6.380
14235TIP3   OH242647   5.138   4.614   5.177
14235TIP3    H142648   5.055   4.593   5.220
14235TIP3    H242649   5.191   4.653   5.246
14236TIP3   OH242650   0.376   2.083   3.215
14236TIP3    H142651   0.440   2.109   3.281
14236TIP3    H242652   0.293   2.119   3.248
14237TIP3   OH242653   4.284   0.558   4.902
14237TIP3    H142654   4.280   0.639   4.953
14237TIP3    H242655   4.372   0.557   4.865
14238TIP3   OH242656   6.140   3.923   0.291
14238TIP3    H142657   6.132   3.857   0.360
14238TIP3    H242658   6.091   3.998   0.324
14239TIP3   OH242659   0.717   3.475   5.940
14239TIP3    H142660   0.775   3.533   5.990
14239TIP3    H242661   0.731   3.499   5.849
14240TIP3   OH242662   5.279   4.941   5.605
14240TIP3    H142663   5.369   4.942   5.639
14240TIP3    H242664   5.230   4.996   5.666
14241TIP3   OH242665   2.870   0.262   5.945
14241TIP3    H142666   2.813   0.186   5.939
14241TIP3    H242667   2.905   0.259   6.034
14242TIP3   OH242668   8.042   2.877   6.134
14242TIP3    H142669   8.042   2.967   6.167
14242TIP3    H242670   7.976   2.833   6.186
14243TIP3   OH242671   3.956   4.044   3.412
14243TIP3    H142672   3.973   3.953   3.388
14243TIP3    H242673   3.864   4.058   3.393
14244TIP3   OH242674   1.054   5.507   0.375
14244TIP3    H142675   1.114   5.453   0.426
14244TIP3    H242676   0.967   5.475   0.398
14245TIP3   OH242677   5.040   6.485   6.128
14245TIP3    H142678   5.045   6.554   6.194
14245TIP3    H242679   5.001   6.410   6.174
14246TIP3   OH242680   4.086   3.614   0.970
14246TIP3    H142681   4.020   3.570   1.023
14246TIP3    H242682   4.169   3.594   1.014
14247TIP3   OH242683   5.735   3.363   2.208
14247TIP3    H142684   5.688   3.438   2.171
14247TIP3    H242685   5.720   3.369   2.303
14248TIP3   OH242686   4.878   7.609   4.700
14248TIP3    H142687   4.856   7.661   4.777
14248TIP3    H242688   4.897   7.674   4.632
14249TIP3   OH242689   5.970   5.852   1.707
14249TIP3    H142690   5.938   5.909   1.777
14249TIP3    H242691   6.000   5.773   1.752
14250TIP3   OH242692   1.350   0.373   1.087
14250TIP3    H142693   1.339   0.446   1.026
14250TIP3    H242694   1.426   0.326   1.054
14251TIP3   OH242695   1.851   3.077   3.564
14251TIP3    H142696   1.909   3.136   3.514
14251TIP3    H242697   1.902   2.997   3.575
14252TIP3   OH242698   3.659   6.399   3.818
14252TIP3    H142699   3.634   6.456   3.891
14252TIP3    H242700   3.631   6.447   3.740
14253TIP3   OH242701   3.595   0.377   5.056
14253TIP3    H142702   3.629   0.460   5.024
14253TIP3    H242703   3.535   0.347   4.987
14254TIP3   OH242704   4.645   1.678   4.746
14254TIP3    H142705   4.551   1.679   4.766
14254TIP3    H242706   4.687   1.659   4.830
14255TIP3   OH242707   2.850   1.133   3.822
14255TIP3    H142708   2.844   1.041   3.799
14255TIP3    H242709   2.789   1.143   3.895
14256TIP3   OH242710   0.561   2.809   1.357
14256TIP3    H142711   0.494   2.866   1.394
14256TIP3    H242712   0.579   2.745   1.426
14257TIP3   OH242713   3.103   7.359   1.610
14257TIP3    H142714   3.047   7.419   1.561
14257TIP3    H242715   3.116   7.285   1.550
14258TIP3   OH242716   2.727   7.749   0.940
14258TIP3    H142717   2.817   7.779   0.927
14258TIP3    H242718   2.734   7.656   0.960
14259TIP3   OH242719  -0.034   4.008   2.363
14259TIP3    H142720  -0.040   4.103   2.367
14259TIP3    H242721   0.036   3.991   2.300
14260TIP3   OH242722   0.121   3.049   5.402
14260TIP3    H142723   0.070   3.088   5.331
14260TIP3    H242724   0.110   2.954   5.390
14261TIP3   OH242725   2.629   5.946   2.542
14261TIP3    H142726   2.609   6.037   2.567
14261TIP3    H242727   2.544   5.901   2.548
14262TIP3   OH242728   3.784   7.395   1.963
14262TIP3    H142729   3.828   7.413   1.880
14262TIP3    H242730   3.708   7.342   1.939
14263TIP3   OH242731   1.051   0.580   5.976
14263TIP3    H142732   1.113   0.626   6.033
14263TIP3    H242733   1.104   0.513   5.933
14264TIP3   OH242734   0.267   5.760   3.493
14264TIP3    H142735   0.221   5.818   3.432
14264TIP3    H242736   0.305   5.692   3.438
14265TIP3   OH242737   8.214   6.273   3.750
14265TIP3    H142738   8.190   6.196   3.699
14265TIP3    H242739   8.283   6.242   3.809
14266TIP3   OH242740   0.167   7.103   4.559
14266TIP3    H142741   0.089   7.047   4.549
14266TIP3    H242742   0.236   7.043   4.587
14267TIP3   OH242743   7.125   1.855   0.684
14267TIP3    H142744   7.134   1.914   0.759
14267TIP3    H242745   7.045   1.806   0.701
14268TIP3   OH242746   7.655   3.079   2.132
14268TIP3    H142747   7.637   2.986   2.148
14268TIP3    H242748   7.676   3.083   2.039
14269TIP3   OH242749   3.760   6.421   0.217
14269TIP3    H142750   3.829   6.476   0.179
14269TIP3    H242751   3.749   6.455   0.306
14270TIP3   OH242752   4.113   4.836   0.973
14270TIP3    H142753   4.189   4.827   0.914
14270TIP3    H242754   4.150   4.870   1.054
14271TIP3   OH242755   2.275   6.365   1.022
14271TIP3    H142756   2.325   6.441   0.993
14271TIP3    H242757   2.341   6.304   1.054
14272TIP3   OH242758   8.005   4.120   3.753
14272TIP3    H142759   7.946   4.185   3.790
14272TIP3    H242760   8.065   4.098   3.824
14273TIP3   OH242761   1.739   6.536   5.470
14273TIP3    H142762   1.728   6.550   5.376
14273TIP3    H242763   1.805   6.601   5.496
14274TIP3   OH242764   8.237   1.492   5.066
14274TIP3    H142765   8.149   1.509   5.100
14274TIP3    H242766   8.230   1.505   4.972
14275TIP3   OH242767   2.970   3.709   0.339
14275TIP3    H142768   2.931   3.740   0.421
14275TIP3    H242769   2.897   3.709   0.277
14276TIP3   OH242770   2.780   5.981   4.458
14276TIP3    H142771   2.789   5.944   4.371
14276TIP3    H242772   2.858   6.035   4.470
14277TIP3   OH242773   1.360   1.213   1.224
14277TIP3    H142774   1.420   1.169   1.165
14277TIP3    H242775   1.328   1.144   1.282
14278TIP3   OH242776   5.991   3.526   3.734
14278TIP3    H142777   6.048   3.576   3.675
14278TIP3    H242778   5.903   3.544   3.703
14279TIP3   OH242779   5.566   2.376   1.475
14279TIP3    H142780   5.612   2.455   1.447
14279TIP3    H242781   5.478   2.386   1.440
14280TIP3   OH242782   6.568   4.866   5.862
14280TIP3    H142783   6.497   4.807   5.837
14280TIP3    H242784   6.586   4.845   5.954
14281TIP3   OH242785   3.743   7.258   3.178
14281TIP3    H142786   3.733   7.347   3.145
14281TIP3    H242787   3.712   7.262   3.268
14282TIP3   OH242788   3.578   2.134   2.079
14282TIP3    H142789   3.657   2.082   2.093
14282TIP3    H242790   3.514   2.098   2.140
14283TIP3   OH242791   6.248   1.629   1.065
14283TIP3    H142792   6.264   1.681   0.987
14283TIP3    H242793   6.168   1.666   1.103
14284TIP3   OH242794   3.719   5.742   2.194
14284TIP3    H142795   3.644   5.701   2.152
14284TIP3    H242796   3.686   5.772   2.279
14285TIP3   OH242797   7.310   6.339   3.628
14285TIP3    H142798   7.279   6.249   3.626
14285TIP3    H242799   7.266   6.382   3.555
14286TIP3   OH242800   7.519   7.344   5.642
14286TIP3    H142801   7.472   7.420   5.608
14286TIP3    H242802   7.486   7.332   5.731
14287TIP3   OH242803   4.083   6.918   0.567
14287TIP3    H142804   4.164   6.870   0.548
14287TIP3    H242805   4.029   6.856   0.615
14288TIP3   OH242806   5.100   2.408   5.366
14288TIP3    H142807   5.018   2.402   5.414
14288TIP3    H242808   5.079   2.463   5.290
14289TIP3   OH242809   0.899   1.145   4.708
14289TIP3    H142810   0.912   1.236   4.684
14289TIP3    H242811   0.821   1.146   4.764
14290TIP3   OH242812   3.101   7.251   4.451
14290TIP3    H142813   3.158   7.283   4.520
14290TIP3    H242814   3.093   7.324   4.390
14291TIP3   OH242815   3.384   0.923   0.847
14291TIP3    H142816   3.440   0.884   0.914
14291TIP3    H242817   3.344   0.999   0.890
14292TIP3   OH242818   6.736   6.929   6.141
14292TIP3    H142819   6.664   6.944   6.079
14292TIP3    H242820   6.704   6.962   6.224
14293TIP3   OH242821   7.201   2.892   4.909
14293TIP3    H142822   7.215   2.919   4.999
14293TIP3    H242823   7.108   2.866   4.906
14294TIP3   OH242824   5.808   1.876   4.907
14294TIP3    H142825   5.734   1.828   4.942
14294TIP3    H242826   5.769   1.954   4.867
14295TIP3   OH242827   2.563   4.537   6.166
14295TIP3    H142828   2.508   4.480   6.220
14295TIP3    H242829   2.651   4.527   6.202
14296TIP3   OH242830   3.690   6.366   1.653
14296TIP3    H142831   3.687   6.449   1.701
14296TIP3    H242832   3.619   6.314   1.692
14297TIP3   OH242833   6.973   5.288   2.768
14297TIP3    H142834   6.921   5.250   2.697
14297TIP3    H242835   7.054   5.317   2.725
14298TIP3   OH242836   7.886   5.832   4.007
14298TIP3    H142837   7.846   5.763   3.954
14298TIP3    H242838   7.974   5.799   4.026
14299TIP3   OH242839   7.225   6.755   5.196
14299TIP3    H142840   7.291   6.824   5.198
14299TIP3    H242841   7.204   6.744   5.104
14300TIP3   OH242842   0.583   7.563   4.181
14300TIP3    H142843   0.497   7.592   4.150
14300TIP3    H242844   0.587   7.470   4.158
14301TIP3   OH242845   3.539   5.321   6.562
14301TIP3    H142846   3.631   5.302   6.580
14301TIP3    H242847   3.535   5.337   6.468
14302TIP3   OH242848   6.379   3.887   5.403
14302TIP3    H142849   6.398   3.912   5.493
14302TIP3    H242850   6.451   3.830   5.378
14303TIP3   OH242851   3.059   0.492   2.044
14303TIP3    H142852   2.963   0.501   2.044
14303TIP3    H242853   3.084   0.500   2.136
14304TIP3   OH242854   7.059   0.452   1.792
14304TIP3    H142855   7.102   0.532   1.763
14304TIP3    H242856   7.127   0.403   1.839
14305TIP3   OH242857   2.241   0.362   0.058
14305TIP3    H142858   2.223   0.274   0.093
14305TIP3    H242859   2.154   0.399   0.041
14306TIP3   OH242860   1.060   5.499   4.552
14306TIP3    H142861   1.045   5.471   4.642
14306TIP3    H242862   1.147   5.464   4.530
14307TIP3   OH242863   4.081   6.172   5.304
14307TIP3    H142864   4.112   6.261   5.317
14307TIP3    H242865   4.042   6.148   5.388
14308TIP3   OH242866   1.297   6.819   5.475
14308TIP3    H142867   1.292   6.906   5.436
14308TIP3    H242868   1.389   6.809   5.499
14309TIP3   OH242869   5.579   6.086   1.762
14309TIP3    H142870   5.545   6.145   1.695
14309TIP3    H242871   5.671   6.110   1.770
14310TIP3   OH242872   3.396   7.748   5.409
14310TIP3    H142873   3.491   7.747   5.424
14310TIP3    H242874   3.366   7.661   5.436
14311TIP3   OH242875   2.221   0.124   6.468
14311TIP3    H142876   2.290   0.129   6.402
14311TIP3    H242877   2.259   0.072   6.539
14312TIP3   OH242878   4.515   2.289   0.629
14312TIP3    H142879   4.573   2.308   0.702
14312TIP3    H242880   4.461   2.216   0.660
14313TIP3   OH242881   7.725   0.766   3.242
14313TIP3    H142882   7.691   0.724   3.321
14313TIP3    H242883   7.719   0.860   3.261
14314TIP3   OH242884   5.131   1.093   4.054
14314TIP3    H142885   5.092   1.006   4.054
14314TIP3    H242886   5.105   1.131   4.138
14315TIP3   OH242887   3.776   6.561   6.023
14315TIP3    H142888   3.845   6.613   6.066
14315TIP3    H242889   3.808   6.471   6.028
14316TIP3   OH242890   1.920   4.103   5.507
14316TIP3    H142891   1.983   4.032   5.510
14316TIP3    H242892   1.883   4.099   5.419
14317TIP3   OH242893   0.342   2.543   0.939
14317TIP3    H142894   0.380   2.624   0.973
14317TIP3    H242895   0.418   2.492   0.910
14318TIP3   OH242896   1.915   0.390   2.570
14318TIP3    H142897   1.825   0.405   2.542
14318TIP3    H242898   1.968   0.440   2.508
14319TIP3   OH242899   5.100   5.117   0.366
14319TIP3    H142900   5.098   5.074   0.451
14319TIP3    H242901   5.081   5.209   0.384
14320TIP3   OH242902   6.339   6.936   3.592
14320TIP3    H142903   6.412   6.973   3.543
14320TIP3    H242904   6.376   6.860   3.637
14321TIP3   OH242905   5.351   0.901   3.255
14321TIP3    H142906   5.298   0.928   3.181
14321TIP3    H242907   5.368   0.982   3.303
14322TIP3   OH242908   5.442   7.265   3.751
14322TIP3    H142909   5.443   7.340   3.691
14322TIP3    H242910   5.531   7.262   3.785
14323TIP3   OH242911   4.555   0.244   6.046
14323TIP3    H142912   4.557   0.151   6.069
14323TIP3    H242913   4.638   0.260   6.001
14324TIP3   OH242914   0.511   1.161   0.715
14324TIP3    H142915   0.537   1.252   0.727
14324TIP3    H242916   0.529   1.142   0.623
14325TIP3   OH242917   8.114   3.927   3.387
14325TIP3    H142918   8.051   3.858   3.371
14325TIP3    H242919   8.152   3.906   3.473
14326TIP3   OH242920   0.262   5.862   6.653
14326TIP3    H142921   0.247   5.934   6.592
14326TIP3    H242922   0.357   5.851   6.655
14327TIP3   OH242923   0.391   2.619   6.057
14327TIP3    H142924   0.297   2.620   6.041
14327TIP3    H242925   0.423   2.700   6.017
14328TIP3   OH242926   6.219   6.418   5.888
14328TIP3    H142927   6.228   6.502   5.844
14328TIP3    H242928   6.177   6.362   5.823
14329TIP3   OH242929   1.837   5.915   3.913
14329TIP3    H142930   1.789   5.916   3.830
14329TIP3    H242931   1.829   6.005   3.946
14330TIP3   OH242932   1.171   0.259   5.401
14330TIP3    H142933   1.232   0.191   5.429
14330TIP3    H242934   1.153   0.310   5.480
14331TIP3   OH242935   1.068   0.818   1.505
14331TIP3    H142936   1.132   0.782   1.567
14331TIP3    H242937   0.994   0.757   1.510
14332TIP3   OH242938   1.250   4.241   5.872
14332TIP3    H142939   1.205   4.320   5.903
14332TIP3    H242940   1.331   4.238   5.924
14333TIP3   OH242941   4.293   2.295   2.360
14333TIP3    H142942   4.323   2.261   2.444
14333TIP3    H242943   4.271   2.387   2.378
14334TIP3   OH242944   5.191   7.166   1.725
14334TIP3    H142945   5.210   7.126   1.810
14334TIP3    H242946   5.095   7.166   1.719
14335TIP3   OH242947   7.049   6.262   1.667
14335TIP3    H142948   7.106   6.280   1.592
14335TIP3    H242949   7.101   6.289   1.743
14336TIP3   OH242950   2.126   2.551   1.318
14336TIP3    H142951   2.071   2.556   1.240
14336TIP3    H242952   2.165   2.464   1.314
14337TIP3   OH242953   7.060   7.074   4.649
14337TIP3    H142954   6.972   7.105   4.666
14337TIP3    H242955   7.075   7.005   4.714
14338TIP3   OH242956   4.666   2.739   5.764
14338TIP3    H142957   4.752   2.726   5.805
14338TIP3    H242958   4.632   2.650   5.753
14339TIP3   OH242959   7.851   7.226   3.161
14339TIP3    H142960   7.782   7.160   3.166
14339TIP3    H242961   7.805   7.309   3.151
14340TIP3   OH242962   6.896   0.980   5.610
14340TIP3    H142963   6.991   0.990   5.606
14340TIP3    H242964   6.864   1.065   5.639
14341TIP3   OH242965   2.897   4.994   0.316
14341TIP3    H142966   2.982   4.951   0.321
14341TIP3    H242967   2.844   4.949   0.383
14342TIP3   OH242968   7.591   1.408   5.677
14342TIP3    H142969   7.632   1.469   5.615
14342TIP3    H242970   7.505   1.446   5.694
14343TIP3   OH242971   1.706   2.153   0.624
14343TIP3    H142972   1.621   2.121   0.593
14343TIP3    H242973   1.709   2.127   0.716
14344TIP3   OH242974   6.557   7.725   4.953
14344TIP3    H142975   6.482   7.760   4.904
14344TIP3    H242976   6.522   7.651   5.002
14345TIP3   OH242977   5.010   5.454   5.119
14345TIP3    H142978   5.085   5.454   5.177
14345TIP3    H242979   4.955   5.382   5.151
14346TIP3   OH242980   6.636   6.753   3.320
14346TIP3    H142981   6.695   6.713   3.256
14346TIP3    H242982   6.595   6.678   3.364
14347TIP3   OH242983   6.049   5.540   3.948
14347TIP3    H142984   6.049   5.507   3.858
14347TIP3    H242985   6.112   5.484   3.994
14348TIP3   OH242986   3.997   0.571   1.630
14348TIP3    H142987   3.923   0.580   1.570
14348TIP3    H242988   4.055   0.508   1.588
14349TIP3   OH242989   2.814   5.016   6.786
14349TIP3    H142990   2.781   5.106   6.788
14349TIP3    H242991   2.750   4.968   6.734
14350TIP3   OH242992   4.333   2.070   3.338
14350TIP3    H142993   4.420   2.109   3.333
14350TIP3    H242994   4.333   2.021   3.420
14351TIP3   OH242995   0.592   4.903   0.235
14351TIP3    H142996   0.529   4.838   0.204
14351TIP3    H242997   0.649   4.920   0.160
14352TIP3   OH242998   3.531   2.290   5.155
14352TIP3    H142999   3.599   2.233   5.119
14352TIP3    H243000   3.461   2.288   5.089
14353TIP3   OH243001   3.886   0.229   4.364
14353TIP3    H143002   3.840   0.159   4.409
14353TIP3    H243003   3.824   0.302   4.365
14354TIP3   OH243004   4.232   3.178   3.579
14354TIP3    H143005   4.291   3.186   3.504
14354TIP3    H243006   4.248   3.089   3.613
14355TIP3   OH243007   4.959   5.532   3.294
14355TIP3    H143008   4.977   5.617   3.334
14355TIP3    H243009   4.959   5.471   3.368
14356TIP3   OH243010   6.246   7.099   1.687
14356TIP3    H143011   6.191   7.170   1.654
14356TIP3    H243012   6.308   7.081   1.616
14357TIP3   OH243013   8.228   0.615   1.676
14357TIP3    H143014   8.195   0.694   1.719
14357TIP3    H243015   8.303   0.645   1.624
14358TIP3   OH243016   0.107   0.853   2.412
14358TIP3    H143017   0.042   0.802   2.363
14358TIP3    H243018   0.067   0.940   2.420
14359TIP3   OH243019   1.634   2.913   5.260
14359TIP3    H143020   1.646   2.818   5.269
14359TIP3    H243021   1.680   2.935   5.179
14360TIP3   OH243022   6.246   1.205   6.365
14360TIP3    H143023   6.224   1.175   6.277
14360TIP3    H243024   6.166   1.246   6.398
14361TIP3   OH243025   0.360   6.581   2.439
14361TIP3    H143026   0.427   6.597   2.373
14361TIP3    H243027   0.277   6.594   2.393
14362TIP3   OH243028   7.626   2.387   3.557
14362TIP3    H143029   7.609   2.480   3.573
14362TIP3    H243030   7.663   2.384   3.469
14363TIP3   OH243031   0.172   5.832   4.322
14363TIP3    H143032   0.192   5.744   4.354
14363TIP3    H243033   0.077   5.833   4.310
14364TIP3   OH243034   7.991   5.224   6.254
14364TIP3    H143035   8.015   5.316   6.265
14364TIP3    H243036   8.037   5.197   6.174
14365TIP3   OH243037   0.716   3.597   2.407
14365TIP3    H143038   0.788   3.555   2.360
14365TIP3    H243039   0.730   3.691   2.393
14366TIP3   OH243040   1.239   3.135   3.240
14366TIP3    H143041   1.303   3.068   3.264
14366TIP3    H243042   1.288   3.196   3.186
14367TIP3   OH243043   7.566   6.191   3.571
14367TIP3    H143044   7.587   6.283   3.554
14367TIP3    H243045   7.615   6.169   3.650
14368TIP3   OH243046   5.255   5.309   2.501
14368TIP3    H143047   5.333   5.364   2.514
14368TIP3    H243048   5.259   5.285   2.408
14369TIP3   OH243049   2.374   4.840   5.585
14369TIP3    H143050   2.453   4.815   5.537
14369TIP3    H243051   2.382   4.934   5.597
14370TIP3   OH243052   2.861   7.248   3.138
14370TIP3    H143053   2.952   7.272   3.153
14370TIP3    H243054   2.815   7.272   3.218
14371TIP3   OH243055   6.067   2.532   3.803
14371TIP3    H143056   5.997   2.467   3.810
14371TIP3    H243057   6.144   2.483   3.775
14372TIP3   OH243058   8.325   0.839   4.045
14372TIP3    H143059   8.239   0.799   4.033
14372TIP3    H243060   8.374   0.777   4.098
14373TIP3   OH243061   5.061   3.754   3.647
14373TIP3    H143062   5.060   3.784   3.738
14373TIP3    H243063   5.109   3.671   3.650
14374TIP3   OH243064   0.668   1.277   4.134
14374TIP3    H143065   0.697   1.198   4.180
14374TIP3    H243066   0.609   1.244   4.066
14375TIP3   OH243067   5.692   4.046   1.204
14375TIP3    H143068   5.708   4.099   1.281
14375TIP3    H243069   5.626   4.094   1.155
14376TIP3   OH243070   5.886   0.235   0.879
14376TIP3    H143071   5.823   0.303   0.906
14376TIP3    H243072   5.946   0.227   0.952
14377TIP3   OH243073   6.743   6.696   5.241
14377TIP3    H143074   6.780   6.775   5.200
14377TIP3    H243075   6.659   6.684   5.197
14378TIP3   OH243076   7.375   3.806   2.122
14378TIP3    H143077   7.406   3.763   2.202
14378TIP3    H243078   7.293   3.848   2.147
14379TIP3   OH243079   1.920   0.551   6.503
14379TIP3    H143080   1.926   0.644   6.525
14379TIP3    H243081   1.964   0.507   6.575
14380TIP3   OH243082   5.453   5.511   1.037
14380TIP3    H143083   5.513   5.585   1.044
14380TIP3    H243084   5.366   5.550   1.043
14381TIP3   OH243085   2.187   4.860   2.233
14381TIP3    H143086   2.168   4.766   2.237
14381TIP3    H243087   2.203   4.885   2.325
14382TIP3   OH243088   4.360   5.487   5.325
14382TIP3    H143089   4.304   5.542   5.270
14382TIP3    H243090   4.443   5.533   5.330
14383TIP3   OH243091   0.927   7.436   5.412
14383TIP3    H143092   0.943   7.345   5.438
14383TIP3    H243093   0.977   7.447   5.331
14384TIP3   OH243094   6.809   0.338   0.488
14384TIP3    H143095   6.807   0.317   0.581
14384TIP3    H243096   6.902   0.336   0.465
14385TIP3   OH243097   7.414   2.833   5.597
14385TIP3    H143098   7.373   2.906   5.550
14385TIP3    H243099   7.470   2.874   5.663
14386TIP3   OH243100   8.185   0.125   0.806
14386TIP3    H143101   8.186   0.174   0.888
14386TIP3    H243102   8.217   0.037   0.830
14387TIP3   OH243103   5.211   0.096   5.653
14387TIP3    H143104   5.280   0.129   5.595
14387TIP3    H243105   5.154   0.045   5.595
14388TIP3   OH243106   2.278   6.345   5.586
14388TIP3    H143107   2.206   6.408   5.590
14388TIP3    H243108   2.353   6.393   5.621
14389TIP3   OH243109   1.543   6.947   4.847
14389TIP3    H143110   1.583   6.892   4.915
14389TIP3    H243111   1.606   6.946   4.775
14390TIP3   OH243112   7.286   0.555   4.404
14390TIP3    H143113   7.371   0.525   4.372
14390TIP3    H243114   7.233   0.565   4.324
14391TIP3   OH243115   3.853   6.395   6.645
14391TIP3    H143116   3.764   6.362   6.650
14391TIP3    H243117   3.865   6.419   6.553
14392TIP3   OH243118   6.046   6.920   0.036
14392TIP3    H143119   6.021   6.902   0.127
14392TIP3    H243120   5.987   6.866  -0.016
14393TIP3   OH243121   6.555   4.436   3.946
14393TIP3    H143122   6.618   4.465   3.881
14393TIP3    H243123   6.534   4.346   3.920
14394TIP3   OH243124   5.478   4.424   1.179
14394TIP3    H143125   5.513   4.475   1.252
14394TIP3    H243126   5.510   4.469   1.101
14395TIP3   OH243127   4.513   4.880   6.480
14395TIP3    H143128   4.536   4.916   6.565
14395TIP3    H243129   4.568   4.928   6.418
14396TIP3   OH243130   2.107   3.633   0.070
14396TIP3    H143131   2.201   3.615   0.072
14396TIP3    H243132   2.099   3.714   0.020
14397TIP3   OH243133   5.475   6.474   1.413
14397TIP3    H143134   5.417   6.543   1.445
14397TIP3    H243135   5.436   6.446   1.330
14398TIP3   OH243136   6.283   2.546   4.953
14398TIP3    H143137   6.213   2.545   4.887
14398TIP3    H243138   6.361   2.516   4.906
14399TIP3   OH243139   0.631   7.270   0.832
14399TIP3    H143140   0.712   7.318   0.844
14399TIP3    H243141   0.596   7.303   0.749
14400TIP3   OH243142   6.617   5.289   1.708
14400TIP3    H143143   6.688   5.283   1.644
14400TIP3    H243144   6.543   5.325   1.658
14401TIP3   OH243145   6.127   6.518   6.299
14401TIP3    H143146   6.173   6.476   6.227
14401TIP3    H243147   6.099   6.603   6.264
14402TIP3   OH243148   6.635   3.371   1.309
14402TIP3    H143149   6.721   3.407   1.330
14402TIP3    H243150   6.606   3.420   1.232
14403TIP3   OH243151   7.216   4.946   5.924
14403TIP3    H143152   7.253   5.024   5.884
14403TIP3    H243153   7.170   4.901   5.853
14404TIP3   OH243154   2.700   6.194   0.795
14404TIP3    H143155   2.752   6.224   0.720
14404TIP3    H243156   2.651   6.271   0.822
14405TIP3   OH243157   4.838   1.440   3.421
14405TIP3    H143158   4.825   1.359   3.471
14405TIP3    H243159   4.759   1.491   3.439
14406TIP3   OH243160   6.857   7.568   5.912
14406TIP3    H143161   6.871   7.630   5.984
14406TIP3    H243162   6.825   7.489   5.955
14407TIP3   OH243163   1.921   4.511   5.667
14407TIP3    H143164   1.909   4.525   5.573
14407TIP3    H243165   2.004   4.464   5.674
14408TIP3   OH243166   5.083   5.524   1.277
14408TIP3    H143167   5.089   5.526   1.372
14408TIP3    H243168   4.989   5.526   1.258
14409TIP3   OH243169   6.031   6.055   1.530
14409TIP3    H143170   6.008   5.971   1.570
14409TIP3    H243171   6.127   6.052   1.523
14410TIP3   OH243172   3.463   5.675  -0.039
14410TIP3    H143173   3.503   5.607   0.014
14410TIP3    H243174   3.480   5.757   0.008
14411TIP3   OH243175   0.099   1.339   4.254
14411TIP3    H143176   0.039   1.352   4.181
14411TIP3    H243177   0.132   1.250   4.243
14412TIP3   OH243178   0.343   6.546   3.938
14412TIP3    H143179   0.437   6.561   3.928
14412TIP3    H243180   0.317   6.601   4.012
14413TIP3   OH243181   2.984   5.700   0.045
14413TIP3    H143182   3.050   5.631   0.047
14413TIP3    H243183   3.027   5.776   0.082
14414TIP3   OH243184   8.068   1.197   1.254
14414TIP3    H143185   8.089   1.126   1.314
14414TIP3    H243186   8.139   1.196   1.190
14415TIP3   OH243187   8.136   3.822   4.644
14415TIP3    H143188   8.160   3.824   4.551
14415TIP3    H243189   8.113   3.730   4.660
14416TIP3   OH243190   7.689   5.606   2.989
14416TIP3    H143191   7.748   5.599   3.064
14416TIP3    H243192   7.650   5.693   2.998
14417TIP3   OH243193   2.289   3.868   5.149
14417TIP3    H143194   2.275   3.844   5.057
14417TIP3    H243195   2.287   3.964   5.149
14418TIP3   OH243196   5.694   1.749   5.461
14418TIP3    H143197   5.618   1.742   5.404
14418TIP3    H243198   5.769   1.747   5.401
14419TIP3   OH243199   3.415   2.278   3.205
14419TIP3    H143200   3.503   2.258   3.173
14419TIP3    H243201   3.407   2.228   3.286
14420TIP3   OH243202   1.129   3.907   3.468
14420TIP3    H143203   1.131   3.830   3.411
14420TIP3    H243204   1.195   3.966   3.431
14421TIP3   OH243205   0.148   1.276   5.978
14421TIP3    H143206   0.075   1.324   5.939
14421TIP3    H243207   0.125   1.184   5.966
14422TIP3   OH243208   5.782   7.187   2.408
14422TIP3    H143209   5.731   7.200   2.488
14422TIP3    H243210   5.841   7.114   2.429
14423TIP3   OH243211   0.285   7.053   2.147
14423TIP3    H143212   0.305   7.040   2.055
14423TIP3    H243213   0.264   6.966   2.180
14424TIP3   OH243214   6.541   4.673   2.799
14424TIP3    H143215   6.576   4.584   2.798
14424TIP3    H243216   6.555   4.704   2.709
14425TIP3   OH243217   6.396   6.439   3.662
14425TIP3    H143218   6.386   6.379   3.736
14425TIP3    H243219   6.329   6.411   3.599
14426TIP3   OH243220   6.929   2.616   5.757
14426TIP3    H143221   6.903   2.708   5.747
14426TIP3    H243222   6.889   2.589   5.839
14427TIP3   OH243223   0.934   5.617   5.390
14427TIP3    H143224   0.911   5.630   5.298
14427TIP3    H243225   1.010   5.674   5.403
14428TIP3   OH243226   4.728   2.077   6.237
14428TIP3    H143227   4.681   1.996   6.217
14428TIP3    H243228   4.814   2.048   6.267
14429TIP3   OH243229   6.049   5.339   5.912
14429TIP3    H143230   6.054   5.434   5.925
14429TIP3    H243231   6.056   5.302   6.000
14430TIP3   OH243232   8.202   5.634   6.285
14430TIP3    H143233   8.145   5.580   6.339
14430TIP3    H243234   8.290   5.601   6.302
14431TIP3   OH243235   4.939   7.361   4.172
14431TIP3    H143236   4.942   7.403   4.086
14431TIP3    H243237   4.872   7.410   4.220
14432TIP3   OH243238   0.861   2.905   3.459
14432TIP3    H143239   0.809   2.850   3.517
14432TIP3    H243240   0.799   2.941   3.396
14433TIP3   OH243241   6.813   2.677   1.185
14433TIP3    H143242   6.785   2.604   1.129
14433TIP3    H243243   6.742   2.741   1.178
14434TIP3   OH243244   3.063   1.093   1.379
14434TIP3    H143245   3.106   1.109   1.463
14434TIP3    H243246   3.054   1.179   1.339
14435TIP3   OH243247   7.192   2.102   0.541
14435TIP3    H143248   7.213   2.086   0.449
14435TIP3    H243249   7.192   2.016   0.582
14436TIP3   OH243250   8.313   2.781   3.404
14436TIP3    H143251   8.311   2.832   3.485
14436TIP3    H243252   8.304   2.846   3.334
14437TIP3   OH243253   5.979   1.267   1.837
14437TIP3    H143254   5.969   1.175   1.859
14437TIP3    H243255   5.912   1.312   1.889
14438TIP3   OH243256   4.853   1.035   4.511
14438TIP3    H143257   4.798   0.959   4.491
14438TIP3    H243258   4.913   1.041   4.437
14439TIP3   OH243259   3.245   1.544   4.839
14439TIP3    H143260   3.211   1.563   4.927
14439TIP3    H243261   3.201   1.607   4.782
14440TIP3   OH243262   3.893   0.674   6.353
14440TIP3    H143263   3.946   0.608   6.395
14440TIP3    H243264   3.924   0.757   6.390
14441TIP3   OH243265   4.936   6.044   5.057
14441TIP3    H143266   4.898   6.063   4.971
14441TIP3    H243267   5.023   6.010   5.038
14442TIP3   OH243268   7.352   1.537   5.721
14442TIP3    H143269   7.344   1.571   5.810
14442TIP3    H243270   7.283   1.472   5.713
14443TIP3   OH243271   4.115   3.908   5.931
14443TIP3    H143272   4.039   3.857   5.904
14443TIP3    H243273   4.155   3.856   6.001
14444TIP3   OH243274   7.479   4.835   6.622
14444TIP3    H143275   7.477   4.887   6.703
14444TIP3    H243276   7.398   4.859   6.577
14445TIP3   OH243277   1.200   0.352   1.863
14445TIP3    H143278   1.213   0.303   1.782
14445TIP3    H243279   1.107   0.340   1.883
14446TIP3   OH243280   1.650   4.063   5.051
14446TIP3    H143281   1.590   4.001   5.093
14446TIP3    H243282   1.595   4.111   4.988
14447TIP3   OH243283   4.630   1.760   5.846
14447TIP3    H143284   4.551   1.719   5.810
14447TIP3    H243285   4.694   1.753   5.775
14448TIP3   OH243286   5.027   2.105   3.303
14448TIP3    H143287   5.019   2.187   3.254
14448TIP3    H243288   4.944   2.059   3.287
14449TIP3   OH243289   6.477   1.055   2.105
14449TIP3    H143290   6.407   1.042   2.168
14449TIP3    H243291   6.510   0.966   2.088
14450TIP3   OH243292   7.665   2.732   1.430
14450TIP3    H143293   7.734   2.723   1.366
14450TIP3    H243294   7.689   2.810   1.481
14451TIP3   OH243295   0.235   4.971   2.085
14451TIP3    H143296   0.142   4.957   2.067
14451TIP3    H243297   0.279   4.955   2.001
14452TIP3   OH243298   4.304   0.796   4.107
14452TIP3    H143299   4.369   0.736   4.142
14452TIP3    H243300   4.273   0.754   4.027
14453TIP3   OH243301   7.593   1.389   0.488
14453TIP3    H143302   7.668   1.331   0.502
14453TIP3    H243303   7.613   1.436   0.407
14454TIP3   OH243304   3.471   3.438   4.245
14454TIP3    H143305   3.398   3.499   4.249
14454TIP3    H243306   3.526   3.470   4.174
14455TIP3   OH243307   1.535   0.141   5.937
14455TIP3    H143308   1.478   0.214   5.915
14455TIP3    H243309   1.567   0.109   5.853
14456TIP3   OH243310   5.373   7.637   0.902
14456TIP3    H143311   5.423   7.558   0.882
14456TIP3    H243312   5.325   7.657   0.821
14457TIP3   OH243313   5.181   3.884   6.094
14457TIP3    H143314   5.229   3.888   6.177
14457TIP3    H243315   5.178   3.791   6.072
14458TIP3   OH243316   2.390   5.984   0.409
14458TIP3    H143317   2.374   6.063   0.462
14458TIP3    H243318   2.351   5.913   0.459
14459TIP3   OH243319   4.818   1.023   4.068
14459TIP3    H143320   4.738   0.973   4.054
14459TIP3    H243321   4.792   1.094   4.126
14460TIP3   OH243322   3.150   4.997   5.831
14460TIP3    H143323   3.139   4.915   5.879
14460TIP3    H243324   3.241   4.994   5.800
14461TIP3   OH243325   2.436   6.925   2.244
14461TIP3    H143326   2.497   6.981   2.293
14461TIP3    H243327   2.349   6.957   2.268
14462TIP3   OH243328   7.387   4.436   1.610
14462TIP3    H143329   7.481   4.424   1.623
14462TIP3    H243330   7.348   4.418   1.695
14463TIP3   OH243331   0.462   1.980   6.647
14463TIP3    H143332   0.430   1.995   6.736
14463TIP3    H243333   0.478   1.886   6.643
14464TIP3   OH243334   3.174   6.793   1.729
14464TIP3    H143335   3.236   6.855   1.691
14464TIP3    H243336   3.227   6.740   1.789
14465TIP3   OH243337   6.621   4.073   3.249
14465TIP3    H143338   6.565   4.107   3.319
14465TIP3    H243339   6.561   4.056   3.176
14466TIP3   OH243340   5.595   6.762   3.606
14466TIP3    H143341   5.622   6.820   3.676
14466TIP3    H243342   5.673   6.711   3.584
14467TIP3   OH243343   2.084   4.294   5.646
14467TIP3    H143344   2.127   4.242   5.713
14467TIP3    H243345   2.015   4.237   5.611
14468TIP3   OH243346   2.602   4.276   4.229
14468TIP3    H143347   2.551   4.256   4.307
14468TIP3    H243348   2.660   4.201   4.218
14469TIP3   OH243349   5.092   7.035   1.140
14469TIP3    H143350   5.049   6.987   1.069
14469TIP3    H243351   5.021   7.058   1.200
14470TIP3   OH243352   4.031   6.653   1.858
14470TIP3    H143353   4.021   6.739   1.898
14470TIP3    H243354   3.975   6.656   1.780
14471TIP3   OH243355   4.844   1.620   4.941
14471TIP3    H143356   4.866   1.699   4.990
14471TIP3    H243357   4.872   1.548   4.999
14472TIP3   OH243358   5.164   7.107   2.516
14472TIP3    H143359   5.209   7.094   2.600
14472TIP3    H243360   5.196   7.192   2.485
14473TIP3   OH243361   1.496   2.739   2.074
14473TIP3    H143362   1.489   2.834   2.080
14473TIP3    H243363   1.450   2.717   1.993
14474TIP3   OH243364   2.146   5.729   5.183
14474TIP3    H143365   2.107   5.816   5.174
14474TIP3    H243366   2.163   5.700   5.094
14475TIP3   OH243367   5.215   4.368   3.813
14475TIP3    H143368   5.133   4.322   3.796
14475TIP3    H243369   5.215   4.382   3.908
14476TIP3   OH243370   0.263   1.126   0.162
14476TIP3    H143371   0.198   1.108   0.095
14476TIP3    H243372   0.242   1.214   0.193
14477TIP3   OH243373   7.462   4.183   4.427
14477TIP3    H143374   7.516   4.210   4.353
14477TIP3    H243375   7.378   4.160   4.388
14478TIP3   OH243376   0.574   3.814   0.236
14478TIP3    H143377   0.558   3.902   0.269
14478TIP3    H243378   0.663   3.793   0.266
14479TIP3   OH243379   1.643   0.971   3.611
14479TIP3    H143380   1.701   0.946   3.683
14479TIP3    H243381   1.555   0.948   3.641
14480TIP3   OH243382   0.117   6.540   2.028
14480TIP3    H143383   0.172   6.466   2.003
14480TIP3    H243384   0.150   6.613   1.976
14481TIP3   OH243385   4.432   6.182   4.438
14481TIP3    H143386   4.384   6.264   4.448
14481TIP3    H243387   4.494   6.200   4.367
14482TIP3   OH243388   7.583   5.079   4.865
14482TIP3    H143389   7.587   5.173   4.882
14482TIP3    H243390   7.671   5.056   4.836
14483TIP3   OH243391   0.889   1.594   1.880
14483TIP3    H143392   0.940   1.579   1.800
14483TIP3    H243393   0.955   1.594   1.950
14484TIP3   OH243394   1.544   7.129   3.005
14484TIP3    H143395   1.539   7.088   3.091
14484TIP3    H243396   1.456   7.163   2.989
14485TIP3   OH243397   7.620   3.631   5.374
14485TIP3    H143398   7.598   3.683   5.451
14485TIP3    H243399   7.695   3.676   5.335
14486TIP3   OH243400   5.183   4.999   4.564
14486TIP3    H143401   5.235   4.994   4.645
14486TIP3    H243402   5.178   5.093   4.544
14487TIP3   OH243403   7.463   1.947   0.618
14487TIP3    H143404   7.499   1.983   0.537
14487TIP3    H243405   7.439   2.024   0.670
14488TIP3   OH243406   7.161   0.493   0.227
14488TIP3    H143407   7.097   0.543   0.176
14488TIP3    H243408   7.145   0.402   0.203
14489TIP3   OH243409   7.042   5.609   5.002
14489TIP3    H143410   6.954   5.590   5.032
14489TIP3    H243411   7.099   5.586   5.076
14490TIP3   OH243412   2.508   0.395   3.858
14490TIP3    H143413   2.464   0.438   3.784
14490TIP3    H243414   2.590   0.363   3.821
14491TIP3   OH243415   4.407   0.130   4.396
14491TIP3    H143416   4.440   0.058   4.449
14491TIP3    H243417   4.323   0.099   4.362
14492TIP3   OH243418   8.338   7.501   3.661
14492TIP3    H143419   8.354   7.577   3.606
14492TIP3    H243420   8.261   7.525   3.713
14493TIP3   OH243421   7.649   1.770   3.098
14493TIP3    H143422   7.572   1.719   3.124
14493TIP3    H243423   7.614   1.840   3.043
14494TIP3   OH243424   5.683   4.270   5.581
14494TIP3    H143425   5.654   4.295   5.669
14494TIP3    H243426   5.670   4.348   5.527
14495TIP3   OH243427   6.704   7.738   0.860
14495TIP3    H143428   6.770   7.720   0.793
14495TIP3    H243429   6.708   7.833   0.872
14496TIP3   OH243430   4.185   1.609   4.240
14496TIP3    H143431   4.245   1.594   4.313
14496TIP3    H243432   4.242   1.631   4.166
14497TIP3   OH243433   8.134   5.277   3.762
14497TIP3    H143434   8.154   5.244   3.675
14497TIP3    H243435   8.062   5.338   3.749
14498TIP3   OH243436   3.811   6.418   6.348
14498TIP3    H143437   3.799   6.335   6.394
14498TIP3    H243438   3.867   6.395   6.273
14499TIP3   OH243439   0.949   1.847   3.996
14499TIP3    H143440   0.990   1.819   3.914
14499TIP3    H243441   0.859   1.814   3.990
14500TIP3   OH243442   5.178   0.704   6.575
14500TIP3    H143443   5.100   0.654   6.554
14500TIP3    H243444   5.149   0.768   6.640
14501TIP3   OH243445   3.483   3.659   2.346
14501TIP3    H143446   3.399   3.667   2.391
14501TIP3    H243447   3.464   3.681   2.255
14502TIP3   OH243448   2.879   5.476   4.714
14502TIP3    H143449   2.846   5.503   4.800
14502TIP3    H243450   2.962   5.431   4.734
14503TIP3   OH243451   7.931   1.603   0.606
14503TIP3    H143452   8.024   1.584   0.595
14503TIP3    H243453   7.888   1.519   0.596
14504TIP3   OH243454   6.036   2.894   2.214
14504TIP3    H143455   6.070   2.922   2.129
14504TIP3    H243456   5.958   2.947   2.227
14505TIP3   OH243457   5.501   1.141   6.129
14505TIP3    H143458   5.504   1.185   6.214
14505TIP3    H243459   5.577   1.175   6.081
14506TIP3   OH243460   4.661   4.812   5.082
14506TIP3    H143461   4.642   4.906   5.081
14506TIP3    H243462   4.672   4.788   4.990
14507TIP3   OH243463   6.910   7.163   1.081
14507TIP3    H143464   6.855   7.213   1.143
14507TIP3    H243465   6.881   7.073   1.091
14508TIP3   OH243466   5.533   2.029   3.739
14508TIP3    H143467   5.559   1.995   3.825
14508TIP3    H243468   5.476   1.962   3.703
14509TIP3   OH243469   7.106   4.423   3.244
14509TIP3    H143470   7.105   4.516   3.268
14509TIP3    H243471   7.196   4.407   3.215
14510TIP3   OH243472   6.850   3.615   3.339
14510TIP3    H143473   6.926   3.591   3.285
14510TIP3    H243474   6.824   3.701   3.306
14511TIP3   OH243475   6.736   0.855   5.146
14511TIP3    H143476   6.717   0.782   5.088
14511TIP3    H243477   6.749   0.815   5.232
14512TIP3   OH243478   2.189   5.537   4.098
14512TIP3    H143479   2.110   5.485   4.114
14512TIP3    H243480   2.158   5.628   4.097
14513TIP3   OH243481   0.452   6.940   2.555
14513TIP3    H143482   0.381   6.957   2.617
14513TIP3    H243483   0.524   6.910   2.610
14514TIP3   OH243484   2.094   1.673   0.688
14514TIP3    H143485   2.149   1.745   0.717
14514TIP3    H243486   2.039   1.652   0.763
14515TIP3   OH243487   2.687   4.357   5.404
14515TIP3    H143488   2.655   4.331   5.490
14515TIP3    H243489   2.609   4.387   5.357
14516TIP3   OH243490   2.941   5.933   5.035
14516TIP3    H143491   2.921   5.890   5.118
14516TIP3    H243492   2.981   6.017   5.060
14517TIP3   OH243493   1.330   3.772   2.037
14517TIP3    H143494   1.323   3.681   2.009
14517TIP3    H243495   1.278   3.821   1.973
14518TIP3   OH243496   1.588   6.437   3.692
14518TIP3    H143497   1.600   6.528   3.665
14518TIP3    H243498   1.522   6.402   3.632
14519TIP3   OH243499   8.039   7.648   2.195
14519TIP3    H143500   8.088   7.605   2.124
14519TIP3    H243501   7.963   7.687   2.151
14520TIP3   OH243502   4.527   2.931   3.207
14520TIP3    H143503   4.610   2.973   3.186
14520TIP3    H243504   4.483   2.922   3.122
14521TIP3   OH243505   6.095   1.969   4.031
14521TIP3    H143506   6.039   1.932   3.962
14521TIP3    H243507   6.149   1.896   4.060
14522TIP3   OH243508   7.845   2.860   0.883
14522TIP3    H143509   7.843   2.934   0.943
14522TIP3    H243510   7.785   2.884   0.812
14523TIP3   OH243511   7.974   2.808   0.584
14523TIP3    H143512   7.905   2.874   0.583
14523TIP3    H243513   7.962   2.759   0.503
14524TIP3   OH243514   7.331   2.681   1.148
14524TIP3    H143515   7.237   2.670   1.135
14524TIP3    H243516   7.351   2.628   1.225
14525TIP3   OH243517   4.377   3.827  -0.014
14525TIP3    H143518   4.392   3.871   0.070
14525TIP3    H243519   4.342   3.741   0.009
14526TIP3   OH243520   0.816   7.705   4.261
14526TIP3    H143521   0.754   7.755   4.315
14526TIP3    H243522   0.761   7.658   4.199
14527TIP3   OH243523   8.144   0.872   3.042
14527TIP3    H143524   8.240   0.869   3.052
14527TIP3    H243525   8.117   0.781   3.040
14528TIP3   OH243526   3.447   3.927   3.599
14528TIP3    H143527   3.387   3.853   3.586
14528TIP3    H243528   3.405   4.000   3.553
14529TIP3   OH243529   7.454   5.077   0.501
14529TIP3    H143530   7.515   5.093   0.429
14529TIP3    H243531   7.371   5.056   0.457
14530TIP3   OH243532   1.160   1.910   3.602
14530TIP3    H143533   1.234   1.971   3.604
14530TIP3    H243534   1.125   1.918   3.514
14531TIP3   OH243535   6.105   7.200   0.327
14531TIP3    H143536   6.115   7.240   0.240
14531TIP3    H243537   6.035   7.250   0.369
14532TIP3   OH243538   4.222   6.454   3.817
14532TIP3    H143539   4.246   6.528   3.763
14532TIP3    H243540   4.126   6.453   3.817
14533TIP3   OH243541   5.708   4.411   4.300
14533TIP3    H143542   5.715   4.505   4.283
14533TIP3    H243543   5.743   4.370   4.221
14534TIP3   OH243544   1.645   1.259   5.181
14534TIP3    H143545   1.651   1.164   5.188
14534TIP3    H243546   1.675   1.291   5.266
14535TIP3   OH243547   8.240   6.727   5.302
14535TIP3    H143548   8.178   6.659   5.329
14535TIP3    H243549   8.219   6.743   5.210
14536TIP3   OH243550   3.314   7.364   4.584
14536TIP3    H143551   3.322   7.358   4.679
14536TIP3    H243552   3.317   7.458   4.566
14537TIP3   OH243553   5.880   6.229   1.295
14537TIP3    H143554   5.955   6.250   1.238
14537TIP3    H243555   5.918   6.178   1.366
14538TIP3   OH243556   1.143   5.231   4.953
14538TIP3    H143557   1.201   5.267   5.020
14538TIP3    H243558   1.105   5.153   4.995
14539TIP3   OH243559   1.735   4.896   4.667
14539TIP3    H143560   1.757   4.945   4.588
14539TIP3    H243561   1.769   4.808   4.651
14540TIP3   OH243562   5.743   6.199   6.148
14540TIP3    H143563   5.668   6.145   6.122
14540TIP3    H243564   5.739   6.275   6.091
14541TIP3   OH243565   0.452   0.948   4.415
14541TIP3    H143566   0.478   0.867   4.457
14541TIP3    H243567   0.409   0.920   4.334
14542TIP3   OH243568   1.518   2.415   0.176
14542TIP3    H143569   1.438   2.412   0.122
14542TIP3    H243570   1.571   2.483   0.136
14543TIP3   OH243571   7.810   0.047   4.923
14543TIP3    H143572   7.783   0.028   5.013
14543TIP3    H243573   7.895   0.004   4.914
14544TIP3   OH243574   4.803   7.191   1.929
14544TIP3    H143575   4.852   7.160   2.006
14544TIP3    H243576   4.767   7.276   1.956
14545TIP3   OH243577   6.317   7.620   1.361
14545TIP3    H143578   6.227   7.590   1.374
14545TIP3    H243579   6.354   7.623   1.450
14546TIP3   OH243580   5.528   7.141   4.263
14546TIP3    H143581   5.596   7.170   4.324
14546TIP3    H243582   5.454   7.199   4.280
14547TIP3   OH243583   6.185   0.072   5.095
14547TIP3    H143584   6.204   0.165   5.108
14547TIP3    H243585   6.206   0.032   5.179
14548TIP3   OH243586   6.194   7.376   4.053
14548TIP3    H143587   6.160   7.438   3.989
14548TIP3    H243588   6.121   7.316   4.069
14549TIP3   OH243589   6.864   6.105   1.502
14549TIP3    H143590   6.804   6.030   1.509
14549TIP3    H243591   6.892   6.121   1.591
14550TIP3   OH243592   0.259   2.749   3.681
14550TIP3    H143593   0.282   2.722   3.592
14550TIP3    H243594   0.343   2.770   3.722
14551TIP3   OH243595   0.545   5.827   6.585
14551TIP3    H143596   0.586   5.875   6.513
14551TIP3    H243597   0.548   5.735   6.558
14552TIP3   OH243598   1.618   3.652   5.748
14552TIP3    H143599   1.609   3.714   5.820
14552TIP3    H243600   1.636   3.706   5.671
14553TIP3   OH243601   3.978   2.640   5.761
14553TIP3    H143602   3.980   2.558   5.811
14553TIP3    H243603   3.885   2.661   5.754
14554TIP3   OH243604   5.396   2.621   5.477
14554TIP3    H143605   5.347   2.681   5.421
14554TIP3    H243606   5.481   2.663   5.489
14555TIP3   OH243607   4.297   7.446   3.970
14555TIP3    H143608   4.284   7.352   3.986
14555TIP3    H243609   4.377   7.467   4.019
14556TIP3   OH243610   5.888   7.685   0.410
14556TIP3    H143611   5.950   7.700   0.480
14556TIP3    H243612   5.803   7.678   0.454
14557TIP3   OH243613   5.012   6.340   4.385
14557TIP3    H143614   5.003   6.411   4.449
14557TIP3    H243615   5.106   6.323   4.381
14558TIP3   OH243616   2.264   4.091   2.569
14558TIP3    H143617   2.343   4.130   2.532
14558TIP3    H243618   2.192   4.132   2.520
14559TIP3   OH243619   1.781   1.012   6.266
14559TIP3    H143620   1.798   1.072   6.194
14559TIP3    H243621   1.696   0.973   6.246
14560TIP3   OH243622   3.357   3.940   3.310
14560TIP3    H143623   3.342   3.862   3.256
14560TIP3    H243624   3.269   3.978   3.322
14561TIP3   OH243625   7.918   0.110   4.681
14561TIP3    H143626   7.953   0.194   4.652
14561TIP3    H243627   7.870   0.130   4.761
14562TIP3   OH243628   7.182   4.312   2.402
14562TIP3    H143629   7.268   4.330   2.441
14562TIP3    H243630   7.124   4.377   2.441
14563TIP3   OH243631   3.846   2.455   0.827
14563TIP3    H143632   3.877   2.475   0.916
14563TIP3    H243633   3.800   2.372   0.836
14564TIP3   OH243634   6.174   5.217   3.690
14564TIP3    H143635   6.079   5.214   3.696
14564TIP3    H243636   6.198   5.134   3.648
14565TIP3   OH243637   4.107   0.925   2.598
14565TIP3    H143638   4.089   1.011   2.559
14565TIP3    H243639   4.112   0.865   2.524
14566TIP3   OH243640   7.817   6.800   3.238
14566TIP3    H143641   7.739   6.855   3.246
14566TIP3    H243642   7.890   6.857   3.261
14567TIP3   OH243643   5.422   7.793   1.557
14567TIP3    H143644   5.512   7.826   1.560
14567TIP3    H243645   5.416   7.750   1.471
14568TIP3   OH243646   4.842   2.694   2.243
14568TIP3    H143647   4.913   2.687   2.179
14568TIP3    H243648   4.878   2.750   2.312
14569TIP3   OH243649   0.829   5.096   3.333
14569TIP3    H143650   0.754   5.037   3.331
14569TIP3    H243651   0.898   5.046   3.375
14570TIP3   OH243652   4.032   0.837   3.173
14570TIP3    H143653   4.070   0.835   3.086
14570TIP3    H243654   4.106   0.826   3.233
14571TIP3   OH243655   3.117   0.494   2.664
14571TIP3    H143656   3.161   0.425   2.614
14571TIP3    H243657   3.133   0.470   2.756
14572TIP3   OH243658   4.187   6.914   2.902
14572TIP3    H143659   4.263   6.876   2.946
14572TIP3    H243660   4.155   6.844   2.845
14573TIP3   OH243661   4.780   5.046   2.337
14573TIP3    H143662   4.830   5.058   2.256
14573TIP3    H243663   4.688   5.053   2.310
14574TIP3   OH243664   7.147   6.875   2.710
14574TIP3    H143665   7.052   6.870   2.706
14574TIP3    H243666   7.175   6.790   2.743
14575TIP3   OH243667   2.176   0.230   5.460
14575TIP3    H143668   2.228   0.168   5.510
14575TIP3    H243669   2.111   0.177   5.414
14576TIP3   OH243670   3.609   5.919   4.164
14576TIP3    H143671   3.664   5.881   4.233
14576TIP3    H243672   3.671   5.947   4.097
14577TIP3   OH243673   0.100   4.959   4.223
14577TIP3    H143674   0.108   5.034   4.165
14577TIP3    H243675   0.171   4.970   4.287
14578TIP3   OH243676   4.064   2.336   2.058
14578TIP3    H143677   4.050   2.337   2.153
14578TIP3    H243678   3.991   2.387   2.023
14579TIP3   OH243679   6.096   5.117   0.396
14579TIP3    H143680   6.191   5.101   0.396
14579TIP3    H243681   6.086   5.202   0.353
14580TIP3   OH243682   6.493   7.548   3.534
14580TIP3    H143683   6.427   7.606   3.496
14580TIP3    H243684   6.569   7.556   3.477
14581TIP3   OH243685   6.519   4.799   3.194
14581TIP3    H143686   6.603   4.759   3.213
14581TIP3    H243687   6.526   4.828   3.103
14582TIP3   OH243688   3.035   5.659   1.500
14582TIP3    H143689   2.997   5.741   1.469
14582TIP3    H243690   3.004   5.593   1.438
14583TIP3   OH243691   2.168   2.230   0.603
14583TIP3    H143692   2.201   2.276   0.680
14583TIP3    H243693   2.088   2.187   0.634
14584TIP3   OH243694   2.844   3.097   5.616
14584TIP3    H143695   2.751   3.103   5.593
14584TIP3    H243696   2.878   3.029   5.557
14585TIP3   OH243697   4.285   3.861   6.441
14585TIP3    H143698   4.320   3.914   6.512
14585TIP3    H243699   4.220   3.917   6.399
14586TIP3   OH243700   5.299   5.760   2.117
14586TIP3    H143701   5.322   5.692   2.054
14586TIP3    H243702   5.383   5.786   2.155
14587TIP3   OH243703   6.615   2.961   2.553
14587TIP3    H143704   6.521   2.976   2.538
14587TIP3    H243705   6.618   2.878   2.601
14588TIP3   OH243706   5.972   5.810   3.606
14588TIP3    H143707   5.942   5.726   3.639
14588TIP3    H243708   5.897   5.869   3.618
14589TIP3   OH243709   6.181   1.661   6.577
14589TIP3    H143710   6.161   1.751   6.553
14589TIP3    H243711   6.272   1.648   6.551
14590TIP3   OH243712   3.690   1.164   0.785
14590TIP3    H143713   3.769   1.216   0.801
14590TIP3    H243714   3.701   1.086   0.840
14591TIP3   OH243715   1.413   3.758   3.533
14591TIP3    H143716   1.372   3.807   3.604
14591TIP3    H243717   1.350   3.763   3.461
14592TIP3   OH243718   5.298   6.664   2.527
14592TIP3    H143719   5.305   6.751   2.489
14592TIP3    H243720   5.382   6.649   2.571
14593TIP3   OH243721   4.133   5.417   6.145
14593TIP3    H143722   4.196   5.442   6.078
14593TIP3    H243723   4.101   5.331   6.116
14594TIP3   OH243724   5.213   7.208   2.929
14594TIP3    H143725   5.123   7.241   2.926
14594TIP3    H243726   5.258   7.267   2.989
14595TIP3   OH243727   3.741   2.214   0.830
14595TIP3    H143728   3.711   2.149   0.766
14595TIP3    H243729   3.773   2.162   0.904
14596TIP3   OH243730   5.096   3.808   4.818
14596TIP3    H143731   5.069   3.783   4.906
14596TIP3    H243732   5.051   3.891   4.801
14597TIP3   OH243733   1.779   0.285   3.881
14597TIP3    H143734   1.700   0.306   3.831
14597TIP3    H243735   1.852   0.308   3.823
14598TIP3   OH243736   6.117   1.440   1.223
14598TIP3    H143737   6.129   1.407   1.312
14598TIP3    H243738   6.203   1.471   1.197
14599TIP3   OH243739   2.308   3.926   0.126
14599TIP3    H143740   2.244   3.898   0.061
14599TIP3    H243741   2.308   3.855   0.191
14600TIP3   OH243742   7.639   0.308   5.777
14600TIP3    H143743   7.563   0.306   5.720
14600TIP3    H243744   7.641   0.222   5.818
14601TIP3   OH243745   1.742   5.287   4.281
14601TIP3    H143746   1.691   5.281   4.201
14601TIP3    H243747   1.803   5.214   4.276
14602TIP3   OH243748   6.629   3.740   4.305
14602TIP3    H143749   6.562   3.703   4.363
14602TIP3    H243750   6.579   3.789   4.239
14603TIP3   OH243751   1.778   2.872   1.016
14603TIP3    H143752   1.713   2.940   0.999
14603TIP3    H243753   1.840   2.879   0.943
14604TIP3   OH243754   0.648   2.324   3.577
14604TIP3    H143755   0.698   2.245   3.560
14604TIP3    H243756   0.673   2.350   3.666
14605TIP3   OH243757   7.345   2.414   6.278
14605TIP3    H143758   7.294   2.380   6.352
14605TIP3    H243759   7.328   2.508   6.278
14606TIP3   OH243760   8.323   5.494   0.676
14606TIP3    H143761   8.363   5.471   0.592
14606TIP3    H243762   8.349   5.422   0.735
14607TIP3   OH243763   1.135   1.027   0.578
14607TIP3    H143764   1.197   1.059   0.644
14607TIP3    H243765   1.179   0.951   0.539
14608TIP3   OH243766   0.421   2.427   3.338
14608TIP3    H143767   0.436   2.359   3.404
14608TIP3    H243768   0.509   2.453   3.311
14609TIP3   OH243769   0.232   0.146   2.094
14609TIP3    H143770   0.174   0.201   2.147
14609TIP3    H243771   0.177   0.115   2.022
14610TIP3   OH243772   7.128   4.606   0.269
14610TIP3    H143773   7.046   4.622   0.223
14610TIP3    H243774   7.121   4.660   0.348
14611TIP3   OH243775   0.597   3.517   6.551
14611TIP3    H143776   0.590   3.596   6.605
14611TIP3    H243777   0.571   3.446   6.609
14612TIP3   OH243778   0.377   6.688   0.902
14612TIP3    H143779   0.343   6.602   0.925
14612TIP3    H243780   0.301   6.747   0.908
14613TIP3   OH243781   8.020   0.871   6.437
14613TIP3    H143782   7.987   0.785   6.464
14613TIP3    H243783   8.115   0.866   6.451
14614TIP3   OH243784   0.671   2.764   0.289
14614TIP3    H143785   0.705   2.689   0.338
14614TIP3    H243786   0.576   2.750   0.289
14615TIP3   OH243787   8.283   3.856   1.203
14615TIP3    H143788   8.268   3.882   1.295
14615TIP3    H243789   8.367   3.810   1.205
14616TIP3   OH243790   7.568   2.685   3.722
14616TIP3    H143791   7.538   2.742   3.794
14616TIP3    H243792   7.651   2.650   3.752
14617TIP3   OH243793   0.654   3.191   3.497
14617TIP3    H143794   0.570   3.231   3.474
14617TIP3    H243795   0.676   3.137   3.421
14618TIP3   OH243796   6.594   6.285   6.038
14618TIP3    H143797   6.563   6.334   6.114
14618TIP3    H243798   6.686   6.310   6.029
14619TIP3   OH243799   6.756   1.102   4.130
14619TIP3    H143800   6.744   1.013   4.162
14619TIP3    H243801   6.838   1.100   4.082
14620TIP3   OH243802   0.367   6.628   1.738
14620TIP3    H143803   0.439   6.681   1.771
14620TIP3    H243804   0.387   6.613   1.646
14621TIP3   OH243805   1.936   2.010   0.468
14621TIP3    H143806   1.887   1.932   0.441
14621TIP3    H243807   1.888   2.044   0.543
14622TIP3   OH243808   4.592   7.851   2.131
14622TIP3    H143809   4.611   7.778   2.073
14622TIP3    H243810   4.620   7.928   2.082
14623TIP3   OH243811   6.508   2.038   4.164
14623TIP3    H143812   6.433   2.096   4.154
14623TIP3    H243813   6.563   2.082   4.228
14624TIP3   OH243814   7.916   4.507   5.123
14624TIP3    H143815   7.901   4.449   5.048
14624TIP3    H243816   8.011   4.511   5.132
14625TIP3   OH243817   5.059   1.044   6.545
14625TIP3    H143818   5.122   0.993   6.596
14625TIP3    H243819   5.037   1.118   6.601
14626TIP3   OH243820   3.887   7.112   4.683
14626TIP3    H143821   3.890   7.105   4.588
14626TIP3    H243822   3.915   7.201   4.702
14627TIP3   OH243823   0.586   2.748   5.783
14627TIP3    H143824   0.557   2.802   5.856
14627TIP3    H243825   0.562   2.798   5.704
14628TIP3   OH243826   3.703   7.492   3.055
14628TIP3    H143827   3.736   7.443   2.980
14628TIP3    H243828   3.680   7.578   3.019
14629TIP3   OH243829   2.112   0.804   1.229
14629TIP3    H143830   2.190   0.852   1.259
14629TIP3    H243831   2.059   0.794   1.308
14630TIP3   OH243832   4.316   3.584   3.975
14630TIP3    H143833   4.382   3.606   4.040
14630TIP3    H243834   4.365   3.545   3.903
14631TIP3   OH243835   4.529   5.692   2.676
14631TIP3    H143836   4.621   5.691   2.649
14631TIP3    H243837   4.517   5.608   2.720
14632TIP3   OH243838   3.305   5.803   4.296
14632TIP3    H143839   3.392   5.837   4.317
14632TIP3    H243840   3.290   5.827   4.205
14633TIP3   OH243841   5.678   5.990   5.903
14633TIP3    H143842   5.593   5.962   5.939
14633TIP3    H243843   5.724   5.908   5.885
14634TIP3   OH243844   0.149   6.579   4.791
14634TIP3    H143845   0.094   6.501   4.787
14634TIP3    H243846   0.169   6.599   4.699
14635TIP3   OH243847   3.162   2.509   4.648
14635TIP3    H143848   3.158   2.486   4.555
14635TIP3    H243849   3.256   2.518   4.667
14636TIP3   OH243850   5.105   7.756   2.628
14636TIP3    H143851   5.168   7.793   2.690
14636TIP3    H243852   5.031   7.817   2.629
14637TIP3   OH243853   7.953   5.490   4.481
14637TIP3    H143854   7.908   5.461   4.402
14637TIP3    H243855   8.045   5.468   4.466
14638TIP3   OH243856   3.121   2.742   3.387
14638TIP3    H143857   3.034   2.782   3.374
14638TIP3    H243858   3.180   2.817   3.396
14639TIP3   OH243859   4.629   7.196   0.213
14639TIP3    H143860   4.573   7.126   0.247
14639TIP3    H243861   4.676   7.156   0.140
14640TIP3   OH243862   2.700   0.168   1.908
14640TIP3    H143863   2.760   0.097   1.888
14640TIP3    H243864   2.733   0.205   1.990
14641TIP3   OH243865   5.585   6.486   2.868
14641TIP3    H143866   5.640   6.537   2.928
14641TIP3    H243867   5.561   6.407   2.918
14642TIP3   OH243868   6.589   2.834   6.015
14642TIP3    H143869   6.540   2.773   5.959
14642TIP3    H243870   6.532   2.849   6.090
14643TIP3   OH243871   0.998   4.738   6.160
14643TIP3    H143872   0.930   4.804   6.148
14643TIP3    H243873   0.960   4.657   6.127
14644TIP3   OH243874   5.099   7.383   3.607
14644TIP3    H143875   5.051   7.413   3.529
14644TIP3    H243876   5.157   7.456   3.628
14645TIP3   OH243877   1.309   5.678   1.628
14645TIP3    H143878   1.387   5.643   1.671
14645TIP3    H243879   1.238   5.662   1.691
14646TIP3   OH243880   7.357   1.321   6.023
14646TIP3    H143881   7.346   1.403   6.072
14646TIP3    H243882   7.338   1.344   5.932
14647TIP3   OH243883   3.749   4.389   2.335
14647TIP3    H143884   3.743   4.312   2.391
14647TIP3    H243885   3.669   4.439   2.354
14648TIP3   OH243886   2.166   1.989   1.029
14648TIP3    H143887   2.217   2.012   1.107
14648TIP3    H243888   2.216   1.918   0.988
14649TIP3   OH243889   6.040   0.785   5.641
14649TIP3    H143890   6.040   0.825   5.727
14649TIP3    H243891   6.058   0.858   5.581
14650TIP3   OH243892   2.883   0.212   1.200
14650TIP3    H143893   2.883   0.184   1.108
14650TIP3    H243894   2.966   0.259   1.210
14651TIP3   OH243895   4.767   5.807   1.835
14651TIP3    H143896   4.841   5.791   1.893
14651TIP3    H243897   4.773   5.737   1.770
14652TIP3   OH243898   4.115   4.126   6.095
14652TIP3    H143899   4.140   4.043   6.054
14652TIP3    H243900   4.192   4.182   6.084
14653TIP3   OH243901   4.605   2.983   2.394
14653TIP3    H143902   4.531   3.035   2.426
14653TIP3    H243903   4.577   2.892   2.403
14654TIP3   OH243904   7.273   6.430   3.133
14654TIP3    H143905   7.193   6.425   3.185
14654TIP3    H243906   7.254   6.379   3.054
14655TIP3   OH243907   1.976   1.873   3.566
14655TIP3    H143908   1.969   1.801   3.504
14655TIP3    H243909   1.886   1.902   3.578
14656TIP3   OH243910   4.663   1.059   4.742
14656TIP3    H143911   4.580   1.050   4.696
14656TIP3    H243912   4.723   1.099   4.678
14657TIP3   OH243913   0.305   5.104   4.754
14657TIP3    H143914   0.360   5.026   4.759
14657TIP3    H243915   0.332   5.157   4.829
14658TIP3   OH243916   1.974   0.177   0.300
14658TIP3    H143917   2.036   0.172   0.227
14658TIP3    H243918   1.892   0.141   0.265
14659TIP3   OH243919   4.438   3.965   0.213
14659TIP3    H143920   4.474   3.910   0.282
14659TIP3    H243921   4.362   4.008   0.253
14660TIP3   OH243922   7.634   1.414   2.553
14660TIP3    H143923   7.679   1.331   2.537
14660TIP3    H243924   7.614   1.447   2.465
14661TIP3   OH243925   0.733   0.523   2.189
14661TIP3    H143926   0.730   0.605   2.140
14661TIP3    H243927   0.782   0.545   2.268
14662TIP3   OH243928   5.543   0.058   2.547
14662TIP3    H143929   5.485   0.037   2.620
14662TIP3    H243930   5.488   0.047   2.469
14663TIP3   OH243931   6.776   5.842   2.899
14663TIP3    H143932   6.855   5.890   2.878
14663TIP3    H243933   6.716   5.860   2.826
14664TIP3   OH243934   2.931   0.218   6.212
14664TIP3    H143935   2.926   0.123   6.221
14664TIP3    H243936   3.023   0.239   6.230
14665TIP3   OH243937   6.907   6.641   1.792
14665TIP3    H143938   6.878   6.667   1.704
14665TIP3    H243939   6.829   6.648   1.846
14666TIP3   OH243940   2.789   5.685   5.195
14666TIP3    H143941   2.782   5.745   5.269
14666TIP3    H243942   2.787   5.598   5.234
14667TIP3   OH243943   0.977   4.233   0.180
14667TIP3    H143944   0.954   4.222   0.088
14667TIP3    H243945   1.034   4.310   0.181
14668TIP3   OH243946   3.500   5.992   5.131
14668TIP3    H143947   3.542   5.911   5.103
14668TIP3    H243948   3.509   6.051   5.056
14669TIP3   OH243949   7.397   0.541   6.535
14669TIP3    H143950   7.378   0.474   6.470
14669TIP3    H243951   7.392   0.494   6.619
14670TIP3   OH243952   0.963   5.743   6.743
14670TIP3    H143953   0.935   5.831   6.720
14670TIP3    H243954   1.030   5.721   6.678
14671TIP3   OH243955   6.093   1.559   4.758
14671TIP3    H143956   6.126   1.487   4.703
14671TIP3    H243957   6.027   1.602   4.704
14672TIP3   OH243958   0.035   2.972   3.603
14672TIP3    H143959   0.114   2.929   3.636
14672TIP3    H243960   0.048   3.065   3.623
14673TIP3   OH243961   4.236   0.703   1.287
14673TIP3    H143962   4.184   0.676   1.211
14673TIP3    H243963   4.194   0.783   1.318
14674TIP3   OH243964   6.603   5.400   4.272
14674TIP3    H143965   6.615   5.356   4.356
14674TIP3    H243966   6.527   5.357   4.234
14675TIP3   OH243967   2.326   4.058   5.569
14675TIP3    H143968   2.296   4.134   5.519
14675TIP3    H243969   2.284   4.068   5.655
14676TIP3   OH243970   4.659   4.425   6.499
14676TIP3    H143971   4.594   4.490   6.476
14676TIP3    H243972   4.668   4.371   6.420
14677TIP3   OH243973   5.933   0.060   5.315
14677TIP3    H143974   5.866  -0.008   5.321
14677TIP3    H243975   6.016   0.014   5.323
14678TIP3   OH243976   6.082   1.928   4.812
14678TIP3    H143977   6.074   1.903   4.720
14678TIP3    H243978   5.992   1.938   4.843
14679TIP3   OH243979   3.870   1.684   2.668
14679TIP3    H143980   3.851   1.638   2.750
14679TIP3    H243981   3.928   1.756   2.695
14680TIP3   OH243982   5.133   3.834   1.654
14680TIP3    H143983   5.213   3.786   1.633
14680TIP3    H243984   5.141   3.916   1.605
14681TIP3   OH243985   6.406   1.761   3.546
14681TIP3    H143986   6.502   1.764   3.538
14681TIP3    H243987   6.389   1.771   3.639
14682TIP3   OH243988   1.681   2.190   3.512
14682TIP3    H143989   1.632   2.250   3.569
14682TIP3    H243990   1.660   2.220   3.423
14683TIP3   OH243991   3.625   2.737   2.578
14683TIP3    H143992   3.616   2.642   2.574
14683TIP3    H243993   3.575   2.769   2.502
14684TIP3   OH243994   4.562   7.352   5.037
14684TIP3    H143995   4.652   7.322   5.051
14684TIP3    H243996   4.544   7.329   4.946
14685TIP3   OH243997   8.104   6.317   2.705
14685TIP3    H143998   8.091   6.348   2.795
14685TIP3    H243999   8.044   6.368   2.652
14686TIP3   OH244000   1.878   2.758   3.249
14686TIP3    H144001   1.872   2.743   3.155
14686TIP3    H244002   1.823   2.688   3.287
14687TIP3   OH244003   1.398   6.766   5.921
14687TIP3    H144004   1.455   6.840   5.937
14687TIP3    H244005   1.454   6.689   5.931
14688TIP3   OH244006   4.845   3.832   0.492
14688TIP3    H144007   4.804   3.903   0.442
14688TIP3    H244008   4.869   3.873   0.576
14689TIP3   OH244009   1.515   1.231   0.527
14689TIP3    H144010   1.511   1.292   0.453
14689TIP3    H244011   1.607   1.231   0.553
14690TIP3   OH244012   4.896   4.049   3.896
14690TIP3    H144013   4.843   3.985   3.848
14690TIP3    H244014   4.853   4.057   3.981
14691TIP3   OH244015   1.994   5.206   6.286
14691TIP3    H144016   1.965   5.237   6.200
14691TIP3    H244017   2.042   5.280   6.323
14692TIP3   OH244018   5.692   1.700   1.075
14692TIP3    H144019   5.691   1.752   1.155
14692TIP3    H244020   5.606   1.656   1.073
14693TIP3   OH244021   2.077   0.140   5.122
14693TIP3    H144022   2.044   0.067   5.174
14693TIP3    H244023   2.024   0.215   5.149
14694TIP3   OH244024   6.079   1.571   6.082
14694TIP3    H144025   6.051   1.484   6.111
14694TIP3    H244026   6.174   1.564   6.075
14695TIP3   OH244027   4.980   4.432   0.313
14695TIP3    H144028   5.014   4.518   0.339
14695TIP3    H244029   4.923   4.406   0.385
14696TIP3   OH244030   7.794   6.250   0.378
14696TIP3    H144031   7.833   6.260   0.291
14696TIP3    H244032   7.829   6.323   0.429
14697TIP3   OH244033   5.216   2.973   3.977
14697TIP3    H144034   5.126   3.006   3.966
14697TIP3    H244035   5.261   3.042   4.027
14698TIP3   OH244036   6.904   5.359   5.844
14698TIP3    H144037   6.919   5.387   5.754
14698TIP3    H244038   6.873   5.268   5.836
14699TIP3   OH244039   4.935   2.657   0.824
14699TIP3    H144040   4.934   2.563   0.807
14699TIP3    H244041   5.002   2.691   0.765
14700TIP3   OH244042   5.060   4.325   4.959
14700TIP3    H144043   5.012   4.392   5.007
14700TIP3    H244044   5.035   4.243   5.003
14701TIP3   OH244045   3.083   5.186   2.769
14701TIP3    H144046   3.045   5.231   2.693
14701TIP3    H244047   3.133   5.114   2.732
14702TIP3   OH244048   5.931   1.673   5.315
14702TIP3    H144049   5.934   1.577   5.320
14702TIP3    H244050   5.981   1.694   5.236
14703TIP3   OH244051   5.904   1.991   1.264
14703TIP3    H144052   5.945   1.906   1.247
14703TIP3    H244053   5.818   1.984   1.223
14704TIP3   OH244054   4.954   6.657   4.342
14704TIP3    H144055   4.949   6.615   4.428
14704TIP3    H244056   5.033   6.622   4.302
14705TIP3   OH244057   7.357   5.336   1.620
14705TIP3    H144058   7.410   5.256   1.611
14705TIP3    H244059   7.282   5.322   1.562
14706TIP3   OH244060   8.259   2.615   2.942
14706TIP3    H144061   8.187   2.670   2.913
14706TIP3    H244062   8.245   2.605   3.036
14707TIP3   OH244063   4.417   3.603   4.493
14707TIP3    H144064   4.466   3.683   4.514
14707TIP3    H244065   4.462   3.568   4.416
14708TIP3   OH244066   7.250   2.778   5.862
14708TIP3    H144067   7.298   2.794   5.780
14708TIP3    H244068   7.313   2.734   5.919
14709TIP3   OH244069   3.435   7.000   1.143
14709TIP3    H144070   3.480   6.942   1.205
14709TIP3    H244071   3.467   6.972   1.057
14710TIP3   OH244072   3.521   6.261   5.926
14710TIP3    H144073   3.587   6.194   5.909
14710TIP3    H244074   3.484   6.280   5.840
14711TIP3   OH244075   4.720   0.048   0.787
14711TIP3    H144076   4.690   0.138   0.772
14711TIP3    H244077   4.644   0.003   0.823
14712TIP3   OH244078   0.675   4.625   2.886
14712TIP3    H144079   0.674   4.715   2.919
14712TIP3    H244080   0.598   4.584   2.925
14713TIP3   OH244081   8.128   1.363   1.588
14713TIP3    H144082   8.105   1.276   1.621
14713TIP3    H244083   8.208   1.350   1.538
14714TIP3   OH244084   6.556   1.257   1.051
14714TIP3    H144085   6.499   1.238   1.125
14714TIP3    H244086   6.546   1.350   1.035
14715TIP3   OH244087   3.994   4.685   5.034
14715TIP3    H144088   3.915   4.704   5.085
14715TIP3    H244089   4.064   4.730   5.081
14716TIP3   OH244090   4.500   5.150   5.848
14716TIP3    H144091   4.420   5.099   5.855
14716TIP3    H244092   4.471   5.241   5.845
14717TIP3   OH244093   0.080   6.444   2.901
14717TIP3    H144094   0.079   6.451   2.806
14717TIP3    H244095   0.103   6.531   2.932
14718TIP3   OH244096   4.066   5.744   1.940
14718TIP3    H144097   4.115   5.820   1.910
14718TIP3    H244098   4.096   5.672   1.884
14719TIP3   OH244099   5.231   0.372   2.265
14719TIP3    H144100   5.327   0.366   2.260
14719TIP3    H244101   5.200   0.291   2.224
14720TIP3   OH244102   0.784   6.655   2.504
14720TIP3    H144103   0.734   6.574   2.516
14720TIP3    H244104   0.724   6.724   2.531
14721TIP3   OH244105   2.654   5.474   1.232
14721TIP3    H144106   2.692   5.449   1.317
14721TIP3    H244107   2.560   5.471   1.247
14722TIP3   OH244108   7.904   4.471   5.395
14722TIP3    H144109   7.878   4.490   5.305
14722TIP3    H244110   7.828   4.494   5.448
14723TIP3   OH244111   6.611   0.746   3.303
14723TIP3    H144112   6.563   0.702   3.233
14723TIP3    H244113   6.702   0.724   3.287
14724TIP3   OH244114   0.853   5.115   1.537
14724TIP3    H144115   0.885   5.045   1.481
14724TIP3    H244116   0.826   5.184   1.476
14725TIP3   OH244117   1.217   2.263   4.835
14725TIP3    H144118   1.175   2.344   4.866
14725TIP3    H244119   1.292   2.250   4.894
14726TIP3   OH244120   5.590   0.792   3.676
14726TIP3    H144121   5.510   0.767   3.630
14726TIP3    H244122   5.638   0.710   3.685
14727TIP3   OH244123   5.372   6.985   5.427
14727TIP3    H144124   5.286   6.944   5.434
14727TIP3    H244125   5.353   7.078   5.411
14728TIP3   OH244126   4.697   6.192   3.687
14728TIP3    H144127   4.734   6.242   3.759
14728TIP3    H244128   4.652   6.119   3.730
14729TIP3   OH244129   5.152   0.683   5.383
14729TIP3    H144130   5.127   0.733   5.305
14729TIP3    H244131   5.215   0.739   5.428
14730TIP3   OH244132   7.942   2.368   4.415
14730TIP3    H144133   7.920   2.460   4.403
14730TIP3    H244134   8.022   2.355   4.365
14731TIP3   OH244135   2.198   4.051   0.656
14731TIP3    H144136   2.138   4.097   0.597
14731TIP3    H244137   2.181   4.088   0.742
14732TIP3   OH244138   5.781   4.336   6.246
14732TIP3    H144139   5.768   4.392   6.170
14732TIP3    H244140   5.701   4.345   6.298
14733TIP3   OH244141   3.437   0.390   0.254
14733TIP3    H144142   3.436   0.366   0.161
14733TIP3    H244143   3.522   0.360   0.286
14734TIP3   OH244144   6.430   0.138   4.900
14734TIP3    H144145   6.377   0.080   4.955
14734TIP3    H244146   6.421   0.224   4.941
14735TIP3   OH244147   5.215   3.156   4.472
14735TIP3    H144148   5.236   3.204   4.552
14735TIP3    H244149   5.123   3.132   4.483
14736TIP3   OH244150   1.522   6.892   0.664
14736TIP3    H144151   1.485   6.852   0.742
14736TIP3    H244152   1.597   6.942   0.696
14737TIP3   OH244153   0.972   6.043   4.952
14737TIP3    H144154   0.894   5.989   4.941
14737TIP3    H244155   0.939   6.132   4.962
14738TIP3   OH244156   4.819   6.144   5.948
14738TIP3    H144157   4.904   6.188   5.936
14738TIP3    H244158   4.836   6.075   6.011
14739TIP3   OH244159   7.699   0.209   5.454
14739TIP3    H144160   7.753   0.151   5.401
14739TIP3    H244161   7.645   0.151   5.507
14740TIP3   OH244162   5.991   0.969   2.123
14740TIP3    H144163   5.997   0.882   2.162
14740TIP3    H244164   6.031   0.960   2.037
14741TIP3   OH244165   1.223   1.264   0.022
14741TIP3    H144166   1.182   1.223   0.098
14741TIP3    H244167   1.283   1.328   0.059
14742TIP3   OH244168   5.787   2.399   6.343
14742TIP3    H144169   5.763   2.307   6.353
14742TIP3    H244170   5.770   2.418   6.250
14743TIP3   OH244171   2.073   6.348   1.221
14743TIP3    H144172   2.132   6.349   1.297
14743TIP3    H244173   2.129   6.370   1.147
14744TIP3   OH244174   6.680   5.175   5.151
14744TIP3    H144175   6.723   5.112   5.209
14744TIP3    H244176   6.728   5.257   5.163
14745TIP3   OH244177   1.477   0.815   1.937
14745TIP3    H144178   1.416   0.743   1.950
14745TIP3    H244179   1.521   0.796   1.854
14746TIP3   OH244180   3.866   4.683   3.417
14746TIP3    H144181   3.855   4.599   3.463
14746TIP3    H244182   3.960   4.697   3.416
14747TIP3   OH244183   7.443   4.553   5.877
14747TIP3    H144184   7.383   4.504   5.932
14747TIP3    H244185   7.522   4.500   5.874
14748TIP3   OH244186   3.633  -0.022   5.791
14748TIP3    H144187   3.559   0.004   5.846
14748TIP3    H244188   3.656   0.057   5.743
14749TIP3   OH244189   8.152   0.163   3.739
14749TIP3    H144190   8.172   0.199   3.825
14749TIP3    H244191   8.073   0.110   3.753
14750TIP3   OH244192   5.437   2.621   0.302
14750TIP3    H144193   5.361   2.648   0.251
14750TIP3    H244194   5.510   2.673   0.267
14751TIP3   OH244195   0.658   5.234   4.509
14751TIP3    H144196   0.732   5.286   4.476
14751TIP3    H244197   0.641   5.270   4.596
14752TIP3   OH244198   0.907   6.724   2.819
14752TIP3    H144199   0.880   6.815   2.833
14752TIP3    H244200   0.948   6.723   2.733
14753TIP3   OH244201   4.266   1.978   4.188
14753TIP3    H144202   4.202   2.004   4.122
14753TIP3    H244203   4.214   1.952   4.264
14754TIP3   OH244204   6.285   1.235   4.101
14754TIP3    H144205   6.322   1.272   4.020
14754TIP3    H244206   6.198   1.205   4.075
14755TIP3   OH244207   3.428   6.367   3.009
14755TIP3    H144208   3.436   6.405   2.922
14755TIP3    H244209   3.353   6.307   3.003
14756TIP3   OH244210   7.474   4.249   6.028
14756TIP3    H144211   7.425   4.300   6.093
14756TIP3    H244212   7.560   4.236   6.068
14757TIP3   OH244213   1.837   7.320   5.640
14757TIP3    H144214   1.772   7.319   5.569
14757TIP3    H244215   1.868   7.410   5.643
14758TIP3   OH244216   3.891   1.365   0.806
14758TIP3    H144217   3.862   1.416   0.731
14758TIP3    H244218   3.946   1.425   0.856
14759TIP3   OH244219   6.846   1.427   5.954
14759TIP3    H144220   6.895   1.483   5.894
14759TIP3    H244221   6.858   1.468   6.039
14760TIP3   OH244222   6.271   7.499   2.231
14760TIP3    H144223   6.311   7.559   2.294
14760TIP3    H244224   6.179   7.524   2.229
14761TIP3   OH244225   7.821   1.979   0.386
14761TIP3    H144226   7.735   1.993   0.348
14761TIP3    H244227   7.881   1.977   0.312
14762TIP3   OH244228   0.208   2.423   1.948
14762TIP3    H144229   0.226   2.442   1.856
14762TIP3    H244230   0.227   2.505   1.994
14763TIP3   OH244231   6.753   5.843   0.481
14763TIP3    H144232   6.756   5.870   0.390
14763TIP3    H244233   6.834   5.876   0.519
14764TIP3   OH244234   5.928   1.461   2.659
14764TIP3    H144235   5.846   1.475   2.705
14764TIP3    H244236   5.915   1.500   2.572
14765TIP3   OH244237   6.370   2.980   1.093
14765TIP3    H144238   6.410   3.029   1.164
14765TIP3    H244239   6.441   2.967   1.030
14766TIP3   OH244240   1.322   2.822   3.001
14766TIP3    H144241   1.261   2.848   3.070
14766TIP3    H244242   1.408   2.836   3.039
14767TIP3   OH244243   0.964   5.129   2.500
14767TIP3    H144244   0.916   5.205   2.468
14767TIP3    H244245   0.982   5.149   2.592
14768TIP3   OH244246   3.460   4.124   0.832
14768TIP3    H144247   3.467   4.036   0.869
14768TIP3    H244248   3.369   4.131   0.803
14769TIP3   OH244249   0.554   6.656   6.172
14769TIP3    H144250   0.531   6.745   6.198
14769TIP3    H244251   0.586   6.665   6.082
14770TIP3   OH244252   7.354   1.910   6.548
14770TIP3    H144253   7.396   1.844   6.603
14770TIP3    H244254   7.357   1.990   6.600
14771TIP3   OH244255   6.995   2.902   0.432
14771TIP3    H144256   7.019   2.856   0.352
14771TIP3    H244257   7.069   2.889   0.491
14772TIP3   OH244258   4.611   4.351   5.884
14772TIP3    H144259   4.523   4.324   5.855
14772TIP3    H244260   4.653   4.383   5.804
14773TIP3   OH244261   8.208   0.401   4.278
14773TIP3    H144262   8.171   0.397   4.366
14773TIP3    H244263   8.239   0.491   4.269
14774TIP3   OH244264   4.056   3.725   0.373
14774TIP3    H144265   4.019   3.643   0.341
14774TIP3    H244266   4.151   3.712   0.370
14775TIP3   OH244267   8.321   1.388   0.014
14775TIP3    H144268   8.322   1.476  -0.022
14775TIP3    H244269   8.229   1.360   0.006
14776TIP3   OH244270   8.105   4.734   4.941
14776TIP3    H144271   8.143   4.649   4.921
14776TIP3    H244272   8.021   4.713   4.983
14777TIP3   OH244273   7.268   5.991   1.711
14777TIP3    H144274   7.280   6.079   1.675
14777TIP3    H244275   7.351   5.971   1.754
14778TIP3   OH244276   2.705   1.369   2.422
14778TIP3    H144277   2.679   1.300   2.362
14778TIP3    H244278   2.626   1.389   2.472
14779TIP3   OH244279   0.017   1.478   1.838
14779TIP3    H144280  -0.065   1.506   1.877
14779TIP3    H244281   0.010   1.500   1.745
14780TIP3   OH244282   6.951   7.177   4.037
14780TIP3    H144283   6.975   7.085   4.028
14780TIP3    H244284   6.855   7.177   4.028
14781TIP3   OH244285   7.863   2.025   2.030
14781TIP3    H144286   7.857   2.099   1.970
14781TIP3    H244287   7.820   2.054   2.110
14782TIP3   OH244288   4.458   2.254   2.626
14782TIP3    H144289   4.413   2.339   2.631
14782TIP3    H244290   4.536   2.264   2.681
14783TIP3   OH244291   2.386   3.605   0.061
14783TIP3    H144292   2.468   3.655   0.066
14783TIP3    H244293   2.393   3.539   0.130
14784TIP3   OH244294   5.369   4.731   0.895
14784TIP3    H144295   5.275   4.742   0.884
14784TIP3    H244296   5.387   4.766   0.983
14785TIP3   OH244297   5.984   1.527   3.506
14785TIP3    H144298   5.968   1.576   3.587
14785TIP3    H244299   6.055   1.574   3.462
14786TIP3   OH244300   5.826   1.955   1.520
14786TIP3    H144301   5.776   2.022   1.566
14786TIP3    H244302   5.847   1.995   1.435
14787TIP3   OH244303   0.366   4.686   2.234
14787TIP3    H144304   0.319   4.670   2.316
14787TIP3    H244305   0.309   4.746   2.185
14788TIP3   OH244306   1.637   2.492   6.128
14788TIP3    H144307   1.623   2.555   6.198
14788TIP3    H244308   1.568   2.427   6.140
14789TIP3   OH244309   0.698   1.288   2.600
14789TIP3    H144310   0.761   1.339   2.550
14789TIP3    H244311   0.614   1.331   2.586
14790TIP3   OH244312   0.785   1.136   1.688
14790TIP3    H144313   0.871   1.097   1.673
14790TIP3    H244314   0.802   1.211   1.745
14791TIP3   OH244315   1.109   1.344   3.336
14791TIP3    H144316   1.125   1.292   3.415
14791TIP3    H244317   1.141   1.289   3.264
14792TIP3   OH244318   0.263   3.762   0.212
14792TIP3    H144319   0.257   3.670   0.237
14792TIP3    H244320   0.357   3.781   0.215
14793TIP3   OH244321   2.237   2.230   5.165
14793TIP3    H144322   2.325   2.195   5.154
14793TIP3    H244323   2.242   2.281   5.247
14794TIP3   OH244324  -0.002   1.488   6.804
14794TIP3    H144325   0.018   1.520   6.716
14794TIP3    H244326   0.040   1.402   6.808
14795TIP3   OH244327   0.497   3.733   3.096
14795TIP3    H144328   0.451   3.739   3.012
14795TIP3    H244329   0.558   3.659   3.085
14796TIP3   OH244330   2.465   0.396   2.006
14796TIP3    H144331   2.378   0.359   2.025
14796TIP3    H244332   2.512   0.389   2.089
14797TIP3   OH244333   4.297   3.042   6.331
14797TIP3    H144334   4.214   3.088   6.314
14797TIP3    H244335   4.365   3.108   6.316
14798TIP3   OH244336   4.089   6.935   3.888
14798TIP3    H144337   4.146   6.890   3.951
14798TIP3    H244338   4.014   6.963   3.940
14799TIP3   OH244339   5.727   2.809   4.544
14799TIP3    H144340   5.716   2.856   4.461
14799TIP3    H244341   5.800   2.749   4.528
14800TIP3   OH244342   3.681   5.188   2.904
14800TIP3    H144343   3.587   5.178   2.892
14800TIP3    H244344   3.717   5.100   2.897
14801TIP3   OH244345   1.832   1.441   1.987
14801TIP3    H144346   1.807   1.352   1.963
14801TIP3    H244347   1.832   1.441   2.083
14802TIP3   OH244348   4.937   3.886   2.618
14802TIP3    H144349   5.004   3.827   2.652
14802TIP3    H244350   4.973   3.919   2.536
14803TIP3   OH244351   0.647   6.816   2.717
14803TIP3    H144352   0.702   6.875   2.768
14803TIP3    H244353   0.604   6.761   2.783
14804TIP3   OH244354   5.150   2.153   0.257
14804TIP3    H144355   5.055   2.147   0.264
14804TIP3    H244356   5.177   2.067   0.227
14805TIP3   OH244357   6.367   0.291   6.114
14805TIP3    H144358   6.434   0.245   6.165
14805TIP3    H244359   6.284   0.261   6.152
14806TIP3   OH244360   8.031   5.652   1.111
14806TIP3    H144361   8.000   5.652   1.021
14806TIP3    H244362   8.100   5.586   1.113
14807TIP3   OH244363   6.393   6.535   3.996
14807TIP3    H144364   6.365   6.593   3.926
14807TIP3    H244365   6.312   6.507   4.038
14808TIP3   OH244366   7.368   6.916   5.573
14808TIP3    H144367   7.324   6.832   5.562
14808TIP3    H244368   7.298   6.981   5.571
14809TIP3   OH244369   7.258   5.975   5.073
14809TIP3    H144370   7.227   6.059   5.107
14809TIP3    H244371   7.312   5.939   5.144
14810TIP3   OH244372   7.204   5.275   1.176
14810TIP3    H144373   7.165   5.193   1.145
14810TIP3    H244374   7.192   5.336   1.103
14811TIP3   OH244375   1.528   7.522   4.516
14811TIP3    H144376   1.517   7.452   4.580
14811TIP3    H244377   1.445   7.527   4.470
14812TIP3   OH244378   4.635   1.800   4.019
14812TIP3    H144379   4.707   1.764   4.071
14812TIP3    H244380   4.619   1.887   4.057
14813TIP3   OH244381   5.475   2.847   0.860
14813TIP3    H144382   5.500   2.759   0.889
14813TIP3    H244383   5.461   2.838   0.765
14814TIP3   OH244384   2.566   7.578   3.205
14814TIP3    H144385   2.596   7.639   3.272
14814TIP3    H244386   2.645   7.557   3.154
14815TIP3   OH244387   1.421   6.134   1.906
14815TIP3    H144388   1.345   6.171   1.951
14815TIP3    H244389   1.384   6.070   1.845
14816TIP3   OH244390   5.116   1.891   3.438
14816TIP3    H144391   5.114   1.971   3.386
14816TIP3    H244392   5.101   1.821   3.375
14817TIP3   OH244393   3.651   0.576   6.231
14817TIP3    H144394   3.708   0.640   6.273
14817TIP3    H244395   3.621   0.619   6.151
14818TIP3   OH244396   3.872   2.628   3.684
14818TIP3    H144397   3.884   2.611   3.591
14818TIP3    H244398   3.957   2.608   3.723
14819TIP3   OH244399   5.389   0.276   3.332
14819TIP3    H144400   5.317   0.295   3.393
14819TIP3    H244401   5.345   0.258   3.248
14820TIP3   OH244402   2.224   2.913   0.702
14820TIP3    H144403   2.281   2.910   0.625
14820TIP3    H244404   2.136   2.926   0.665
14821TIP3   OH244405   2.460   7.040   3.899
14821TIP3    H144406   2.472   7.015   3.808
14821TIP3    H244407   2.549   7.045   3.934
14822TIP3   OH244408   2.664   4.394   3.176
14822TIP3    H144409   2.746   4.352   3.203
14822TIP3    H244410   2.606   4.321   3.154
14823TIP3   OH244411   7.881   5.576   2.565
14823TIP3    H144412   7.820   5.650   2.565
14823TIP3    H244413   7.955   5.605   2.513
14824TIP3   OH244414   1.318   1.732   3.923
14824TIP3    H144415   1.368   1.651   3.912
14824TIP3    H244416   1.241   1.705   3.974
14825TIP3   OH244417   2.952   0.498   5.252
14825TIP3    H144418   2.914   0.570   5.202
14825TIP3    H244419   2.923   0.513   5.342
14826TIP3   OH244420   6.224   1.641   3.388
14826TIP3    H144421   6.296   1.668   3.445
14826TIP3    H244422   6.259   1.567   3.338
14827TIP3   OH244423   6.543   4.301   0.877
14827TIP3    H144424   6.463   4.322   0.925
14827TIP3    H244425   6.515   4.295   0.786
14828TIP3   OH244426   3.205   0.625   5.164
14828TIP3    H144427   3.227   0.709   5.204
14828TIP3    H244428   3.168   0.573   5.236
14829TIP3   OH244429   3.592   1.797   1.829
14829TIP3    H144430   3.622   1.742   1.757
14829TIP3    H244431   3.498   1.780   1.836
14830TIP3   OH244432   6.511   7.142   4.553
14830TIP3    H144433   6.586   7.083   4.556
14830TIP3    H244434   6.543   7.223   4.594
   8.30314   7.82828   6.77948   0.00000   0.00000  -2.76771   0.00000  -2.76771  -3.91413
